<event>
 8    1  0.8577104E-014  0.8385783E+02  0.7818608E-02  0.1318447E+00
         -2   -1    0    0    0  501 -0.00000000000E+00  0.00000000000E+00  0.21101128411E+03  0.21101128412E+03  0.25500000000E-02 0.  1.
          1   -1    0    0  501    0  0.00000000000E+00 -0.00000000000E+00 -0.83314680163E+01  0.83314695407E+01  0.50400000000E-02 0. -1.
        -24    2    1    2    0    0  0.71054273576E-14 -0.88817841970E-15  0.20267981609E+03  0.21934275366E+03  0.83857830487E+02 0.  0.
         66    2    3    3    0    0  0.38294874344E+02 -0.60524527009E+01  0.14299357694E+03  0.14816981012E+03  0.20000000408E+01 0.  0.
         13    1    3    3    0    0 -0.38294874344E+02  0.60524527009E+01  0.59686239156E+02  0.71172943548E+02  0.10566000000E+00 0. -1.
         13    1    4    4    0    0  0.23988583672E+02 -0.37151031584E+01  0.90425067850E+02  0.93626695968E+02  0.10566000000E+00 0. -1.
        -13    1    4    4    0    0  0.43176597337E+01 -0.12237175037E+01  0.15669833800E+02  0.16300138818E+02  0.10566000000E+00 0.  1.
        -14    1    4    4    0    0  0.99886309382E+01 -0.11136320388E+01  0.36898675285E+02  0.38242975331E+02  0.00000000000E+00 0.  1.
<mgrwt>
<rscale>  0 0.83857830E+02</rscale>
<asrwt>0</asrwt>
<pdfrwt beam="1">  1        1 0.12817644E-02 0.83857830E+02</pdfrwt>
<pdfrwt beam="2">  1       -2 0.32463275E-01 0.83857830E+02</pdfrwt>
<totfact> 0.73675779E+04</totfact>
</mgrwt>
</event>
<event>
 8    1  0.8577104E-014  0.7656112E+02  0.7818608E-02  0.1339104E+00
          1   -1    0    0  501    0  0.00000000000E+00  0.00000000000E+00  0.81293219947E+02  0.81293220103E+02  0.50400000000E-02 0. -1.
         -2   -1    0    0    0  501 -0.00000000000E+00 -0.00000000000E+00 -0.18026118092E+02  0.18026118272E+02  0.25500000000E-02 0.  1.
        -24    2    1    2    0    0  0.00000000000E+00  0.00000000000E+00  0.63267101855E+02  0.99319338375E+02  0.76561118057E+02 0.  0.
         66    2    3    3    0    0  0.29930694752E+02  0.15884923970E+02  0.86230719445E+01  0.35021916446E+02  0.19999909809E+01 0.  0.
         13    1    3    3    0    0 -0.29930694752E+02 -0.15884923970E+02  0.54644029910E+02  0.64297421929E+02  0.10566000000E+00 0. -1.
         13    1    4    4    0    0  0.40457205381E+01  0.20575071078E+01  0.17978952720E+01  0.48831118783E+01  0.10566000000E+00 0. -1.
        -13    1    4    4    0    0  0.18197044560E+02  0.93605002960E+01  0.46620116856E+01  0.20988018332E+02  0.10566000000E+00 0.  1.
        -14    1    4    4    0    0  0.76879296531E+01  0.44669165666E+01  0.21631649870E+01  0.91507862354E+01  0.00000000000E+00 0.  1.
<mgrwt>
<rscale>  0 0.76561118E+02</rscale>
<asrwt>0</asrwt>
<pdfrwt beam="1">  1        1 0.12506649E-01 0.76561118E+02</pdfrwt>
<pdfrwt beam="2">  1       -2 0.27732490E-02 0.76561118E+02</pdfrwt>
<totfact> 0.16004978E+05</totfact>
</mgrwt>
</event>
<event>
 8    1  0.8577104E-014  0.7951818E+02  0.7818608E-02  0.1330424E+00
         -2   -1    0    0    0  501 -0.00000000000E+00  0.00000000000E+00  0.97612499736E+01  0.97612503067E+01  0.25500000000E-02 0.  1.
          1   -1    0    0  501    0  0.00000000000E+00 -0.00000000000E+00 -0.16194495692E+03  0.16194495700E+03  0.50400000000E-02 0. -1.
        -24    2    1    2    0    0 -0.35527136788E-14  0.35527136788E-14 -0.15218370695E+03  0.17170620731E+03  0.79518180106E+02 0.  0.
         66    2    3    3    0    0  0.20384897500E+02 -0.27163734957E+02 -0.31604815136E+02  0.46435728512E+02  0.19999999368E+01 0.  0.
         13    1    3    3    0    0 -0.20384897500E+02  0.27163734957E+02 -0.12057889181E+03  0.12527047880E+03  0.10566000000E+00 0. -1.
         13    1    4    4    0    0  0.89970647375E+00 -0.11133450283E+01 -0.16725979727E+01  0.22040319655E+01  0.10566000000E+00 0. -1.
        -13    1    4    4    0    0  0.84012560452E+01 -0.12353190254E+02 -0.13323355966E+02  0.20017627003E+02  0.10566000000E+00 0.  1.
        -14    1    4    4    0    0  0.11083934981E+02 -0.13697199674E+02 -0.16608861198E+02  0.24214069544E+02  0.00000000000E+00 0.  1.
<mgrwt>
<rscale>  0 0.79518180E+02</rscale>
<asrwt>0</asrwt>
<pdfrwt beam="1">  1        1 0.24914607E-01 0.79518180E+02</pdfrwt>
<pdfrwt beam="2">  1       -2 0.15017309E-02 0.79518180E+02</pdfrwt>
<totfact> 0.16275000E+05</totfact>
</mgrwt>
</event>
<event>
 8    1  0.8577104E-014  0.7979399E+02  0.7818608E-02  0.1329637E+00
          1   -1    0    0  501    0  0.00000000000E+00  0.00000000000E+00  0.40558995066E+03  0.40558995069E+03  0.50400000000E-02 0. -1.
         -2   -1    0    0    0  501 -0.00000000000E+00 -0.00000000000E+00 -0.39245792265E+01  0.39245800549E+01  0.25500000000E-02 0.  1.
        -24    2    1    2    0    0 -0.44408920985E-15  0.00000000000E+00  0.40166537143E+03  0.40951453074E+03  0.79793986512E+02 0.  0.
         66    2    3    3    0    0  0.28195206252E+01  0.39770344393E+02  0.19907200481E+03  0.20303520163E+03  0.20000027026E+01 0.  0.
         13    1    3    3    0    0 -0.28195206252E+01 -0.39770344393E+02  0.20259336662E+03  0.20647932912E+03  0.10566000000E+00 0. -1.
         13    1    4    4    0    0 -0.46445900870E-01  0.88133310682E+01  0.44256368142E+02  0.45125538743E+02  0.10566000000E+00 0. -1.
        -13    1    4    4    0    0  0.24872228985E+01  0.25616511951E+02  0.12626550278E+03  0.12886186526E+03  0.10566000000E+00 0.  1.
        -14    1    4    4    0    0  0.37874362762E+00  0.53405013739E+01  0.28550133887E+02  0.29047797621E+02  0.00000000000E+00 0.  1.
<mgrwt>
<rscale>  0 0.79793987E+02</rscale>
<asrwt>0</asrwt>
<pdfrwt beam="1">  1        1 0.62398415E-01 0.79793987E+02</pdfrwt>
<pdfrwt beam="2">  1       -2 0.60378187E-03 0.79793987E+02</pdfrwt>
<totfact> 0.19165673E+05</totfact>
</mgrwt>
</event>
<event>
 8    1  0.8577104E-014  0.7966675E+02  0.7818608E-02  0.1330000E+00
         -2   -1    0    0    0  501 -0.00000000000E+00  0.00000000000E+00  0.27436213015E+02  0.27436213134E+02  0.25500000000E-02 0.  1.
          1   -1    0    0  501    0  0.00000000000E+00 -0.00000000000E+00 -0.57832247698E+02  0.57832247917E+02  0.50400000000E-02 0. -1.
        -24    2    1    2    0    0  0.71054273576E-14  0.00000000000E+00 -0.30396034682E+02  0.85268461051E+02  0.79666752950E+02 0.  0.
         66    2    3    3    0    0  0.35580246096E+02  0.58639383248E+01  0.28409014887E+01  0.36227205204E+02  0.19999976686E+01 0.  0.
         13    1    3    3    0    0 -0.35580246096E+02 -0.58639383248E+01 -0.33236936171E+02  0.49041255847E+02  0.10566000000E+00 0. -1.
         13    1    4    4    0    0  0.27437900652E+01  0.36387386585E+00 -0.11850343252E+00  0.27723627489E+01  0.10566000000E+00 0.  1.
        -13    1    4    4    0    0  0.96433378105E+01  0.98294461194E+00  0.74881736729E+00  0.97227586478E+01  0.10566000000E+00 0.  1.
        -14    1    4    4    0    0  0.23193118221E+02  0.45171198470E+01  0.22105875539E+01  0.23732083807E+02  0.00000000000E+00 0.  1.
<mgrwt>
<rscale>  0 0.79666753E+02</rscale>
<asrwt>0</asrwt>
<pdfrwt beam="1">  1        1 0.88972689E-02 0.79666753E+02</pdfrwt>
<pdfrwt beam="2">  1       -2 0.42209559E-02 0.79666753E+02</pdfrwt>
<totfact> 0.13616729E+05</totfact>
</mgrwt>
</event>
<event>
 8    1  0.8577104E-014  0.7990449E+02  0.7818608E-02  0.1329323E+00
          1   -1    0    0  501    0  0.00000000000E+00  0.00000000000E+00  0.83675684027E+01  0.83675699206E+01  0.50400000000E-02 0. -1.
         -2   -1    0    0    0  501 -0.00000000000E+00 -0.00000000000E+00 -0.19075815485E+03  0.19075815487E+03  0.25500000000E-02 0.  1.
        -24    2    1    2    0    0  0.35527136788E-14  0.35527136788E-14 -0.18239058645E+03  0.19912572479E+03  0.79904494540E+02 0.  0.
         66    2    3    3    0    0 -0.27236836206E+02 -0.29123203871E+02 -0.96341683267E+02  0.10428674993E+03  0.20000062995E+01 0.  0.
         13    1    3    3    0    0  0.27236836206E+02  0.29123203871E+02 -0.86048903181E+02  0.94838974862E+02  0.10566000000E+00 0. -1.
         13    1    4    4    0    0 -0.14093689028E+02 -0.14780448558E+02 -0.50689294031E+02  0.54648965437E+02  0.10566000000E+00 0.  1.
        -13    1    4    4    0    0 -0.74011317396E+01 -0.72607792624E+01 -0.23953674435E+02  0.26101443437E+02  0.10566000000E+00 0. -1.
         14    1    4    4    0    0 -0.57420154376E+01 -0.70819760512E+01 -0.21698714801E+02  0.23536341052E+02  0.00000000000E+00 0. -1.
<mgrwt>
<rscale>  0 0.79904495E+02</rscale>
<asrwt>0</asrwt>
<pdfrwt beam="1">  1        1 0.12873185E-02 0.79904495E+02</pdfrwt>
<pdfrwt beam="2">  1       -2 0.29347405E-01 0.79904495E+02</pdfrwt>
<totfact> 0.86963835E+04</totfact>
</mgrwt>
</event>
<event>
 8    1  0.8577104E-014  0.8052534E+02  0.7818608E-02  0.1327567E+00
         -2   -1    0    0    0  501 -0.00000000000E+00  0.00000000000E+00  0.28419965260E+02  0.28419965374E+02  0.25500000000E-02 0.  1.
          1   -1    0    0  501    0  0.00000000000E+00 -0.00000000000E+00 -0.57040273255E+02  0.57040273478E+02  0.50400000000E-02 0. -1.
        -24    2    1    2    0    0  0.44408920985E-15 -0.71054273576E-14 -0.28620307996E+02  0.85460238852E+02  0.80525340080E+02 0.  0.
         66    2    3    3    0    0 -0.35664073851E+01  0.37992152008E+02 -0.77127279502E+00  0.38219337067E+02  0.19999970768E+01 0.  0.
         13    1    3    3    0    0  0.35664073851E+01 -0.37992152008E+02 -0.27849035201E+02  0.47240901785E+02  0.10566000000E+00 0. -1.
         13    1    4    4    0    0 -0.33111137466E+00  0.11985966856E+01 -0.16774623237E+00  0.12591948187E+01  0.10566000000E+00 0. -1.
        -13    1    4    4    0    0 -0.13126802483E+01  0.95630520838E+01 -0.38493761865E+00  0.96609748782E+01  0.10566000000E+00 0. -1.
        -14    1    4    4    0    0 -0.19226157621E+01  0.27230503239E+02 -0.21858894400E+00  0.27299167370E+02  0.00000000000E+00 0.  1.
<mgrwt>
<rscale>  0 0.80525340E+02</rscale>
<asrwt>0</asrwt>
<pdfrwt beam="1">  1        1 0.87754267E-02 0.80525340E+02</pdfrwt>
<pdfrwt beam="2">  1       -2 0.43723024E-02 0.80525340E+02</pdfrwt>
<totfact> 0.13190806E+05</totfact>
</mgrwt>
</event>
<event>
 8    1  0.8577104E-014  0.8083648E+02  0.7818608E-02  0.1326694E+00
          1   -1    0    0  501    0  0.00000000000E+00  0.00000000000E+00  0.57663733456E+01  0.57663755482E+01  0.50400000000E-02 0. -1.
         -2   -1    0    0    0  501 -0.00000000000E+00 -0.00000000000E+00 -0.28330353645E+03  0.28330353647E+03  0.25500000000E-02 0.  1.
        -24    2    1    2    0    0  0.00000000000E+00  0.00000000000E+00 -0.27753716311E+03  0.28906991201E+03  0.80836483875E+02 0.  0.
         66    2    3    3    0    0 -0.12536087606E+02  0.36556104503E+02 -0.18088091194E+03  0.18497407001E+03  0.20000005568E+01 0.  0.
         13    1    3    3    0    0  0.12536087606E+02 -0.36556104503E+02 -0.96656251167E+02  0.10409584200E+03  0.10566000000E+00 0. -1.
         13    1    4    4    0    0 -0.21588970603E+01  0.74692867458E+01 -0.38797871430E+02  0.39569395656E+02  0.10566000000E+00 0. -1.
        -13    1    4    4    0    0 -0.50157949377E+01  0.14565460215E+02 -0.73295109447E+02  0.74896562425E+02  0.10566000000E+00 0.  1.
         14    1    4    4    0    0 -0.53613956084E+01  0.14521357541E+02 -0.68787931064E+02  0.70508111929E+02  0.00000000000E+00 0. -1.
<mgrwt>
<rscale>  0 0.80836484E+02</rscale>
<asrwt>0</asrwt>
<pdfrwt beam="1">  1        1 0.88713476E-03 0.80836484E+02</pdfrwt>
<pdfrwt beam="2">  1       -2 0.43585149E-01 0.80836484E+02</pdfrwt>
<totfact> 0.70525784E+04</totfact>
</mgrwt>
</event>
<event>
 8    1  0.8577104E-014  0.8409220E+02  0.7818608E-02  0.1317824E+00
          1   -1    0    0  501    0  0.00000000000E+00  0.00000000000E+00  0.95100187515E+02  0.95100187648E+02  0.50400000000E-02 0. -1.
         -2   -1    0    0    0  501 -0.00000000000E+00 -0.00000000000E+00 -0.18589601098E+02  0.18589601273E+02  0.25500000000E-02 0.  1.
        -24    2    1    2    0    0  0.44408920985E-15  0.00000000000E+00  0.76510586417E+02  0.11368978892E+03  0.84092201012E+02 0.  0.
         66    2    3    3    0    0  0.37100162569E+01 -0.27116023229E+02 -0.48342371276E+01  0.27864184246E+02  0.19999946749E+01 0.  0.
         13    1    3    3    0    0 -0.37100162569E+01  0.27116023229E+02  0.81344823544E+02  0.85825604675E+02  0.10566000000E+00 0. -1.
         13    1    4    4    0    0  0.20160686867E+01 -0.10078551728E+02 -0.20608805037E+01  0.10483326303E+02  0.10566000000E+00 0. -1.
        -13    1    4    4    0    0  0.13581820780E+01 -0.12599004332E+02 -0.15657371356E+01  0.12768800474E+02  0.10566000000E+00 0.  1.
         14    1    4    4    0    0  0.33576549224E+00 -0.44384671680E+01 -0.12076194882E+01  0.46120574688E+01  0.00000000000E+00 0. -1.
<mgrwt>
<rscale>  0 0.84092201E+02</rscale>
<asrwt>0</asrwt>
<pdfrwt beam="1">  1        1 0.14630798E-01 0.84092201E+02</pdfrwt>
<pdfrwt beam="2">  1       -2 0.28599386E-02 0.84092201E+02</pdfrwt>
<totfact> 0.12728979E+05</totfact>
</mgrwt>
</event>
<event>
 8    1  0.8577104E-014  0.8071926E+02  0.7818608E-02  0.1327023E+00
          1   -1    0    0  501    0  0.00000000000E+00  0.00000000000E+00  0.22359717442E+02  0.22359718011E+02  0.50400000000E-02 0. -1.
         -2   -1    0    0    0  501 -0.00000000000E+00 -0.00000000000E+00 -0.72849741286E+02  0.72849741330E+02  0.25500000000E-02 0.  1.
        -24    2    1    2    0    0  0.00000000000E+00 -0.44408920985E-15 -0.50490023843E+02  0.95209459341E+02  0.80719258175E+02 0.  0.
         66    2    3    3    0    0  0.11776035198E+02  0.24077723551E+01 -0.70674378339E+02  0.71717083915E+02  0.19999997577E+01 0.  0.
         13    1    3    3    0    0 -0.11776035198E+02 -0.24077723551E+01  0.20184354495E+02  0.23492375426E+02  0.10566000000E+00 0. -1.
         13    1    4    4    0    0  0.34062233394E+00  0.95646990774E-01 -0.31411307108E+01  0.31627579893E+01  0.10566000000E+00 0. -1.
        -13    1    4    4    0    0  0.57416531685E+01  0.14875460633E+01 -0.29761885834E+02  0.30347329155E+02  0.10566000000E+00 0.  1.
        -14    1    4    4    0    0  0.56937596960E+01  0.82457930101E+00 -0.37771361794E+02  0.38206996771E+02  0.00000000000E+00 0.  1.
<mgrwt>
<rscale>  0 0.80719258E+02</rscale>
<asrwt>0</asrwt>
<pdfrwt beam="1">  1        1 0.34399566E-02 0.80719258E+02</pdfrwt>
<pdfrwt beam="2">  1       -2 0.11207652E-01 0.80719258E+02</pdfrwt>
<totfact> 0.11141914E+05</totfact>
</mgrwt>
</event>
<event>
 8    1  0.8577104E-014  0.8307738E+02  0.7818608E-02  0.1320538E+00
         -2   -1    0    0    0  501 -0.00000000000E+00  0.00000000000E+00  0.76169968682E+01  0.76169972950E+01  0.25500000000E-02 0.  1.
          1   -1    0    0  501    0  0.00000000000E+00 -0.00000000000E+00 -0.22652795455E+03  0.22652795460E+03  0.50400000000E-02 0. -1.
        -24    2    1    2    0    0 -0.35527136788E-14  0.88817841970E-15 -0.21891095768E+03  0.23414495190E+03  0.83077380240E+02 0.  0.
         66    2    3    3    0    0 -0.31408482324E+02  0.57479220113E+01 -0.34742151913E+02  0.47228683076E+02  0.20000040471E+01 0.  0.
         13    1    3    3    0    0  0.31408482324E+02 -0.57479220113E+01 -0.18416880576E+03  0.18691626882E+03  0.10566000000E+00 0. -1.
         13    1    4    4    0    0 -0.45704913820E+01  0.13756442764E+01 -0.55445862029E+01  0.73167881509E+01  0.10566000000E+00 0. -1.
        -13    1    4    4    0    0 -0.21445372460E+01  0.52104800241E+00 -0.20848224520E+01  0.30377919139E+01  0.10566000000E+00 0.  1.
        -14    1    4    4    0    0 -0.24693453696E+02  0.38512297324E+01 -0.27112743258E+02  0.36874103011E+02  0.00000000000E+00 0.  1.
<mgrwt>
<rscale>  0 0.83077380E+02</rscale>
<asrwt>0</asrwt>
<pdfrwt beam="1">  1        1 0.34850449E-01 0.83077380E+02</pdfrwt>
<pdfrwt beam="2">  1       -2 0.11718459E-02 0.83077380E+02</pdfrwt>
<totfact> 0.15454909E+05</totfact>
</mgrwt>
</event>
<event>
 8    1  0.8577104E-014  0.8055570E+02  0.7818608E-02  0.1327482E+00
          1   -1    0    0  501    0  0.00000000000E+00  0.00000000000E+00  0.21853499581E+02  0.21853500162E+02  0.50400000000E-02 0. -1.
         -2   -1    0    0    0  501 -0.00000000000E+00 -0.00000000000E+00 -0.74235489644E+02  0.74235489688E+02  0.25500000000E-02 0.  1.
        -24    2    1    2    0    0  0.00000000000E+00  0.17763568394E-14 -0.52381990063E+02  0.96088989850E+02  0.80555701769E+02 0.  0.
         66    2    3    3    0    0  0.43153921883E+01 -0.14787122279E+02 -0.70567077130E+02  0.72256445909E+02  0.20000014360E+01 0.  0.
         13    1    3    3    0    0 -0.43153921883E+01  0.14787122279E+02  0.18185087067E+02  0.23832543941E+02  0.10566000000E+00 0. -1.
         13    1    4    4    0    0  0.22875693789E+00 -0.20615667252E+01 -0.77284152343E+01  0.80026216434E+01  0.10566000000E+00 0. -1.
        -13    1    4    4    0    0  0.11681827779E+01 -0.36652389382E+01 -0.15823074241E+02  0.16284332039E+02  0.10566000000E+00 0.  1.
         14    1    4    4    0    0  0.29184524725E+01 -0.90603166151E+01 -0.47015587655E+02  0.47969492227E+02  0.00000000000E+00 0. -1.
<mgrwt>
<rscale>  0 0.80555702E+02</rscale>
<asrwt>0</asrwt>
<pdfrwt beam="1">  1        1 0.33620769E-02 0.80555702E+02</pdfrwt>
<pdfrwt beam="2">  1       -2 0.11420845E-01 0.80555702E+02</pdfrwt>
<totfact> 0.11156020E+05</totfact>
</mgrwt>
</event>
<event>
 8    1  0.8577104E-014  0.8308086E+02  0.7818608E-02  0.1320529E+00
          1   -1    0    0  501    0  0.00000000000E+00  0.00000000000E+00  0.63151935904E+02  0.63151936105E+02  0.50400000000E-02 0. -1.
         -2   -1    0    0    0  501 -0.00000000000E+00 -0.00000000000E+00 -0.27324691085E+02  0.27324691204E+02  0.25500000000E-02 0.  1.
        -24    2    1    2    0    0  0.00000000000E+00  0.88817841970E-15  0.35827244819E+02  0.90476627309E+02  0.83080855905E+02 0.  0.
         66    2    3    3    0    0  0.38195559071E+02 -0.56528610708E+01  0.13098642001E+01  0.38685544101E+02  0.20000017881E+01 0.  0.
         13    1    3    3    0    0 -0.38195559071E+02  0.56528610708E+01  0.34517380619E+02  0.51791083208E+02  0.10566000000E+00 0. -1.
         13    1    4    4    0    0  0.34242859004E+01 -0.51284508575E+00 -0.19368398333E+00  0.34694987434E+01  0.10566000000E+00 0. -1.
        -13    1    4    4    0    0  0.93332841185E+01 -0.81674828318E+00  0.39078054848E-03  0.93695482486E+01  0.10566000000E+00 0.  1.
        -14    1    4    4    0    0  0.25437989052E+02 -0.43232677018E+01  0.15031574029E+01  0.25846497109E+02  0.00000000000E+00 0.  1.
<mgrwt>
<rscale>  0 0.83080856E+02</rscale>
<asrwt>0</asrwt>
<pdfrwt beam="1">  1        1 0.97156825E-02 0.83080856E+02</pdfrwt>
<pdfrwt beam="2">  1       -2 0.42037987E-02 0.83080856E+02</pdfrwt>
<totfact> 0.12296697E+05</totfact>
</mgrwt>
</event>
<event>
 8    1  0.8577104E-014  0.7509703E+02  0.7818608E-02  0.1343571E+00
          1   -1    0    0  501    0  0.00000000000E+00  0.00000000000E+00  0.49933469132E+01  0.49933494567E+01  0.50400000000E-02 0. -1.
         -2   -1    0    0    0  501 -0.00000000000E+00 -0.00000000000E+00 -0.28235382358E+03  0.28235382359E+03  0.25500000000E-02 0.  1.
        -24    2    1    2    0    0  0.00000000000E+00 -0.88817841970E-15 -0.27736047667E+03  0.28734717305E+03  0.75097029515E+02 0.  0.
         66    2    3    3    0    0 -0.33794235541E+02 -0.68534195338E+01 -0.82170863393E+02  0.89135124955E+02  0.19999987310E+01 0.  0.
         13    1    3    3    0    0  0.33794235541E+02  0.68534195338E+01 -0.19518961328E+03  0.19821204809E+03  0.10566000000E+00 0. -1.
         13    1    4    4    0    0 -0.12497981093E+02 -0.17420072269E+01 -0.29828063227E+02  0.32387630980E+02  0.10566000000E+00 0. -1.
        -13    1    4    4    0    0 -0.16978742820E+02 -0.40967428926E+01 -0.40764619145E+02  0.44348915975E+02  0.10566000000E+00 0.  1.
         14    1    4    4    0    0 -0.43175116282E+01 -0.10146694143E+01 -0.11578181020E+02  0.12398578000E+02  0.00000000000E+00 0. -1.
<mgrwt>
<rscale>  0 0.75097030E+02</rscale>
<asrwt>0</asrwt>
<pdfrwt beam="1">  1        1 0.76820764E-03 0.75097030E+02</pdfrwt>
<pdfrwt beam="2">  1       -2 0.43439037E-01 0.75097030E+02</pdfrwt>
<totfact> 0.85422016E+04</totfact>
</mgrwt>
</event>
<event>
 8    1  0.8577104E-014  0.7970047E+02  0.7818608E-02  0.1329904E+00
         -2   -1    0    0    0  501 -0.00000000000E+00  0.00000000000E+00  0.11111603468E+02  0.11111603761E+02  0.25500000000E-02 0.  1.
          1   -1    0    0  501    0  0.00000000000E+00 -0.00000000000E+00 -0.14291738554E+03  0.14291738563E+03  0.50400000000E-02 0. -1.
        -24    2    1    2    0    0 -0.17763568394E-14  0.00000000000E+00 -0.13180578208E+03  0.15402898939E+03  0.79700472929E+02 0.  0.
         66    2    3    3    0    0  0.12529665134E+02 -0.25289790795E+02 -0.11643068032E+02  0.30596193763E+02  0.20000031881E+01 0.  0.
         13    1    3    3    0    0 -0.12529665134E+02  0.25289790795E+02 -0.12016271404E+03  0.12343279563E+03  0.10566000000E+00 0. -1.
         13    1    4    4    0    0  0.22058609553E+01 -0.42775655202E+01 -0.12442858957E+01  0.49722028076E+01  0.10566000000E+00 0. -1.
        -13    1    4    4    0    0  0.60059483358E+00 -0.14234815732E+01 -0.75646109813E+00  0.17234881409E+01  0.10566000000E+00 0.  1.
        -14    1    4    4    0    0  0.97232093453E+01 -0.19588743702E+02 -0.96423210384E+01  0.23900502815E+02  0.00000000000E+00 0.  1.
<mgrwt>
<rscale>  0 0.79700473E+02</rscale>
<asrwt>0</asrwt>
<pdfrwt beam="1">  1        1 0.21987289E-01 0.79700473E+02</pdfrwt>
<pdfrwt beam="2">  1       -2 0.17094776E-02 0.79700473E+02</pdfrwt>
<totfact> 0.15806644E+05</totfact>
</mgrwt>
</event>
<event>
 8    1  0.8577104E-014  0.7960592E+02  0.7818608E-02  0.1330174E+00
          1   -1    0    0  501    0  0.00000000000E+00  0.00000000000E+00  0.35738768151E+02  0.35738768506E+02  0.50400000000E-02 0. -1.
         -2   -1    0    0    0  501 -0.00000000000E+00 -0.00000000000E+00 -0.44329325504E+02  0.44329325577E+02  0.25500000000E-02 0.  1.
        -24    2    1    2    0    0  0.55511151231E-16  0.00000000000E+00 -0.85905573533E+01  0.80068094083E+02  0.79605916956E+02 0.  0.
         66    2    3    3    0    0  0.44762337914E+00 -0.36922849160E+02 -0.19174846301E+02  0.41655394447E+02  0.19999997676E+01 0.  0.
         13    1    3    3    0    0 -0.44762337914E+00  0.36922849160E+02  0.10584288948E+02  0.38412699636E+02  0.10566000000E+00 0. -1.
         13    1    4    4    0    0  0.34725141959E+00 -0.12423194847E+02 -0.68658845505E+01  0.14198869266E+02  0.10566000000E+00 0. -1.
        -13    1    4    4    0    0  0.59559542266E+00 -0.20355398208E+02 -0.10011830841E+02  0.22692397205E+02  0.10566000000E+00 0.  1.
         14    1    4    4    0    0 -0.49522346311E+00 -0.41442561056E+01 -0.22971309100E+01  0.47641279753E+01  0.00000000000E+00 0. -1.
<mgrwt>
<rscale>  0 0.79605917E+02</rscale>
<asrwt>0</asrwt>
<pdfrwt beam="1">  1        1 0.54982721E-02 0.79605917E+02</pdfrwt>
<pdfrwt beam="2">  1       -2 0.68198963E-02 0.79605917E+02</pdfrwt>
<totfact> 0.12639924E+05</totfact>
</mgrwt>
</event>
<event>
 8    1  0.8577104E-014  0.7965794E+02  0.7818608E-02  0.1330025E+00
          1   -1    0    0  501    0  0.00000000000E+00  0.00000000000E+00  0.29395316501E+02  0.29395316934E+02  0.50400000000E-02 0. -1.
         -2   -1    0    0    0  501 -0.00000000000E+00 -0.00000000000E+00 -0.53965965899E+02  0.53965965960E+02  0.25500000000E-02 0.  1.
        -24    2    1    2    0    0  0.00000000000E+00  0.00000000000E+00 -0.24570649398E+02  0.83361282893E+02  0.79657935410E+02 0.  0.
         66    2    3    3    0    0 -0.37697192937E+02  0.89404715237E+01 -0.21846041230E+02  0.44522577455E+02  0.19999998656E+01 0.  0.
         13    1    3    3    0    0  0.37697192937E+02 -0.89404715237E+01 -0.27246081678E+01  0.38838705438E+02  0.10566000000E+00 0. -1.
         13    1    4    4    0    0 -0.27489430258E+02  0.66830854055E+01 -0.15042634687E+02  0.32040980459E+02  0.10566000000E+00 0. -1.
        -13    1    4    4    0    0 -0.24502195739E+01  0.69611835840E+00 -0.17616902033E+01  0.30988502928E+01  0.10566000000E+00 0.  1.
         14    1    4    4    0    0 -0.77575431052E+01  0.15612677598E+01 -0.50417163399E+01  0.93827467033E+01  0.00000000000E+00 0. -1.
<mgrwt>
<rscale>  0 0.79657935E+02</rscale>
<asrwt>0</asrwt>
<pdfrwt beam="1">  1        1 0.45223564E-02 0.79657935E+02</pdfrwt>
<pdfrwt beam="2">  1       -2 0.83024563E-02 0.79657935E+02</pdfrwt>
<totfact> 0.12200602E+05</totfact>
</mgrwt>
</event>
<event>
 8    1  0.8577104E-014  0.8006926E+02  0.7818608E-02  0.1328855E+00
         -2   -1    0    0    0  501 -0.00000000000E+00  0.00000000000E+00  0.43880221362E+02  0.43880221436E+02  0.25500000000E-02 0.  1.
          1   -1    0    0  501    0  0.00000000000E+00 -0.00000000000E+00 -0.36526057639E+02  0.36526057987E+02  0.50400000000E-02 0. -1.
        -24    2    1    2    0    0  0.17763568394E-14 -0.35527136788E-14  0.73541637231E+01  0.80406279423E+02  0.80069257812E+02 0.  0.
         66    2    3    3    0    0  0.11294928842E+02 -0.16046247941E+02  0.38693149001E+02  0.43430602921E+02  0.19999999769E+01 0.  0.
         13    1    3    3    0    0 -0.11294928842E+02  0.16046247941E+02 -0.31338985278E+02  0.36975676503E+02  0.10566000000E+00 0. -1.
         13    1    4    4    0    0  0.26098267555E+01 -0.28070597519E+01  0.80591737883E+01  0.89248095963E+01  0.10566000000E+00 0. -1.
        -13    1    4    4    0    0  0.64008485637E+01 -0.95610863552E+01  0.23377453355E+02  0.26055742630E+02  0.10566000000E+00 0.  1.
        -14    1    4    4    0    0  0.22842535232E+01 -0.36781018341E+01  0.72565218579E+01  0.84500506942E+01  0.00000000000E+00 0.  1.
<mgrwt>
<rscale>  0 0.80069258E+02</rscale>
<asrwt>0</asrwt>
<pdfrwt beam="1">  1        1 0.56193936E-02 0.80069258E+02</pdfrwt>
<pdfrwt beam="2">  1       -2 0.67508032E-02 0.80069258E+02</pdfrwt>
<totfact> 0.12478781E+05</totfact>
</mgrwt>
</event>
<event>
 8    1  0.8577104E-014  0.7802426E+02  0.7818608E-02  0.1334754E+00
         -2   -1    0    0    0  501 -0.00000000000E+00  0.00000000000E+00  0.39728440728E+02  0.39728440810E+02  0.25500000000E-02 0.  1.
          1   -1    0    0  501    0  0.00000000000E+00 -0.00000000000E+00 -0.38308730983E+02  0.38308731315E+02  0.50400000000E-02 0. -1.
        -24    2    1    2    0    0  0.00000000000E+00  0.71054273576E-14  0.14197097449E+01  0.78037172124E+02  0.78024256853E+02 0.  0.
         66    2    3    3    0    0 -0.15511020524E+02  0.35762150917E+02  0.13569883983E+01  0.39055916450E+02  0.19999990702E+01 0.  0.
         13    1    3    3    0    0  0.15511020524E+02 -0.35762150917E+02  0.62721346587E-01  0.38981255674E+02  0.10566000000E+00 0. -1.
         13    1    4    4    0    0 -0.12696957921E+01  0.19295913182E+01 -0.14339226513E+00  0.23167165206E+01  0.10566000000E+00 0. -1.
        -13    1    4    4    0    0 -0.11047731857E+02  0.26042167799E+02  0.11131298074E+01  0.28310724202E+02  0.10566000000E+00 0.  1.
         14    1    4    4    0    0 -0.31935928748E+01  0.77903918007E+01  0.38725085599E+00  0.84284757272E+01  0.00000000000E+00 0. -1.
<mgrwt>
<rscale>  0 0.78024257E+02</rscale>
<asrwt>0</asrwt>
<pdfrwt beam="1">  1        1 0.58936510E-02 0.78024257E+02</pdfrwt>
<pdfrwt beam="2">  1       -2 0.61120678E-02 0.78024257E+02</pdfrwt>
<totfact> 0.13529022E+05</totfact>
</mgrwt>
</event>
<event>
 8    1  0.8577104E-014  0.7772016E+02  0.7818608E-02  0.1335649E+00
          1   -1    0    0  501    0  0.00000000000E+00  0.00000000000E+00  0.70164616589E+01  0.70164634690E+01  0.50400000000E-02 0. -1.
         -2   -1    0    0    0  501 -0.00000000000E+00 -0.00000000000E+00 -0.21522326796E+03  0.21522326797E+03  0.25500000000E-02 0.  1.
        -24    2    1    2    0    0  0.00000000000E+00  0.00000000000E+00 -0.20820680630E+03  0.22223973144E+03  0.77720164965E+02 0.  0.
         66    2    3    3    0    0 -0.20012821109E+02 -0.21772069650E+02 -0.17614746776E+03  0.17862381259E+03  0.20000002552E+01 0.  0.
         13    1    3    3    0    0  0.20012821109E+02  0.21772069650E+02 -0.32059338542E+02  0.43615918853E+02  0.10566000000E+00 0. -1.
         13    1    4    4    0    0 -0.95417314344E+00 -0.13242764989E+01 -0.87534133390E+01  0.89049179531E+01  0.10566000000E+00 0. -1.
        -13    1    4    4    0    0 -0.17624841322E+02 -0.18266074087E+02 -0.15125151681E+03  0.15336660978E+03  0.10566000000E+00 0.  1.
        -14    1    4    4    0    0 -0.14338066435E+01 -0.21817190640E+01 -0.16142537611E+02  0.16352284859E+02  0.00000000000E+00 0.  1.
<mgrwt>
<rscale>  0 0.77720165E+02</rscale>
<asrwt>0</asrwt>
<pdfrwt beam="1">  1        1 0.10794559E-02 0.77720165E+02</pdfrwt>
<pdfrwt beam="2">  1       -2 0.33111267E-01 0.77720165E+02</pdfrwt>
<totfact> 0.88901132E+04</totfact>
</mgrwt>
</event>
<event>
 8    1  0.8577104E-014  0.8145083E+02  0.7818608E-02  0.1324984E+00
         -2   -1    0    0    0  501 -0.00000000000E+00  0.00000000000E+00  0.50164382162E+02  0.50164382227E+02  0.25500000000E-02 0.  1.
          1   -1    0    0  501    0  0.00000000000E+00 -0.00000000000E+00 -0.33062488796E+02  0.33062489181E+02  0.50400000000E-02 0. -1.
        -24    2    1    2    0    0  0.00000000000E+00  0.00000000000E+00  0.17101893365E+02  0.83226871407E+02  0.81450827912E+02 0.  0.
         66    2    3    3    0    0 -0.17000810628E+02  0.25869155862E+02  0.35557924641E+02  0.47186934649E+02  0.20000024397E+01 0.  0.
         13    1    3    3    0    0  0.17000810628E+02 -0.25869155862E+02 -0.18456031276E+02  0.36039936758E+02  0.10566000000E+00 0. -1.
         13    1    4    4    0    0 -0.11194516091E+02  0.17742409192E+02  0.24747158894E+02  0.32442923909E+02  0.10566000000E+00 0. -1.
        -13    1    4    4    0    0 -0.28121968143E+01  0.41810979688E+01  0.60461823085E+01  0.78713096553E+01  0.10566000000E+00 0.  1.
         14    1    4    4    0    0 -0.29940977223E+01  0.39456487017E+01  0.47645834391E+01  0.68727010845E+01  0.00000000000E+00 0. -1.
<mgrwt>
<rscale>  0 0.81450828E+02</rscale>
<asrwt>0</asrwt>
<pdfrwt beam="1">  1        1 0.50865368E-02 0.81450828E+02</pdfrwt>
<pdfrwt beam="2">  1       -2 0.77175972E-02 0.81450828E+02</pdfrwt>
<totfact> 0.11684998E+05</totfact>
</mgrwt>
</event>
<event>
 8    1  0.8577104E-014  0.7930527E+02  0.7818608E-02  0.1331035E+00
          1   -1    0    0  501    0  0.00000000000E+00  0.00000000000E+00  0.12520590995E+02  0.12520592009E+02  0.50400000000E-02 0. -1.
         -2   -1    0    0    0  501 -0.00000000000E+00 -0.00000000000E+00 -0.12557963213E+03  0.12557963216E+03  0.25500000000E-02 0.  1.
        -24    2    1    2    0    0  0.00000000000E+00 -0.17763568394E-14 -0.11305904114E+03  0.13810022417E+03  0.79305265476E+02 0.  0.
         66    2    3    3    0    0 -0.23900425709E+01 -0.13212875786E+02 -0.12148934209E+03  0.12224546059E+03  0.20000005539E+01 0.  0.
         13    1    3    3    0    0  0.23900425709E+01  0.13212875786E+02  0.84303009534E+01  0.15854763582E+02  0.10566000000E+00 0. -1.
         13    1    4    4    0    0 -0.71615628147E-01 -0.26287425514E+00 -0.11374024574E+01  0.11743423938E+01  0.10566000000E+00 0. -1.
        -13    1    4    4    0    0 -0.78350292538E+00 -0.60005665434E+01 -0.53297829174E+02  0.53640380632E+02  0.10566000000E+00 0.  1.
         14    1    4    4    0    0 -0.15349240174E+01 -0.69494349874E+01 -0.67054110460E+02  0.67430737560E+02  0.00000000000E+00 0. -1.
<mgrwt>
<rscale>  0 0.79305265E+02</rscale>
<asrwt>0</asrwt>
<pdfrwt beam="1">  1        1 0.19262449E-02 0.79305265E+02</pdfrwt>
<pdfrwt beam="2">  1       -2 0.19319943E-01 0.79305265E+02</pdfrwt>
<totfact> 0.10210375E+05</totfact>
</mgrwt>
</event>
<event>
 8    1  0.8577104E-014  0.8018681E+02  0.7818608E-02  0.1328522E+00
          1   -1    0    0  501    0  0.00000000000E+00  0.00000000000E+00  0.10385895757E+03  0.10385895769E+03  0.50400000000E-02 0. -1.
         -2   -1    0    0    0  501 -0.00000000000E+00 -0.00000000000E+00 -0.15477537484E+02  0.15477537694E+02  0.25500000000E-02 0.  1.
        -24    2    1    2    0    0  0.88817841970E-15 -0.35527136788E-14  0.88381420084E+02  0.11933649538E+03  0.80186805115E+02 0.  0.
         66    2    3    3    0    0  0.62862892139E+01 -0.28590110555E+02  0.35002708846E+01  0.29549344260E+02  0.19999990751E+01 0.  0.
         13    1    3    3    0    0 -0.62862892139E+01  0.28590110555E+02  0.84881149200E+02  0.89787151125E+02  0.10566000000E+00 0. -1.
         13    1    4    4    0    0  0.37285652179E+00 -0.23125450625E+01  0.38360197780E+00  0.23759632078E+01  0.10566000000E+00 0. -1.
        -13    1    4    4    0    0  0.43957956830E+01 -0.20891383420E+02  0.31308951981E+01  0.21577455589E+02  0.10566000000E+00 0.  1.
         14    1    4    4    0    0  0.15176370091E+01 -0.53861820719E+01 -0.14226291283E-01  0.55959254632E+01  0.00000000000E+00 0. -1.
<mgrwt>
<rscale>  0 0.80186805E+02</rscale>
<asrwt>0</asrwt>
<pdfrwt beam="1">  1        1 0.15978301E-01 0.80186805E+02</pdfrwt>
<pdfrwt beam="2">  1       -2 0.23811596E-02 0.80186805E+02</pdfrwt>
<totfact> 0.14700555E+05</totfact>
</mgrwt>
</event>
<event>
 8    1  0.8577104E-014  0.8327616E+02  0.7818608E-02  0.1320003E+00
         -2   -1    0    0    0  501 -0.00000000000E+00  0.00000000000E+00  0.23234715151E+02  0.23234715291E+02  0.25500000000E-02 0.  1.
          1   -1    0    0  501    0  0.00000000000E+00 -0.00000000000E+00 -0.74618078148E+02  0.74618078318E+02  0.50400000000E-02 0. -1.
        -24    2    1    2    0    0  0.00000000000E+00 -0.88817841970E-15 -0.51383362997E+02  0.97852793609E+02  0.83276162401E+02 0.  0.
         66    2    3    3    0    0  0.38961562490E+02 -0.27396519295E+01 -0.88326378018E+01  0.40093946468E+02  0.20000021269E+01 0.  0.
         13    1    3    3    0    0 -0.38961562490E+02  0.27396519295E+01 -0.42550725195E+02  0.57758847141E+02  0.10566000000E+00 0. -1.
         13    1    4    4    0    0  0.24611431128E+01  0.18503465917E+00 -0.77964959219E+00  0.25904595672E+01  0.10566000000E+00 0. -1.
        -13    1    4    4    0    0  0.47762826021E+01 -0.63347887150E+00 -0.12126874782E+01  0.49695015778E+01  0.10566000000E+00 0.  1.
        -14    1    4    4    0    0  0.31724136775E+02 -0.22912077172E+01 -0.68403007314E+01  0.32533985323E+02  0.00000000000E+00 0.  1.
<mgrwt>
<rscale>  0 0.83276162E+02</rscale>
<asrwt>0</asrwt>
<pdfrwt beam="1">  1        1 0.11479704E-01 0.83276162E+02</pdfrwt>
<pdfrwt beam="2">  1       -2 0.35745716E-02 0.83276162E+02</pdfrwt>
<totfact> 0.12553299E+05</totfact>
</mgrwt>
</event>
<event>
 8    1  0.8577104E-014  0.8019943E+02  0.7818608E-02  0.1328486E+00
         -2   -1    0    0    0  501 -0.00000000000E+00  0.00000000000E+00  0.11069828346E+02  0.11069828640E+02  0.25500000000E-02 0.  1.
          1   -1    0    0  501    0  0.00000000000E+00 -0.00000000000E+00 -0.14525852487E+03  0.14525852496E+03  0.50400000000E-02 0. -1.
        -24    2    1    2    0    0  0.00000000000E+00  0.00000000000E+00 -0.13418869652E+03  0.15632835360E+03  0.80199425583E+02 0.  0.
         66    2    3    3    0    0  0.22595621656E+02 -0.13583417614E+02 -0.83052073780E+01  0.27713675759E+02  0.20000005932E+01 0.  0.
         13    1    3    3    0    0 -0.22595621656E+02  0.13583417614E+02 -0.12588348915E+03  0.12861467784E+03  0.10566000000E+00 0. -1.
         13    1    4    4    0    0  0.34761916807E+01 -0.16243497768E+01 -0.95820505909E+00  0.39562282251E+01  0.10566000000E+00 0. -1.
        -13    1    4    4    0    0  0.13206697778E+02 -0.82539836646E+01 -0.44074502398E+01  0.16185854756E+02  0.10566000000E+00 0.  1.
        -14    1    4    4    0    0  0.59127321980E+01 -0.37050841721E+01 -0.29395520791E+01  0.75715927778E+01  0.00000000000E+00 0.  1.
<mgrwt>
<rscale>  0 0.80199426E+02</rscale>
<asrwt>0</asrwt>
<pdfrwt beam="1">  1        1 0.22347464E-01 0.80199426E+02</pdfrwt>
<pdfrwt beam="2">  1       -2 0.17030506E-02 0.80199426E+02</pdfrwt>
<totfact> 0.15591284E+05</totfact>
</mgrwt>
</event>
<event>
 8    1  0.8577104E-014  0.7965516E+02  0.7818608E-02  0.1330033E+00
          1   -1    0    0  501    0  0.00000000000E+00  0.00000000000E+00  0.34103713822E+01  0.34103751064E+01  0.50400000000E-02 0. -1.
         -2   -1    0    0    0  501 -0.00000000000E+00 -0.00000000000E+00 -0.46512100032E+03  0.46512100033E+03  0.25500000000E-02 0.  1.
        -24    2    1    2    0    0  0.00000000000E+00 -0.17763568394E-14 -0.46171062894E+03  0.46853137544E+03  0.79655162365E+02 0.  0.
         66    2    3    3    0    0 -0.23259389869E+02 -0.67790979987E+01 -0.41675197902E+03  0.41746037825E+03  0.20000013852E+01 0.  0.
         13    1    3    3    0    0  0.23259389869E+02  0.67790979987E+01 -0.44958649920E+02  0.51070997185E+02  0.10566000000E+00 0. -1.
         13    1    4    4    0    0 -0.13654711441E+02 -0.31881196510E+01 -0.23901822194E+03  0.23942918961E+03  0.10566000000E+00 0. -1.
        -13    1    4    4    0    0 -0.86205703290E+01 -0.33455466356E+01 -0.15611803497E+03  0.15639168431E+03  0.10566000000E+00 0.  1.
        -14    1    4    4    0    0 -0.98410809917E+00 -0.24543171208E+00 -0.21615722110E+02  0.21639504334E+02  0.00000000000E+00 0.  1.
<mgrwt>
<rscale>  0 0.79655162E+02</rscale>
<asrwt>0</asrwt>
<pdfrwt beam="1">  1        1 0.52467318E-03 0.79655162E+02</pdfrwt>
<pdfrwt beam="2">  1       -2 0.71557027E-01 0.79655162E+02</pdfrwt>
<totfact> 0.53791662E+04</totfact>
</mgrwt>
</event>
<event>
 8    1  0.8577104E-014  0.8095942E+02  0.7818608E-02  0.1326351E+00
          1   -1    0    0  501    0  0.00000000000E+00  0.00000000000E+00  0.99898325751E+01  0.99898338465E+01  0.50400000000E-02 0. -1.
         -2   -1    0    0    0  501 -0.00000000000E+00 -0.00000000000E+00 -0.16402745717E+03  0.16402745719E+03  0.25500000000E-02 0.  1.
        -24    2    1    2    0    0  0.17763568394E-14  0.00000000000E+00 -0.15403762459E+03  0.17401729103E+03  0.80959420630E+02 0.  0.
         66    2    3    3    0    0  0.10992666561E+02  0.36605221260E+02 -0.10556670499E+03  0.11229029408E+03  0.20000002653E+01 0.  0.
         13    1    3    3    0    0 -0.10992666561E+02 -0.36605221260E+02 -0.48470919606E+02  0.61726996955E+02  0.10566000000E+00 0. -1.
         13    1    4    4    0    0  0.39218313189E-01  0.40729788702E+00 -0.86302797042E+00  0.96094274449E+00  0.10566000000E+00 0. -1.
        -13    1    4    4    0    0  0.86027625553E+01  0.29791638223E+02 -0.85621554701E+02  0.91063774494E+02  0.10566000000E+00 0.  1.
        -14    1    4    4    0    0  0.23506856928E+01  0.64062851497E+01 -0.19082122314E+02  0.20265576840E+02  0.00000000000E+00 0.  1.
<mgrwt>
<rscale>  0 0.80959421E+02</rscale>
<asrwt>0</asrwt>
<pdfrwt beam="1">  1        1 0.15368975E-02 0.80959421E+02</pdfrwt>
<pdfrwt beam="2">  1       -2 0.25234991E-01 0.80959421E+02</pdfrwt>
<totfact> 0.88912924E+04</totfact>
</mgrwt>
</event>
<event>
 8    1  0.8577104E-014  0.8029043E+02  0.7818608E-02  0.1328229E+00
          1   -1    0    0  501    0  0.00000000000E+00  0.00000000000E+00  0.43235261493E+01  0.43235290869E+01  0.50400000000E-02 0. -1.
         -2   -1    0    0    0  501 -0.00000000000E+00 -0.00000000000E+00 -0.37276007471E+03  0.37276007472E+03  0.25500000000E-02 0.  1.
        -24    2    1    2    0    0  0.71054273576E-14 -0.22204460493E-15 -0.36843654856E+03  0.37708360381E+03  0.80290434946E+02 0.  0.
         66    2    3    3    0    0  0.32821415025E+02 -0.14151401569E+01 -0.29249301435E+03  0.29433893957E+03  0.20000005417E+01 0.  0.
         13    1    3    3    0    0 -0.32821415025E+02  0.14151401569E+01 -0.75943534217E+02  0.82744664235E+02  0.10566000000E+00 0. -1.
         13    1    4    4    0    0  0.22844383151E+02 -0.13410699328E+01 -0.20495079517E+03  0.20622440184E+03  0.10566000000E+00 0. -1.
        -13    1    4    4    0    0  0.66709316499E+01 -0.43727899719E+00 -0.56189100595E+02  0.56585499306E+02  0.10566000000E+00 0.  1.
         14    1    4    4    0    0  0.33061002242E+01  0.36320877312E+00 -0.31353118582E+02  0.31529038427E+02  0.00000000000E+00 0. -1.
<mgrwt>
<rscale>  0 0.80290435E+02</rscale>
<asrwt>0</asrwt>
<pdfrwt beam="1">  1        1 0.66515839E-03 0.80290435E+02</pdfrwt>
<pdfrwt beam="2">  1       -2 0.57347678E-01 0.80290435E+02</pdfrwt>
<totfact> 0.61276878E+04</totfact>
</mgrwt>
</event>
<event>
 8    1  0.8577104E-014  0.7952916E+02  0.7818608E-02  0.1330393E+00
          1   -1    0    0  501    0  0.00000000000E+00  0.00000000000E+00  0.17176385501E+02  0.17176386240E+02  0.50400000000E-02 0. -1.
         -2   -1    0    0    0  501 -0.00000000000E+00 -0.00000000000E+00 -0.92057891372E+02  0.92057891408E+02  0.25500000000E-02 0.  1.
        -24    2    1    2    0    0 -0.35527136788E-14  0.00000000000E+00 -0.74881505872E+02  0.10923427765E+03  0.79529161266E+02 0.  0.
         66    2    3    3    0    0  0.28966265073E+02 -0.80318680438E+01 -0.73166741789E+02  0.79126023024E+02  0.19999997794E+01 0.  0.
         13    1    3    3    0    0 -0.28966265073E+02  0.80318680438E+01 -0.17147640829E+01  0.30108254623E+02  0.10566000000E+00 0. -1.
         13    1    4    4    0    0  0.40251302273E+01 -0.10544720017E+01 -0.11163098123E+02  0.11913836841E+02  0.10566000000E+00 0. -1.
        -13    1    4    4    0    0  0.58201056519E+01 -0.21138647419E+01 -0.13715375185E+02  0.15048745279E+02  0.10566000000E+00 0.  1.
         14    1    4    4    0    0  0.19121029194E+02 -0.48635313001E+01 -0.48288268481E+02  0.52163440905E+02  0.00000000000E+00 0. -1.
<mgrwt>
<rscale>  0 0.79529161E+02</rscale>
<asrwt>0</asrwt>
<pdfrwt beam="1">  1        1 0.26425210E-02 0.79529161E+02</pdfrwt>
<pdfrwt beam="2">  1       -2 0.14162752E-01 0.79529161E+02</pdfrwt>
<totfact> 0.10991946E+05</totfact>
</mgrwt>
</event>
<event>
 8    1  0.8577104E-014  0.7841120E+02  0.7818608E-02  0.1333622E+00
         -2   -1    0    0    0  501 -0.00000000000E+00  0.00000000000E+00  0.92228309917E+02  0.92228309952E+02  0.25500000000E-02 0.  1.
          1   -1    0    0  501    0  0.00000000000E+00 -0.00000000000E+00 -0.16666023780E+02  0.16666024542E+02  0.50400000000E-02 0. -1.
        -24    2    1    2    0    0  0.17763568394E-14 -0.35527136788E-14  0.75562286137E+02  0.10889433449E+03  0.78411204548E+02 0.  0.
         66    2    3    3    0    0 -0.11782291268E+02  0.13114670325E+02  0.86397513847E+02  0.88200608661E+02  0.20000010159E+01 0.  0.
         13    1    3    3    0    0  0.11782291268E+02 -0.13114670325E+02 -0.10835227710E+02  0.20693725832E+02  0.10566000000E+00 0. -1.
         13    1    4    4    0    0 -0.12023725935E+01  0.18212536944E+01  0.12296467802E+02  0.12489073197E+02  0.10566000000E+00 0. -1.
        -13    1    4    4    0    0 -0.17430282494E+01  0.13230632381E+01  0.11843021382E+02  0.12043959619E+02  0.10566000000E+00 0.  1.
        -14    1    4    4    0    0 -0.88368904251E+01  0.99703533924E+01  0.62258024663E+02  0.63667575845E+02  0.00000000000E+00 0.  1.
<mgrwt>
<rscale>  0 0.78411205E+02</rscale>
<asrwt>0</asrwt>
<pdfrwt beam="1">  1        1 0.25640037E-02 0.78411205E+02</pdfrwt>
<pdfrwt beam="2">  1       -2 0.14188971E-01 0.78411205E+02</pdfrwt>
<totfact> 0.11391761E+05</totfact>
</mgrwt>
</event>
<event>
 8    1  0.8577104E-014  0.8265635E+02  0.7818608E-02  0.1321678E+00
         -2   -1    0    0    0  501 -0.00000000000E+00  0.00000000000E+00  0.38664739507E+02  0.38664739591E+02  0.25500000000E-02 0.  1.
          1   -1    0    0  501    0  0.00000000000E+00 -0.00000000000E+00 -0.44175084034E+02  0.44175084321E+02  0.50400000000E-02 0. -1.
        -24    2    1    2    0    0  0.00000000000E+00  0.35527136788E-14 -0.55103445266E+01  0.82839823912E+02  0.82656352019E+02 0.  0.
         66    2    3    3    0    0 -0.37265452097E+02 -0.17353134947E+02  0.12730797799E+01  0.41176036016E+02  0.19999993502E+01 0.  0.
         13    1    3    3    0    0  0.37265452097E+02  0.17353134947E+02 -0.67834243064E+01  0.41663787896E+02  0.10566000000E+00 0. -1.
         13    1    4    4    0    0 -0.23707221802E+02 -0.11980345644E+02  0.48189075040E+00  0.26566980070E+02  0.10566000000E+00 0. -1.
        -13    1    4    4    0    0 -0.29770502441E+01 -0.12679037207E+01  0.12163514825E+00  0.32398097392E+01  0.10566000000E+00 0.  1.
        -14    1    4    4    0    0 -0.10581180051E+02 -0.41048855822E+01  0.66955388120E+00  0.11369246207E+02  0.00000000000E+00 0.  1.
<mgrwt>
<rscale>  0 0.82656352E+02</rscale>
<asrwt>0</asrwt>
<pdfrwt beam="1">  1        1 0.67961669E-02 0.82656352E+02</pdfrwt>
<pdfrwt beam="2">  1       -2 0.59484214E-02 0.82656352E+02</pdfrwt>
<totfact> 0.11770721E+05</totfact>
</mgrwt>
</event>
<event>
 8    1  0.8577104E-014  0.7322821E+02  0.7818608E-02  0.1349447E+00
          1   -1    0    0  501    0  0.00000000000E+00  0.00000000000E+00  0.57944191464E+02  0.57944191683E+02  0.50400000000E-02 0. -1.
         -2   -1    0    0    0  501 -0.00000000000E+00 -0.00000000000E+00 -0.23135929005E+02  0.23135929145E+02  0.25500000000E-02 0.  1.
        -24    2    1    2    0    0  0.00000000000E+00 -0.17763568394E-14  0.34808262459E+02  0.81080120828E+02  0.73228210808E+02 0.  0.
         66    2    3    3    0    0 -0.31822786287E+02  0.11368376828E+02  0.18899205341E+01  0.33904299501E+02  0.20000015731E+01 0.  0.
         13    1    3    3    0    0  0.31822786287E+02 -0.11368376828E+02  0.32918341925E+02  0.47175821327E+02  0.10566000000E+00 0. -1.
         13    1    4    4    0    0 -0.67269925094E+00  0.53633084081E+00 -0.33983053552E-01  0.86746408372E+00  0.10566000000E+00 0. -1.
        -13    1    4    4    0    0 -0.21097268647E+02  0.73991016663E+01  0.13946904335E+01  0.22400843182E+02  0.10566000000E+00 0.  1.
         14    1    4    4    0    0 -0.10052818389E+02  0.34329443211E+01  0.52921315416E+00  0.10635992236E+02  0.00000000000E+00 0. -1.
<mgrwt>
<rscale>  0 0.73228211E+02</rscale>
<asrwt>0</asrwt>
<pdfrwt beam="1">  1        1 0.89144911E-02 0.73228211E+02</pdfrwt>
<pdfrwt beam="2">  1       -2 0.35593737E-02 0.73228211E+02</pdfrwt>
<totfact> 0.17156601E+05</totfact>
</mgrwt>
</event>
<event>
 8    1  0.8577104E-014  0.8254462E+02  0.7818608E-02  0.1321981E+00
         -2   -1    0    0    0  501 -0.00000000000E+00  0.00000000000E+00  0.31719354359E+03  0.31719354360E+03  0.25500000000E-02 0.  1.
          1   -1    0    0  501    0  0.00000000000E+00 -0.00000000000E+00 -0.53702331248E+01  0.53702354899E+01  0.50400000000E-02 0. -1.
        -24    2    1    2    0    0 -0.71054273576E-14  0.00000000000E+00  0.31182331047E+03  0.32256377909E+03  0.82544622063E+02 0.  0.
         66    2    3    3    0    0  0.36979497576E+02  0.12522408989E+02  0.10399831845E+03  0.11110330421E+03  0.19999993417E+01 0.  0.
         13    1    3    3    0    0 -0.36979497576E+02 -0.12522408989E+02  0.20782499201E+03  0.21146047488E+03  0.10566000000E+00 0. -1.
         13    1    4    4    0    0  0.80445811461E+01  0.32651676994E+01  0.23572203771E+02  0.25120441090E+02  0.10566000000E+00 0. -1.
        -13    1    4    4    0    0  0.16601062799E+02  0.57701025049E+01  0.45130879782E+02  0.48432394561E+02  0.10566000000E+00 0.  1.
         14    1    4    4    0    0  0.12333853631E+02  0.34871387850E+01  0.35295234901E+02  0.37550468559E+02  0.00000000000E+00 0. -1.
<mgrwt>
<rscale>  0 0.82544622E+02</rscale>
<asrwt>0</asrwt>
<pdfrwt beam="1">  1        1 0.82618953E-03 0.82544622E+02</pdfrwt>
<pdfrwt beam="2">  1       -2 0.48799028E-01 0.82544622E+02</pdfrwt>
<totfact> 0.62829623E+04</totfact>
</mgrwt>
</event>
<event>
 8    1  0.8577104E-014  0.7826297E+02  0.7818608E-02  0.1334054E+00
         -2   -1    0    0    0  501 -0.00000000000E+00  0.00000000000E+00  0.28365718069E+02  0.28365718183E+02  0.25500000000E-02 0.  1.
          1   -1    0    0  501    0  0.00000000000E+00 -0.00000000000E+00 -0.53983232489E+02  0.53983232725E+02  0.50400000000E-02 0. -1.
        -24    2    1    2    0    0  0.00000000000E+00  0.00000000000E+00 -0.25617514421E+02  0.82348950908E+02  0.78262971261E+02 0.  0.
         66    2    3    3    0    0 -0.43240754635E+01  0.31090895000E+02  0.11722756075E+02  0.33567311480E+02  0.20000023665E+01 0.  0.
         13    1    3    3    0    0  0.43240754635E+01 -0.31090895000E+02 -0.37340270496E+02  0.48781639428E+02  0.10566000000E+00 0. -1.
         13    1    4    4    0    0 -0.23439918090E+01  0.16468775756E+02  0.63577740755E+01  0.17808630709E+02  0.10566000000E+00 0. -1.
        -13    1    4    4    0    0 -0.21421099791E+01  0.14103488187E+02  0.50656137300E+01  0.15138316310E+02  0.10566000000E+00 0.  1.
         14    1    4    4    0    0  0.16202632468E+00  0.51863105697E+00  0.29936826979E+00  0.62036446070E+00  0.00000000000E+00 0. -1.
<mgrwt>
<rscale>  0 0.78262971E+02</rscale>
<asrwt>0</asrwt>
<pdfrwt beam="1">  1        1 0.83051127E-02 0.78262971E+02</pdfrwt>
<pdfrwt beam="2">  1       -2 0.43639566E-02 0.78262971E+02</pdfrwt>
<totfact> 0.14149860E+05</totfact>
</mgrwt>
</event>
<event>
 8    1  0.8577104E-014  0.7918195E+02  0.7818608E-02  0.1331389E+00
         -2   -1    0    0    0  501 -0.00000000000E+00  0.00000000000E+00  0.63187467802E+01  0.63187472948E+01  0.25500000000E-02 0.  1.
          1   -1    0    0  501    0  0.00000000000E+00 -0.00000000000E+00 -0.24806265977E+03  0.24806265983E+03  0.50400000000E-02 0. -1.
        -24    2    1    2    0    0 -0.17763568394E-14  0.00000000000E+00 -0.24174391299E+03  0.25438140712E+03  0.79181947556E+02 0.  0.
         66    2    3    3    0    0  0.12997026057E+02  0.35660004825E+02 -0.15685001380E+03  0.16138923586E+03  0.19999983697E+01 0.  0.
         13    1    3    3    0    0 -0.12997026057E+02 -0.35660004825E+02 -0.84893899198E+02  0.92992171259E+02  0.10566000000E+00 0. -1.
         13    1    4    4    0    0  0.30514962504E+00  0.72969515569E+00 -0.25020957397E+01  0.26262555930E+01  0.10566000000E+00 0. -1.
        -13    1    4    4    0    0  0.93635116524E+01  0.26536605343E+02 -0.11518501471E+03  0.11857261721E+03  0.10566000000E+00 0.  1.
        -14    1    4    4    0    0  0.33283647792E+01  0.83937043265E+01 -0.39162903342E+02  0.40190363057E+02  0.00000000000E+00 0.  1.
<mgrwt>
<rscale>  0 0.79181948E+02</rscale>
<asrwt>0</asrwt>
<pdfrwt beam="1">  1        1 0.38163479E-01 0.79181948E+02</pdfrwt>
<pdfrwt beam="2">  1       -2 0.97211512E-03 0.79181948E+02</pdfrwt>
<totfact> 0.17867776E+05</totfact>
</mgrwt>
</event>
<event>
 8    1  0.8577104E-014  0.7934988E+02  0.7818608E-02  0.1330907E+00
         -2   -1    0    0    0  501 -0.00000000000E+00  0.00000000000E+00  0.44463302813E+03  0.44463302813E+03  0.25500000000E-02 0.  1.
          1   -1    0    0  501    0  0.00000000000E+00 -0.00000000000E+00 -0.35402226402E+01  0.35402262278E+01  0.50400000000E-02 0. -1.
        -24    2    1    2    0    0 -0.35527136788E-14  0.00000000000E+00  0.44109280549E+03  0.44817325436E+03  0.79349876328E+02 0.  0.
         66    2    3    3    0    0 -0.26850391820E+02  0.12038017540E+02  0.37078426902E+03  0.37195541609E+03  0.19999991417E+01 0.  0.
         13    1    3    3    0    0  0.26850391820E+02 -0.12038017540E+02  0.70308536462E+02  0.76217838271E+02  0.10566000000E+00 0. -1.
         13    1    4    4    0    0 -0.24722430593E+00  0.92074497917E-01  0.31076902233E+01  0.31206570030E+01  0.10566000000E+00 0.  1.
        -13    1    4    4    0    0 -0.82107384111E+01  0.40398790128E+01  0.12392660962E+03  0.12426404381E+03  0.10566000000E+00 0. -1.
        -14    1    4    4    0    0 -0.18392429103E+02  0.79060640291E+01  0.24374996918E+03  0.24457071528E+03  0.00000000000E+00 0.  1.
<mgrwt>
<rscale>  0 0.79349876E+02</rscale>
<asrwt>0</asrwt>
<pdfrwt beam="1">  1        1 0.54465024E-03 0.79349876E+02</pdfrwt>
<pdfrwt beam="2">  1       -2 0.68405040E-01 0.79349876E+02</pdfrwt>
<totfact> 0.56123144E+04</totfact>
</mgrwt>
</event>
<event>
 8    1  0.8577104E-014  0.8518414E+02  0.7818608E-02  0.1314952E+00
         -2   -1    0    0    0  501 -0.00000000000E+00  0.00000000000E+00  0.12144394990E+03  0.12144394993E+03  0.25500000000E-02 0.  1.
          1   -1    0    0  501    0  0.00000000000E+00 -0.00000000000E+00 -0.14937626493E+02  0.14937627344E+02  0.50400000000E-02 0. -1.
        -24    2    1    2    0    0  0.22204460493E-15  0.00000000000E+00  0.10650632341E+03  0.13638157727E+03  0.85184139916E+02 0.  0.
         66    2    3    3    0    0  0.19722299899E+01  0.25177372770E+02  0.10814606946E+03  0.11107367886E+03  0.20000013737E+01 0.  0.
         13    1    3    3    0    0 -0.19722299899E+01 -0.25177372770E+02 -0.16397460534E+01  0.25307898409E+02  0.10566000000E+00 0. -1.
         13    1    4    4    0    0  0.33945831636E+00  0.12484848877E+02  0.55480859969E+02  0.56869356162E+02  0.10566000000E+00 0. -1.
        -13    1    4    4    0    0  0.16218601851E+01  0.12187152973E+02  0.49831969476E+02  0.51326342885E+02  0.10566000000E+00 0.  1.
        -14    1    4    4    0    0  0.10911488457E-01  0.50537091983E+00  0.28332400156E+01  0.28779798146E+01  0.00000000000E+00 0.  1.
<mgrwt>
<rscale>  0 0.85184140E+02</rscale>
<asrwt>0</asrwt>
<pdfrwt beam="1">  1        1 0.22980966E-02 0.85184140E+02</pdfrwt>
<pdfrwt beam="2">  1       -2 0.18683684E-01 0.85184140E+02</pdfrwt>
<totfact> 0.85778591E+04</totfact>
</mgrwt>
</event>
<event>
 8    1  0.8577104E-014  0.7873151E+02  0.7818608E-02  0.1332690E+00
         -2   -1    0    0    0  501 -0.00000000000E+00  0.00000000000E+00  0.28705343859E+02  0.28705343972E+02  0.25500000000E-02 0.  1.
          1   -1    0    0  501    0  0.00000000000E+00 -0.00000000000E+00 -0.53985157702E+02  0.53985157938E+02  0.50400000000E-02 0. -1.
        -24    2    1    2    0    0  0.00000000000E+00  0.00000000000E+00 -0.25279813843E+02  0.82690501910E+02  0.78731506515E+02 0.  0.
         66    2    3    3    0    0  0.13764993747E+02  0.22114869234E+01  0.25988906291E+02  0.29559921680E+02  0.19999980751E+01 0.  0.
         13    1    3    3    0    0 -0.13764993747E+02 -0.22114869234E+01 -0.51268720134E+02  0.53130580229E+02  0.10566000000E+00 0. -1.
         13    1    4    4    0    0  0.11435083808E+01 -0.56590323885E-01  0.18367953026E+01  0.21669782880E+01  0.10566000000E+00 0. -1.
        -13    1    4    4    0    0  0.87805078749E+01  0.86014847678E+00  0.15975922686E+02  0.18250436807E+02  0.10566000000E+00 0.  1.
        -14    1    4    4    0    0  0.38409774913E+01  0.14079287705E+01  0.81761883025E+01  0.91425065857E+01  0.00000000000E+00 0.  1.
<mgrwt>
<rscale>  0 0.78731507E+02</rscale>
<asrwt>0</asrwt>
<pdfrwt beam="1">  1        1 0.83054089E-02 0.78731507E+02</pdfrwt>
<pdfrwt beam="2">  1       -2 0.44162068E-02 0.78731507E+02</pdfrwt>
<totfact> 0.13918566E+05</totfact>
</mgrwt>
</event>
<event>
 8    1  0.8577104E-014  0.7940102E+02  0.7818608E-02  0.1330760E+00
         -2   -1    0    0    0  501 -0.00000000000E+00  0.00000000000E+00  0.14194951421E+02  0.14194951650E+02  0.25500000000E-02 0.  1.
          1   -1    0    0  501    0  0.00000000000E+00 -0.00000000000E+00 -0.11103458873E+03  0.11103458885E+03  0.50400000000E-02 0. -1.
        -24    2    1    2    0    0  0.00000000000E+00  0.00000000000E+00 -0.96839637314E+02  0.12522954050E+03  0.79401023032E+02 0.  0.
         66    2    3    3    0    0 -0.31305329561E+02 -0.22222521889E+02 -0.32658066025E+02  0.50442179300E+02  0.20000094958E+01 0.  0.
         13    1    3    3    0    0  0.31305329561E+02  0.22222521889E+02 -0.64181571289E+02  0.74787361199E+02  0.10566000000E+00 0. -1.
         13    1    4    4    0    0 -0.10787201552E+02 -0.86003710814E+01 -0.11112156710E+02  0.17715001859E+02  0.10566000000E+00 0. -1.
        -13    1    4    4    0    0 -0.11457845693E+02 -0.76739127970E+01 -0.12395354121E+02  0.18542576233E+02  0.10566000000E+00 0.  1.
         14    1    4    4    0    0 -0.90602823162E+01 -0.59482380103E+01 -0.91505551938E+01  0.14184601208E+02  0.00000000000E+00 0. -1.
<mgrwt>
<rscale>  0 0.79401023E+02</rscale>
<asrwt>0</asrwt>
<pdfrwt beam="1">  1        1 0.17082244E-01 0.79401023E+02</pdfrwt>
<pdfrwt beam="2">  1       -2 0.21838388E-02 0.79401023E+02</pdfrwt>
<totfact> 0.15269127E+05</totfact>
</mgrwt>
</event>
<event>
 8    1  0.8577104E-014  0.7858065E+02  0.7818608E-02  0.1333128E+00
          1   -1    0    0  501    0  0.00000000000E+00  0.00000000000E+00  0.45203423257E+01  0.45203451354E+01  0.50400000000E-02 0. -1.
         -2   -1    0    0    0  501 -0.00000000000E+00 -0.00000000000E+00 -0.34150717114E+03  0.34150717115E+03  0.25500000000E-02 0.  1.
        -24    2    1    2    0    0  0.17763568394E-14  0.00000000000E+00 -0.33698682882E+03  0.34602751629E+03  0.78580654312E+02 0.  0.
         66    2    3    3    0    0  0.14339651942E+02  0.66283798780E+01 -0.32689236835E+03  0.32727997421E+03  0.20000002474E+01 0.  0.
         13    1    3    3    0    0 -0.14339651942E+02 -0.66283798780E+01 -0.10094460473E+02  0.18747542076E+02  0.10566000000E+00 0. -1.
         13    1    4    4    0    0  0.60802260400E+01  0.20626639971E+01 -0.14235424233E+03  0.14249900072E+03  0.10566000000E+00 0. -1.
        -13    1    4    4    0    0  0.59376340035E+01  0.29117723277E+01 -0.12596595170E+03  0.12613947070E+03  0.10566000000E+00 0.  1.
         14    1    4    4    0    0  0.23217918981E+01  0.16539435531E+01 -0.58572174307E+02  0.58641502794E+02  0.00000000000E+00 0. -1.
<mgrwt>
<rscale>  0 0.78580654E+02</rscale>
<asrwt>0</asrwt>
<pdfrwt beam="1">  1        1 0.69543777E-03 0.78580654E+02</pdfrwt>
<pdfrwt beam="2">  1       -2 0.52539545E-01 0.78580654E+02</pdfrwt>
<totfact> 0.68358958E+04</totfact>
</mgrwt>
</event>
<event>
 8    1  0.8577104E-014  0.7129328E+02  0.7818608E-02  0.1355750E+00
          1   -1    0    0  501    0  0.00000000000E+00  0.00000000000E+00  0.58253074413E+01  0.58253096216E+01  0.50400000000E-02 0. -1.
         -2   -1    0    0    0  501 -0.00000000000E+00 -0.00000000000E+00 -0.21813146958E+03  0.21813146959E+03  0.25500000000E-02 0.  1.
        -24    2    1    2    0    0  0.17763568394E-14  0.00000000000E+00 -0.21230616214E+03  0.22395677922E+03  0.71293284922E+02 0.  0.
         66    2    3    3    0    0 -0.94720442826E+01 -0.27125283874E+02 -0.17236730104E+03  0.17475693737E+03  0.20000104307E+01 0.  0.
         13    1    3    3    0    0  0.94720442826E+01  0.27125283874E+02 -0.39938861098E+02  0.49199841850E+02  0.10566000000E+00 0. -1.
         13    1    4    4    0    0 -0.35611451813E+00 -0.10856070988E+01 -0.53585512015E+01  0.54800178227E+01  0.10566000000E+00 0. -1.
        -13    1    4    4    0    0 -0.28114305087E+01 -0.96345146821E+01 -0.58989778857E+02  0.59837556671E+02  0.10566000000E+00 0.  1.
         14    1    4    4    0    0 -0.63044992558E+01 -0.16405162094E+02 -0.10801897098E+03  0.10943936287E+03  0.00000000000E+00 0. -1.
<mgrwt>
<rscale>  0 0.71293285E+02</rscale>
<asrwt>0</asrwt>
<pdfrwt beam="1">  1        1 0.89620149E-03 0.71293285E+02</pdfrwt>
<pdfrwt beam="2">  1       -2 0.33558681E-01 0.71293285E+02</pdfrwt>
<totfact> 0.11029715E+05</totfact>
</mgrwt>
</event>
<event>
 8    1  0.8577104E-014  0.8116619E+02  0.7818608E-02  0.1325774E+00
         -2   -1    0    0    0  501 -0.00000000000E+00  0.00000000000E+00  0.43771480280E+02  0.43771480354E+02  0.25500000000E-02 0.  1.
          1   -1    0    0  501    0  0.00000000000E+00 -0.00000000000E+00 -0.37626953363E+02  0.37626953700E+02  0.50400000000E-02 0. -1.
        -24    2    1    2    0    0 -0.35527136788E-14  0.35527136788E-14  0.61445269170E+01  0.81398434054E+02  0.81166186651E+02 0.  0.
         66    2    3    3    0    0  0.20865728517E+02 -0.30671989533E+02 -0.13368916990E+02  0.39482622890E+02  0.20000000797E+01 0.  0.
         13    1    3    3    0    0 -0.20865728517E+02  0.30671989533E+02  0.19513443907E+02  0.41915811165E+02  0.10566000000E+00 0. -1.
         13    1    4    4    0    0  0.79513696745E+01 -0.11642732104E+02 -0.52730658116E+01  0.15053035496E+02  0.10566000000E+00 0. -1.
        -13    1    4    4    0    0  0.80784796329E+01 -0.11033316564E+02 -0.54143511433E+01  0.14707898215E+02  0.10566000000E+00 0.  1.
         14    1    4    4    0    0  0.48358792096E+01 -0.79959408651E+01 -0.26815000351E+01  0.97216891787E+01  0.00000000000E+00 0. -1.
<mgrwt>
<rscale>  0 0.81166187E+02</rscale>
<asrwt>0</asrwt>
<pdfrwt beam="1">  1        1 0.57887621E-02 0.81166187E+02</pdfrwt>
<pdfrwt beam="2">  1       -2 0.67340739E-02 0.81166187E+02</pdfrwt>
<totfact> 0.12066128E+05</totfact>
</mgrwt>
</event>
<event>
 8    1  0.8577104E-014  0.8038609E+02  0.7818608E-02  0.1327959E+00
         -2   -1    0    0    0  501 -0.00000000000E+00  0.00000000000E+00  0.66261964341E+02  0.66261964390E+02  0.25500000000E-02 0.  1.
          1   -1    0    0  501    0  0.00000000000E+00 -0.00000000000E+00 -0.24380215570E+02  0.24380216091E+02  0.50400000000E-02 0. -1.
        -24    2    1    2    0    0  0.00000000000E+00  0.00000000000E+00  0.41881748771E+02  0.90642180481E+02  0.80386093339E+02 0.  0.
         66    2    3    3    0    0  0.58506829845E+01  0.36105889083E+02  0.39673426344E+02  0.53998578450E+02  0.19999997200E+01 0.  0.
         13    1    3    3    0    0 -0.58506829845E+01 -0.36105889083E+02  0.22083224272E+01  0.36643602031E+02  0.10566000000E+00 0. -1.
         13    1    4    4    0    0  0.39786797504E+01  0.20386238524E+02  0.21829906365E+02  0.30132782640E+02  0.10566000000E+00 0. -1.
        -13    1    4    4    0    0  0.18883007254E+01  0.14083304995E+02  0.16131640781E+02  0.21497584924E+02  0.10566000000E+00 0.  1.
         14    1    4    4    0    0 -0.16297491278E-01  0.16363455639E+01  0.17118791977E+01  0.23682108859E+01  0.00000000000E+00 0. -1.
<mgrwt>
<rscale>  0 0.80386093E+02</rscale>
<asrwt>0</asrwt>
<pdfrwt beam="1">  1        1 0.37508025E-02 0.80386093E+02</pdfrwt>
<pdfrwt beam="2">  1       -2 0.10194148E-01 0.80386093E+02</pdfrwt>
<totfact> 0.11475739E+05</totfact>
</mgrwt>
</event>
<event>
 8    1  0.8577104E-014  0.7984102E+02  0.7818608E-02  0.1329503E+00
         -2   -1    0    0    0  501 -0.00000000000E+00  0.00000000000E+00  0.25948781386E+03  0.25948781387E+03  0.25500000000E-02 0.  1.
          1   -1    0    0  501    0  0.00000000000E+00 -0.00000000000E+00 -0.61415090299E+01  0.61415110980E+01  0.50400000000E-02 0. -1.
        -24    2    1    2    0    0  0.00000000000E+00  0.00000000000E+00  0.25334630483E+03  0.26562932497E+03  0.79841017736E+02 0.  0.
         66    2    3    3    0    0  0.30554557052E+02 -0.25385047331E+02  0.13904895628E+03  0.14462570257E+03  0.20000040928E+01 0.  0.
         13    1    3    3    0    0 -0.30554557052E+02  0.25385047331E+02  0.11429734855E+03  0.12100362240E+03  0.10566000000E+00 0. -1.
         13    1    4    4    0    0  0.11644664428E+02 -0.10315103469E+02  0.55633699278E+02  0.57767804429E+02  0.10566000000E+00 0. -1.
        -13    1    4    4    0    0  0.65235242604E+01 -0.52247604388E+01  0.26798634802E+02  0.28071916246E+02  0.10566000000E+00 0.  1.
        -14    1    4    4    0    0  0.12386368364E+02 -0.98451834233E+01  0.56616622201E+02  0.58785981894E+02  0.00000000000E+00 0.  1.
<mgrwt>
<rscale>  0 0.79841018E+02</rscale>
<asrwt>0</asrwt>
<pdfrwt beam="1">  1        1 0.94484765E-03 0.79841018E+02</pdfrwt>
<pdfrwt beam="2">  1       -2 0.39921204E-01 0.79841018E+02</pdfrwt>
<totfact> 0.76129206E+04</totfact>
</mgrwt>
</event>
<event>
 8    1  0.8577104E-014  0.7946915E+02  0.7818608E-02  0.1330565E+00
         -2   -1    0    0    0  501 -0.00000000000E+00  0.00000000000E+00  0.28803500553E+02  0.28803500666E+02  0.25500000000E-02 0.  1.
          1   -1    0    0  501    0  0.00000000000E+00 -0.00000000000E+00 -0.54814051070E+02  0.54814051302E+02  0.50400000000E-02 0. -1.
        -24    2    1    2    0    0  0.35527136788E-14  0.35527136788E-14 -0.26010550517E+02  0.83617551968E+02  0.79469152876E+02 0.  0.
         66    2    3    3    0    0  0.24908859055E+02  0.10510501714E+02  0.17589289719E+02  0.32315708548E+02  0.20000001048E+01 0.  0.
         13    1    3    3    0    0 -0.24908859055E+02 -0.10510501714E+02 -0.43599840236E+02  0.51301843420E+02  0.10566000000E+00 0. -1.
         13    1    4    4    0    0  0.39960029406E+01  0.23016849058E+01  0.29681163300E+01  0.54851318572E+01  0.10566000000E+00 0.  1.
        -13    1    4    4    0    0  0.28096634846E+01  0.13124648110E+01  0.24338562390E+01  0.39435508117E+01  0.10566000000E+00 0.  1.
         14    1    4    4    0    0  0.18103192630E+02  0.68963519970E+01  0.12187317150E+02  0.22887025879E+02  0.00000000000E+00 0. -1.
<mgrwt>
<rscale>  0 0.79469153E+02</rscale>
<asrwt>0</asrwt>
<pdfrwt beam="1">  1        1 0.84329310E-02 0.79469153E+02</pdfrwt>
<pdfrwt beam="2">  1       -2 0.44313078E-02 0.79469153E+02</pdfrwt>
<totfact> 0.13596414E+05</totfact>
</mgrwt>
</event>
<event>
 8    1  0.8577104E-014  0.8245972E+02  0.7818608E-02  0.1322213E+00
         -2   -1    0    0    0  501 -0.00000000000E+00  0.00000000000E+00  0.32232278238E+02  0.32232278339E+02  0.25500000000E-02 0.  1.
          1   -1    0    0  501    0  0.00000000000E+00 -0.00000000000E+00 -0.52739098035E+02  0.52739098276E+02  0.50400000000E-02 0. -1.
        -24    2    1    2    0    0 -0.35527136788E-14  0.00000000000E+00 -0.20506819796E+02  0.84971376615E+02  0.82459718564E+02 0.  0.
         66    2    3    3    0    0 -0.23203103697E+02  0.29831600035E+02  0.66598217004E+01  0.38427354914E+02  0.19999996897E+01 0.  0.
         13    1    3    3    0    0  0.23203103697E+02 -0.29831600035E+02 -0.27166641497E+02  0.46544021701E+02  0.10566000000E+00 0. -1.
         13    1    4    4    0    0 -0.13145940525E+02  0.17359132849E+02  0.39266018800E+01  0.22126558971E+02  0.10566000000E+00 0. -1.
        -13    1    4    4    0    0 -0.88338875764E+01  0.10712840877E+02  0.27609481967E+01  0.14157560819E+02  0.10566000000E+00 0.  1.
         14    1    4    4    0    0 -0.12232755960E+01  0.17596263089E+01 -0.27728376227E-01  0.21432351233E+01  0.00000000000E+00 0. -1.
<mgrwt>
<rscale>  0 0.82459719E+02</rscale>
<asrwt>0</asrwt>
<pdfrwt beam="1">  1        1 0.81137074E-02 0.82459719E+02</pdfrwt>
<pdfrwt beam="2">  1       -2 0.49588121E-02 0.82459719E+02</pdfrwt>
<totfact> 0.12196081E+05</totfact>
</mgrwt>
</event>
<event>
 8    1  0.9430637E-014  0.7498882E+02  0.7818608E-02  0.1343906E+00
         -2   -1    0    0    0  501 -0.00000000000E+00  0.00000000000E+00  0.25404382987E+02  0.25404383115E+02  0.25500000000E-02 0.  1.
          1   -1    0    0  501    0  0.00000000000E+00 -0.00000000000E+00 -0.55338122112E+02  0.55338122342E+02  0.50400000000E-02 0. -1.
        -24    2    1    2    0    0  0.00000000000E+00 -0.88817841970E-15 -0.29933739125E+02  0.80742505457E+02  0.74988822163E+02 0.  0.
         66    2    3    3    0    0 -0.18793179146E+02 -0.73019882426E+01  0.19026019056E+02  0.27793740600E+02  0.20000001771E+01 0.  0.
         13    1    3    3    0    0  0.18793179146E+02  0.73019882426E+01 -0.48959758181E+02  0.52948764857E+02  0.10566000000E+00 0. -1.
         13    1    4    4    0    0 -0.38243104066E+01 -0.95905149225E+00  0.35141054706E+01  0.52825402171E+01  0.10566000000E+00 0. -1.
        -13    1    4    4    0    0 -0.10184171531E+02 -0.38387559627E+01  0.97255630208E+01  0.14596271347E+02  0.10566000000E+00 0.  1.
         14    1    4    4    0    0 -0.47846972079E+01 -0.25041807876E+01  0.57863505646E+01  0.79149290359E+01  0.00000000000E+00 0. -1.
<mgrwt>
<rscale>  0 0.74988822E+02</rscale>
<asrwt>0</asrwt>
<pdfrwt beam="1">  1        1 0.85135573E-02 0.74988822E+02</pdfrwt>
<pdfrwt beam="2">  1       -2 0.39083666E-02 0.74988822E+02</pdfrwt>
<totfact> 0.15973003E+05</totfact>
</mgrwt>
</event>
<event>
 8    1  0.8577104E-014  0.8019350E+02  0.7818608E-02  0.1328503E+00
         -2   -1    0    0    0  501 -0.00000000000E+00  0.00000000000E+00  0.71314357960E+03  0.71314357960E+03  0.25500000000E-02 0.  1.
          1   -1    0    0  501    0  0.00000000000E+00 -0.00000000000E+00 -0.22544512412E+01  0.22544568748E+01  0.50400000000E-02 0. -1.
        -24    2    1    2    0    0  0.00000000000E+00  0.00000000000E+00  0.71088912836E+03  0.71539803648E+03  0.80193502104E+02 0.  0.
         66    2    3    3    0    0 -0.22205314888E+02 -0.27199461926E+01  0.65224568814E+03  0.65263229454E+03  0.20000153430E+01 0.  0.
         13    1    3    3    0    0  0.22205314888E+02  0.27199461926E+01  0.58643440214E+02  0.62765741936E+02  0.10566000000E+00 0. -1.
         13    1    4    4    0    0 -0.99466073334E+00 -0.34268561481E+00  0.36652093343E+02  0.36667340971E+02  0.10566000000E+00 0.  1.
        -13    1    4    4    0    0 -0.15687954776E+02 -0.18173107563E+01  0.43808488261E+03  0.43836946755E+03  0.10566000000E+00 0.  1.
        -14    1    4    4    0    0 -0.55226993783E+01 -0.55994982142E+00  0.17750871218E+03  0.17759548602E+03  0.00000000000E+00 0.  1.
<mgrwt>
<rscale>  0 0.80193502E+02</rscale>
<asrwt>0</asrwt>
<pdfrwt beam="1">  1        1 0.34683875E-03 0.80193502E+02</pdfrwt>
<pdfrwt beam="2">  1       -2 0.10971450E+00 0.80193502E+02</pdfrwt>
<totfact> 0.36952812E+04</totfact>
</mgrwt>
</event>
<event>
 8    1  0.9514555E-014  0.7885025E+02  0.7818608E-02  0.1332346E+00
         -2   -1    0    0    0  501 -0.00000000000E+00  0.00000000000E+00  0.19876696323E+02  0.19876696486E+02  0.25500000000E-02 0.  1.
          1   -1    0    0  501    0  0.00000000000E+00 -0.00000000000E+00 -0.78199140072E+02  0.78199140234E+02  0.50400000000E-02 0. -1.
        -24    2    1    2    0    0  0.00000000000E+00  0.00000000000E+00 -0.58322443749E+02  0.98075836721E+02  0.78850252400E+02 0.  0.
         66    2    3    3    0    0 -0.20076562664E+02  0.20564188805E+02  0.43429471383E+01  0.29134436904E+02  0.19999985717E+01 0.  0.
         13    1    3    3    0    0  0.20076562664E+02 -0.20564188805E+02 -0.62665390887E+02  0.68941399817E+02  0.10566000000E+00 0. -1.
         13    1    4    4    0    0 -0.52823490617E+01  0.50137196101E+01  0.60614577214E+00  0.73088420882E+01  0.10566000000E+00 0. -1.
        -13    1    4    4    0    0 -0.11417907163E+02  0.11333268670E+02  0.24656534747E+01  0.16275816226E+02  0.10566000000E+00 0.  1.
         14    1    4    4    0    0 -0.33763064392E+01  0.42172005241E+01  0.12711478914E+01  0.55497785896E+01  0.00000000000E+00 0. -1.
<mgrwt>
<rscale>  0 0.78850252E+02</rscale>
<asrwt>0</asrwt>
<pdfrwt beam="1">  1        1 0.12030637E-01 0.78850252E+02</pdfrwt>
<pdfrwt beam="2">  1       -2 0.30579533E-02 0.78850252E+02</pdfrwt>
<totfact> 0.14685289E+05</totfact>
</mgrwt>
</event>
<event>
 8    1  0.8577104E-014  0.7610726E+02  0.7818608E-02  0.1340476E+00
         -2   -1    0    0    0  501 -0.00000000000E+00  0.00000000000E+00  0.10197437401E+02  0.10197437720E+02  0.25500000000E-02 0.  1.
          1   -1    0    0  501    0  0.00000000000E+00 -0.00000000000E+00 -0.14200416640E+03  0.14200416649E+03  0.50400000000E-02 0. -1.
        -24    2    1    2    0    0  0.00000000000E+00  0.00000000000E+00 -0.13180672900E+03  0.15220160421E+03  0.76107256649E+02 0.  0.
         66    2    3    3    0    0  0.15021385039E+02 -0.34933836652E+02 -0.65463857471E+02  0.75733292353E+02  0.19999959634E+01 0.  0.
         13    1    3    3    0    0 -0.15021385039E+02  0.34933836652E+02 -0.66342871531E+02  0.76468311860E+02  0.10566000000E+00 0. -1.
         13    1    4    4    0    0  0.10008946757E+02 -0.22088816548E+02 -0.41442870565E+02  0.48016846173E+02  0.10566000000E+00 0. -1.
        -13    1    4    4    0    0  0.50265301025E+01 -0.12443522146E+02 -0.23436980265E+02  0.27007599972E+02  0.10566000000E+00 0.  1.
         14    1    4    4    0    0 -0.14091820692E-01 -0.40149795727E+00 -0.58400664218E+00  0.70884620844E+00  0.00000000000E+00 0. -1.
<mgrwt>
<rscale>  0 0.76107257E+02</rscale>
<asrwt>0</asrwt>
<pdfrwt beam="1">  1        1 0.21846794E-01 0.76107257E+02</pdfrwt>
<pdfrwt beam="2">  1       -2 0.15688367E-02 0.76107257E+02</pdfrwt>
<totfact> 0.17855312E+05</totfact>
</mgrwt>
</event>
<event>
 8    1  0.8577104E-014  0.7976275E+02  0.7818608E-02  0.1329726E+00
          1   -1    0    0  501    0  0.00000000000E+00  0.00000000000E+00  0.10171945258E+03  0.10171945271E+03  0.50400000000E-02 0. -1.
         -2   -1    0    0    0  501 -0.00000000000E+00 -0.00000000000E+00 -0.15636380867E+02  0.15636381075E+02  0.25500000000E-02 0.  1.
        -24    2    1    2    0    0  0.00000000000E+00  0.00000000000E+00  0.86083071714E+02  0.11735583378E+03  0.79762751247E+02 0.  0.
         66    2    3    3    0    0 -0.17342380828E+02  0.25566689163E+02  0.60187713202E+01  0.31537903666E+02  0.19999979633E+01 0.  0.
         13    1    3    3    0    0  0.17342380828E+02 -0.25566689163E+02  0.80064300394E+02  0.85817930115E+02  0.10566000000E+00 0. -1.
         13    1    4    4    0    0 -0.15659048358E+02  0.23477940182E+02  0.51839505282E+01  0.28693274087E+02  0.10566000000E+00 0. -1.
        -13    1    4    4    0    0 -0.59731555474E+00  0.81336767399E+00  0.11411253532E+00  0.10210477713E+01  0.10566000000E+00 0.  1.
         14    1    4    4    0    0 -0.10860169150E+01  0.12753813070E+01  0.72070825666E+00  0.18235818076E+01  0.00000000000E+00 0. -1.
<mgrwt>
<rscale>  0 0.79762751E+02</rscale>
<asrwt>0</asrwt>
<pdfrwt beam="1">  1        1 0.15649146E-01 0.79762751E+02</pdfrwt>
<pdfrwt beam="2">  1       -2 0.24055971E-02 0.79762751E+02</pdfrwt>
<totfact> 0.14860122E+05</totfact>
</mgrwt>
</event>
<event>
 8    1  0.8577104E-014  0.7935944E+02  0.7818608E-02  0.1330879E+00
         -2   -1    0    0    0  501 -0.00000000000E+00  0.00000000000E+00  0.44595360798E+03  0.44595360799E+03  0.25500000000E-02 0.  1.
          1   -1    0    0  501    0  0.00000000000E+00 -0.00000000000E+00 -0.35305904024E+01  0.35305939998E+01  0.50400000000E-02 0. -1.
        -24    2    1    2    0    0  0.00000000000E+00 -0.35527136788E-14  0.44242301758E+03  0.44948420199E+03  0.79359444010E+02 0.  0.
         66    2    3    3    0    0 -0.32654160298E+02 -0.17129996635E+02  0.30396395085E+03  0.30619897842E+03  0.19999999795E+01 0.  0.
         13    1    3    3    0    0  0.32654160298E+02  0.17129996635E+02  0.13845906673E+03  0.14328522357E+03  0.10566000000E+00 0. -1.
         13    1    4    4    0    0 -0.13912675580E+02 -0.78429985144E+01  0.13391819996E+03  0.13486723327E+03  0.10566000000E+00 0. -1.
        -13    1    4    4    0    0 -0.75422187708E+00 -0.16712609961E+00  0.56146712887E+01  0.56685517982E+01  0.10566000000E+00 0.  1.
        -14    1    4    4    0    0 -0.17987262841E+02 -0.91198720205E+01  0.16443107961E+03  0.16566319335E+03  0.00000000000E+00 0.  1.
<mgrwt>
<rscale>  0 0.79359444E+02</rscale>
<asrwt>0</asrwt>
<pdfrwt beam="1">  1        1 0.54316832E-03 0.79359444E+02</pdfrwt>
<pdfrwt beam="2">  1       -2 0.68608212E-01 0.79359444E+02</pdfrwt>
<totfact> 0.55987351E+04</totfact>
</mgrwt>
</event>
<event>
 8    1  0.8577104E-014  0.7966351E+02  0.7818608E-02  0.1330009E+00
          1   -1    0    0  501    0  0.00000000000E+00  0.00000000000E+00  0.18249763096E+01  0.18249832690E+01  0.50400000000E-02 0. -1.
         -2   -1    0    0    0  501 -0.00000000000E+00 -0.00000000000E+00 -0.86936234103E+03  0.86936234104E+03  0.25500000000E-02 0.  1.
        -24    2    1    2    0    0 -0.11102230246E-15  0.00000000000E+00 -0.86753736472E+03  0.87118732430E+03  0.79663510090E+02 0.  0.
         66    2    3    3    0    0 -0.65770629858E+00  0.23399629827E+02 -0.78613262714E+03  0.78648361884E+03  0.20000013130E+01 0.  0.
         13    1    3    3    0    0  0.65770629858E+00 -0.23399629827E+02 -0.81404737586E+02  0.84703705462E+02  0.10566000000E+00 0. -1.
         13    1    4    4    0    0 -0.25541677479E+00  0.24916520520E+01 -0.67020162770E+02  0.67067033253E+02  0.10566000000E+00 0. -1.
        -13    1    4    4    0    0 -0.37775954677E-01  0.72913564787E+01 -0.24549186373E+03  0.24560014582E+03  0.10566000000E+00 0.  1.
        -14    1    4    4    0    0 -0.36451356911E+00  0.13616621296E+02 -0.47362060064E+03  0.47381643977E+03  0.00000000000E+00 0.  1.
<mgrwt>
<rscale>  0 0.79663510E+02</rscale>
<asrwt>0</asrwt>
<pdfrwt beam="1">  1        1 0.28076682E-03 0.79663510E+02</pdfrwt>
<pdfrwt beam="2">  1       -2 0.13374772E+00 0.79663510E+02</pdfrwt>
<totfact> 0.30811247E+04</totfact>
</mgrwt>
</event>
<event>
 8    1  0.8577104E-014  0.8420795E+02  0.7818608E-02  0.1317517E+00
         -2   -1    0    0    0  501 -0.00000000000E+00  0.00000000000E+00  0.77558259430E+02  0.77558259472E+02  0.25500000000E-02 0.  1.
          1   -1    0    0  501    0  0.00000000000E+00 -0.00000000000E+00 -0.22856940274E+02  0.22856940830E+02  0.50400000000E-02 0. -1.
        -24    2    1    2    0    0  0.35527136788E-14 -0.71054273576E-14  0.54701319155E+02  0.10041520030E+03  0.84207945790E+02 0.  0.
         66    2    3    3    0    0  0.18738659586E+02 -0.34889359730E+02  0.44328222443E+02  0.59476012658E+02  0.19999978053E+01 0.  0.
         13    1    3    3    0    0 -0.18738659586E+02  0.34889359730E+02  0.10373096712E+02  0.40939187644E+02  0.10566000000E+00 0. -1.
         13    1    4    4    0    0  0.65533677781E+01 -0.11023342030E+02  0.13781876206E+02  0.18825832638E+02  0.10566000000E+00 0. -1.
        -13    1    4    4    0    0  0.56756338986E+01 -0.10868721224E+02  0.14811110681E+02  0.19228158644E+02  0.10566000000E+00 0.  1.
        -14    1    4    4    0    0  0.65096579094E+01 -0.12997296476E+02  0.15735235556E+02  0.21422021375E+02  0.00000000000E+00 0.  1.
<mgrwt>
<rscale>  0 0.84207946E+02</rscale>
<asrwt>0</asrwt>
<pdfrwt beam="1">  1        1 0.35164524E-02 0.84207946E+02</pdfrwt>
<pdfrwt beam="2">  1       -2 0.11932040E-01 0.84207946E+02</pdfrwt>
<totfact> 0.98727581E+04</totfact>
</mgrwt>
</event>
<event>
 8    1  0.8577104E-014  0.8016075E+02  0.7818608E-02  0.1328596E+00
          1   -1    0    0  501    0  0.00000000000E+00  0.00000000000E+00  0.17421379179E+01  0.17421452082E+01  0.50400000000E-02 0. -1.
         -2   -1    0    0    0  501 -0.00000000000E+00 -0.00000000000E+00 -0.92210452186E+03  0.92210452186E+03  0.25500000000E-02 0.  1.
        -24    2    1    2    0    0  0.00000000000E+00  0.00000000000E+00 -0.92036238394E+03  0.92384666707E+03  0.80160754013E+02 0.  0.
         66    2    3    3    0    0  0.11197495976E+02 -0.33759520990E-01 -0.90369673480E+03  0.90376831850E+03  0.19999970106E+01 0.  0.
         13    1    3    3    0    0 -0.11197495976E+02  0.33759520990E-01 -0.16665649144E+02  0.20078348569E+02  0.10566000000E+00 0. -1.
         13    1    4    4    0    0  0.71713780772E+01 -0.17136121455E+00 -0.62592617481E+03  0.62596728789E+03  0.10566000000E+00 0. -1.
        -13    1    4    4    0    0  0.35085299598E+00 -0.16115978173E+00 -0.38161395589E+02  0.38163494961E+02  0.10566000000E+00 0.  1.
         14    1    4    4    0    0  0.36752649031E+01  0.29876147529E+00 -0.23960916440E+03  0.23963753565E+03  0.00000000000E+00 0. -1.
<mgrwt>
<rscale>  0 0.80160754E+02</rscale>
<asrwt>0</asrwt>
<pdfrwt beam="1">  1        1 0.26802252E-03 0.80160754E+02</pdfrwt>
<pdfrwt beam="2">  1       -2 0.14186184E+00 0.80160754E+02</pdfrwt>
<totfact> 0.28443042E+04</totfact>
</mgrwt>
</event>
<event>
 8    1  0.8577104E-014  0.7890854E+02  0.7818608E-02  0.1332178E+00
         -2   -1    0    0    0  501 -0.00000000000E+00  0.00000000000E+00  0.24447881629E+03  0.24447881631E+03  0.25500000000E-02 0.  1.
          1   -1    0    0  501    0  0.00000000000E+00 -0.00000000000E+00 -0.63671745345E+01  0.63671765292E+01  0.50400000000E-02 0. -1.
        -24    2    1    2    0    0 -0.35527136788E-14  0.00000000000E+00  0.23811164176E+03  0.25084599284E+03  0.78908543142E+02 0.  0.
         66    2    3    3    0    0 -0.24481818075E+02  0.21469704341E+02  0.18981107430E+03  0.19259426667E+03  0.20000013890E+01 0.  0.
         13    1    3    3    0    0  0.24481818075E+02 -0.21469704341E+02  0.48300567461E+02  0.58251726170E+02  0.10566000000E+00 0. -1.
         13    1    4    4    0    0 -0.67020656248E+01  0.64189998520E+01  0.50847451907E+02  0.51687481774E+02  0.10566000000E+00 0. -1.
        -13    1    4    4    0    0 -0.10023367523E+02  0.91399224859E+01  0.79712261486E+02  0.80858282660E+02  0.10566000000E+00 0.  1.
        -14    1    4    4    0    0 -0.77563849272E+01  0.59107820028E+01  0.59251360906E+02  0.60048502231E+02  0.00000000000E+00 0.  1.
<mgrwt>
<rscale>  0 0.78908543E+02</rscale>
<asrwt>0</asrwt>
<pdfrwt beam="1">  1        1 0.97956540E-03 0.78908543E+02</pdfrwt>
<pdfrwt beam="2">  1       -2 0.37612128E-01 0.78908543E+02</pdfrwt>
<totfact> 0.80746791E+04</totfact>
</mgrwt>
</event>
<event>
 8    1  0.8577104E-014  0.7952842E+02  0.7818608E-02  0.1330395E+00
         -2   -1    0    0    0  501 -0.00000000000E+00  0.00000000000E+00  0.24665550408E+03  0.24665550410E+03  0.25500000000E-02 0.  1.
          1   -1    0    0  501    0  0.00000000000E+00 -0.00000000000E+00 -0.64105289620E+01  0.64105309432E+01  0.50400000000E-02 0. -1.
        -24    2    1    2    0    0  0.00000000000E+00  0.88817841970E-15  0.24024497512E+03  0.25306603504E+03  0.79528422716E+02 0.  0.
         66    2    3    3    0    0 -0.17745133124E+02  0.67176523628E+01  0.23130585218E+03  0.23209139116E+03  0.19999990076E+01 0.  0.
         13    1    3    3    0    0  0.17745133124E+02 -0.67176523628E+01  0.89391229443E+01  0.20974643880E+02  0.10566000000E+00 0. -1.
         13    1    4    4    0    0 -0.16496852677E+01  0.11958604752E+01  0.25660606298E+02  0.25741589371E+02  0.10566000000E+00 0.  1.
        -13    1    4    4    0    0 -0.34788113242E+01  0.14236156783E+01  0.48650185224E+02  0.48795291742E+02  0.10566000000E+00 0.  1.
         14    1    4    4    0    0 -0.12616636532E+02  0.40981762094E+01  0.15699506066E+03  0.15755451005E+03  0.00000000000E+00 0. -1.
<mgrwt>
<rscale>  0 0.79528423E+02</rscale>
<asrwt>0</asrwt>
<pdfrwt beam="1">  1        1 0.98623538E-03 0.79528423E+02</pdfrwt>
<pdfrwt beam="2">  1       -2 0.37947001E-01 0.79528423E+02</pdfrwt>
<totfact> 0.78803248E+04</totfact>
</mgrwt>
</event>
<event>
 8    1  0.8577104E-014  0.7972929E+02  0.7818608E-02  0.1329821E+00
          1   -1    0    0  501    0  0.00000000000E+00  0.00000000000E+00  0.27269370054E+02  0.27269370520E+02  0.50400000000E-02 0. -1.
         -2   -1    0    0    0  501 -0.00000000000E+00 -0.00000000000E+00 -0.58277465948E+02  0.58277466004E+02  0.25500000000E-02 0.  1.
        -24    2    1    2    0    0  0.71054273576E-14  0.00000000000E+00 -0.31008095894E+02  0.85546836524E+02  0.79729287143E+02 0.  0.
         66    2    3    3    0    0 -0.23466129501E+02  0.16339537815E+02 -0.45278586863E+02  0.53589086192E+02  0.20000001976E+01 0.  0.
         13    1    3    3    0    0  0.23466129501E+02 -0.16339537815E+02  0.14270490969E+02  0.31957750332E+02  0.10566000000E+00 0. -1.
         13    1    4    4    0    0 -0.16221544942E+01  0.12151340086E+01 -0.27464775100E+01  0.34150019927E+01  0.10566000000E+00 0. -1.
        -13    1    4    4    0    0 -0.37666735099E+01  0.30438636730E+01 -0.68513166189E+01  0.83907472157E+01  0.10566000000E+00 0.  1.
        -14    1    4    4    0    0 -0.18077301497E+02  0.12080540133E+02 -0.35680792734E+02  0.41783336983E+02  0.00000000000E+00 0.  1.
<mgrwt>
<rscale>  0 0.79729287E+02</rscale>
<asrwt>0</asrwt>
<pdfrwt beam="1">  1        1 0.41952878E-02 0.79729287E+02</pdfrwt>
<pdfrwt beam="2">  1       -2 0.89657640E-02 0.79729287E+02</pdfrwt>
<totfact> 0.12005417E+05</totfact>
</mgrwt>
</event>
<event>
 8    1  0.8577104E-014  0.7909200E+02  0.7818608E-02  0.1331648E+00
         -2   -1    0    0    0  501 -0.00000000000E+00  0.00000000000E+00  0.30611096487E+03  0.30611096488E+03  0.25500000000E-02 0.  1.
          1   -1    0    0  501    0  0.00000000000E+00 -0.00000000000E+00 -0.51088852739E+01  0.51088877600E+01  0.50400000000E-02 0. -1.
        -24    2    1    2    0    0  0.00000000000E+00  0.17763568394E-14  0.30100207960E+03  0.31121985264E+03  0.79092001849E+02 0.  0.
         66    2    3    3    0    0  0.20361350412E+02  0.12461834682E+02  0.27453099138E+03  0.27557421350E+03  0.20000013685E+01 0.  0.
         13    1    3    3    0    0 -0.20361350412E+02 -0.12461834682E+02  0.26471088221E+02  0.35645639142E+02  0.10566000000E+00 0. -1.
         13    1    4    4    0    0  0.49148714362E+01  0.37475724047E+01  0.68256482876E+02  0.68535821866E+02  0.10566000000E+00 0. -1.
        -13    1    4    4    0    0  0.78116533522E+01  0.44841913967E+01  0.98508017932E+02  0.98919010617E+02  0.10566000000E+00 0.  1.
         14    1    4    4    0    0  0.76348256231E+01  0.42300708810E+01  0.10776649057E+03  0.10811938102E+03  0.00000000000E+00 0. -1.
<mgrwt>
<rscale>  0 0.79092002E+02</rscale>
<asrwt>0</asrwt>
<pdfrwt beam="1">  1        1 0.78598242E-03 0.79092002E+02</pdfrwt>
<pdfrwt beam="2">  1       -2 0.47094002E-01 0.79092002E+02</pdfrwt>
<totfact> 0.71577180E+04</totfact>
</mgrwt>
</event>
<event>
 8    1  0.8577104E-014  0.8023761E+02  0.7818608E-02  0.1328378E+00
         -2   -1    0    0    0  501 -0.00000000000E+00  0.00000000000E+00  0.47223990511E+02  0.47223990580E+02  0.25500000000E-02 0.  1.
          1   -1    0    0  501    0  0.00000000000E+00 -0.00000000000E+00 -0.34082647694E+02  0.34082648066E+02  0.50400000000E-02 0. -1.
        -24    2    1    2    0    0 -0.35527136788E-14  0.35527136788E-14  0.13141342817E+02  0.81306638646E+02  0.80237613355E+02 0.  0.
         66    2    3    3    0    0 -0.31595255444E+02  0.18515320134E+02  0.23115097104E+02  0.43351873664E+02  0.19999974635E+01 0.  0.
         13    1    3    3    0    0  0.31595255444E+02 -0.18515320134E+02 -0.99737542870E+01  0.37954764982E+02  0.10566000000E+00 0. -1.
         13    1    4    4    0    0 -0.40918931580E+01  0.27351147848E+01  0.35205565325E+01  0.60522660911E+01  0.10566000000E+00 0. -1.
        -13    1    4    4    0    0 -0.15907299493E+02  0.94267957714E+01  0.12147805986E+02  0.22124353323E+02  0.10566000000E+00 0. -1.
        -14    1    4    4    0    0 -0.11596062793E+02  0.63534095782E+01  0.74467345860E+01  0.15175254250E+02  0.00000000000E+00 0.  1.
<mgrwt>
<rscale>  0 0.80237613E+02</rscale>
<asrwt>0</asrwt>
<pdfrwt beam="1">  1        1 0.52434843E-02 0.80237613E+02</pdfrwt>
<pdfrwt beam="2">  1       -2 0.72652293E-02 0.80237613E+02</pdfrwt>
<totfact> 0.12260927E+05</totfact>
</mgrwt>
</event>
<event>
 8    1  0.8577104E-014  0.7813785E+02  0.7818608E-02  0.1334421E+00
          1   -1    0    0  501    0  0.00000000000E+00  0.00000000000E+00  0.25240262090E+02  0.25240262593E+02  0.50400000000E-02 0. -1.
         -2   -1    0    0    0  501 -0.00000000000E+00 -0.00000000000E+00 -0.60474051703E+02  0.60474051757E+02  0.25500000000E-02 0.  1.
        -24    2    1    2    0    0  0.00000000000E+00 -0.17763568394E-14 -0.35233789614E+02  0.85714314350E+02  0.78137850968E+02 0.  0.
         66    2    3    3    0    0 -0.27754034456E+02  0.11047505353E+02 -0.45206541662E+02  0.54221446101E+02  0.20000013013E+01 0.  0.
         13    1    3    3    0    0  0.27754034456E+02 -0.11047505353E+02  0.99727520480E+01  0.31492868249E+02  0.10566000000E+00 0. -1.
         13    1    4    4    0    0 -0.10552542589E+02  0.49112701679E+01 -0.16960712186E+02  0.20570698861E+02  0.10566000000E+00 0. -1.
        -13    1    4    4    0    0 -0.10948559688E+02  0.37317612802E+01 -0.18703159152E+02  0.21991278449E+02  0.10566000000E+00 0.  1.
        -14    1    4    4    0    0 -0.62529321793E+01  0.24044739046E+01 -0.95426703234E+01  0.11659468791E+02  0.00000000000E+00 0.  1.
<mgrwt>
<rscale>  0 0.78137851E+02</rscale>
<asrwt>0</asrwt>
<pdfrwt beam="1">  1        1 0.38831173E-02 0.78137851E+02</pdfrwt>
<pdfrwt beam="2">  1       -2 0.93037002E-02 0.78137851E+02</pdfrwt>
<totfact> 0.12547159E+05</totfact>
</mgrwt>
</event>
<event>
 8    1  0.8577104E-014  0.8091734E+02  0.7818608E-02  0.1326468E+00
         -2   -1    0    0    0  501 -0.00000000000E+00  0.00000000000E+00  0.25538844223E+03  0.25538844224E+03  0.25500000000E-02 0.  1.
          1   -1    0    0  501    0  0.00000000000E+00 -0.00000000000E+00 -0.64094665138E+01  0.64094684954E+01  0.50400000000E-02 0. -1.
        -24    2    1    2    0    0  0.00000000000E+00 -0.88817841970E-15  0.24897897572E+03  0.26179791074E+03  0.80917338798E+02 0.  0.
         66    2    3    3    0    0 -0.25093809650E+02 -0.64564885283E+01  0.22499301685E+03  0.22648894710E+03  0.19999992424E+01 0.  0.
         13    1    3    3    0    0  0.25093809650E+02  0.64564885283E+01  0.23985958863E+02  0.35308963642E+02  0.10566000000E+00 0. -1.
         13    1    4    4    0    0 -0.79211426169E+01 -0.26205337598E+01  0.76012955588E+02  0.76469551319E+02  0.10566000000E+00 0. -1.
        -13    1    4    4    0    0 -0.15082949861E+02 -0.36899372809E+01  0.13002498449E+03  0.13094891664E+03  0.10566000000E+00 0.  1.
         14    1    4    4    0    0 -0.20897171727E+01 -0.14601748762E+00  0.18955076776E+02  0.19070479138E+02  0.00000000000E+00 0. -1.
<mgrwt>
<rscale>  0 0.80917339E+02</rscale>
<asrwt>0</asrwt>
<pdfrwt beam="1">  1        1 0.98607203E-03 0.80917339E+02</pdfrwt>
<pdfrwt beam="2">  1       -2 0.39290526E-01 0.80917339E+02</pdfrwt>
<totfact> 0.74113407E+04</totfact>
</mgrwt>
</event>
<event>
 8    1  0.8577104E-014  0.7955165E+02  0.7818608E-02  0.1330329E+00
         -2   -1    0    0    0  501 -0.00000000000E+00  0.00000000000E+00  0.58142318154E+01  0.58142323746E+01  0.25500000000E-02 0.  1.
          1   -1    0    0  501    0  0.00000000000E+00 -0.00000000000E+00 -0.27211098355E+03  0.27211098359E+03  0.50400000000E-02 0. -1.
        -24    2    1    2    0    0  0.00000000000E+00  0.00000000000E+00 -0.26629675173E+03  0.27792521597E+03  0.79551654215E+02 0.  0.
         66    2    3    3    0    0 -0.35324827736E+02 -0.16826192305E+02 -0.10874005749E+03  0.11558271609E+03  0.19999884802E+01 0.  0.
         13    1    3    3    0    0  0.35324827736E+02  0.16826192305E+02 -0.15755669425E+03  0.16234249988E+03  0.10566000000E+00 0. -1.
         13    1    4    4    0    0 -0.54626953102E+01 -0.30280775647E+01 -0.16471484194E+02  0.17616221200E+02  0.10566000000E+00 0. -1.
        -13    1    4    4    0    0 -0.12358890748E+02 -0.59447747987E+01 -0.36621630724E+02  0.39105466738E+02  0.10566000000E+00 0.  1.
        -14    1    4    4    0    0 -0.17503241678E+02 -0.78533399415E+01 -0.55646942570E+02  0.58861028150E+02  0.00000000000E+00 0.  1.
<mgrwt>
<rscale>  0 0.79551654E+02</rscale>
<asrwt>0</asrwt>
<pdfrwt beam="1">  1        1 0.41863218E-01 0.79551654E+02</pdfrwt>
<pdfrwt beam="2">  1       -2 0.89449746E-03 0.79551654E+02</pdfrwt>
<totfact> 0.17970221E+05</totfact>
</mgrwt>
</event>
<event>
 8    1  0.8577104E-014  0.7914848E+02  0.7818608E-02  0.1331485E+00
          1   -1    0    0  501    0  0.00000000000E+00  0.00000000000E+00  0.81585232149E+02  0.81585232305E+02  0.50400000000E-02 0. -1.
         -2   -1    0    0    0  501 -0.00000000000E+00 -0.00000000000E+00 -0.19196124957E+02  0.19196125126E+02  0.25500000000E-02 0.  1.
        -24    2    1    2    0    0  0.00000000000E+00  0.00000000000E+00  0.62389107192E+02  0.10078135743E+03  0.79148476356E+02 0.  0.
         66    2    3    3    0    0  0.11908319010E+02  0.37560509613E+02  0.26893480303E+02  0.47747871441E+02  0.20000000640E+01 0.  0.
         13    1    3    3    0    0 -0.11908319010E+02 -0.37560509613E+02  0.35495626889E+02  0.53033485991E+02  0.10566000000E+00 0. -1.
         13    1    4    4    0    0  0.56059211589E+01  0.15757726282E+02  0.12312320125E+02  0.20768646574E+02  0.10566000000E+00 0. -1.
        -13    1    4    4    0    0  0.31575026580E+01  0.10938172825E+02  0.75555360343E+01  0.13664213720E+02  0.10566000000E+00 0.  1.
         14    1    4    4    0    0  0.31448951929E+01  0.10864610507E+02  0.70256241442E+01  0.13315011147E+02  0.00000000000E+00 0. -1.
<mgrwt>
<rscale>  0 0.79148476E+02</rscale>
<asrwt>0</asrwt>
<pdfrwt beam="1">  1        1 0.12551575E-01 0.79148476E+02</pdfrwt>
<pdfrwt beam="2">  1       -2 0.29532499E-02 0.79148476E+02</pdfrwt>
<totfact> 0.14634122E+05</totfact>
</mgrwt>
</event>
<event>
 8    1  0.8577104E-014  0.7477102E+02  0.7818608E-02  0.1344582E+00
          1   -1    0    0  501    0  0.00000000000E+00  0.00000000000E+00  0.81370198587E+01  0.81370214195E+01  0.50400000000E-02 0. -1.
         -2   -1    0    0    0  501 -0.00000000000E+00 -0.00000000000E+00 -0.17176758018E+03  0.17176758020E+03  0.25500000000E-02 0.  1.
        -24    2    1    2    0    0  0.44408920985E-15 -0.17763568394E-14 -0.16363056032E+03  0.17990460162E+03  0.74771019870E+02 0.  0.
         66    2    3    3    0    0  0.25558453372E+01 -0.14582428798E+02 -0.16440205628E+03  0.16507942219E+03  0.19999869514E+01 0.  0.
         13    1    3    3    0    0 -0.25558453372E+01  0.14582428798E+02  0.77149595504E+00  0.14825179428E+02  0.10566000000E+00 0. -1.
         13    1    4    4    0    0  0.80391176171E-02 -0.48501746083E+01 -0.53337695525E+02  0.53557867642E+02  0.10566000000E+00 0. -1.
        -13    1    4    4    0    0  0.23844692723E+00 -0.17566001394E+01 -0.21400091269E+02  0.21473648301E+02  0.10566000000E+00 0.  1.
         14    1    4    4    0    0  0.23093592923E+01 -0.79756540500E+01 -0.89664269483E+02  0.90047906248E+02  0.00000000000E+00 0. -1.
<mgrwt>
<rscale>  0 0.74771020E+02</rscale>
<asrwt>0</asrwt>
<pdfrwt beam="1">  1        1 0.12518495E-02 0.74771020E+02</pdfrwt>
<pdfrwt beam="2">  1       -2 0.26425779E-01 0.74771020E+02</pdfrwt>
<totfact> 0.10731108E+05</totfact>
</mgrwt>
</event>
<event>
 8    1  0.8577104E-014  0.8048888E+02  0.7818608E-02  0.1327670E+00
          1   -1    0    0  501    0  0.00000000000E+00  0.00000000000E+00  0.79079907168E+02  0.79079907329E+02  0.50400000000E-02 0. -1.
         -2   -1    0    0    0  501 -0.00000000000E+00 -0.00000000000E+00 -0.20480738949E+02  0.20480739108E+02  0.25500000000E-02 0.  1.
        -24    2    1    2    0    0  0.00000000000E+00  0.00000000000E+00  0.58599168219E+02  0.99560646436E+02  0.80488879995E+02 0.  0.
         66    2    3    3    0    0 -0.15387296577E+02  0.35299557746E+02  0.43678081445E+02  0.58263217127E+02  0.19999995491E+01 0.  0.
         13    1    3    3    0    0  0.15387296577E+02 -0.35299557746E+02  0.14921086774E+02  0.41297429310E+02  0.10566000000E+00 0. -1.
         13    1    4    4    0    0 -0.29632182441E+01  0.69377424525E+01  0.78615087089E+01  0.10896211081E+02  0.10566000000E+00 0. -1.
        -13    1    4    4    0    0 -0.12008201381E+02  0.27410092604E+02  0.34183420722E+02  0.45431569346E+02  0.10566000000E+00 0.  1.
         14    1    4    4    0    0 -0.41587695190E+00  0.95172268987E+00  0.16331520145E+01  0.19354367000E+01  0.00000000000E+00 0. -1.
<mgrwt>
<rscale>  0 0.80488880E+02</rscale>
<asrwt>0</asrwt>
<pdfrwt beam="1">  1        1 0.12166139E-01 0.80488880E+02</pdfrwt>
<pdfrwt beam="2">  1       -2 0.31508830E-02 0.80488880E+02</pdfrwt>
<totfact> 0.13910073E+05</totfact>
</mgrwt>
</event>
<event>
 8    1  0.8577104E-014  0.8117999E+02  0.7818608E-02  0.1325736E+00
         -2   -1    0    0    0  501 -0.00000000000E+00  0.00000000000E+00  0.18318624056E+03  0.18318624058E+03  0.25500000000E-02 0.  1.
          1   -1    0    0  501    0  0.00000000000E+00 -0.00000000000E+00 -0.89938388812E+01  0.89938402933E+01  0.50400000000E-02 0. -1.
        -24    2    1    2    0    0 -0.17763568394E-14  0.00000000000E+00  0.17419240168E+03  0.19218008087E+03  0.81179989412E+02 0.  0.
         66    2    3    3    0    0  0.15873588884E+02  0.97726192791E+01  0.17244087194E+03  0.17345699533E+03  0.20000006108E+01 0.  0.
         13    1    3    3    0    0 -0.15873588884E+02 -0.97726192791E+01  0.17515297381E+01  0.18723085539E+02  0.10566000000E+00 0. -1.
         13    1    4    4    0    0  0.54091445869E+01  0.37114119601E+01  0.60247757881E+02  0.60603934836E+02  0.10566000000E+00 0. -1.
        -13    1    4    4    0    0  0.57343344653E+01  0.41492775641E+01  0.66946350929E+02  0.67319567458E+02  0.10566000000E+00 0.  1.
         14    1    4    4    0    0  0.47301098317E+01  0.19119297549E+01  0.45246763130E+02  0.45533493037E+02  0.00000000000E+00 0. -1.
<mgrwt>
<rscale>  0 0.81179989E+02</rscale>
<asrwt>0</asrwt>
<pdfrwt beam="1">  1        1 0.13836676E-02 0.81179989E+02</pdfrwt>
<pdfrwt beam="2">  1       -2 0.28182499E-01 0.81179989E+02</pdfrwt>
<totfact> 0.84799784E+04</totfact>
</mgrwt>
</event>
<event>
 8    1  0.8577104E-014  0.7216517E+02  0.7818608E-02  0.1352881E+00
         -2   -1    0    0    0  501 -0.00000000000E+00  0.00000000000E+00  0.25940119289E+02  0.25940119414E+02  0.25500000000E-02 0.  1.
          1   -1    0    0  501    0  0.00000000000E+00 -0.00000000000E+00 -0.50190700040E+02  0.50190700293E+02  0.50400000000E-02 0. -1.
        -24    2    1    2    0    0  0.17763568394E-14  0.35527136788E-14 -0.24250580751E+02  0.76130819708E+02  0.72165165022E+02 0.  0.
         66    2    3    3    0    0  0.77587711141E+01  0.18692610096E+02  0.19343616353E+02  0.28067555288E+02  0.19999912063E+01 0.  0.
         13    1    3    3    0    0 -0.77587711141E+01 -0.18692610096E+02 -0.43594197104E+02  0.48063264419E+02  0.10566000000E+00 0. -1.
         13    1    4    4    0    0  0.34186856370E+01  0.70090427979E+01  0.63408563897E+01  0.10051453438E+02  0.10566000000E+00 0. -1.
        -13    1    4    4    0    0  0.37743533829E+01  0.97807477644E+01  0.11010471750E+02  0.15203631885E+02  0.10566000000E+00 0.  1.
        -14    1    4    4    0    0  0.56573209421E+00  0.19028195341E+01  0.19922882132E+01  0.28124699654E+01  0.00000000000E+00 0.  1.
<mgrwt>
<rscale>  0 0.72165165E+02</rscale>
<asrwt>0</asrwt>
<pdfrwt beam="1">  1        1 0.77216462E-02 0.72165165E+02</pdfrwt>
<pdfrwt beam="2">  1       -2 0.39907876E-02 0.72165165E+02</pdfrwt>
<totfact> 0.17486935E+05</totfact>
</mgrwt>
</event>
<event>
 8    1  0.8577104E-014  0.8145454E+02  0.7818608E-02  0.1324974E+00
         -2   -1    0    0    0  501 -0.00000000000E+00  0.00000000000E+00  0.10357242412E+02  0.10357242725E+02  0.25500000000E-02 0.  1.
          1   -1    0    0  501    0  0.00000000000E+00 -0.00000000000E+00 -0.16014980124E+03  0.16014980132E+03  0.50400000000E-02 0. -1.
        -24    2    1    2    0    0  0.00000000000E+00 -0.35527136788E-14 -0.14979255883E+03  0.17050704405E+03  0.81454535716E+02 0.  0.
         66    2    3    3    0    0 -0.19447214683E+02  0.30146306672E+02 -0.34691993775E+02  0.49945254059E+02  0.20000015168E+01 0.  0.
         13    1    3    3    0    0  0.19447214683E+02 -0.30146306672E+02 -0.11510056506E+03  0.12056178999E+03  0.10566000000E+00 0. -1.
         13    1    4    4    0    0 -0.27358714364E+01  0.34900595431E+01 -0.44590892633E+01  0.62896859401E+01  0.10566000000E+00 0. -1.
        -13    1    4    4    0    0 -0.13439108605E+02  0.20388370838E+02 -0.23212546878E+02  0.33691672593E+02  0.10566000000E+00 0.  1.
         14    1    4    4    0    0 -0.32722346413E+01  0.62678762912E+01 -0.70203576343E+01  0.99638955265E+01  0.00000000000E+00 0. -1.
<mgrwt>
<rscale>  0 0.81454536E+02</rscale>
<asrwt>0</asrwt>
<pdfrwt beam="1">  1        1 0.24638429E-01 0.81454536E+02</pdfrwt>
<pdfrwt beam="2">  1       -2 0.15934221E-02 0.81454536E+02</pdfrwt>
<totfact> 0.15230727E+05</totfact>
</mgrwt>
</event>
<event>
 8    1  0.8577104E-014  0.6968024E+02  0.7818608E-02  0.1361184E+00
          1   -1    0    0  501    0  0.00000000000E+00  0.00000000000E+00  0.10044703250E+03  0.10044703262E+03  0.50400000000E-02 0. -1.
         -2   -1    0    0    0  501 -0.00000000000E+00 -0.00000000000E+00 -0.12084319287E+02  0.12084319556E+02  0.25500000000E-02 0.  1.
        -24    2    1    2    0    0 -0.35527136788E-14  0.00000000000E+00  0.88362713210E+02  0.11253135218E+03  0.69680242089E+02 0.  0.
         66    2    3    3    0    0  0.22707417806E+02 -0.16199918729E+02  0.10582672644E+02  0.29900788436E+02  0.19999996318E+01 0.  0.
         13    1    3    3    0    0 -0.22707417806E+02  0.16199918729E+02  0.77780040566E+02  0.82630563744E+02  0.10566000000E+00 0. -1.
         13    1    4    4    0    0  0.20660572667E+01 -0.19446660327E+01  0.11443266905E+01  0.30612033938E+01  0.10566000000E+00 0. -1.
        -13    1    4    4    0    0  0.17721234343E+02 -0.11694224879E+02  0.77167717077E+01  0.22591077260E+02  0.10566000000E+00 0.  1.
        -14    1    4    4    0    0  0.29201261964E+01 -0.25610278175E+01  0.17215742460E+01  0.42485077815E+01  0.00000000000E+00 0.  1.
<mgrwt>
<rscale>  0 0.69680242E+02</rscale>
<asrwt>0</asrwt>
<pdfrwt beam="1">  1        1 0.15453389E-01 0.69680242E+02</pdfrwt>
<pdfrwt beam="2">  1       -2 0.18591261E-02 0.69680242E+02</pdfrwt>
<totfact> 0.21284301E+05</totfact>
</mgrwt>
</event>
<event>
 8    1  0.8577104E-014  0.7229745E+02  0.7818608E-02  0.1352450E+00
          1   -1    0    0  501    0  0.00000000000E+00  0.00000000000E+00  0.99594295344E+02  0.99594295472E+02  0.50400000000E-02 0. -1.
         -2   -1    0    0    0  501 -0.00000000000E+00 -0.00000000000E+00 -0.13120532451E+02  0.13120532699E+02  0.25500000000E-02 0.  1.
        -24    2    1    2    0    0 -0.17763568394E-14  0.00000000000E+00  0.86473762893E+02  0.11271482817E+03  0.72297446848E+02 0.  0.
         66    2    3    3    0    0  0.15538494278E+02 -0.96682326425E+00 -0.75450205688E+01  0.17415707717E+02  0.19999970601E+01 0.  0.
         13    1    3    3    0    0 -0.15538494278E+02  0.96682326425E+00  0.94018783462E+02  0.95299120454E+02  0.10566000000E+00 0. -1.
         13    1    4    4    0    0  0.75508686528E+01  0.10221346235E+00 -0.43161224894E+01  0.86986287645E+01  0.10566000000E+00 0. -1.
        -13    1    4    4    0    0  0.59564274646E+01 -0.11354582016E+01 -0.24395245728E+01  0.65368752203E+01  0.10566000000E+00 0.  1.
         14    1    4    4    0    0  0.20311981606E+01  0.66421475022E-01 -0.78937350656E+00  0.21802037319E+01  0.00000000000E+00 0. -1.
<mgrwt>
<rscale>  0 0.72297447E+02</rscale>
<asrwt>0</asrwt>
<pdfrwt beam="1">  1        1 0.15322200E-01 0.72297447E+02</pdfrwt>
<pdfrwt beam="2">  1       -2 0.20185434E-02 0.72297447E+02</pdfrwt>
<totfact> 0.19273104E+05</totfact>
</mgrwt>
</event>
<event>
 8    1  0.9434068E-014  0.7867613E+02  0.7818608E-02  0.1332851E+00
          1   -1    0    0  501    0  0.00000000000E+00  0.00000000000E+00  0.99592635717E+02  0.99592635845E+02  0.50400000000E-02 0. -1.
         -2   -1    0    0    0  501 -0.00000000000E+00 -0.00000000000E+00 -0.15538129985E+02  0.15538130194E+02  0.25500000000E-02 0.  1.
        -24    2    1    2    0    0  0.00000000000E+00 -0.71054273576E-14  0.84054505733E+02  0.11513076604E+03  0.78676129510E+02 0.  0.
         66    2    3    3    0    0  0.83080306721E+00 -0.33525841811E+02  0.12035805652E+02  0.35686593010E+02  0.20000000184E+01 0.  0.
         13    1    3    3    0    0 -0.83080306721E+00  0.33525841811E+02  0.72018700081E+02  0.79444173029E+02  0.10566000000E+00 0. -1.
         13    1    4    4    0    0  0.11254129109E+00 -0.86251903124E+01  0.25023106554E+01  0.89821654471E+01  0.10566000000E+00 0. -1.
        -13    1    4    4    0    0  0.36131788761E+00 -0.20242696500E+02  0.72553960834E+01  0.21506958143E+02  0.10566000000E+00 0.  1.
         14    1    4    4    0    0  0.35694388850E+00 -0.46579549989E+01  0.22780989129E+01  0.51974694197E+01  0.00000000000E+00 0. -1.
<mgrwt>
<rscale>  0 0.78676130E+02</rscale>
<asrwt>0</asrwt>
<pdfrwt beam="1">  1        1 0.15321944E-01 0.78676130E+02</pdfrwt>
<pdfrwt beam="2">  1       -2 0.23904815E-02 0.78676130E+02</pdfrwt>
<totfact> 0.15365977E+05</totfact>
</mgrwt>
</event>
<event>
 8    1  0.8577104E-014  0.8038472E+02  0.7818608E-02  0.1327963E+00
         -2   -1    0    0    0  501 -0.00000000000E+00  0.00000000000E+00  0.43763244516E+01  0.43763251945E+01  0.25500000000E-02 0.  1.
          1   -1    0    0  501    0  0.00000000000E+00 -0.00000000000E+00 -0.36912842448E+03  0.36912842452E+03  0.50400000000E-02 0. -1.
        -24    2    1    2    0    0  0.00000000000E+00  0.00000000000E+00 -0.36475210003E+03  0.37350474971E+03  0.80384722305E+02 0.  0.
         66    2    3    3    0    0 -0.17501734772E+02 -0.35940943879E+02 -0.20069824433E+03  0.20465054958E+03  0.20000000716E+01 0.  0.
         13    1    3    3    0    0  0.17501734772E+02  0.35940943879E+02 -0.16405385570E+03  0.16885420013E+03  0.10566000000E+00 0. -1.
         13    1    4    4    0    0 -0.49456432722E+01 -0.92361753417E+01 -0.49473074684E+02  0.50570372799E+02  0.10566000000E+00 0. -1.
        -13    1    4    4    0    0 -0.14948822947E+01 -0.35412420874E+01 -0.18430128219E+02  0.18826998136E+02  0.10566000000E+00 0.  1.
         14    1    4    4    0    0 -0.11061209205E+02 -0.23163526450E+02 -0.13279504143E+03  0.13525317865E+03  0.00000000000E+00 0. -1.
<mgrwt>
<rscale>  0 0.80384722E+02</rscale>
<asrwt>0</asrwt>
<pdfrwt beam="1">  1        1 0.56788964E-01 0.80384722E+02</pdfrwt>
<pdfrwt beam="2">  1       -2 0.67328103E-03 0.80384722E+02</pdfrwt>
<totfact> 0.18502620E+05</totfact>
</mgrwt>
</event>
<event>
 8    1  0.8577104E-014  0.8209296E+02  0.7818608E-02  0.1323215E+00
         -2   -1    0    0    0  501 -0.00000000000E+00  0.00000000000E+00  0.14684500204E+03  0.14684500206E+03  0.25500000000E-02 0.  1.
          1   -1    0    0  501    0  0.00000000000E+00 -0.00000000000E+00 -0.11473414270E+02  0.11473415376E+02  0.50400000000E-02 0. -1.
        -24    2    1    2    0    0  0.00000000000E+00  0.00000000000E+00  0.13537158777E+03  0.15831841744E+03  0.82092962699E+02 0.  0.
         66    2    3    3    0    0  0.85925053830E+01 -0.13628360896E+02  0.14048128134E+03  0.14141624296E+03  0.19999992354E+01 0.  0.
         13    1    3    3    0    0 -0.85925053830E+01  0.13628360896E+02 -0.51096935732E+01  0.16902174473E+02  0.10566000000E+00 0. -1.
         13    1    4    4    0    0  0.62551957010E+01 -0.10173797536E+02  0.10318733650E+03  0.10387623023E+03  0.10566000000E+00 0. -1.
        -13    1    4    4    0    0  0.22250803711E+01 -0.26496780665E+01  0.28804453755E+02  0.29011713095E+02  0.10566000000E+00 0.  1.
         14    1    4    4    0    0  0.11222931086E+00 -0.80488529427E+00  0.84894910898E+01  0.85282996382E+01  0.00000000000E+00 0. -1.
<mgrwt>
<rscale>  0 0.82092963E+02</rscale>
<asrwt>0</asrwt>
<pdfrwt beam="1">  1        1 0.17651408E-02 0.82092963E+02</pdfrwt>
<pdfrwt beam="2">  1       -2 0.22591538E-01 0.82092963E+02</pdfrwt>
<totfact> 0.89045418E+04</totfact>
</mgrwt>
</event>
<event>
 8    1  0.8577104E-014  0.7984151E+02  0.7818608E-02  0.1329502E+00
         -2   -1    0    0    0  501 -0.00000000000E+00  0.00000000000E+00  0.12206835772E+02  0.12206836038E+02  0.25500000000E-02 0.  1.
          1   -1    0    0  501    0  0.00000000000E+00 -0.00000000000E+00 -0.13055524806E+03  0.13055524816E+03  0.50400000000E-02 0. -1.
        -24    2    1    2    0    0  0.00000000000E+00  0.00000000000E+00 -0.11834841229E+03  0.14276208420E+03  0.79841505452E+02 0.  0.
         66    2    3    3    0    0  0.20856088244E+02 -0.33801643055E+02 -0.52488939502E+02  0.65852989742E+02  0.19999994410E+01 0.  0.
         13    1    3    3    0    0 -0.20856088244E+02  0.33801643055E+02 -0.65859472787E+02  0.76909094455E+02  0.10566000000E+00 0. -1.
         13    1    4    4    0    0  0.11076685891E+02 -0.17348416906E+02 -0.26469185579E+02  0.33530426313E+02  0.10566000000E+00 0.  1.
        -13    1    4    4    0    0  0.80229760320E+00 -0.98716812147E+00 -0.14134601482E+01  0.19045251299E+01  0.10566000000E+00 0. -1.
         14    1    4    4    0    0  0.89771047497E+01 -0.15466058028E+02 -0.24606293775E+02  0.30418038299E+02  0.00000000000E+00 0. -1.
<mgrwt>
<rscale>  0 0.79841505E+02</rscale>
<asrwt>0</asrwt>
<pdfrwt beam="1">  1        1 0.20085422E-01 0.79841505E+02</pdfrwt>
<pdfrwt beam="2">  1       -2 0.18779748E-02 0.79841505E+02</pdfrwt>
<totfact> 0.15476892E+05</totfact>
</mgrwt>
</event>
<event>
 8    1  0.8577104E-014  0.7963232E+02  0.7818608E-02  0.1330098E+00
         -2   -1    0    0    0  501 -0.00000000000E+00  0.00000000000E+00  0.53495309182E+02  0.53495309243E+02  0.25500000000E-02 0.  1.
          1   -1    0    0  501    0  0.00000000000E+00 -0.00000000000E+00 -0.29634874437E+02  0.29634874866E+02  0.50400000000E-02 0. -1.
        -24    2    1    2    0    0  0.00000000000E+00  0.35527136788E-14  0.23860434745E+02  0.83130184109E+02  0.79632324867E+02 0.  0.
         66    2    3    3    0    0  0.14616795000E+02  0.28270917769E+02  0.36870411693E+02  0.48747540933E+02  0.20000002551E+01 0.  0.
         13    1    3    3    0    0 -0.14616795000E+02 -0.28270917769E+02 -0.13009976948E+02  0.34382643176E+02  0.10566000000E+00 0. -1.
         13    1    4    4    0    0  0.10025012157E+00  0.56914686371E+00  0.63429774285E+00  0.86456688667E+00  0.10566000000E+00 0.  1.
        -13    1    4    4    0    0  0.80503719927E+01  0.14951474107E+02  0.18757381448E+02  0.25302284284E+02  0.10566000000E+00 0.  1.
         14    1    4    4    0    0  0.64661728855E+01  0.12750296798E+02  0.17478732503E+02  0.22580689762E+02  0.00000000000E+00 0. -1.
<mgrwt>
<rscale>  0 0.79632325E+02</rscale>
<asrwt>0</asrwt>
<pdfrwt beam="1">  1        1 0.45592115E-02 0.79632325E+02</pdfrwt>
<pdfrwt beam="2">  1       -2 0.82300476E-02 0.79632325E+02</pdfrwt>
<totfact> 0.12229465E+05</totfact>
</mgrwt>
</event>
<event>
 8    1  0.8577104E-014  0.7729691E+02  0.7818608E-02  0.1336902E+00
         -2   -1    0    0    0  501 -0.00000000000E+00  0.00000000000E+00  0.23520698275E+03  0.23520698277E+03  0.25500000000E-02 0.  1.
          1   -1    0    0  501    0  0.00000000000E+00 -0.00000000000E+00 -0.63505892958E+01  0.63505912957E+01  0.50400000000E-02 0. -1.
        -24    2    1    2    0    0  0.00000000000E+00  0.00000000000E+00  0.22885639346E+03  0.24155757406E+03  0.77296913010E+02 0.  0.
         66    2    3    3    0    0 -0.42261031897E+01 -0.32027073038E+02  0.18065741011E+03  0.18353390204E+03  0.20000034760E+01 0.  0.
         13    1    3    3    0    0  0.42261031897E+01  0.32027073038E+02  0.48198983349E+02  0.58023672026E+02  0.10566000000E+00 0. -1.
         13    1    4    4    0    0 -0.81398744622E+00 -0.35017332995E+01  0.22246989092E+02  0.22535846985E+02  0.10566000000E+00 0. -1.
        -13    1    4    4    0    0 -0.14903524816E+01 -0.15860823298E+02  0.89758885167E+02  0.91161699724E+02  0.10566000000E+00 0.  1.
         14    1    4    4    0    0 -0.19217632619E+01 -0.12664516440E+02  0.68651535852E+02  0.69836355328E+02  0.00000000000E+00 0. -1.
<mgrwt>
<rscale>  0 0.77296913E+02</rscale>
<asrwt>0</asrwt>
<pdfrwt beam="1">  1        1 0.97701384E-03 0.77296913E+02</pdfrwt>
<pdfrwt beam="2">  1       -2 0.36185692E-01 0.77296913E+02</pdfrwt>
<totfact> 0.86694577E+04</totfact>
</mgrwt>
</event>
<event>
 8    1  0.8577104E-014  0.7939201E+02  0.7818608E-02  0.1330786E+00
         -2   -1    0    0    0  501 -0.00000000000E+00  0.00000000000E+00  0.31254367451E+02  0.31254367555E+02  0.25500000000E-02 0.  1.
          1   -1    0    0  501    0  0.00000000000E+00 -0.00000000000E+00 -0.50417687418E+02  0.50417687669E+02  0.50400000000E-02 0. -1.
        -24    2    1    2    0    0  0.00000000000E+00  0.00000000000E+00 -0.19163319967E+02  0.81672055224E+02  0.79392013278E+02 0.  0.
         66    2    3    3    0    0  0.17803183370E+02  0.90563985903E+01  0.25671922812E+02  0.32588637937E+02  0.20000020336E+01 0.  0.
         13    1    3    3    0    0 -0.17803183370E+02 -0.90563985903E+01 -0.44835242779E+02  0.49083417288E+02  0.10566000000E+00 0. -1.
         13    1    4    4    0    0  0.11213625676E+01  0.98197404870E+00  0.18155307496E+01  0.23513917111E+01  0.10566000000E+00 0. -1.
        -13    1    4    4    0    0  0.12260883643E+02  0.59059790777E+01  0.16562775741E+02  0.21437037128E+02  0.10566000000E+00 0.  1.
        -14    1    4    4    0    0  0.44209371599E+01  0.21684454639E+01  0.72936163219E+01  0.88002090971E+01  0.00000000000E+00 0.  1.
<mgrwt>
<rscale>  0 0.79392013E+02</rscale>
<asrwt>0</asrwt>
<pdfrwt beam="1">  1        1 0.77565673E-02 0.79392013E+02</pdfrwt>
<pdfrwt beam="2">  1       -2 0.48083642E-02 0.79392013E+02</pdfrwt>
<totfact> 0.13456577E+05</totfact>
</mgrwt>
</event>
<event>
 8    1  0.8577104E-014  0.7967646E+02  0.7818608E-02  0.1329972E+00
         -2   -1    0    0    0  501 -0.00000000000E+00  0.00000000000E+00  0.97185787871E+02  0.97185787905E+02  0.25500000000E-02 0.  1.
          1   -1    0    0  501    0  0.00000000000E+00 -0.00000000000E+00 -0.16330419048E+02  0.16330419825E+02  0.50400000000E-02 0. -1.
        -24    2    1    2    0    0  0.35527136788E-14  0.00000000000E+00  0.80855368824E+02  0.11351620773E+03  0.79676462960E+02 0.  0.
         66    2    3    3    0    0  0.29929335604E+02 -0.26041731589E+02  0.35697266738E+02  0.53406289565E+02  0.19999996733E+01 0.  0.
         13    1    3    3    0    0 -0.29929335604E+02  0.26041731589E+02  0.45158102086E+02  0.60109918165E+02  0.10566000000E+00 0. -1.
         13    1    4    4    0    0  0.54296824735E+01 -0.39042667208E+01  0.55734254482E+01  0.87062612902E+01  0.10566000000E+00 0. -1.
        -13    1    4    4    0    0  0.14619878177E+02 -0.13216445805E+02  0.17599052200E+02  0.26422586550E+02  0.10566000000E+00 0.  1.
         14    1    4    4    0    0  0.98797749534E+01 -0.89210190627E+01  0.12524789089E+02  0.18277441724E+02  0.00000000000E+00 0. -1.
<mgrwt>
<rscale>  0 0.79676463E+02</rscale>
<asrwt>0</asrwt>
<pdfrwt beam="1">  1        1 0.25123722E-02 0.79676463E+02</pdfrwt>
<pdfrwt beam="2">  1       -2 0.14951660E-01 0.79676463E+02</pdfrwt>
<totfact> 0.10798952E+05</totfact>
</mgrwt>
</event>
<event>
 8    1  0.8577104E-014  0.7923713E+02  0.7818608E-02  0.1331230E+00
          1   -1    0    0  501    0  0.00000000000E+00  0.00000000000E+00  0.11160388781E+03  0.11160388793E+03  0.50400000000E-02 0. -1.
         -2   -1    0    0    0  501 -0.00000000000E+00 -0.00000000000E+00 -0.14064301247E+02  0.14064301478E+02  0.25500000000E-02 0.  1.
        -24    2    1    2    0    0 -0.71054273576E-14  0.00000000000E+00  0.97539586565E+02  0.12566818940E+03  0.79237130696E+02 0.  0.
         66    2    3    3    0    0  0.34455776848E+02  0.75010803581E+01  0.20246205025E+02  0.40710878014E+02  0.20000015044E+01 0.  0.
         13    1    3    3    0    0 -0.34455776848E+02 -0.75010803581E+01  0.77293381540E+02  0.84957311391E+02  0.10566000000E+00 0. -1.
         13    1    4    4    0    0  0.13961035809E+02  0.37776657243E+01  0.80978401377E+01  0.16576111068E+02  0.10566000000E+00 0. -1.
        -13    1    4    4    0    0  0.20387538838E+02  0.36848614465E+01  0.12155239087E+02  0.24020635817E+02  0.10566000000E+00 0.  1.
         14    1    4    4    0    0  0.10720220039E+00  0.38553187315E-01 -0.68741998734E-02  0.11413112916E+00  0.00000000000E+00 0. -1.
<mgrwt>
<rscale>  0 0.79237131E+02</rscale>
<asrwt>0</asrwt>
<pdfrwt beam="1">  1        1 0.17169829E-01 0.79237131E+02</pdfrwt>
<pdfrwt beam="2">  1       -2 0.21637386E-02 0.79237131E+02</pdfrwt>
<totfact> 0.15367736E+05</totfact>
</mgrwt>
</event>
<event>
 8    1  0.8577104E-014  0.7986124E+02  0.7818608E-02  0.1329446E+00
         -2   -1    0    0    0  501 -0.00000000000E+00  0.00000000000E+00  0.17179907676E+02  0.17179907865E+02  0.25500000000E-02 0.  1.
          1   -1    0    0  501    0  0.00000000000E+00 -0.00000000000E+00 -0.92809260857E+02  0.92809260994E+02  0.50400000000E-02 0. -1.
        -24    2    1    2    0    0  0.00000000000E+00  0.88817841970E-15 -0.75629353181E+02  0.10998916886E+03  0.79861243440E+02 0.  0.
         66    2    3    3    0    0 -0.35523025406E+02  0.32524733463E+01 -0.13201820592E+02  0.38088738359E+02  0.20000014921E+01 0.  0.
         13    1    3    3    0    0  0.35523025406E+02 -0.32524733463E+01 -0.62427532590E+02  0.71900430500E+02  0.10566000000E+00 0. -1.
         13    1    4    4    0    0 -0.31556491995E+01  0.97719185196E-01 -0.96886406396E+00  0.33041689605E+01  0.10566000000E+00 0. -1.
        -13    1    4    4    0    0 -0.30443363103E+02  0.32938348485E+01 -0.11277689270E+02  0.32631965070E+02  0.10566000000E+00 0.  1.
         14    1    4    4    0    0 -0.19240131033E+01 -0.13908068732E+00 -0.95526725819E+00  0.21526043282E+01  0.00000000000E+00 0. -1.
<mgrwt>
<rscale>  0 0.79861243E+02</rscale>
<asrwt>0</asrwt>
<pdfrwt beam="1">  1        1 0.14278348E-01 0.79861243E+02</pdfrwt>
<pdfrwt beam="2">  1       -2 0.26430628E-02 0.79861243E+02</pdfrwt>
<totfact> 0.14585636E+05</totfact>
</mgrwt>
</event>
<event>
 8    1  0.8577104E-014  0.7952705E+02  0.7818608E-02  0.1330399E+00
          1   -1    0    0  501    0  0.00000000000E+00  0.00000000000E+00  0.89974329417E+02  0.89974329558E+02  0.50400000000E-02 0. -1.
         -2   -1    0    0    0  501 -0.00000000000E+00 -0.00000000000E+00 -0.17573211099E+02  0.17573211284E+02  0.25500000000E-02 0.  1.
        -24    2    1    2    0    0  0.00000000000E+00 -0.35527136788E-14  0.72401118317E+02  0.10754754084E+03  0.79527049534E+02 0.  0.
         66    2    3    3    0    0 -0.16969254335E+02  0.31796908469E+02  0.13589015923E+02  0.38570200121E+02  0.20000006935E+01 0.  0.
         13    1    3    3    0    0  0.16969254335E+02 -0.31796908469E+02  0.58812102395E+02  0.68977340721E+02  0.10566000000E+00 0. -1.
         13    1    4    4    0    0 -0.69098011154E+01  0.12086701838E+02  0.47165800259E+01  0.14700034148E+02  0.10566000000E+00 0. -1.
        -13    1    4    4    0    0 -0.77097556621E+01  0.14030689642E+02  0.62109440248E+01  0.17172290876E+02  0.10566000000E+00 0.  1.
         14    1    4    4    0    0 -0.23496975572E+01  0.56795169886E+01  0.26614918719E+01  0.66978750972E+01  0.00000000000E+00 0. -1.
<mgrwt>
<rscale>  0 0.79527050E+02</rscale>
<asrwt>0</asrwt>
<pdfrwt beam="1">  1        1 0.13842204E-01 0.79527050E+02</pdfrwt>
<pdfrwt beam="2">  1       -2 0.27035710E-02 0.79527050E+02</pdfrwt>
<totfact> 0.14677089E+05</totfact>
</mgrwt>
</event>
<event>
 8    1  0.8577104E-014  0.7929077E+02  0.7818608E-02  0.1331076E+00
         -2   -1    0    0    0  501 -0.00000000000E+00  0.00000000000E+00  0.17754721094E+02  0.17754721277E+02  0.25500000000E-02 0.  1.
          1   -1    0    0  501    0  0.00000000000E+00 -0.00000000000E+00 -0.88526123816E+02  0.88526123960E+02  0.50400000000E-02 0. -1.
        -24    2    1    2    0    0  0.00000000000E+00 -0.88817841970E-15 -0.70771402722E+02  0.10628084524E+03  0.79290772609E+02 0.  0.
         66    2    3    3    0    0  0.21173676143E+02 -0.70500617604E+01  0.84725717017E+01  0.23954381819E+02  0.20000012143E+01 0.  0.
         13    1    3    3    0    0 -0.21173676143E+02  0.70500617604E+01 -0.79243974424E+02  0.82326463417E+02  0.10566000000E+00 0. -1.
         13    1    4    4    0    0  0.47524660535E+00 -0.21053789214E+00  0.35457077222E+00  0.63802038215E+00  0.10566000000E+00 0. -1.
        -13    1    4    4    0    0  0.68608407011E+01 -0.24999598620E+01  0.34880380308E+01  0.80931148378E+01  0.10566000000E+00 0. -1.
        -14    1    4    4    0    0  0.13837588837E+02 -0.43395640063E+01  0.46299628987E+01  0.15223246600E+02  0.00000000000E+00 0.  1.
<mgrwt>
<rscale>  0 0.79290773E+02</rscale>
<asrwt>0</asrwt>
<pdfrwt beam="1">  1        1 0.13619404E-01 0.79290773E+02</pdfrwt>
<pdfrwt beam="2">  1       -2 0.27314956E-02 0.79290773E+02</pdfrwt>
<totfact> 0.14756683E+05</totfact>
</mgrwt>
</event>
<event>
 8    1  0.8577104E-014  0.8081227E+02  0.7818608E-02  0.1326762E+00
          1   -1    0    0  501    0  0.00000000000E+00  0.00000000000E+00  0.19068845797E+02  0.19068846463E+02  0.50400000000E-02 0. -1.
         -2   -1    0    0    0  501 -0.00000000000E+00 -0.00000000000E+00 -0.85619015910E+02  0.85619015948E+02  0.25500000000E-02 0.  1.
        -24    2    1    2    0    0  0.17763568394E-14  0.35527136788E-14 -0.66550170114E+02  0.10468786241E+03  0.80812272547E+02 0.  0.
         66    2    3    3    0    0  0.10548348617E+02 -0.24662135709E+02 -0.72399021455E+02  0.77234104520E+02  0.19999992852E+01 0.  0.
         13    1    3    3    0    0 -0.10548348617E+02  0.24662135709E+02  0.58488513414E+01  0.27453757891E+02  0.10566000000E+00 0. -1.
         13    1    4    4    0    0  0.58821102819E+00 -0.17562532359E+01 -0.62447375504E+01  0.65144707192E+01  0.10566000000E+00 0. -1.
        -13    1    4    4    0    0  0.21632944277E+01 -0.60037378022E+01 -0.16580242259E+02  0.17766268820E+02  0.10566000000E+00 0.  1.
        -14    1    4    4    0    0  0.77968431615E+01 -0.16902144671E+02 -0.49574041645E+02  0.52953364981E+02  0.00000000000E+00 0.  1.
<mgrwt>
<rscale>  0 0.80812273E+02</rscale>
<asrwt>0</asrwt>
<pdfrwt beam="1">  1        1 0.29336687E-02 0.80812273E+02</pdfrwt>
<pdfrwt beam="2">  1       -2 0.13172156E-01 0.80812273E+02</pdfrwt>
<totfact> 0.10729687E+05</totfact>
</mgrwt>
</event>
<event>
 8    1  0.8577104E-014  0.7907378E+02  0.7818608E-02  0.1331701E+00
         -2   -1    0    0    0  501 -0.00000000000E+00  0.00000000000E+00  0.52314934398E+03  0.52314934399E+03  0.25500000000E-02 0.  1.
          1   -1    0    0  501    0  0.00000000000E+00 -0.00000000000E+00 -0.29879892215E+01  0.29879934721E+01  0.50400000000E-02 0. -1.
        -24    2    1    2    0    0 -0.35527136788E-14  0.00000000000E+00  0.52016135476E+03  0.52613733746E+03  0.79073781265E+02 0.  0.
         66    2    3    3    0    0  0.14882730082E+02 -0.33116156460E+02  0.36396518681E+03  0.36577702591E+03  0.20000005320E+01 0.  0.
         13    1    3    3    0    0 -0.14882730082E+02  0.33116156460E+02  0.15619616795E+03  0.16036031155E+03  0.10566000000E+00 0. -1.
         13    1    4    4    0    0  0.38091751591E+01 -0.82555444426E+01  0.95399993659E+02  0.95832321185E+02  0.10566000000E+00 0.  1.
        -13    1    4    4    0    0  0.24668313832E+01 -0.48066826788E+01  0.58466638157E+02  0.58715827482E+02  0.10566000000E+00 0. -1.
         14    1    4    4    0    0  0.86067235399E+01 -0.20053929338E+02  0.21009855500E+03  0.21122887725E+03  0.00000000000E+00 0. -1.
<mgrwt>
<rscale>  0 0.79073781E+02</rscale>
<asrwt>0</asrwt>
<pdfrwt beam="1">  1        1 0.45969111E-03 0.79073781E+02</pdfrwt>
<pdfrwt beam="2">  1       -2 0.80484492E-01 0.79073781E+02</pdfrwt>
<totfact> 0.50129349E+04</totfact>
</mgrwt>
</event>
<event>
 8    1  0.8577104E-014  0.7809051E+02  0.7818608E-02  0.1334559E+00
          1   -1    0    0  501    0  0.00000000000E+00  0.00000000000E+00  0.19340690102E+03  0.19340690109E+03  0.50400000000E-02 0. -1.
         -2   -1    0    0    0  501 -0.00000000000E+00 -0.00000000000E+00 -0.78825103646E+01  0.78825107770E+01  0.25500000000E-02 0.  1.
        -24    2    1    2    0    0  0.35527136788E-14 -0.35527136788E-14  0.18552439066E+03  0.20128941186E+03  0.78090510307E+02 0.  0.
         66    2    3    3    0    0 -0.28404891275E+02  0.26296836311E+02  0.80151571816E+02  0.89031656841E+02  0.20000017495E+01 0.  0.
         13    1    3    3    0    0  0.28404891275E+02 -0.26296836311E+02  0.10537281884E+03  0.11225775502E+03  0.10566000000E+00 0. -1.
         13    1    4    4    0    0 -0.20246177780E+01  0.20534135044E+01  0.55660035976E+01  0.62695409921E+01  0.10566000000E+00 0. -1.
        -13    1    4    4    0    0 -0.16845352542E+02  0.15978556062E+02  0.49972591291E+02  0.55103096106E+02  0.10566000000E+00 0.  1.
        -14    1    4    4    0    0 -0.95349209543E+01  0.82648667449E+01  0.24612976927E+02  0.27659019743E+02  0.00000000000E+00 0.  1.
<mgrwt>
<rscale>  0 0.78090510E+02</rscale>
<asrwt>0</asrwt>
<pdfrwt beam="1">  1        1 0.29754908E-01 0.78090510E+02</pdfrwt>
<pdfrwt beam="2">  1       -2 0.12126939E-02 0.78090510E+02</pdfrwt>
<totfact> 0.17662572E+05</totfact>
</mgrwt>
</event>
<event>
 8    1  0.8577104E-014  0.8084189E+02  0.7818608E-02  0.1326679E+00
          1   -1    0    0  501    0  0.00000000000E+00  0.00000000000E+00  0.15017146626E+02  0.15017147472E+02  0.50400000000E-02 0. -1.
         -2   -1    0    0    0  501 -0.00000000000E+00 -0.00000000000E+00 -0.10879916003E+03  0.10879916006E+03  0.25500000000E-02 0.  1.
        -24    2    1    2    0    0  0.00000000000E+00  0.00000000000E+00 -0.93782013404E+02  0.12381630753E+03  0.80841894911E+02 0.  0.
         66    2    3    3    0    0  0.36375425633E+02 -0.11966693564E+02 -0.66621481908E+02  0.76868687998E+02  0.19999994979E+01 0.  0.
         13    1    3    3    0    0 -0.36375425633E+02  0.11966693564E+02 -0.27160531495E+02  0.46947619535E+02  0.10566000000E+00 0. -1.
         13    1    4    4    0    0  0.65430862949E+01 -0.16745107646E+01 -0.11793742961E+02  0.13591155272E+02  0.10566000000E+00 0. -1.
        -13    1    4    4    0    0  0.22083692326E+02 -0.72164955500E+01 -0.39322270645E+02  0.45672961449E+02  0.10566000000E+00 0.  1.
         14    1    4    4    0    0  0.77486470119E+01 -0.30756872490E+01 -0.15505468302E+02  0.17604571277E+02  0.00000000000E+00 0. -1.
<mgrwt>
<rscale>  0 0.80841895E+02</rscale>
<asrwt>0</asrwt>
<pdfrwt beam="1">  1        1 0.23103304E-02 0.80841895E+02</pdfrwt>
<pdfrwt beam="2">  1       -2 0.16738332E-01 0.80841895E+02</pdfrwt>
<totfact> 0.10111749E+05</totfact>
</mgrwt>
</event>
<event>
 8    1  0.8577104E-014  0.7913538E+02  0.7818608E-02  0.1331523E+00
         -2   -1    0    0    0  501 -0.00000000000E+00  0.00000000000E+00  0.16737688576E+02  0.16737688770E+02  0.25500000000E-02 0.  1.
          1   -1    0    0  501    0  0.00000000000E+00 -0.00000000000E+00 -0.93537536442E+02  0.93537536578E+02  0.50400000000E-02 0. -1.
        -24    2    1    2    0    0  0.00000000000E+00  0.00000000000E+00 -0.76799847867E+02  0.11027522535E+03  0.79135382056E+02 0.  0.
         66    2    3    3    0    0  0.49708598936E+01  0.17686283528E+02  0.10369706085E+02  0.21190679139E+02  0.20000012401E+01 0.  0.
         13    1    3    3    0    0 -0.49708598936E+01 -0.17686283528E+02 -0.87169553952E+02  0.89084546209E+02  0.10566000000E+00 0. -1.
         13    1    4    4    0    0  0.10794069605E+01  0.59805456081E+01  0.37204874036E+01  0.71263760575E+01  0.10566000000E+00 0. -1.
        -13    1    4    4    0    0  0.95052948753E+00  0.27421410625E+01  0.21452562149E+01  0.36105584300E+01  0.10566000000E+00 0.  1.
        -14    1    4    4    0    0  0.29409234456E+01  0.89635968576E+01  0.45039624662E+01  0.10453744651E+02  0.00000000000E+00 0.  1.
<mgrwt>
<rscale>  0 0.79135382E+02</rscale>
<asrwt>0</asrwt>
<pdfrwt beam="1">  1        1 0.14390390E-01 0.79135382E+02</pdfrwt>
<pdfrwt beam="2">  1       -2 0.25750291E-02 0.79135382E+02</pdfrwt>
<totfact> 0.14969884E+05</totfact>
</mgrwt>
</event>
<event>
 8    1  0.8577104E-014  0.8056547E+02  0.7818608E-02  0.1327454E+00
         -2   -1    0    0    0  501 -0.00000000000E+00  0.00000000000E+00  0.20633922593E+02  0.20633922750E+02  0.25500000000E-02 0.  1.
          1   -1    0    0  501    0  0.00000000000E+00 -0.00000000000E+00 -0.78642282944E+02  0.78642283106E+02  0.50400000000E-02 0. -1.
        -24    2    1    2    0    0  0.35527136788E-14  0.88817841970E-15 -0.58008360352E+02  0.99276205856E+02  0.80565471379E+02 0.  0.
         66    2    3    3    0    0 -0.31603178036E+02 -0.54702776695E+01  0.95998077065E+00  0.32149748937E+02  0.19999984572E+01 0.  0.
         13    1    3    3    0    0  0.31603178036E+02  0.54702776695E+01 -0.58968341122E+02  0.67126456919E+02  0.10566000000E+00 0. -1.
         13    1    4    4    0    0 -0.54315425951E+01 -0.42794729337E+00  0.48820100439E+00  0.54712245526E+01  0.10566000000E+00 0. -1.
        -13    1    4    4    0    0 -0.11898384403E+02 -0.21448633061E+01  0.71990754321E+00  0.12112036200E+02  0.10566000000E+00 0.  1.
         14    1    4    4    0    0 -0.14273251038E+02 -0.28974670701E+01 -0.24812777695E+00  0.14566488184E+02  0.00000000000E+00 0. -1.
<mgrwt>
<rscale>  0 0.80565471E+02</rscale>
<asrwt>0</asrwt>
<pdfrwt beam="1">  1        1 0.12098813E-01 0.80565471E+02</pdfrwt>
<pdfrwt beam="2">  1       -2 0.31744497E-02 0.80565471E+02</pdfrwt>
<totfact> 0.13861605E+05</totfact>
</mgrwt>
</event>
<event>
 8    1  0.8577104E-014  0.7982409E+02  0.7818608E-02  0.1329551E+00
          1   -1    0    0  501    0  0.00000000000E+00  0.00000000000E+00  0.18698965509E+02  0.18698966188E+02  0.50400000000E-02 0. -1.
         -2   -1    0    0    0  501 -0.00000000000E+00 -0.00000000000E+00 -0.85190340850E+02  0.85190340888E+02  0.25500000000E-02 0.  1.
        -24    2    1    2    0    0  0.00000000000E+00  0.00000000000E+00 -0.66491375341E+02  0.10388930708E+03  0.79824088658E+02 0.  0.
         66    2    3    3    0    0  0.14723997351E+02  0.36995593294E+02 -0.30215290004E+02  0.50024331883E+02  0.20000022784E+01 0.  0.
         13    1    3    3    0    0 -0.14723997351E+02 -0.36995593294E+02 -0.36276085337E+02  0.53864975194E+02  0.10566000000E+00 0. -1.
         13    1    4    4    0    0  0.76738805748E+01  0.17277146422E+02 -0.14004353944E+02  0.23527033918E+02  0.10566000000E+00 0. -1.
        -13    1    4    4    0    0  0.57723033815E+01  0.15361909831E+02 -0.12378331455E+02  0.20555826756E+02  0.10566000000E+00 0.  1.
         14    1    4    4    0    0  0.12778133950E+01  0.43565370418E+01 -0.38326046048E+01  0.59414712088E+01  0.00000000000E+00 0. -1.
<mgrwt>
<rscale>  0 0.79824089E+02</rscale>
<asrwt>0</asrwt>
<pdfrwt beam="1">  1        1 0.28767640E-02 0.79824089E+02</pdfrwt>
<pdfrwt beam="2">  1       -2 0.13106206E-01 0.79824089E+02</pdfrwt>
<totfact> 0.11084476E+05</totfact>
</mgrwt>
</event>
<event>
 8    1  0.8577104E-014  0.7699406E+02  0.7818608E-02  0.1337805E+00
         -2   -1    0    0    0  501 -0.00000000000E+00  0.00000000000E+00  0.74862437649E+02  0.74862437693E+02  0.25500000000E-02 0.  1.
          1   -1    0    0  501    0  0.00000000000E+00 -0.00000000000E+00 -0.19796596280E+02  0.19796596921E+02  0.50400000000E-02 0. -1.
        -24    2    1    2    0    0 -0.35527136788E-14 -0.71054273576E-14  0.55065841370E+02  0.94659034614E+02  0.76994064371E+02 0.  0.
         66    2    3    3    0    0  0.19966024450E+02  0.32812216119E+02  0.24876781283E+02  0.45805435239E+02  0.19999978612E+01 0.  0.
         13    1    3    3    0    0 -0.19966024450E+02 -0.32812216119E+02  0.30189060087E+02  0.48853599375E+02  0.10566000000E+00 0. -1.
         13    1    4    4    0    0  0.41407018956E+01  0.71084521294E+01  0.59046647684E+01  0.10126783000E+02  0.10566000000E+00 0. -1.
        -13    1    4    4    0    0  0.15445429706E+02  0.24853181917E+02  0.18131565983E+02  0.34423927714E+02  0.10566000000E+00 0.  1.
         14    1    4    4    0    0  0.37989284828E+00  0.85058207251E+00  0.84055053109E+00  0.12547245250E+01  0.00000000000E+00 0. -1.
<mgrwt>
<rscale>  0 0.76994064E+02</rscale>
<asrwt>0</asrwt>
<pdfrwt beam="1">  1        1 0.30456303E-02 0.76994064E+02</pdfrwt>
<pdfrwt beam="2">  1       -2 0.11517298E-01 0.76994064E+02</pdfrwt>
<totfact> 0.12493884E+05</totfact>
</mgrwt>
</event>
<event>
 8    1  0.8577104E-014  0.8047288E+02  0.7818608E-02  0.1327715E+00
         -2   -1    0    0    0  501 -0.00000000000E+00  0.00000000000E+00  0.30577914772E+03  0.30577914773E+03  0.25500000000E-02 0.  1.
          1   -1    0    0  501    0  0.00000000000E+00 -0.00000000000E+00 -0.52945755229E+01  0.52945779217E+01  0.50400000000E-02 0. -1.
        -24    2    1    2    0    0  0.35527136788E-14  0.00000000000E+00  0.30048457219E+03  0.31107372565E+03  0.80472881536E+02 0.  0.
         66    2    3    3    0    0  0.25472442396E+02 -0.13478659056E+01  0.27049780950E+03  0.27170522091E+03  0.20000160256E+01 0.  0.
         13    1    3    3    0    0 -0.25472442396E+02  0.13478659056E+01  0.29986762696E+02  0.39368504736E+02  0.10566000000E+00 0. -1.
         13    1    4    4    0    0  0.19794766333E+01 -0.42024018529E+00  0.20280305112E+02  0.20381287227E+02  0.10566000000E+00 0. -1.
        -13    1    4    4    0    0  0.87685692898E+01  0.79346658520E-01  0.99303430184E+02  0.99689901764E+02  0.10566000000E+00 0.  1.
        -14    1    4    4    0    0  0.14724396473E+02 -0.10069723789E+01  0.15091407420E+03  0.15163403192E+03  0.00000000000E+00 0.  1.
<mgrwt>
<rscale>  0 0.80472882E+02</rscale>
<asrwt>0</asrwt>
<pdfrwt beam="1">  1        1 0.81455015E-03 0.80472882E+02</pdfrwt>
<pdfrwt beam="2">  1       -2 0.47042953E-01 0.80472882E+02</pdfrwt>
<totfact> 0.68488268E+04</totfact>
</mgrwt>
</event>
<event>
 8    1  0.8577104E-014  0.8014295E+02  0.7818608E-02  0.1328646E+00
          1   -1    0    0  501    0  0.00000000000E+00  0.00000000000E+00  0.76160337218E+01  0.76160353894E+01  0.50400000000E-02 0. -1.
         -2   -1    0    0    0  501 -0.00000000000E+00 -0.00000000000E+00 -0.21083454941E+03  0.21083454942E+03  0.25500000000E-02 0.  1.
        -24    2    1    2    0    0  0.00000000000E+00  0.00000000000E+00 -0.20321851569E+03  0.21845058481E+03  0.80142952824E+02 0.  0.
         66    2    3    3    0    0  0.10075470716E+01  0.39753621988E+02 -0.88785358516E+02  0.97304704833E+02  0.20000208464E+01 0.  0.
         13    1    3    3    0    0 -0.10075470716E+01 -0.39753621988E+02 -0.11443315717E+03  0.12114587998E+03  0.10566000000E+00 0. -1.
         13    1    4    4    0    0  0.84967949464E+00  0.11888803388E+02 -0.25785842488E+02  0.28407506721E+02  0.10566000000E+00 0. -1.
        -13    1    4    4    0    0  0.39034195228E+00  0.20465702792E+02 -0.47344980625E+02  0.51580574948E+02  0.10566000000E+00 0.  1.
        -14    1    4    4    0    0 -0.23247437532E+00  0.73991158082E+01 -0.15654535404E+02  0.17316623164E+02  0.00000000000E+00 0.  1.
<mgrwt>
<rscale>  0 0.80142953E+02</rscale>
<asrwt>0</asrwt>
<pdfrwt beam="1">  1        1 0.11716978E-02 0.80142953E+02</pdfrwt>
<pdfrwt beam="2">  1       -2 0.32436080E-01 0.80142953E+02</pdfrwt>
<totfact> 0.82857631E+04</totfact>
</mgrwt>
</event>
<event>
 8    1  0.8577104E-014  0.8584542E+02  0.7818608E-02  0.1313236E+00
         -2   -1    0    0    0  501 -0.00000000000E+00  0.00000000000E+00  0.26467667002E+03  0.26467667004E+03  0.25500000000E-02 0.  1.
          1   -1    0    0  501    0  0.00000000000E+00 -0.00000000000E+00 -0.69607910387E+01  0.69607928633E+01  0.50400000000E-02 0. -1.
        -24    2    1    2    0    0  0.00000000000E+00  0.00000000000E+00  0.25771587899E+03  0.27163746290E+03  0.85845424860E+02 0.  0.
         66    2    3    3    0    0 -0.14486472273E+02 -0.38508730195E+02  0.90488209153E+02  0.99422815143E+02  0.19999987970E+01 0.  0.
         13    1    3    3    0    0  0.14486472273E+02  0.38508730195E+02  0.16722766983E+03  0.17221464776E+03  0.10566000000E+00 0. -1.
         13    1    4    4    0    0 -0.45202192680E+00 -0.77113929605E+00  0.18729209397E+01  0.20779741380E+01  0.10566000000E+00 0. -1.
        -13    1    4    4    0    0 -0.12838945603E+02 -0.34038124027E+02  0.79027981726E+02  0.86999226842E+02  0.10566000000E+00 0.  1.
        -14    1    4    4    0    0 -0.11955047426E+01 -0.36994668727E+01  0.95873064871E+01  0.10345614163E+02  0.00000000000E+00 0.  1.
<mgrwt>
<rscale>  0 0.85845425E+02</rscale>
<asrwt>0</asrwt>
<pdfrwt beam="1">  1        1 0.10708912E-02 0.85845425E+02</pdfrwt>
<pdfrwt beam="2">  1       -2 0.40719483E-01 0.85845425E+02</pdfrwt>
<totfact> 0.62485300E+04</totfact>
</mgrwt>
</event>
<event>
 8    1  0.8577104E-014  0.7622070E+02  0.7818608E-02  0.1340132E+00
         -2   -1    0    0    0  501 -0.00000000000E+00  0.00000000000E+00  0.74805525971E+02  0.74805526015E+02  0.25500000000E-02 0.  1.
          1   -1    0    0  501    0  0.00000000000E+00 -0.00000000000E+00 -0.19415661316E+02  0.19415661970E+02  0.50400000000E-02 0. -1.
        -24    2    1    2    0    0 -0.88817841970E-15  0.00000000000E+00  0.55389864655E+02  0.94221187985E+02  0.76220700330E+02 0.  0.
         66    2    3    3    0    0  0.78234572760E+01  0.34344839701E+02  0.45611406338E+02  0.57664329409E+02  0.20000000475E+01 0.  0.
         13    1    3    3    0    0 -0.78234572760E+01 -0.34344839701E+02  0.97784583168E+01  0.36556858576E+02  0.10566000000E+00 0. -1.
         13    1    4    4    0    0  0.40465658234E+01  0.17876168305E+02  0.22978384669E+02  0.29393016420E+02  0.10566000000E+00 0. -1.
        -13    1    4    4    0    0  0.37782644244E+01  0.15683994354E+02  0.21871422253E+02  0.27177807792E+02  0.10566000000E+00 0.  1.
         14    1    4    4    0    0 -0.13729717772E-02  0.78467704274E+00  0.76159941563E+00  0.10935051972E+01  0.00000000000E+00 0. -1.
<mgrwt>
<rscale>  0 0.76220700E+02</rscale>
<asrwt>0</asrwt>
<pdfrwt beam="1">  1        1 0.29870249E-02 0.76220700E+02</pdfrwt>
<pdfrwt beam="2">  1       -2 0.11508542E-01 0.76220700E+02</pdfrwt>
<totfact> 0.12820560E+05</totfact>
</mgrwt>
</event>
<event>
 8    1  0.8577104E-014  0.8181428E+02  0.7818608E-02  0.1323980E+00
         -2   -1    0    0    0  501 -0.00000000000E+00  0.00000000000E+00  0.70536899687E+02  0.70536899733E+02  0.25500000000E-02 0.  1.
          1   -1    0    0  501    0  0.00000000000E+00 -0.00000000000E+00 -0.23723671133E+02  0.23723671668E+02  0.50400000000E-02 0. -1.
        -24    2    1    2    0    0  0.17763568394E-14  0.00000000000E+00  0.46813228554E+02  0.94260571401E+02  0.81814283308E+02 0.  0.
         66    2    3    3    0    0  0.15639378677E+02  0.32073370614E+02  0.46408283209E+02  0.58574910237E+02  0.20000227193E+01 0.  0.
         13    1    3    3    0    0 -0.15639378677E+02 -0.32073370614E+02  0.40494534465E+00  0.35685661164E+02  0.10566000000E+00 0. -1.
         13    1    4    4    0    0  0.57032701776E+01  0.10315582451E+02  0.15778508301E+02  0.19695456843E+02  0.10566000000E+00 0. -1.
        -13    1    4    4    0    0  0.88815574971E+01  0.18688092279E+02  0.26834990410E+02  0.33885907557E+02  0.10566000000E+00 0.  1.
         14    1    4    4    0    0  0.10545510017E+01  0.30696958842E+01  0.37947844985E+01  0.49935458371E+01  0.00000000000E+00 0. -1.
<mgrwt>
<rscale>  0 0.81814283E+02</rscale>
<asrwt>0</asrwt>
<pdfrwt beam="1">  1        1 0.36497956E-02 0.81814283E+02</pdfrwt>
<pdfrwt beam="2">  1       -2 0.10851831E-01 0.81814283E+02</pdfrwt>
<totfact> 0.10837899E+05</totfact>
</mgrwt>
</event>
<event>
 8    1  0.8577104E-014  0.8120069E+02  0.7818608E-02  0.1325678E+00
         -2   -1    0    0    0  501 -0.00000000000E+00  0.00000000000E+00  0.51448420570E+02  0.51448420633E+02  0.25500000000E-02 0.  1.
          1   -1    0    0  501    0  0.00000000000E+00 -0.00000000000E+00 -0.32039622701E+02  0.32039623097E+02  0.50400000000E-02 0. -1.
        -24    2    1    2    0    0  0.00000000000E+00 -0.71054273576E-14  0.19408797868E+02  0.83488043730E+02  0.81200689721E+02 0.  0.
         66    2    3    3    0    0 -0.22843633084E+02  0.32337586869E+02  0.58142869330E+00  0.39647057301E+02  0.19999990886E+01 0.  0.
         13    1    3    3    0    0  0.22843633084E+02 -0.32337586869E+02  0.18827369175E+02  0.43840986429E+02  0.10566000000E+00 0. -1.
         13    1    4    4    0    0 -0.11200151396E+02  0.14982900336E+02 -0.40149709524E+00  0.18711041065E+02  0.10566000000E+00 0.  1.
        -13    1    4    4    0    0 -0.88040629761E+01  0.13019908698E+02  0.10631745064E+01  0.15753445701E+02  0.10566000000E+00 0. -1.
         14    1    4    4    0    0 -0.28394187117E+01  0.43347778346E+01 -0.80248717879E-01  0.51825705352E+01  0.00000000000E+00 0. -1.
<mgrwt>
<rscale>  0 0.81200690E+02</rscale>
<asrwt>0</asrwt>
<pdfrwt beam="1">  1        1 0.49291728E-02 0.81200690E+02</pdfrwt>
<pdfrwt beam="2">  1       -2 0.79151416E-02 0.81200690E+02</pdfrwt>
<totfact> 0.11723673E+05</totfact>
</mgrwt>
</event>
<event>
 8    1  0.8577104E-014  0.7964195E+02  0.7818608E-02  0.1330071E+00
          1   -1    0    0  501    0  0.00000000000E+00  0.00000000000E+00  0.29606611851E+03  0.29606611855E+03  0.50400000000E-02 0. -1.
         -2   -1    0    0    0  501 -0.00000000000E+00 -0.00000000000E+00 -0.53559312624E+01  0.53559318694E+01  0.25500000000E-02 0.  1.
        -24    2    1    2    0    0  0.00000000000E+00  0.00000000000E+00  0.29071018725E+03  0.30142205042E+03  0.79641945677E+02 0.  0.
         66    2    3    3    0    0 -0.16249592518E+02  0.31785349715E+02  0.78879921907E+02  0.86604848616E+02  0.20000025728E+01 0.  0.
         13    1    3    3    0    0  0.16249592518E+02 -0.31785349715E+02  0.21183026534E+03  0.21481720180E+03  0.10566000000E+00 0. -1.
         13    1    4    4    0    0 -0.77083186211E+00  0.87515673399E+00  0.29409942176E+01  0.31655476765E+01  0.10566000000E+00 0.  1.
        -13    1    4    4    0    0 -0.45164087111E+01  0.96049820113E+01  0.23241389503E+02  0.25550479000E+02  0.10566000000E+00 0. -1.
        -14    1    4    4    0    0 -0.10962351945E+02  0.21305210969E+02  0.52697538186E+02  0.57888821939E+02  0.00000000000E+00 0.  1.
<mgrwt>
<rscale>  0 0.79641946E+02</rscale>
<asrwt>0</asrwt>
<pdfrwt beam="1">  1        1 0.45548651E-01 0.79641946E+02</pdfrwt>
<pdfrwt beam="2">  1       -2 0.82398916E-03 0.79641946E+02</pdfrwt>
<totfact> 0.18210327E+05</totfact>
</mgrwt>
</event>
<event>
 8    1  0.8577104E-014  0.8115195E+02  0.7818608E-02  0.1325814E+00
         -2   -1    0    0    0  501 -0.00000000000E+00  0.00000000000E+00  0.28424619589E+02  0.28424619703E+02  0.25500000000E-02 0.  1.
          1   -1    0    0  501    0  0.00000000000E+00 -0.00000000000E+00 -0.57921960522E+02  0.57921960742E+02  0.50400000000E-02 0. -1.
        -24    2    1    2    0    0  0.00000000000E+00  0.00000000000E+00 -0.29497340933E+02  0.86346580445E+02  0.81151949037E+02 0.  0.
         66    2    3    3    0    0 -0.10321983537E+02 -0.34586689099E+02  0.49085446768E+01  0.36481176249E+02  0.20000006653E+01 0.  0.
         13    1    3    3    0    0  0.10321983537E+02  0.34586689099E+02 -0.34405885610E+02  0.49865404196E+02  0.10566000000E+00 0. -1.
         13    1    4    4    0    0 -0.37455890918E+01 -0.13815530901E+02  0.27692841011E+01  0.14580069622E+02  0.10566000000E+00 0. -1.
        -13    1    4    4    0    0 -0.26853191202E+01 -0.87945476176E+01  0.11876341830E+01  0.92723592232E+01  0.10566000000E+00 0.  1.
         14    1    4    4    0    0 -0.38910753251E+01 -0.11976610581E+02  0.95162639265E+00  0.12628747404E+02  0.00000000000E+00 0. -1.
<mgrwt>
<rscale>  0 0.81151949E+02</rscale>
<asrwt>0</asrwt>
<pdfrwt beam="1">  1        1 0.89110709E-02 0.81151949E+02</pdfrwt>
<pdfrwt beam="2">  1       -2 0.43730184E-02 0.81151949E+02</pdfrwt>
<totfact> 0.12942216E+05</totfact>
</mgrwt>
</event>
<event>
 8    1  0.8577104E-014  0.8065502E+02  0.7818608E-02  0.1327203E+00
          1   -1    0    0  501    0  0.00000000000E+00  0.00000000000E+00  0.19018828449E+02  0.19018829116E+02  0.50400000000E-02 0. -1.
         -2   -1    0    0    0  501 -0.00000000000E+00 -0.00000000000E+00 -0.85510416358E+02  0.85510416396E+02  0.25500000000E-02 0.  1.
        -24    2    1    2    0    0 -0.17763568394E-14  0.00000000000E+00 -0.66491587909E+02  0.10452924551E+03  0.80655017852E+02 0.  0.
         66    2    3    3    0    0 -0.12787697190E+02  0.38217399705E+02 -0.33857489457E+02  0.52672805358E+02  0.19999980749E+01 0.  0.
         13    1    3    3    0    0  0.12787697190E+02 -0.38217399705E+02 -0.32634098453E+02  0.51856440154E+02  0.10566000000E+00 0. -1.
         13    1    4    4    0    0 -0.82965135422E-01  0.86273443438E+00 -0.71199973070E+00  0.11266328462E+01  0.10566000000E+00 0. -1.
        -13    1    4    4    0    0 -0.69283627832E+01  0.21771937947E+02 -0.19745126116E+02  0.30197692995E+02  0.10566000000E+00 0.  1.
         14    1    4    4    0    0 -0.57763692716E+01  0.15582727323E+02 -0.13400363609E+02  0.21348479516E+02  0.00000000000E+00 0. -1.
<mgrwt>
<rscale>  0 0.80655018E+02</rscale>
<asrwt>0</asrwt>
<pdfrwt beam="1">  1        1 0.29259737E-02 0.80655018E+02</pdfrwt>
<pdfrwt beam="2">  1       -2 0.13155448E-01 0.80655018E+02</pdfrwt>
<totfact> 0.10786263E+05</totfact>
</mgrwt>
</event>
<event>
 8    1  0.8577104E-014  0.8476315E+02  0.7818608E-02  0.1316053E+00
         -2   -1    0    0    0  501 -0.00000000000E+00  0.00000000000E+00  0.47749284763E+02  0.47749284831E+02  0.25500000000E-02 0.  1.
          1   -1    0    0  501    0  0.00000000000E+00 -0.00000000000E+00 -0.37617270869E+02  0.37617271206E+02  0.50400000000E-02 0. -1.
        -24    2    1    2    0    0  0.00000000000E+00  0.00000000000E+00  0.10132013894E+02  0.85366556037E+02  0.84763147559E+02 0.  0.
         66    2    3    3    0    0 -0.24276336982E+02  0.87592315683E+01  0.38895539582E+02  0.46721811905E+02  0.20000083507E+01 0.  0.
         13    1    3    3    0    0  0.24276336982E+02 -0.87592315683E+01 -0.28763525688E+02  0.38644744132E+02  0.10566000000E+00 0. -1.
         13    1    4    4    0    0 -0.35339597793E+01  0.17334305160E+01  0.66051432582E+01  0.76897811785E+01  0.10566000000E+00 0. -1.
        -13    1    4    4    0    0 -0.18426368322E+02  0.58787201575E+01  0.28635166986E+02  0.34555380950E+02  0.10566000000E+00 0.  1.
        -14    1    4    4    0    0 -0.23160088812E+01  0.11470808948E+01  0.36552293374E+01  0.44766497770E+01  0.00000000000E+00 0.  1.
<mgrwt>
<rscale>  0 0.84763148E+02</rscale>
<asrwt>0</asrwt>
<pdfrwt beam="1">  1        1 0.57872725E-02 0.84763148E+02</pdfrwt>
<pdfrwt beam="2">  1       -2 0.73460438E-02 0.84763148E+02</pdfrwt>
<totfact> 0.10663355E+05</totfact>
</mgrwt>
</event>
<event>
 8    1  0.8577104E-014  0.7889182E+02  0.7818608E-02  0.1332226E+00
         -2   -1    0    0    0  501 -0.00000000000E+00  0.00000000000E+00  0.21594688440E+02  0.21594688591E+02  0.25500000000E-02 0.  1.
          1   -1    0    0  501    0  0.00000000000E+00 -0.00000000000E+00 -0.72053817005E+02  0.72053817182E+02  0.50400000000E-02 0. -1.
        -24    2    1    2    0    0  0.35527136788E-14  0.00000000000E+00 -0.50459128565E+02  0.93648505773E+02  0.78891818194E+02 0.  0.
         66    2    3    3    0    0  0.15597839251E+02  0.34024590566E+02 -0.10562286850E+02  0.38942614908E+02  0.19999999797E+01 0.  0.
         13    1    3    3    0    0 -0.15597839251E+02 -0.34024590566E+02 -0.39896841715E+02  0.54705890865E+02  0.10566000000E+00 0. -1.
         13    1    4    4    0    0  0.10555915971E+01  0.23891389936E+01 -0.61871011549E+00  0.26863032207E+01  0.10566000000E+00 0. -1.
        -13    1    4    4    0    0  0.11473398544E+02  0.26286542356E+02 -0.77384430910E+01  0.29707168305E+02  0.10566000000E+00 0.  1.
        -14    1    4    4    0    0  0.30688491096E+01  0.53489092163E+01 -0.22051336437E+01  0.65491433828E+01  0.00000000000E+00 0.  1.
<mgrwt>
<rscale>  0 0.78891818E+02</rscale>
<asrwt>0</asrwt>
<pdfrwt beam="1">  1        1 0.11085203E-01 0.78891818E+02</pdfrwt>
<pdfrwt beam="2">  1       -2 0.33222598E-02 0.78891818E+02</pdfrwt>
<totfact> 0.14475645E+05</totfact>
</mgrwt>
</event>
<event>
 8    1  0.8577104E-014  0.7837203E+02  0.7818608E-02  0.1333736E+00
          1   -1    0    0  501    0  0.00000000000E+00  0.00000000000E+00  0.53318799086E+02  0.53318799325E+02  0.50400000000E-02 0. -1.
         -2   -1    0    0    0  501 -0.00000000000E+00 -0.00000000000E+00 -0.28799292246E+02  0.28799292359E+02  0.25500000000E-02 0.  1.
        -24    2    1    2    0    0  0.00000000000E+00  0.00000000000E+00  0.24519506840E+02  0.82118091684E+02  0.78372027957E+02 0.  0.
         66    2    3    3    0    0 -0.10707895009E+02 -0.34955996350E+02 -0.24372717925E+01  0.36694972299E+02  0.20000004640E+01 0.  0.
         13    1    3    3    0    0  0.10707895009E+02  0.34955996350E+02  0.26956778633E+02  0.45423119385E+02  0.10566000000E+00 0. -1.
         13    1    4    4    0    0 -0.35268606115E+01 -0.97174524337E+01 -0.57673544893E-01  0.10338380814E+02  0.10566000000E+00 0. -1.
        -13    1    4    4    0    0 -0.49799854464E+01 -0.17223022328E+02 -0.19256539894E+01  0.18031973283E+02  0.10566000000E+00 0.  1.
        -14    1    4    4    0    0 -0.22010489507E+01 -0.80155215890E+01 -0.45394425828E+00  0.83246182024E+01  0.00000000000E+00 0.  1.
<mgrwt>
<rscale>  0 0.78372028E+02</rscale>
<asrwt>0</asrwt>
<pdfrwt beam="1">  1        1 0.82028922E-02 0.78372028E+02</pdfrwt>
<pdfrwt beam="2">  1       -2 0.44306604E-02 0.78372028E+02</pdfrwt>
<totfact> 0.14068720E+05</totfact>
</mgrwt>
</event>
<event>
 8    1  0.8577104E-014  0.7944297E+02  0.7818608E-02  0.1330640E+00
         -2   -1    0    0    0  501 -0.00000000000E+00  0.00000000000E+00  0.11655534978E+03  0.11655534981E+03  0.25500000000E-02 0.  1.
          1   -1    0    0  501    0  0.00000000000E+00 -0.00000000000E+00 -0.13536884964E+02  0.13536885902E+02  0.50400000000E-02 0. -1.
        -24    2    1    2    0    0  0.00000000000E+00  0.22204460493E-15  0.10301846482E+03  0.13009223571E+03  0.79442971364E+02 0.  0.
         66    2    3    3    0    0  0.38596953288E+02  0.18838606515E+01  0.36666356499E+02  0.53307555102E+02  0.19999994873E+01 0.  0.
         13    1    3    3    0    0 -0.38596953288E+02 -0.18838606515E+01  0.66352108317E+02  0.76784680609E+02  0.10566000000E+00 0. -1.
         13    1    4    4    0    0  0.24125448812E+01  0.61429970568E-02  0.25033775681E+01  0.34782860469E+01  0.10566000000E+00 0. -1.
        -13    1    4    4    0    0  0.13875568551E+01 -0.17925778666E+00  0.10670612602E+01  0.17627339983E+01  0.10566000000E+00 0.  1.
        -14    1    4    4    0    0  0.34796851552E+02  0.20569754411E+01  0.33095917671E+02  0.48066535057E+02  0.00000000000E+00 0.  1.
<mgrwt>
<rscale>  0 0.79442971E+02</rscale>
<asrwt>0</asrwt>
<pdfrwt beam="1">  1        1 0.20825979E-02 0.79442971E+02</pdfrwt>
<pdfrwt beam="2">  1       -2 0.17931591E-01 0.79442971E+02</pdfrwt>
<totfact> 0.10381010E+05</totfact>
</mgrwt>
</event>
<event>
 8    1  0.8577104E-014  0.8009238E+02  0.7818608E-02  0.1328789E+00
         -2   -1    0    0    0  501 -0.00000000000E+00  0.00000000000E+00  0.12408186784E+03  0.12408186786E+03  0.25500000000E-02 0.  1.
          1   -1    0    0  501    0  0.00000000000E+00 -0.00000000000E+00 -0.12924510305E+02  0.12924511288E+02  0.50400000000E-02 0. -1.
        -24    2    1    2    0    0  0.00000000000E+00 -0.71054273576E-14  0.11115735753E+03  0.13700637915E+03  0.80092382875E+02 0.  0.
         66    2    3    3    0    0  0.67275330166E+01  0.35621659772E+02  0.84619467130E+02  0.92079403552E+02  0.19999989537E+01 0.  0.
         13    1    3    3    0    0 -0.67275330166E+01 -0.35621659772E+02  0.26537890401E+02  0.44926975597E+02  0.10566000000E+00 0. -1.
         13    1    4    4    0    0  0.17944280748E+01  0.86367495521E+01  0.22336245050E+02  0.24015253943E+02  0.10566000000E+00 0. -1.
        -13    1    4    4    0    0  0.31007059834E+00  0.18740293126E+01  0.49235146287E+01  0.52782847569E+01  0.10566000000E+00 0.  1.
        -14    1    4    4    0    0  0.46230343435E+01  0.25110880907E+02  0.57359707451E+02  0.62785864853E+02  0.00000000000E+00 0.  1.
<mgrwt>
<rscale>  0 0.80092383E+02</rscale>
<asrwt>0</asrwt>
<pdfrwt beam="1">  1        1 0.19883863E-02 0.80092383E+02</pdfrwt>
<pdfrwt beam="2">  1       -2 0.19089518E-01 0.80092383E+02</pdfrwt>
<totfact> 0.99892743E+04</totfact>
</mgrwt>
</event>
<event>
 8    1  0.8577104E-014  0.8001218E+02  0.7818608E-02  0.1329017E+00
         -2   -1    0    0    0  501 -0.00000000000E+00  0.00000000000E+00  0.24991063887E+01  0.24991076896E+01  0.25500000000E-02 0.  1.
          1   -1    0    0  501    0  0.00000000000E+00 -0.00000000000E+00 -0.64042370804E+03  0.64042370806E+03  0.50400000000E-02 0. -1.
        -24    2    1    2    0    0  0.35527136788E-14  0.35527136788E-14 -0.63792460165E+03  0.64292281575E+03  0.80012184192E+02 0.  0.
         66    2    3    3    0    0 -0.21385677746E+02 -0.31376637374E+02 -0.41972829776E+03  0.42144713135E+03  0.19999986914E+01 0.  0.
         13    1    3    3    0    0  0.21385677746E+02  0.31376637374E+02 -0.21819630389E+03  0.22147568440E+03  0.10566000000E+00 0. -1.
         13    1    4    4    0    0 -0.31442309069E+01 -0.53380965426E+01 -0.68379067780E+02  0.68659227618E+02  0.10566000000E+00 0. -1.
        -13    1    4    4    0    0 -0.14580399048E+01 -0.15220579695E+01 -0.21563251416E+02  0.21666276018E+02  0.10566000000E+00 0.  1.
        -14    1    4    4    0    0 -0.16783406934E+02 -0.24516482862E+02 -0.32978597856E+03  0.33112162771E+03  0.00000000000E+00 0.  1.
<mgrwt>
<rscale>  0 0.80012184E+02</rscale>
<asrwt>0</asrwt>
<pdfrwt beam="1">  1        1 0.98526594E-01 0.80012184E+02</pdfrwt>
<pdfrwt beam="2">  1       -2 0.38447852E-03 0.80012184E+02</pdfrwt>
<totfact> 0.19988955E+05</totfact>
</mgrwt>
</event>
<event>
 8    1  0.8577104E-014  0.7796952E+02  0.7818608E-02  0.1334914E+00
          1   -1    0    0  501    0  0.00000000000E+00  0.00000000000E+00  0.24488131546E+03  0.24488131551E+03  0.50400000000E-02 0. -1.
         -2   -1    0    0    0  501 -0.00000000000E+00 -0.00000000000E+00 -0.62063180711E+01  0.62063185950E+01  0.25500000000E-02 0.  1.
        -24    2    1    2    0    0 -0.35527136788E-14 -0.35527136788E-14  0.23867499739E+03  0.25108763411E+03  0.77969517267E+02 0.  0.
         66    2    3    3    0    0 -0.25999640479E+02 -0.29004937498E+02  0.12177956795E+03  0.12787310456E+03  0.19999987088E+01 0.  0.
         13    1    3    3    0    0  0.25999640479E+02  0.29004937498E+02  0.11689542943E+03  0.12321452955E+03  0.10566000000E+00 0. -1.
         13    1    4    4    0    0 -0.25650728217E+01 -0.24233642230E+01  0.12606313615E+02  0.13091317723E+02  0.10566000000E+00 0. -1.
        -13    1    4    4    0    0 -0.14439774791E+02 -0.15987104616E+02  0.66342115528E+02  0.69752290764E+02  0.10566000000E+00 0.  1.
         14    1    4    4    0    0 -0.89947928660E+01 -0.10594468659E+02  0.42831138812E+02  0.45029496076E+02  0.00000000000E+00 0. -1.
<mgrwt>
<rscale>  0 0.77969517E+02</rscale>
<asrwt>0</asrwt>
<pdfrwt beam="1">  1        1 0.37674052E-01 0.77969517E+02</pdfrwt>
<pdfrwt beam="2">  1       -2 0.95481813E-03 0.77969517E+02</pdfrwt>
<totfact> 0.18564026E+05</totfact>
</mgrwt>
</event>
<event>
 8    1  0.8577104E-014  0.8107293E+02  0.7818608E-02  0.1326034E+00
          1   -1    0    0  501    0  0.00000000000E+00  0.00000000000E+00  0.16302031407E+02  0.16302032186E+02  0.50400000000E-02 0. -1.
         -2   -1    0    0    0  501 -0.00000000000E+00 -0.00000000000E+00 -0.10079756204E+03  0.10079756208E+03  0.25500000000E-02 0.  1.
        -24    2    1    2    0    0  0.00000000000E+00  0.00000000000E+00 -0.84495530637E+02  0.11709959426E+03  0.81072931850E+02 0.  0.
         66    2    3    3    0    0  0.30131902720E+02 -0.16115503751E+02 -0.73705011463E+02  0.81265427735E+02  0.20000018610E+01 0.  0.
         13    1    3    3    0    0 -0.30131902720E+02  0.16115503751E+02 -0.10790519174E+02  0.35834166528E+02  0.10566000000E+00 0. -1.
         13    1    4    4    0    0  0.18273861324E+01 -0.96889817314E+00 -0.35713457543E+01  0.41284111083E+01  0.10566000000E+00 0. -1.
        -13    1    4    4    0    0  0.14143073696E+02 -0.75305374096E+01 -0.33933939368E+02  0.37526776205E+02  0.10566000000E+00 0.  1.
        -14    1    4    4    0    0  0.14161442892E+02 -0.76160681687E+01 -0.36199726341E+02  0.39610240422E+02  0.00000000000E+00 0.  1.
<mgrwt>
<rscale>  0 0.81072932E+02</rscale>
<asrwt>0</asrwt>
<pdfrwt beam="1">  1        1 0.25080050E-02 0.81072932E+02</pdfrwt>
<pdfrwt beam="2">  1       -2 0.15507317E-01 0.81072932E+02</pdfrwt>
<totfact> 0.10236593E+05</totfact>
</mgrwt>
</event>
<event>
 8    1  0.8577104E-014  0.7894160E+02  0.7818608E-02  0.1332082E+00
         -2   -1    0    0    0  501 -0.00000000000E+00  0.00000000000E+00  0.46185876230E+01  0.46185883269E+01  0.25500000000E-02 0.  1.
          1   -1    0    0  501    0  0.00000000000E+00 -0.00000000000E+00 -0.33732042819E+03  0.33732042822E+03  0.50400000000E-02 0. -1.
        -24    2    1    2    0    0  0.17763568394E-14  0.00000000000E+00 -0.33270184056E+03  0.34193901655E+03  0.78941600729E+02 0.  0.
         66    2    3    3    0    0 -0.10768414614E+02 -0.32910659107E+02 -0.24828448317E+03  0.25069554210E+03  0.20000027684E+01 0.  0.
         13    1    3    3    0    0  0.10768414614E+02  0.32910659107E+02 -0.84417357397E+02  0.91243474452E+02  0.10566000000E+00 0. -1.
         13    1    4    4    0    0 -0.30899678714E+01 -0.10876891082E+02 -0.77616634347E+02  0.78436010559E+02  0.10566000000E+00 0. -1.
        -13    1    4    4    0    0 -0.35882876101E+01 -0.11438781281E+02 -0.90934076145E+02  0.91720983933E+02  0.10566000000E+00 0.  1.
         14    1    4    4    0    0 -0.40901591320E+01 -0.10594986743E+02 -0.79733772674E+02  0.80538547607E+02  0.00000000000E+00 0. -1.
<mgrwt>
<rscale>  0 0.78941601E+02</rscale>
<asrwt>0</asrwt>
<pdfrwt beam="1">  1        1 0.51895431E-01 0.78941601E+02</pdfrwt>
<pdfrwt beam="2">  1       -2 0.71055226E-03 0.78941601E+02</pdfrwt>
<totfact> 0.19097761E+05</totfact>
</mgrwt>
</event>
<event>
 8    1  0.8577104E-014  0.7968057E+02  0.7818608E-02  0.1329960E+00
         -2   -1    0    0    0  501 -0.00000000000E+00  0.00000000000E+00  0.27119705490E+02  0.27119705610E+02  0.25500000000E-02 0.  1.
          1   -1    0    0  501    0  0.00000000000E+00 -0.00000000000E+00 -0.58527490169E+02  0.58527490386E+02  0.50400000000E-02 0. -1.
        -24    2    1    2    0    0 -0.10658141036E-13 -0.71054273576E-14 -0.31407784678E+02  0.85647195996E+02  0.79680570051E+02 0.  0.
         66    2    3    3    0    0 -0.27033490372E+02 -0.27446981641E+02 -0.49061463105E+01  0.38887230180E+02  0.19999991581E+01 0.  0.
         13    1    3    3    0    0  0.27033490372E+02  0.27446981641E+02 -0.26501638368E+02  0.46759965816E+02  0.10566000000E+00 0. -1.
         13    1    4    4    0    0 -0.97299534620E-01 -0.20409091169E+00  0.14056391196E-01  0.24996383220E+00  0.10566000000E+00 0. -1.
        -13    1    4    4    0    0 -0.16969513174E+02 -0.16531646374E+02 -0.29386606740E+01  0.23872716640E+02  0.10566000000E+00 0.  1.
         14    1    4    4    0    0 -0.99666776631E+01 -0.10711244355E+02 -0.19815420277E+01  0.14764549708E+02  0.00000000000E+00 0. -1.
<mgrwt>
<rscale>  0 0.79680570E+02</rscale>
<asrwt>0</asrwt>
<pdfrwt beam="1">  1        1 0.90042293E-02 0.79680570E+02</pdfrwt>
<pdfrwt beam="2">  1       -2 0.41722624E-02 0.79680570E+02</pdfrwt>
<totfact> 0.13635595E+05</totfact>
</mgrwt>
</event>
<event>
 8    1  0.8577104E-014  0.7917067E+02  0.7818608E-02  0.1331422E+00
         -2   -1    0    0    0  501 -0.00000000000E+00  0.00000000000E+00  0.16031236865E+03  0.16031236867E+03  0.25500000000E-02 0.  1.
          1   -1    0    0  501    0  0.00000000000E+00 -0.00000000000E+00 -0.97746584407E+01  0.97746597400E+01  0.50400000000E-02 0. -1.
        -24    2    1    2    0    0  0.88817841970E-15  0.00000000000E+00  0.15053771021E+03  0.17008702841E+03  0.79170670317E+02 0.  0.
         66    2    3    3    0    0  0.76138843739E+01 -0.29931765300E+02  0.12842565186E+03  0.13210234600E+03  0.19999884994E+01 0.  0.
         13    1    3    3    0    0 -0.76138843739E+01  0.29931765300E+02  0.22112058349E+02  0.37984682409E+02  0.10566000000E+00 0. -1.
         13    1    4    4    0    0  0.41552899980E+01 -0.17475410128E+02  0.76614475874E+02  0.78692092815E+02  0.10566000000E+00 0.  1.
        -13    1    4    4    0    0  0.90917275123E+00 -0.49844037306E+01  0.21219965269E+02  0.21816712990E+02  0.10566000000E+00 0. -1.
         14    1    4    4    0    0  0.25494216248E+01 -0.74719514422E+01  0.30591210720E+02  0.31593540199E+02  0.00000000000E+00 0. -1.
<mgrwt>
<rscale>  0 0.79170670E+02</rscale>
<asrwt>0</asrwt>
<pdfrwt beam="1">  1        1 0.15037939E-02 0.79170670E+02</pdfrwt>
<pdfrwt beam="2">  1       -2 0.24663439E-01 0.79170670E+02</pdfrwt>
<totfact> 0.94932236E+04</totfact>
</mgrwt>
</event>
<event>
 8    1  0.8577104E-014  0.7889279E+02  0.7818608E-02  0.1332223E+00
          1   -1    0    0  501    0  0.00000000000E+00  0.00000000000E+00  0.21863293949E+03  0.21863293955E+03  0.50400000000E-02 0. -1.
         -2   -1    0    0    0  501 -0.00000000000E+00 -0.00000000000E+00 -0.71170337715E+01  0.71170342283E+01  0.25500000000E-02 0.  1.
        -24    2    1    2    0    0  0.00000000000E+00  0.00000000000E+00  0.21151590572E+03  0.22574997378E+03  0.78892789836E+02 0.  0.
         66    2    3    3    0    0 -0.81172661324E+01  0.38433694073E+02  0.11530507739E+03  0.12182897734E+03  0.19999993155E+01 0.  0.
         13    1    3    3    0    0  0.81172661324E+01 -0.38433694073E+02  0.96210828331E+02  0.10392099644E+03  0.10566000000E+00 0. -1.
         13    1    4    4    0    0 -0.34641679370E+01  0.16607372503E+02  0.50280697589E+02  0.53065666820E+02  0.10566000000E+00 0. -1.
        -13    1    4    4    0    0 -0.16916569357E+01  0.11417249993E+02  0.33905723365E+02  0.35816540055E+02  0.10566000000E+00 0.  1.
         14    1    4    4    0    0 -0.29614412596E+01  0.10409071577E+02  0.31118656435E+02  0.32946770460E+02  0.00000000000E+00 0. -1.
<mgrwt>
<rscale>  0 0.78892790E+02</rscale>
<asrwt>0</asrwt>
<pdfrwt beam="1">  1        1 0.33635838E-01 0.78892790E+02</pdfrwt>
<pdfrwt beam="2">  1       -2 0.10949283E-02 0.78892790E+02</pdfrwt>
<totfact> 0.17603515E+05</totfact>
</mgrwt>
</event>
<event>
 8    1  0.8577104E-014  0.7988351E+02  0.7818608E-02  0.1329382E+00
          1   -1    0    0  501    0  0.00000000000E+00  0.00000000000E+00  0.51130312322E+03  0.51130312325E+03  0.50400000000E-02 0. -1.
         -2   -1    0    0    0  501 -0.00000000000E+00 -0.00000000000E+00 -0.31201518712E+01  0.31201529132E+01  0.25500000000E-02 0.  1.
        -24    2    1    2    0    0 -0.35527136788E-14  0.35527136788E-14  0.50818297135E+03  0.51442327616E+03  0.79883506961E+02 0.  0.
         66    2    3    3    0    0  0.30757273082E+02 -0.24849523521E+02  0.28942177669E+03  0.29211722559E+03  0.19999993028E+01 0.  0.
         13    1    3    3    0    0 -0.30757273082E+02  0.24849523521E+02  0.21876119466E+03  0.22230605057E+03  0.10566000000E+00 0. -1.
         13    1    4    4    0    0  0.31124775219E+01 -0.22772890917E+01  0.25186840620E+02  0.25480613540E+02  0.10566000000E+00 0. -1.
        -13    1    4    4    0    0  0.56868905277E+01 -0.49162187013E+01  0.52789683117E+02  0.53322338076E+02  0.10566000000E+00 0.  1.
        -14    1    4    4    0    0  0.21957905032E+02 -0.17656015728E+02  0.21144525295E+03  0.21331427398E+03  0.00000000000E+00 0.  1.
<mgrwt>
<rscale>  0 0.79883507E+02</rscale>
<asrwt>0</asrwt>
<pdfrwt beam="1">  1        1 0.78662064E-01 0.79883507E+02</pdfrwt>
<pdfrwt beam="2">  1       -2 0.48002317E-03 0.79883507E+02</pdfrwt>
<totfact> 0.19734161E+05</totfact>
</mgrwt>
</event>
<event>
 8    1  0.8577104E-014  0.7760847E+02  0.7818608E-02  0.1335979E+00
         -2   -1    0    0    0  501 -0.00000000000E+00  0.00000000000E+00  0.51666465708E+02  0.51666465771E+02  0.25500000000E-02 0.  1.
          1   -1    0    0  501    0  0.00000000000E+00 -0.00000000000E+00 -0.29144024885E+02  0.29144025321E+02  0.50400000000E-02 0. -1.
        -24    2    1    2    0    0  0.00000000000E+00  0.35527136788E-14  0.22522440823E+02  0.80810491092E+02  0.77608473312E+02 0.  0.
         66    2    3    3    0    0  0.23228805884E+02  0.29677182844E+02  0.20780748260E+02  0.43083083794E+02  0.20000016550E+01 0.  0.
         13    1    3    3    0    0 -0.23228805884E+02 -0.29677182844E+02  0.17416925627E+01  0.37727407297E+02  0.10566000000E+00 0. -1.
         13    1    4    4    0    0  0.44036529220E+01  0.60000902437E+01  0.38812378660E+01  0.83945466464E+01  0.10566000000E+00 0. -1.
        -13    1    4    4    0    0  0.64099033415E+01  0.92113233826E+01  0.58779049525E+01  0.12668712246E+02  0.10566000000E+00 0.  1.
         14    1    4    4    0    0  0.12415249620E+02  0.14465769218E+02  0.11021605441E+02  0.22019824902E+02  0.00000000000E+00 0. -1.
<mgrwt>
<rscale>  0 0.77608473E+02</rscale>
<asrwt>0</asrwt>
<pdfrwt beam="1">  1        1 0.44836962E-02 0.77608473E+02</pdfrwt>
<pdfrwt beam="2">  1       -2 0.79486870E-02 0.77608473E+02</pdfrwt>
<totfact> 0.13128116E+05</totfact>
</mgrwt>
</event>
<event>
 8    1  0.8577104E-014  0.8052104E+02  0.7818608E-02  0.1327579E+00
          1   -1    0    0  501    0  0.00000000000E+00  0.00000000000E+00  0.11768765011E+03  0.11768765021E+03  0.50400000000E-02 0. -1.
         -2   -1    0    0    0  501 -0.00000000000E+00 -0.00000000000E+00 -0.13772977381E+02  0.13772977617E+02  0.25500000000E-02 0.  1.
        -24    2    1    2    0    0  0.00000000000E+00  0.00000000000E+00  0.10391467272E+03  0.13146062783E+03  0.80521037389E+02 0.  0.
         66    2    3    3    0    0 -0.23191920278E+02  0.10724133219E+02  0.12456001589E+01  0.25659768547E+02  0.20000006690E+01 0.  0.
         13    1    3    3    0    0  0.23191920278E+02 -0.10724133219E+02  0.10266907257E+03  0.10580085928E+03  0.10566000000E+00 0. -1.
         13    1    4    4    0    0 -0.22283451691E+01  0.86751002772E+00  0.29645097613E+00  0.24118754233E+01  0.10566000000E+00 0. -1.
        -13    1    4    4    0    0 -0.15159628088E+02  0.77791602412E+01  0.11688331065E+01  0.17079431861E+02  0.10566000000E+00 0.  1.
         14    1    4    4    0    0 -0.58039470208E+01  0.20774629504E+01 -0.21968392381E+00  0.61684612633E+01  0.00000000000E+00 0. -1.
<mgrwt>
<rscale>  0 0.80521037E+02</rscale>
<asrwt>0</asrwt>
<pdfrwt beam="1">  1        1 0.18105792E-01 0.80521037E+02</pdfrwt>
<pdfrwt beam="2">  1       -2 0.21189196E-02 0.80521037E+02</pdfrwt>
<totfact> 0.14853182E+05</totfact>
</mgrwt>
</event>
<event>
 8    1  0.8577104E-014  0.8118346E+02  0.7818608E-02  0.1325726E+00
         -2   -1    0    0    0  501 -0.00000000000E+00  0.00000000000E+00  0.46779115376E+03  0.46779115377E+03  0.25500000000E-02 0.  1.
          1   -1    0    0  501    0  0.00000000000E+00 -0.00000000000E+00 -0.35222721564E+01  0.35222757622E+01  0.50400000000E-02 0. -1.
        -24    2    1    2    0    0  0.00000000000E+00  0.35527136788E-14  0.46426888161E+03  0.47131342953E+03  0.81183461549E+02 0.  0.
         66    2    3    3    0    0  0.19343117416E+02 -0.23829781926E+02  0.38627695960E+03  0.38749955383E+03  0.20000005035E+01 0.  0.
         13    1    3    3    0    0 -0.19343117416E+02  0.23829781926E+02  0.77991922005E+02  0.83813875702E+02  0.10566000000E+00 0. -1.
         13    1    4    4    0    0  0.13651909188E+02 -0.16275211605E+02  0.27134566204E+03  0.27217592952E+03  0.10566000000E+00 0. -1.
        -13    1    4    4    0    0  0.11313495235E+00 -0.18383967876E+00  0.19321688430E+01  0.19470585554E+01  0.10566000000E+00 0.  1.
        -14    1    4    4    0    0  0.55780732749E+01 -0.73707306427E+01  0.11299912872E+03  0.11337656576E+03  0.00000000000E+00 0.  1.
<mgrwt>
<rscale>  0 0.81183462E+02</rscale>
<asrwt>0</asrwt>
<pdfrwt beam="1">  1        1 0.54188828E-03 0.81183462E+02</pdfrwt>
<pdfrwt beam="2">  1       -2 0.71967873E-01 0.81183462E+02</pdfrwt>
<totfact> 0.50998469E+04</totfact>
</mgrwt>
</event>
<event>
 8    1  0.8577104E-014  0.7980250E+02  0.7818608E-02  0.1329613E+00
          1   -1    0    0  501    0  0.00000000000E+00  0.00000000000E+00  0.48997548531E+02  0.48997548791E+02  0.50400000000E-02 0. -1.
         -2   -1    0    0    0  501 -0.00000000000E+00 -0.00000000000E+00 -0.32493664323E+02  0.32493664423E+02  0.25500000000E-02 0.  1.
        -24    2    1    2    0    0  0.00000000000E+00 -0.35527136788E-14  0.16503884209E+02  0.81491213214E+02  0.79802503952E+02 0.  0.
         66    2    3    3    0    0 -0.13172049280E+02 -0.18406485247E+02 -0.25267522152E+02  0.33981602241E+02  0.20000084281E+01 0.  0.
         13    1    3    3    0    0  0.13172049280E+02  0.18406485247E+02  0.41771406361E+02  0.47509610973E+02  0.10566000000E+00 0. -1.
         13    1    4    4    0    0 -0.23931116284E+01 -0.27249877748E+01 -0.35852091446E+01  0.51007284073E+01  0.10566000000E+00 0. -1.
        -13    1    4    4    0    0 -0.77544534883E+01 -0.11876975024E+02 -0.15385344071E+02  0.20926396270E+02  0.10566000000E+00 0.  1.
         14    1    4    4    0    0 -0.30244841637E+01 -0.38045224487E+01 -0.62969689367E+01  0.79544775636E+01  0.00000000000E+00 0. -1.
<mgrwt>
<rscale>  0 0.79802504E+02</rscale>
<asrwt>0</asrwt>
<pdfrwt beam="1">  1        1 0.75380845E-02 0.79802504E+02</pdfrwt>
<pdfrwt beam="2">  1       -2 0.49990253E-02 0.79802504E+02</pdfrwt>
<totfact> 0.13205806E+05</totfact>
</mgrwt>
</event>
<event>
 8    1  0.8577104E-014  0.8017596E+02  0.7818608E-02  0.1328553E+00
         -2   -1    0    0    0  501 -0.00000000000E+00  0.00000000000E+00  0.75690700846E+01  0.75690705142E+01  0.25500000000E-02 0.  1.
          1   -1    0    0  501    0  0.00000000000E+00 -0.00000000000E+00 -0.21231748026E+03  0.21231748032E+03  0.50400000000E-02 0. -1.
        -24    2    1    2    0    0  0.00000000000E+00 -0.35527136788E-14 -0.20474841018E+03  0.21988655084E+03  0.80175955051E+02 0.  0.
         66    2    3    3    0    0 -0.10712867531E+02  0.30889900202E+02 -0.16593765113E+03  0.16913975146E+03  0.19999988848E+01 0.  0.
         13    1    3    3    0    0  0.10712867531E+02 -0.30889900202E+02 -0.38810759048E+02  0.50746799378E+02  0.10566000000E+00 0. -1.
         13    1    4    4    0    0 -0.81667546112E+00  0.29981599592E+01 -0.16651886615E+02  0.16939669827E+02  0.10566000000E+00 0. -1.
        -13    1    4    4    0    0 -0.98114019619E+01  0.27703174629E+02 -0.14875558679E+03  0.15163101681E+03  0.10566000000E+00 0.  1.
        -14    1    4    4    0    0 -0.84790107806E-01  0.18856561417E+00 -0.53017771924E+00  0.56906481811E+00  0.00000000000E+00 0.  1.
<mgrwt>
<rscale>  0 0.80175955E+02</rscale>
<asrwt>0</asrwt>
<pdfrwt beam="1">  1        1 0.32664223E-01 0.80175955E+02</pdfrwt>
<pdfrwt beam="2">  1       -2 0.11644725E-02 0.80175955E+02</pdfrwt>
<totfact> 0.16770879E+05</totfact>
</mgrwt>
</event>
<event>
 8    1  0.9217908E-014  0.7283626E+02  0.7818608E-02  0.1350705E+00
         -2   -1    0    0    0  501 -0.00000000000E+00  0.00000000000E+00  0.26932614405E+02  0.26932614526E+02  0.25500000000E-02 0.  1.
          1   -1    0    0  501    0  0.00000000000E+00 -0.00000000000E+00 -0.49244393030E+02  0.49244393288E+02  0.50400000000E-02 0. -1.
        -24    2    1    2    0    0  0.00000000000E+00  0.00000000000E+00 -0.22311778625E+02  0.76177007814E+02  0.72836261944E+02 0.  0.
         66    2    3    3    0    0  0.22018349987E+02  0.49157579614E+01  0.18698884367E+02  0.29370405122E+02  0.20000019881E+01 0.  0.
         13    1    3    3    0    0 -0.22018349987E+02 -0.49157579614E+01 -0.41010662992E+02  0.46806602692E+02  0.10566000000E+00 0. -1.
         13    1    4    4    0    0  0.67266327572E+01  0.10629541373E+01  0.55384809470E+01  0.87785759087E+01  0.10566000000E+00 0. -1.
        -13    1    4    4    0    0  0.14971633799E+02  0.37969087615E+01  0.12555685721E+02  0.19905344577E+02  0.10566000000E+00 0.  1.
         14    1    4    4    0    0  0.32008343091E+00  0.55895062621E-01  0.60471769834E+00  0.68648463599E+00  0.00000000000E+00 0. -1.
<mgrwt>
<rscale>  0 0.72836262E+02</rscale>
<asrwt>0</asrwt>
<pdfrwt beam="1">  1        1 0.75760605E-02 0.72836262E+02</pdfrwt>
<pdfrwt beam="2">  1       -2 0.41434791E-02 0.72836262E+02</pdfrwt>
<totfact> 0.17003897E+05</totfact>
</mgrwt>
</event>
<event>
 8    1  0.8577104E-014  0.7939528E+02  0.7818608E-02  0.1330776E+00
         -2   -1    0    0    0  501 -0.00000000000E+00  0.00000000000E+00  0.78609868511E+01  0.78609872647E+01  0.25500000000E-02 0.  1.
          1   -1    0    0  501    0  0.00000000000E+00 -0.00000000000E+00 -0.20047131588E+03  0.20047131594E+03  0.50400000000E-02 0. -1.
        -24    2    1    2    0    0  0.00000000000E+00 -0.71054273576E-14 -0.19261032903E+03  0.20833230321E+03  0.79395275119E+02 0.  0.
         66    2    3    3    0    0  0.22178881651E+02  0.32849747101E+02 -0.91906241980E+02  0.10010877070E+03  0.19999951247E+01 0.  0.
         13    1    3    3    0    0 -0.22178881651E+02 -0.32849747101E+02 -0.10070408705E+03  0.10822353250E+03  0.10566000000E+00 0. -1.
         13    1    4    4    0    0  0.82236790923E+01  0.11802651668E+02 -0.34069395511E+02  0.36981973429E+02  0.10566000000E+00 0. -1.
        -13    1    4    4    0    0  0.13459220332E+02  0.20664765319E+02 -0.56135383054E+02  0.61313746682E+02  0.10566000000E+00 0.  1.
         14    1    4    4    0    0  0.49598222660E+00  0.38233011464E+00 -0.17014634159E+01  0.18130505899E+01  0.00000000000E+00 0. -1.
<mgrwt>
<rscale>  0 0.79395275E+02</rscale>
<asrwt>0</asrwt>
<pdfrwt beam="1">  1        1 0.30841737E-01 0.79395275E+02</pdfrwt>
<pdfrwt beam="2">  1       -2 0.12093828E-02 0.79395275E+02</pdfrwt>
<totfact> 0.17020850E+05</totfact>
</mgrwt>
</event>
<event>
 8    1  0.8577104E-014  0.7954259E+02  0.7818608E-02  0.1330355E+00
         -2   -1    0    0    0  501 -0.00000000000E+00  0.00000000000E+00  0.20483757491E+02  0.20483757649E+02  0.25500000000E-02 0.  1.
          1   -1    0    0  501    0  0.00000000000E+00 -0.00000000000E+00 -0.77220011938E+02  0.77220012103E+02  0.50400000000E-02 0. -1.
        -24    2    1    2    0    0 -0.35527136788E-14  0.00000000000E+00 -0.56736254448E+02  0.97703769752E+02  0.79542592710E+02 0.  0.
         66    2    3    3    0    0 -0.25682218778E+02 -0.28135008845E+02 -0.14456840784E+02  0.40794059968E+02  0.19999997899E+01 0.  0.
         13    1    3    3    0    0  0.25682218778E+02  0.28135008845E+02 -0.42279413663E+02  0.56909709785E+02  0.10566000000E+00 0. -1.
         13    1    4    4    0    0 -0.35968526391E+01 -0.30834345454E+01 -0.19295905871E+01  0.51165810238E+01  0.10566000000E+00 0. -1.
        -13    1    4    4    0    0 -0.16751005268E+02 -0.18535232365E+02 -0.92312764471E+01  0.26634163121E+02  0.10566000000E+00 0.  1.
         14    1    4    4    0    0 -0.53343608707E+01 -0.65163419345E+01 -0.32959737502E+01  0.90433158226E+01  0.00000000000E+00 0. -1.
<mgrwt>
<rscale>  0 0.79542593E+02</rscale>
<asrwt>0</asrwt>
<pdfrwt beam="1">  1        1 0.11880002E-01 0.79542593E+02</pdfrwt>
<pdfrwt beam="2">  1       -2 0.31513474E-02 0.79542593E+02</pdfrwt>
<totfact> 0.14311087E+05</totfact>
</mgrwt>
</event>
<event>
 8    1  0.8577104E-014  0.8043704E+02  0.7818608E-02  0.1327816E+00
          1   -1    0    0  501    0  0.00000000000E+00  0.00000000000E+00  0.88167449496E+03  0.88167449498E+03  0.50400000000E-02 0. -1.
         -2   -1    0    0    0  501 -0.00000000000E+00 -0.00000000000E+00 -0.18346098289E+01  0.18346116011E+01  0.25500000000E-02 0.  1.
        -24    2    1    2    0    0  0.00000000000E+00  0.35527136788E-14  0.87983988513E+03  0.88350910658E+03  0.80437043297E+02 0.  0.
         66    2    3    3    0    0  0.15546613708E+02  0.24933721767E+02  0.74142471880E+03  0.74200943479E+03  0.20000003037E+01 0.  0.
         13    1    3    3    0    0 -0.15546613708E+02 -0.24933721767E+02  0.13841516634E+03  0.14149967179E+03  0.10566000000E+00 0. -1.
         13    1    4    4    0    0  0.24634705206E+01  0.29556997146E+01  0.10361228264E+03  0.10368375536E+03  0.10566000000E+00 0. -1.
        -13    1    4    4    0    0  0.29978866052E+01  0.56286266858E+01  0.15384922761E+03  0.15398137797E+03  0.10566000000E+00 0.  1.
        -14    1    4    4    0    0  0.10085256583E+02  0.16349395367E+02  0.48396320854E+03  0.48434430146E+03  0.00000000000E+00 0.  1.
<mgrwt>
<rscale>  0 0.80437043E+02</rscale>
<asrwt>0</asrwt>
<pdfrwt beam="1">  1        1 0.13564184E+00 0.80437043E+02</pdfrwt>
<pdfrwt beam="2">  1       -2 0.28224861E-03 0.80437043E+02</pdfrwt>
<totfact> 0.19389558E+05</totfact>
</mgrwt>
</event>
<event>
 8    1  0.8577104E-014  0.7946502E+02  0.7818608E-02  0.1330577E+00
         -2   -1    0    0    0  501 -0.00000000000E+00  0.00000000000E+00  0.10246781517E+03  0.10246781520E+03  0.25500000000E-02 0.  1.
          1   -1    0    0  501    0  0.00000000000E+00 -0.00000000000E+00 -0.15406517312E+02  0.15406518136E+02  0.50400000000E-02 0. -1.
        -24    2    1    2    0    0 -0.17763568394E-14 -0.35527136788E-14  0.87061297854E+02  0.11787433333E+03  0.79465016672E+02 0.  0.
         66    2    3    3    0    0  0.10801658187E+02  0.24999325846E+02  0.86422181022E+02  0.90633523017E+02  0.20000023969E+01 0.  0.
         13    1    3    3    0    0 -0.10801658187E+02 -0.24999325846E+02  0.63911683193E+00  0.27240810316E+02  0.10566000000E+00 0. -1.
         13    1    4    4    0    0  0.25754552754E+00  0.41413257562E+00  0.19384632152E+01  0.20016591021E+01  0.10566000000E+00 0.  1.
        -13    1    4    4    0    0  0.12203249026E+01  0.18539648525E+01  0.64905710967E+01  0.68603976370E+01  0.10566000000E+00 0.  1.
        -14    1    4    4    0    0  0.93237877564E+01  0.22731228417E+02  0.77993146710E+02  0.81771466278E+02  0.00000000000E+00 0.  1.
<mgrwt>
<rscale>  0 0.79465017E+02</rscale>
<asrwt>0</asrwt>
<pdfrwt beam="1">  1        1 0.23702335E-02 0.79465017E+02</pdfrwt>
<pdfrwt beam="2">  1       -2 0.15764280E-01 0.79465017E+02</pdfrwt>
<totfact> 0.10730996E+05</totfact>
</mgrwt>
</event>
<event>
 8    1  0.8577104E-014  0.8104737E+02  0.7818608E-02  0.1326105E+00
         -2   -1    0    0    0  501 -0.00000000000E+00  0.00000000000E+00  0.24827429445E+03  0.24827429446E+03  0.25500000000E-02 0.  1.
          1   -1    0    0  501    0  0.00000000000E+00 -0.00000000000E+00 -0.66143322837E+01  0.66143342039E+01  0.50400000000E-02 0. -1.
        -24    2    1    2    0    0  0.00000000000E+00  0.71054273576E-14  0.24165996216E+03  0.25488862866E+03  0.81047367073E+02 0.  0.
         66    2    3    3    0    0 -0.66584861297E+01 -0.39237553891E+02  0.14448886728E+03  0.14988313396E+03  0.20000013152E+01 0.  0.
         13    1    3    3    0    0  0.66584861297E+01  0.39237553891E+02  0.97171094880E+02  0.10500549470E+03  0.10566000000E+00 0. -1.
         13    1    4    4    0    0 -0.19150322072E+00 -0.23243456356E+01  0.79087807826E+01  0.82461647825E+01  0.10566000000E+00 0. -1.
        -13    1    4    4    0    0 -0.27922689323E+01 -0.12149057044E+02  0.46722403117E+02  0.48356907159E+02  0.10566000000E+00 0.  1.
        -14    1    4    4    0    0 -0.36747139767E+01 -0.24764151212E+02  0.89857683383E+02  0.93280062023E+02  0.00000000000E+00 0.  1.
<mgrwt>
<rscale>  0 0.81047367E+02</rscale>
<asrwt>0</asrwt>
<pdfrwt beam="1">  1        1 0.10175898E-02 0.81047367E+02</pdfrwt>
<pdfrwt beam="2">  1       -2 0.38196041E-01 0.81047367E+02</pdfrwt>
<totfact> 0.74812834E+04</totfact>
</mgrwt>
</event>
<event>
 8    1  0.8577104E-014  0.7964163E+02  0.7818608E-02  0.1330072E+00
         -2   -1    0    0    0  501 -0.00000000000E+00  0.00000000000E+00  0.10167234916E+04  0.10167234917E+04  0.25500000000E-02 0.  1.
          1   -1    0    0  501    0  0.00000000000E+00 -0.00000000000E+00 -0.15596110005E+01  0.15596191440E+01  0.50400000000E-02 0. -1.
        -24    2    1    2    0    0  0.17763568394E-14  0.00000000000E+00  0.10151638806E+04  0.10182831108E+04  0.79641629563E+02 0.  0.
         66    2    3    3    0    0  0.12702336508E+02  0.25731600081E+02  0.86043453891E+03  0.86091524573E+03  0.19999979805E+01 0.  0.
         13    1    3    3    0    0 -0.12702336508E+02 -0.25731600081E+02  0.15472934174E+03  0.15736786506E+03  0.10566000000E+00 0. -1.
         13    1    4    4    0    0  0.15832091887E+01  0.24391208055E+01  0.79122936970E+02  0.79176424398E+02  0.10566000000E+00 0.  1.
        -13    1    4    4    0    0  0.65718677297E+01  0.13685406994E+02  0.44076866964E+03  0.44103005692E+03  0.10566000000E+00 0.  1.
        -14    1    4    4    0    0  0.45472595893E+01  0.96070722808E+01  0.34054293230E+03  0.34070876441E+03  0.00000000000E+00 0.  1.
<mgrwt>
<rscale>  0 0.79641630E+02</rscale>
<asrwt>0</asrwt>
<pdfrwt beam="1">  1        1 0.23994069E-03 0.79641630E+02</pdfrwt>
<pdfrwt beam="2">  1       -2 0.15641906E+00 0.79641630E+02</pdfrwt>
<totfact> 0.25874135E+04</totfact>
</mgrwt>
</event>
<event>
 8    1  0.8577104E-014  0.7908733E+02  0.7818608E-02  0.1331662E+00
         -2   -1    0    0    0  501 -0.00000000000E+00  0.00000000000E+00  0.29030994859E+02  0.29030994971E+02  0.25500000000E-02 0.  1.
          1   -1    0    0  501    0  0.00000000000E+00 -0.00000000000E+00 -0.53863168631E+02  0.53863168867E+02  0.50400000000E-02 0. -1.
        -24    2    1    2    0    0  0.35527136788E-14  0.00000000000E+00 -0.24832173772E+02  0.82894163838E+02  0.79087328594E+02 0.  0.
         66    2    3    3    0    0 -0.20883651389E+02 -0.22061663012E+02  0.14068154887E+02  0.33537395265E+02  0.20000072736E+01 0.  0.
         13    1    3    3    0    0  0.20883651389E+02  0.22061663012E+02 -0.38900328658E+02  0.49356768572E+02  0.10566000000E+00 0. -1.
         13    1    4    4    0    0 -0.58600587431E+01 -0.71658501628E+01  0.43860411707E+01  0.10243935680E+02  0.10566000000E+00 0. -1.
        -13    1    4    4    0    0 -0.14135384001E+02 -0.13730713934E+02  0.92231649239E+01  0.21758205837E+02  0.10566000000E+00 0.  1.
         14    1    4    4    0    0 -0.88820864416E+00 -0.11650989152E+01  0.45894879194E+00  0.15352537482E+01  0.00000000000E+00 0. -1.
<mgrwt>
<rscale>  0 0.79087329E+02</rscale>
<asrwt>0</asrwt>
<pdfrwt beam="1">  1        1 0.82866414E-02 0.79087329E+02</pdfrwt>
<pdfrwt beam="2">  1       -2 0.44663069E-02 0.79087329E+02</pdfrwt>
<totfact> 0.13741314E+05</totfact>
</mgrwt>
</event>
<event>
 8    1  0.8577104E-014  0.7763673E+02  0.7818608E-02  0.1335895E+00
          1   -1    0    0  501    0  0.00000000000E+00  0.00000000000E+00  0.37538165179E+02  0.37538165517E+02  0.50400000000E-02 0. -1.
         -2   -1    0    0    0  501 -0.00000000000E+00 -0.00000000000E+00 -0.40142220758E+02  0.40142220839E+02  0.25500000000E-02 0.  1.
        -24    2    1    2    0    0  0.00000000000E+00 -0.44408920985E-15 -0.26040555793E+01  0.77680386357E+02  0.77636726612E+02 0.  0.
         66    2    3    3    0    0  0.27158737136E+02 -0.39173173228E+01 -0.28739433580E+02  0.39785643646E+02  0.20000049931E+01 0.  0.
         13    1    3    3    0    0 -0.27158737136E+02  0.39173173228E+01  0.26135378001E+02  0.37894742711E+02  0.10566000000E+00 0. -1.
         13    1    4    4    0    0  0.18094270303E+02 -0.33932932805E+01 -0.19508569368E+02  0.26823730164E+02  0.10566000000E+00 0. -1.
        -13    1    4    4    0    0  0.56908562409E+01 -0.49890926566E+00 -0.54762959322E+01  0.79142742170E+01  0.10566000000E+00 0.  1.
         14    1    4    4    0    0  0.33736105927E+01 -0.25114776639E-01 -0.37545682796E+01  0.50476392649E+01  0.00000000000E+00 0. -1.
<mgrwt>
<rscale>  0 0.77636727E+02</rscale>
<asrwt>0</asrwt>
<pdfrwt beam="1">  1        1 0.57751024E-02 0.77636727E+02</pdfrwt>
<pdfrwt beam="2">  1       -2 0.61757263E-02 0.77636727E+02</pdfrwt>
<totfact> 0.13675372E+05</totfact>
</mgrwt>
</event>
<event>
 8    1  0.8577104E-014  0.8083477E+02  0.7818608E-02  0.1326699E+00
          1   -1    0    0  501    0  0.00000000000E+00  0.00000000000E+00  0.57381422175E+01  0.57381444309E+01  0.50400000000E-02 0. -1.
         -2   -1    0    0    0  501 -0.00000000000E+00 -0.00000000000E+00 -0.28468525847E+03  0.28468525848E+03  0.25500000000E-02 0.  1.
        -24    2    1    2    0    0  0.00000000000E+00  0.00000000000E+00 -0.27894711626E+03  0.29042340291E+03  0.80834765378E+02 0.  0.
         66    2    3    3    0    0 -0.13958371848E+02  0.24090309810E+02 -0.24469842957E+03  0.24628540483E+03  0.20000063757E+01 0.  0.
         13    1    3    3    0    0  0.13958371848E+02 -0.24090309810E+02 -0.34248686681E+02  0.44137998083E+02  0.10566000000E+00 0. -1.
         13    1    4    4    0    0 -0.56914810970E+01  0.88465076681E+01 -0.88878656618E+02  0.89499052628E+02  0.10566000000E+00 0. -1.
        -13    1    4    4    0    0 -0.68980915041E+01  0.12589999865E+02 -0.12471244226E+03  0.12553603539E+03  0.10566000000E+00 0.  1.
         14    1    4    4    0    0 -0.13687992470E+01  0.26538022774E+01 -0.31107330693E+02  0.31250316810E+02  0.00000000000E+00 0. -1.
<mgrwt>
<rscale>  0 0.80834765E+02</rscale>
<asrwt>0</asrwt>
<pdfrwt beam="1">  1        1 0.88279150E-03 0.80834765E+02</pdfrwt>
<pdfrwt beam="2">  1       -2 0.43797721E-01 0.80834765E+02</pdfrwt>
<totfact> 0.70350381E+04</totfact>
</mgrwt>
</event>
<event>
 8    1  0.8577104E-014  0.8500483E+02  0.7818608E-02  0.1315420E+00
          1   -1    0    0  501    0  0.00000000000E+00  0.00000000000E+00  0.13478562709E+03  0.13478562719E+03  0.50400000000E-02 0. -1.
         -2   -1    0    0    0  501 -0.00000000000E+00 -0.00000000000E+00 -0.13402431518E+02  0.13402431761E+02  0.25500000000E-02 0.  1.
        -24    2    1    2    0    0  0.35527136788E-14  0.00000000000E+00  0.12138319557E+03  0.14818805895E+03  0.85004827198E+02 0.  0.
         66    2    3    3    0    0 -0.18692177016E+02 -0.36482164542E+02  0.41304482076E+02  0.58227193396E+02  0.19999999969E+01 0.  0.
         13    1    3    3    0    0  0.18692177016E+02  0.36482164542E+02  0.80078713498E+02  0.89960865552E+02  0.10566000000E+00 0. -1.
         13    1    4    4    0    0 -0.69590510871E+00 -0.17283852463E+01  0.20307975266E+01  0.27580612955E+01  0.10566000000E+00 0. -1.
        -13    1    4    4    0    0 -0.68488256064E+01 -0.14500240163E+02  0.15304924974E+02  0.22167888250E+02  0.10566000000E+00 0.  1.
         14    1    4    4    0    0 -0.11147446301E+02 -0.20253539132E+02  0.23968759575E+02  0.33301243850E+02  0.00000000000E+00 0. -1.
<mgrwt>
<rscale>  0 0.85004827E+02</rscale>
<asrwt>0</asrwt>
<pdfrwt beam="1">  1        1 0.20736252E-01 0.85004827E+02</pdfrwt>
<pdfrwt beam="2">  1       -2 0.20619124E-02 0.85004827E+02</pdfrwt>
<totfact> 0.13152044E+05</totfact>
</mgrwt>
</event>
<event>
 8    1  0.8577104E-014  0.8182046E+02  0.7818608E-02  0.1323963E+00
          1   -1    0    0  501    0  0.00000000000E+00  0.00000000000E+00  0.64829353675E+02  0.64829353871E+02  0.50400000000E-02 0. -1.
         -2   -1    0    0    0  501 -0.00000000000E+00 -0.00000000000E+00 -0.25816191008E+02  0.25816191134E+02  0.25500000000E-02 0.  1.
        -24    2    1    2    0    0  0.00000000000E+00  0.00000000000E+00  0.39013162667E+02  0.90645545006E+02  0.81820461793E+02 0.  0.
         66    2    3    3    0    0 -0.19966113378E+02  0.45403454031E+01 -0.19687826755E+02  0.28475795585E+02  0.19999980169E+01 0.  0.
         13    1    3    3    0    0  0.19966113378E+02 -0.45403454031E+01  0.58700989423E+02  0.62169749420E+02  0.10566000000E+00 0. -1.
         13    1    4    4    0    0 -0.96067828325E+00  0.10995517298E+00 -0.65376437584E+00  0.11719918083E+01  0.10566000000E+00 0. -1.
        -13    1    4    4    0    0 -0.12564947540E+02  0.28935511349E+01 -0.13569033847E+02  0.18718450481E+02  0.10566000000E+00 0.  1.
        -14    1    4    4    0    0 -0.64404875547E+01  0.15368390953E+01 -0.54650285324E+01  0.85853532954E+01  0.00000000000E+00 0.  1.
<mgrwt>
<rscale>  0 0.81820462E+02</rscale>
<asrwt>0</asrwt>
<pdfrwt beam="1">  1        1 0.99737467E-02 0.81820462E+02</pdfrwt>
<pdfrwt beam="2">  1       -2 0.39717217E-02 0.81820462E+02</pdfrwt>
<totfact> 0.12881072E+05</totfact>
</mgrwt>
</event>
<event>
 8    1  0.8577104E-014  0.8480270E+02  0.7818608E-02  0.1315949E+00
          1   -1    0    0  501    0  0.00000000000E+00  0.00000000000E+00  0.23211372236E+02  0.23211372783E+02  0.50400000000E-02 0. -1.
         -2   -1    0    0    0  501 -0.00000000000E+00 -0.00000000000E+00 -0.77456611781E+02  0.77456611823E+02  0.25500000000E-02 0.  1.
        -24    2    1    2    0    0 -0.71054273576E-14  0.00000000000E+00 -0.54245239545E+02  0.10066798461E+03  0.84802695189E+02 0.  0.
         66    2    3    3    0    0  0.35957249079E+02  0.81268385775E+01 -0.51950290854E+02  0.63732267201E+02  0.19999740607E+01 0.  0.
         13    1    3    3    0    0 -0.35957249079E+02 -0.81268385775E+01 -0.22949486916E+01  0.36935717404E+02  0.10566000000E+00 0. -1.
         13    1    4    4    0    0  0.10916191571E+02  0.30056606426E+01 -0.16861509846E+02  0.20310561603E+02  0.10566000000E+00 0. -1.
        -13    1    4    4    0    0  0.11842179666E+02  0.24299687963E+01 -0.17409427511E+02  0.21195313112E+02  0.10566000000E+00 0.  1.
        -14    1    4    4    0    0  0.13198877842E+02  0.26912091386E+01 -0.17679353497E+02  0.22226392487E+02  0.00000000000E+00 0.  1.
<mgrwt>
<rscale>  0 0.84802695E+02</rscale>
<asrwt>0</asrwt>
<pdfrwt beam="1">  1        1 0.35709804E-02 0.84802695E+02</pdfrwt>
<pdfrwt beam="2">  1       -2 0.11916402E-01 0.84802695E+02</pdfrwt>
<totfact> 0.96999035E+04</totfact>
</mgrwt>
</event>
<event>
 8    1  0.8577104E-014  0.7916981E+02  0.7818608E-02  0.1331424E+00
         -2   -1    0    0    0  501 -0.00000000000E+00  0.00000000000E+00  0.27513529170E+02  0.27513529289E+02  0.25500000000E-02 0.  1.
          1   -1    0    0  501    0  0.00000000000E+00 -0.00000000000E+00 -0.56952515450E+02  0.56952515673E+02  0.50400000000E-02 0. -1.
        -24    2    1    2    0    0  0.00000000000E+00  0.00000000000E+00 -0.29438986279E+02  0.84466044961E+02  0.79169810144E+02 0.  0.
         66    2    3    3    0    0 -0.30977411029E+01  0.33459145667E+02  0.75447566113E+01  0.34496866151E+02  0.19999983028E+01 0.  0.
         13    1    3    3    0    0  0.30977411029E+01 -0.33459145667E+02 -0.36983742891E+02  0.49969178810E+02  0.10566000000E+00 0. -1.
         13    1    4    4    0    0 -0.70386143775E+00  0.10062816205E+02  0.14493597137E+01  0.10191540537E+02  0.10566000000E+00 0. -1.
        -13    1    4    4    0    0 -0.18335751751E+01  0.16423183346E+02  0.40027231092E+01  0.17003408642E+02  0.10566000000E+00 0.  1.
         14    1    4    4    0    0 -0.56030449000E+00  0.69731461167E+01  0.20926737884E+01  0.73019169723E+01  0.00000000000E+00 0. -1.
<mgrwt>
<rscale>  0 0.79169810E+02</rscale>
<asrwt>0</asrwt>
<pdfrwt beam="1">  1        1 0.87619255E-02 0.79169810E+02</pdfrwt>
<pdfrwt beam="2">  1       -2 0.42328507E-02 0.79169810E+02</pdfrwt>
<totfact> 0.13820871E+05</totfact>
</mgrwt>
</event>
<event>
 8    1  0.8577104E-014  0.8015245E+02  0.7818608E-02  0.1328619E+00
         -2   -1    0    0    0  501 -0.00000000000E+00  0.00000000000E+00  0.20447246651E+02  0.20447246810E+02  0.25500000000E-02 0.  1.
          1   -1    0    0  501    0  0.00000000000E+00 -0.00000000000E+00 -0.78548659700E+02  0.78548659862E+02  0.50400000000E-02 0. -1.
        -24    2    1    2    0    0 -0.71054273576E-14  0.35527136788E-14 -0.58101413049E+02  0.98995906672E+02  0.80152450615E+02 0.  0.
         66    2    3    3    0    0  0.29717817802E+02 -0.24024098659E+02 -0.14258265062E+02  0.40836309005E+02  0.19999998153E+01 0.  0.
         13    1    3    3    0    0 -0.29717817802E+02  0.24024098659E+02 -0.43843147987E+02  0.58159597667E+02  0.10566000000E+00 0. -1.
         13    1    4    4    0    0  0.32837163791E+01 -0.33936307485E+01 -0.19500169796E+01  0.51101128335E+01  0.10566000000E+00 0. -1.
        -13    1    4    4    0    0  0.21452062745E+02 -0.16653364329E+02 -0.96881273506E+01  0.28833947268E+02  0.10566000000E+00 0.  1.
         14    1    4    4    0    0  0.49820386784E+01 -0.39771035824E+01 -0.26201207318E+01  0.68922489035E+01  0.00000000000E+00 0. -1.
<mgrwt>
<rscale>  0 0.80152451E+02</rscale>
<asrwt>0</asrwt>
<pdfrwt beam="1">  1        1 0.12084409E-01 0.80152451E+02</pdfrwt>
<pdfrwt beam="2">  1       -2 0.31457303E-02 0.80152451E+02</pdfrwt>
<totfact> 0.14054589E+05</totfact>
</mgrwt>
</event>
<event>
 8    1  0.8577104E-014  0.8091242E+02  0.7818608E-02  0.1326482E+00
          1   -1    0    0  501    0  0.00000000000E+00  0.00000000000E+00  0.25114775341E+01  0.25114825912E+01  0.50400000000E-02 0. -1.
         -2   -1    0    0    0  501 -0.00000000000E+00 -0.00000000000E+00 -0.65168934962E+03  0.65168934963E+03  0.25500000000E-02 0.  1.
        -24    2    1    2    0    0  0.17763568394E-14  0.00000000000E+00 -0.64917787209E+03  0.65420083222E+03  0.80912417257E+02 0.  0.
         66    2    3    3    0    0  0.99238615309E+01 -0.35746502992E+02 -0.45475750844E+03  0.45627260162E+03  0.19999999853E+01 0.  0.
         13    1    3    3    0    0 -0.99238615309E+01  0.35746502992E+02 -0.19442036365E+03  0.19792823060E+03  0.10566000000E+00 0. -1.
         13    1    4    4    0    0  0.17082866493E+01 -0.56395172912E+01 -0.67979673925E+02  0.68234665893E+02  0.10566000000E+00 0. -1.
        -13    1    4    4    0    0  0.63721913040E+01 -0.21255739856E+02 -0.26932045392E+03  0.27023310190E+03  0.10566000000E+00 0.  1.
         14    1    4    4    0    0  0.18433835776E+01 -0.88512458450E+01 -0.11745738060E+03  0.11780483383E+03  0.00000000000E+00 0. -1.
<mgrwt>
<rscale>  0 0.80912417E+02</rscale>
<asrwt>0</asrwt>
<pdfrwt beam="1">  1        1 0.38638207E-03 0.80912417E+02</pdfrwt>
<pdfrwt beam="2">  1       -2 0.10025977E+00 0.80912417E+02</pdfrwt>
<totfact> 0.39259917E+04</totfact>
</mgrwt>
</event>
<event>
 8    1  0.8577104E-014  0.8120332E+02  0.7818608E-02  0.1325671E+00
         -2   -1    0    0    0  501 -0.00000000000E+00  0.00000000000E+00  0.70726838746E+01  0.70726843343E+01  0.25500000000E-02 0.  1.
          1   -1    0    0  501    0  0.00000000000E+00 -0.00000000000E+00 -0.23307911347E+03  0.23307911353E+03  0.50400000000E-02 0. -1.
        -24    2    1    2    0    0  0.00000000000E+00  0.00000000000E+00 -0.22600642960E+03  0.24015179786E+03  0.81203323802E+02 0.  0.
         66    2    3    3    0    0  0.16381970921E+02 -0.37045135499E+02 -0.12018101065E+03  0.12683921473E+03  0.20000095521E+01 0.  0.
         13    1    3    3    0    0 -0.16381970921E+02  0.37045135499E+02 -0.10582541895E+03  0.11331258313E+03  0.10566000000E+00 0. -1.
         13    1    4    4    0    0  0.12388993793E+02 -0.27124956724E+02 -0.86573312737E+02  0.91565277735E+02  0.10566000000E+00 0. -1.
        -13    1    4    4    0    0  0.36817730041E+01 -0.94836688575E+01 -0.32107901577E+02  0.33681210417E+02  0.10566000000E+00 0.  1.
         14    1    4    4    0    0  0.31120412425E+00 -0.43650991721E+00 -0.14997963329E+01  0.15927265788E+01  0.00000000000E+00 0. -1.
<mgrwt>
<rscale>  0 0.81203324E+02</rscale>
<asrwt>0</asrwt>
<pdfrwt beam="1">  1        1 0.35858319E-01 0.81203324E+02</pdfrwt>
<pdfrwt beam="2">  1       -2 0.10881054E-02 0.81203324E+02</pdfrwt>
<totfact> 0.16512582E+05</totfact>
</mgrwt>
</event>
<event>
 8    1  0.8577104E-014  0.7918060E+02  0.7818608E-02  0.1331393E+00
         -2   -1    0    0    0  501 -0.00000000000E+00  0.00000000000E+00  0.37192829113E+02  0.37192829201E+02  0.25500000000E-02 0.  1.
          1   -1    0    0  501    0  0.00000000000E+00 -0.00000000000E+00 -0.42142317270E+02  0.42142317571E+02  0.50400000000E-02 0. -1.
        -24    2    1    2    0    0  0.00000000000E+00  0.17763568394E-14 -0.49494881563E+01  0.79335146772E+02  0.79180604192E+02 0.  0.
         66    2    3    3    0    0 -0.17693028721E+02  0.12853069730E+02  0.30559877629E+02  0.37631778930E+02  0.19999994787E+01 0.  0.
         13    1    3    3    0    0  0.17693028721E+02 -0.12853069730E+02 -0.35509365786E+02  0.41703367842E+02  0.10566000000E+00 0. -1.
         13    1    4    4    0    0 -0.82194198774E+01  0.67180852587E+01  0.16010060111E+02  0.19210016176E+02  0.10566000000E+00 0. -1.
        -13    1    4    4    0    0 -0.50635347622E+01  0.35748232752E+01  0.79120468857E+01  0.10051387750E+02  0.10566000000E+00 0.  1.
         14    1    4    4    0    0 -0.44100740813E+01  0.25601611961E+01  0.66377706323E+01  0.83703750047E+01  0.00000000000E+00 0. -1.
<mgrwt>
<rscale>  0 0.79180604E+02</rscale>
<asrwt>0</asrwt>
<pdfrwt beam="1">  1        1 0.64834335E-02 0.79180604E+02</pdfrwt>
<pdfrwt beam="2">  1       -2 0.57219737E-02 0.79180604E+02</pdfrwt>
<totfact> 0.13180213E+05</totfact>
</mgrwt>
</event>
<event>
 8    1  0.8577104E-014  0.8032584E+02  0.7818608E-02  0.1328129E+00
         -2   -1    0    0    0  501 -0.00000000000E+00  0.00000000000E+00  0.93110740116E+01  0.93110743608E+01  0.25500000000E-02 0.  1.
          1   -1    0    0  501    0  0.00000000000E+00 -0.00000000000E+00 -0.17324102608E+03  0.17324102615E+03  0.50400000000E-02 0. -1.
        -24    2    1    2    0    0  0.00000000000E+00  0.00000000000E+00 -0.16392995207E+03  0.18255210051E+03  0.80325837792E+02 0.  0.
         66    2    3    3    0    0  0.97055528770E+01  0.32757122566E+02 -0.34137311903E+02  0.48338213600E+02  0.19999986605E+01 0.  0.
         13    1    3    3    0    0 -0.97055528770E+01 -0.32757122566E+02 -0.12979264016E+03  0.13421388691E+03  0.10566000000E+00 0. -1.
         13    1    4    4    0    0  0.57306260054E+01  0.20400226040E+02 -0.21229231652E+02  0.29995011876E+02  0.10566000000E+00 0. -1.
        -13    1    4    4    0    0  0.31369525826E+01  0.10636393394E+02 -0.11424197172E+02  0.15921582239E+02  0.10566000000E+00 0.  1.
         14    1    4    4    0    0  0.83797428897E+00  0.17205031320E+01 -0.14838830792E+01  0.24216194848E+01  0.00000000000E+00 0. -1.
<mgrwt>
<rscale>  0 0.80325838E+02</rscale>
<asrwt>0</asrwt>
<pdfrwt beam="1">  1        1 0.26652463E-01 0.80325838E+02</pdfrwt>
<pdfrwt beam="2">  1       -2 0.14324731E-02 0.80325838E+02</pdfrwt>
<totfact> 0.16045004E+05</totfact>
</mgrwt>
</event>
<event>
 8    1  0.8577104E-014  0.8018874E+02  0.7818608E-02  0.1328517E+00
          1   -1    0    0  501    0  0.00000000000E+00  0.00000000000E+00  0.18038748772E+02  0.18038749476E+02  0.50400000000E-02 0. -1.
         -2   -1    0    0    0  501 -0.00000000000E+00 -0.00000000000E+00 -0.89116955640E+02  0.89116955677E+02  0.25500000000E-02 0.  1.
        -24    2    1    2    0    0  0.00000000000E+00  0.00000000000E+00 -0.71078206868E+02  0.10715570515E+03  0.80188737709E+02 0.  0.
         66    2    3    3    0    0 -0.24878661828E+02 -0.18949668020E+02 -0.69035659034E+02  0.75815301549E+02  0.19999995495E+01 0.  0.
         13    1    3    3    0    0  0.24878661828E+02  0.18949668020E+02 -0.20425478336E+01  0.31340403605E+02  0.10566000000E+00 0. -1.
         13    1    4    4    0    0 -0.16176125990E+01 -0.78149813889E+00 -0.44673092479E+01  0.48161629762E+01  0.10566000000E+00 0. -1.
        -13    1    4    4    0    0 -0.60526282419E+01 -0.45479038433E+01 -0.17312834752E+02  0.18896114659E+02  0.10566000000E+00 0.  1.
        -14    1    4    4    0    0 -0.17208420987E+02 -0.13620266038E+02 -0.47255515035E+02  0.52103023914E+02  0.00000000000E+00 0.  1.
<mgrwt>
<rscale>  0 0.80188738E+02</rscale>
<asrwt>0</asrwt>
<pdfrwt beam="1">  1        1 0.27751922E-02 0.80188738E+02</pdfrwt>
<pdfrwt beam="2">  1       -2 0.13710301E-01 0.80188738E+02</pdfrwt>
<totfact> 0.10844289E+05</totfact>
</mgrwt>
</event>
<event>
 8    1  0.8577104E-014  0.7906378E+02  0.7818608E-02  0.1331729E+00
         -2   -1    0    0    0  501 -0.00000000000E+00  0.00000000000E+00  0.91450612099E+01  0.91450615654E+01  0.25500000000E-02 0.  1.
          1   -1    0    0  501    0  0.00000000000E+00 -0.00000000000E+00 -0.17088679882E+03  0.17088679889E+03  0.50400000000E-02 0. -1.
        -24    2    1    2    0    0  0.00000000000E+00  0.00000000000E+00 -0.16174173761E+03  0.18003186046E+03  0.79063778656E+02 0.  0.
         66    2    3    3    0    0 -0.32569745660E+02 -0.21980100611E+02 -0.71574879176E+02  0.81675433729E+02  0.19999976416E+01 0.  0.
         13    1    3    3    0    0  0.32569745660E+02  0.21980100611E+02 -0.90166858433E+02  0.98356426729E+02  0.10566000000E+00 0. -1.
         13    1    4    4    0    0 -0.68157487244E+01 -0.39186014618E+01 -0.14985071777E+02  0.16922570972E+02  0.10566000000E+00 0. -1.
        -13    1    4    4    0    0 -0.15499360245E+02 -0.10359373877E+02 -0.34077037938E+02  0.38843306680E+02  0.10566000000E+00 0.  1.
        -14    1    4    4    0    0 -0.10254636691E+02 -0.77021252722E+01 -0.22512769460E+02  0.25909556077E+02  0.00000000000E+00 0.  1.
<mgrwt>
<rscale>  0 0.79063779E+02</rscale>
<asrwt>0</asrwt>
<pdfrwt beam="1">  1        1 0.26290274E-01 0.79063779E+02</pdfrwt>
<pdfrwt beam="2">  1       -2 0.14069327E-02 0.79063779E+02</pdfrwt>
<totfact> 0.16692761E+05</totfact>
</mgrwt>
</event>
<event>
 8    1  0.8577104E-014  0.7974420E+02  0.7818608E-02  0.1329779E+00
          1   -1    0    0  501    0  0.00000000000E+00  0.00000000000E+00  0.48748007001E+02  0.48748007262E+02  0.50400000000E-02 0. -1.
         -2   -1    0    0    0  501 -0.00000000000E+00 -0.00000000000E+00 -0.32612290752E+02  0.32612290852E+02  0.25500000000E-02 0.  1.
        -24    2    1    2    0    0  0.00000000000E+00  0.00000000000E+00  0.16135716249E+02  0.81360298114E+02  0.79744195841E+02 0.  0.
         66    2    3    3    0    0 -0.28741688002E+02 -0.19081574179E+02 -0.12270791179E+02  0.36671016059E+02  0.20000000694E+01 0.  0.
         13    1    3    3    0    0  0.28741688002E+02  0.19081574179E+02  0.28406507428E+02  0.44689282055E+02  0.10566000000E+00 0. -1.
         13    1    4    4    0    0 -0.21685075331E+02 -0.13959283528E+02 -0.95887465325E+01  0.27514710844E+02  0.10566000000E+00 0. -1.
        -13    1    4    4    0    0 -0.36145893948E+01 -0.27647253019E+01 -0.17819984291E+01  0.48883171874E+01  0.10566000000E+00 0.  1.
         14    1    4    4    0    0 -0.34420232763E+01 -0.23575653488E+01 -0.90004621723E+00  0.42679880274E+01  0.00000000000E+00 0. -1.
<mgrwt>
<rscale>  0 0.79744196E+02</rscale>
<asrwt>0</asrwt>
<pdfrwt beam="1">  1        1 0.74996934E-02 0.79744196E+02</pdfrwt>
<pdfrwt beam="2">  1       -2 0.50172755E-02 0.79744196E+02</pdfrwt>
<totfact> 0.13222090E+05</totfact>
</mgrwt>
</event>
<event>
 8    1  0.8577104E-014  0.7880109E+02  0.7818608E-02  0.1332489E+00
         -2   -1    0    0    0  501 -0.00000000000E+00  0.00000000000E+00  0.29896220474E+02  0.29896220582E+02  0.25500000000E-02 0.  1.
          1   -1    0    0  501    0  0.00000000000E+00 -0.00000000000E+00 -0.51926398515E+02  0.51926398760E+02  0.50400000000E-02 0. -1.
        -24    2    1    2    0    0  0.44408920985E-15  0.00000000000E+00 -0.22030178042E+02  0.81822619343E+02  0.78801093213E+02 0.  0.
         66    2    3    3    0    0 -0.14482892327E+01 -0.13987052038E+02  0.27166628566E+02  0.30655519455E+02  0.19999997544E+01 0.  0.
         13    1    3    3    0    0  0.14482892327E+01  0.13987052038E+02 -0.49196806608E+02  0.51167099887E+02  0.10566000000E+00 0. -1.
         13    1    4    4    0    0  0.17029739865E-01 -0.27219751722E+01  0.56601352975E+01  0.62815391801E+01  0.10566000000E+00 0. -1.
        -13    1    4    4    0    0 -0.14190217373E+01 -0.83381949856E+01  0.17191118980E+02  0.19159458607E+02  0.10566000000E+00 0.  1.
         14    1    4    4    0    0 -0.46297235245E-01 -0.29268818798E+01  0.43153742890E+01  0.52145216681E+01  0.00000000000E+00 0. -1.
<mgrwt>
<rscale>  0 0.78801093E+02</rscale>
<asrwt>0</asrwt>
<pdfrwt beam="1">  1        1 0.79886767E-02 0.78801093E+02</pdfrwt>
<pdfrwt beam="2">  1       -2 0.45994185E-02 0.78801093E+02</pdfrwt>
<totfact> 0.13801360E+05</totfact>
</mgrwt>
</event>
<event>
 8    1  0.8577104E-014  0.8015117E+02  0.7818608E-02  0.1328623E+00
         -2   -1    0    0    0  501 -0.00000000000E+00  0.00000000000E+00  0.55622023426E+01  0.55622029271E+01  0.25500000000E-02 0.  1.
          1   -1    0    0  501    0  0.00000000000E+00 -0.00000000000E+00 -0.28874394084E+03  0.28874394088E+03  0.50400000000E-02 0. -1.
        -24    2    1    2    0    0  0.35527136788E-14  0.35527136788E-14 -0.28318173850E+03  0.29430614381E+03  0.80151165098E+02 0.  0.
         66    2    3    3    0    0 -0.22112944889E+02  0.30607214262E+02 -0.92653442060E+02  0.10007219517E+03  0.20000061003E+01 0.  0.
         13    1    3    3    0    0  0.22112944889E+02 -0.30607214262E+02 -0.19052829644E+03  0.19423394864E+03  0.10566000000E+00 0. -1.
         13    1    4    4    0    0 -0.12561943871E+01  0.15201672547E+01 -0.54967954365E+01  0.58407924913E+01  0.10566000000E+00 0. -1.
        -13    1    4    4    0    0 -0.17052618908E+02  0.22823372604E+02 -0.68753872604E+02  0.74423143650E+02  0.10566000000E+00 0.  1.
         14    1    4    4    0    0 -0.38041315947E+01  0.62636744031E+01 -0.18402774019E+02  0.19808259031E+02  0.00000000000E+00 0. -1.
<mgrwt>
<rscale>  0 0.80151165E+02</rscale>
<asrwt>0</asrwt>
<pdfrwt beam="1">  1        1 0.44422133E-01 0.80151165E+02</pdfrwt>
<pdfrwt beam="2">  1       -2 0.85572371E-03 0.80151165E+02</pdfrwt>
<totfact> 0.17821086E+05</totfact>
</mgrwt>
</event>
<event>
 8    1  0.8577104E-014  0.7899418E+02  0.7818608E-02  0.1331930E+00
         -2   -1    0    0    0  501 -0.00000000000E+00  0.00000000000E+00  0.25849949979E+02  0.25849950105E+02  0.25500000000E-02 0.  1.
          1   -1    0    0  501    0  0.00000000000E+00 -0.00000000000E+00 -0.60349062989E+02  0.60349063200E+02  0.50400000000E-02 0. -1.
        -24    2    1    2    0    0  0.00000000000E+00  0.00000000000E+00 -0.34499113010E+02  0.86199013305E+02  0.78994183940E+02 0.  0.
         66    2    3    3    0    0 -0.31307149732E+02  0.12300717171E+02  0.52767418270E+01  0.34107026788E+02  0.20000011792E+01 0.  0.
         13    1    3    3    0    0  0.31307149732E+02 -0.12300717171E+02 -0.39775854837E+02  0.52091986517E+02  0.10566000000E+00 0. -1.
         13    1    4    4    0    0 -0.18780287812E+00  0.17711701953E+00  0.81718194600E-01  0.29065831928E+00  0.10566000000E+00 0. -1.
        -13    1    4    4    0    0 -0.21770789142E+02  0.88260174399E+01  0.32790075123E+01  0.23719799705E+02  0.10566000000E+00 0.  1.
         14    1    4    4    0    0 -0.93485577118E+01  0.32975827117E+01  0.19160161202E+01  0.10096568764E+02  0.00000000000E+00 0. -1.
<mgrwt>
<rscale>  0 0.78994184E+02</rscale>
<asrwt>0</asrwt>
<pdfrwt beam="1">  1        1 0.92844712E-02 0.78994184E+02</pdfrwt>
<pdfrwt beam="2">  1       -2 0.39769154E-02 0.78994184E+02</pdfrwt>
<totfact> 0.14031065E+05</totfact>
</mgrwt>
</event>
<event>
 8    1  0.8577104E-014  0.7758806E+02  0.7818608E-02  0.1336039E+00
         -2   -1    0    0    0  501 -0.00000000000E+00  0.00000000000E+00  0.54045221270E+02  0.54045221330E+02  0.25500000000E-02 0.  1.
          1   -1    0    0  501    0  0.00000000000E+00 -0.00000000000E+00 -0.27846619943E+02  0.27846620399E+02  0.50400000000E-02 0. -1.
        -24    2    1    2    0    0  0.35527136788E-14  0.35527136788E-14  0.26198601326E+02  0.81891841729E+02  0.77588059844E+02 0.  0.
         66    2    3    3    0    0  0.30520670795E+02  0.23733309461E+02  0.16128637029E+02  0.41939411656E+02  0.19999984633E+01 0.  0.
         13    1    3    3    0    0 -0.30520670795E+02 -0.23733309461E+02  0.10069964298E+02  0.39952430073E+02  0.10566000000E+00 0. -1.
         13    1    4    4    0    0  0.15123495280E+01  0.84705280054E+00  0.78080139442E+00  0.19040783584E+01  0.10566000000E+00 0. -1.
        -13    1    4    4    0    0  0.17666393262E+02  0.13058323074E+02  0.90612112819E+01  0.23764216089E+02  0.10566000000E+00 0.  1.
        -14    1    4    4    0    0  0.11341928005E+02  0.98279335868E+01  0.62866243525E+01  0.16271117208E+02  0.00000000000E+00 0.  1.
<mgrwt>
<rscale>  0 0.77588060E+02</rscale>
<asrwt>0</asrwt>
<pdfrwt beam="1">  1        1 0.42840954E-02 0.77588060E+02</pdfrwt>
<pdfrwt beam="2">  1       -2 0.83146494E-02 0.77588060E+02</pdfrwt>
<totfact> 0.13034354E+05</totfact>
</mgrwt>
</event>
<event>
 8    1  0.8577104E-014  0.8303221E+02  0.7818608E-02  0.1320660E+00
          1   -1    0    0  501    0  0.00000000000E+00  0.00000000000E+00  0.17399893570E+03  0.17399893578E+03  0.50400000000E-02 0. -1.
         -2   -1    0    0    0  501 -0.00000000000E+00 -0.00000000000E+00 -0.99057326975E+01  0.99057330258E+01  0.25500000000E-02 0.  1.
        -24    2    1    2    0    0  0.00000000000E+00 -0.17763568394E-14  0.16409320301E+03  0.18390466880E+03  0.83032210223E+02 0.  0.
         66    2    3    3    0    0  0.35179588463E+02 -0.15016901315E+02  0.46485688695E+02  0.60233130622E+02  0.20000003683E+01 0.  0.
         13    1    3    3    0    0 -0.35179588463E+02  0.15016901315E+02  0.11760751431E+03  0.12367153818E+03  0.10566000000E+00 0. -1.
         13    1    4    4    0    0  0.55941656118E+01 -0.25032241052E+01  0.65661798437E+01  0.89825776695E+01  0.10566000000E+00 0. -1.
        -13    1    4    4    0    0  0.24802223386E+02 -0.10185078587E+02  0.33752812046E+02  0.43106259357E+02  0.10566000000E+00 0.  1.
        -14    1    4    4    0    0  0.47831994653E+01 -0.23285986226E+01  0.61666968056E+01  0.81442935950E+01  0.00000000000E+00 0.  1.
<mgrwt>
<rscale>  0 0.83032210E+02</rscale>
<asrwt>0</asrwt>
<pdfrwt beam="1">  1        1 0.26769067E-01 0.83032210E+02</pdfrwt>
<pdfrwt beam="2">  1       -2 0.15239589E-02 0.83032210E+02</pdfrwt>
<totfact> 0.14698899E+05</totfact>
</mgrwt>
</event>
<event>
 8    1  0.8577104E-014  0.7879123E+02  0.7818608E-02  0.1332517E+00
          1   -1    0    0  501    0  0.00000000000E+00  0.00000000000E+00  0.24912911353E+03  0.24912911358E+03  0.50400000000E-02 0. -1.
         -2   -1    0    0    0  501 -0.00000000000E+00 -0.00000000000E+00 -0.62297596394E+01  0.62297601613E+01  0.25500000000E-02 0.  1.
        -24    2    1    2    0    0 -0.35527136788E-14  0.00000000000E+00  0.24289935389E+03  0.25535887375E+03  0.78791232244E+02 0.  0.
         66    2    3    3    0    0 -0.17030298017E+02 -0.32804151789E+02  0.77581238856E+02  0.85959246388E+02  0.19999980216E+01 0.  0.
         13    1    3    3    0    0  0.17030298017E+02  0.32804151789E+02  0.16531811504E+03  0.16939962736E+03  0.10566000000E+00 0. -1.
         13    1    4    4    0    0 -0.93659159490E+00 -0.11222957571E+01  0.27014844377E+01  0.30734237887E+01  0.10566000000E+00 0. -1.
        -13    1    4    4    0    0 -0.12596120789E+02 -0.24302697164E+02  0.57863285875E+02  0.64011361216E+02  0.10566000000E+00 0.  1.
         14    1    4    4    0    0 -0.34975856328E+01 -0.73791588680E+01  0.17016468543E+02  0.18874461384E+02  0.00000000000E+00 0. -1.
<mgrwt>
<rscale>  0 0.78791232E+02</rscale>
<asrwt>0</asrwt>
<pdfrwt beam="1">  1        1 0.38327552E-01 0.78791232E+02</pdfrwt>
<pdfrwt beam="2">  1       -2 0.95842469E-03 0.78791232E+02</pdfrwt>
<totfact> 0.18117802E+05</totfact>
</mgrwt>
</event>
<event>
 8    1  0.8577104E-014  0.8177124E+02  0.7818608E-02  0.1324099E+00
         -2   -1    0    0    0  501 -0.00000000000E+00  0.00000000000E+00  0.25148321809E+02  0.25148321939E+02  0.25500000000E-02 0.  1.
          1   -1    0    0  501    0  0.00000000000E+00 -0.00000000000E+00 -0.66470999449E+02  0.66470999640E+02  0.50400000000E-02 0. -1.
        -24    2    1    2    0    0 -0.17763568394E-14  0.00000000000E+00 -0.41322677639E+02  0.91619321579E+02  0.81771244330E+02 0.  0.
         66    2    3    3    0    0 -0.82456786940E+01 -0.20592020357E+02  0.17775471210E+02  0.28495436393E+02  0.19999997475E+01 0.  0.
         13    1    3    3    0    0  0.82456786940E+01  0.20592020357E+02 -0.59098148849E+02  0.63123885186E+02  0.10566000000E+00 0. -1.
         13    1    4    4    0    0 -0.53510345956E+00 -0.19791283717E+01  0.10978845409E+01  0.23280462463E+01  0.10566000000E+00 0. -1.
        -13    1    4    4    0    0 -0.39851277497E+00 -0.97834523974E+00  0.10897857604E+01  0.15214364526E+01  0.10566000000E+00 0.  1.
        -14    1    4    4    0    0 -0.73120624594E+01 -0.17634546745E+02  0.15587800909E+02  0.24645953694E+02  0.00000000000E+00 0.  1.
<mgrwt>
<rscale>  0 0.81771244E+02</rscale>
<asrwt>0</asrwt>
<pdfrwt beam="1">  1        1 0.10226308E-01 0.81771244E+02</pdfrwt>
<pdfrwt beam="2">  1       -2 0.38689726E-02 0.81771244E+02</pdfrwt>
<totfact> 0.12954161E+05</totfact>
</mgrwt>
</event>
<event>
 8    1  0.8577104E-014  0.7926238E+02  0.7818608E-02  0.1331158E+00
          1   -1    0    0  501    0  0.00000000000E+00  0.00000000000E+00  0.19103622464E+03  0.19103622471E+03  0.50400000000E-02 0. -1.
         -2   -1    0    0    0  501 -0.00000000000E+00 -0.00000000000E+00 -0.82216406072E+01  0.82216410027E+01  0.25500000000E-02 0.  1.
        -24    2    1    2    0    0  0.00000000000E+00  0.00000000000E+00  0.18281458404E+03  0.19925786571E+03  0.79262380181E+02 0.  0.
         66    2    3    3    0    0  0.27916687243E+02 -0.22131790668E+02  0.47961839455E+02  0.59778722218E+02  0.20000003500E+01 0.  0.
         13    1    3    3    0    0 -0.27916687243E+02  0.22131790668E+02  0.13485274458E+03  0.13947914350E+03  0.10566000000E+00 0. -1.
         13    1    4    4    0    0  0.11324961275E+02 -0.87524962130E+01  0.20276921568E+02  0.24819864024E+02  0.10566000000E+00 0. -1.
        -13    1    4    4    0    0  0.77090180097E+01 -0.66425455051E+01  0.13994010656E+02  0.17303059490E+02  0.10566000000E+00 0.  1.
        -14    1    4    4    0    0  0.88827079577E+01 -0.67367489495E+01  0.13690907231E+02  0.17655798704E+02  0.00000000000E+00 0.  1.
<mgrwt>
<rscale>  0 0.79262380E+02</rscale>
<asrwt>0</asrwt>
<pdfrwt beam="1">  1        1 0.29390188E-01 0.79262380E+02</pdfrwt>
<pdfrwt beam="2">  1       -2 0.12648678E-02 0.79262380E+02</pdfrwt>
<totfact> 0.16938190E+05</totfact>
</mgrwt>
</event>
<event>
 8    1  0.8577104E-014  0.7896751E+02  0.7818608E-02  0.1332007E+00
         -2   -1    0    0    0  501 -0.00000000000E+00  0.00000000000E+00  0.31120931757E+03  0.31120931758E+03  0.25500000000E-02 0.  1.
          1   -1    0    0  501    0  0.00000000000E+00 -0.00000000000E+00 -0.50093828202E+01  0.50093853556E+01  0.50400000000E-02 0. -1.
        -24    2    1    2    0    0  0.00000000000E+00  0.00000000000E+00  0.30619993475E+03  0.31621870293E+03  0.78967512597E+02 0.  0.
         66    2    3    3    0    0  0.20367917340E+02  0.32678342844E+02  0.18770004802E+03  0.19161950363E+03  0.19999995718E+01 0.  0.
         13    1    3    3    0    0 -0.20367917340E+02 -0.32678342844E+02  0.11849988673E+03  0.12459919930E+03  0.10566000000E+00 0. -1.
         13    1    4    4    0    0  0.12086772535E+01  0.24169274182E+01  0.14619669467E+02  0.14867694448E+02  0.10566000000E+00 0. -1.
        -13    1    4    4    0    0  0.20239055063E+01  0.26822739543E+01  0.17329908133E+02  0.17652978984E+02  0.10566000000E+00 0.  1.
        -14    1    4    4    0    0  0.17135334580E+02  0.27579141472E+02  0.15575047042E+03  0.15909883020E+03  0.00000000000E+00 0.  1.
<mgrwt>
<rscale>  0 0.78967513E+02</rscale>
<asrwt>0</asrwt>
<pdfrwt beam="1">  1        1 0.77067456E-03 0.78967513E+02</pdfrwt>
<pdfrwt beam="2">  1       -2 0.47878351E-01 0.78967513E+02</pdfrwt>
<totfact> 0.71213159E+04</totfact>
</mgrwt>
</event>
<event>
 8    1  0.8577104E-014  0.7941199E+02  0.7818608E-02  0.1330728E+00
         -2   -1    0    0    0  501 -0.00000000000E+00  0.00000000000E+00  0.12861170468E+03  0.12861170471E+03  0.25500000000E-02 0.  1.
          1   -1    0    0  501    0  0.00000000000E+00 -0.00000000000E+00 -0.12258340409E+02  0.12258341445E+02  0.50400000000E-02 0. -1.
        -24    2    1    2    0    0  0.71054273576E-14 -0.17763568394E-14  0.11635336427E+03  0.14087004615E+03  0.79411992326E+02 0.  0.
         66    2    3    3    0    0 -0.38929713134E+02  0.67160163437E+01  0.64835139159E+02  0.75948816010E+02  0.19999858096E+01 0.  0.
         13    1    3    3    0    0  0.38929713134E+02 -0.67160163437E+01  0.51518225115E+02  0.64921230143E+02  0.10566000000E+00 0. -1.
         13    1    4    4    0    0 -0.12823547684E+01  0.55355238797E-01  0.21898062307E+01  0.25404553368E+01  0.10566000000E+00 0. -1.
        -13    1    4    4    0    0 -0.28832768566E+02  0.45042286187E+01  0.48478039236E+02  0.56583991295E+02  0.10566000000E+00 0.  1.
        -14    1    4    4    0    0 -0.88145897999E+01  0.21564324862E+01  0.14167293692E+02  0.16824369378E+02  0.00000000000E+00 0.  1.
<mgrwt>
<rscale>  0 0.79411992E+02</rscale>
<asrwt>0</asrwt>
<pdfrwt beam="1">  1        1 0.18858986E-02 0.79411992E+02</pdfrwt>
<pdfrwt beam="2">  1       -2 0.19786417E-01 0.79411992E+02</pdfrwt>
<totfact> 0.10104479E+05</totfact>
</mgrwt>
</event>
<event>
 8    1  0.8577104E-014  0.8239786E+02  0.7818608E-02  0.1322381E+00
          1   -1    0    0  501    0  0.00000000000E+00  0.00000000000E+00  0.30016931788E+02  0.30016932211E+02  0.50400000000E-02 0. -1.
         -2   -1    0    0    0  501 -0.00000000000E+00 -0.00000000000E+00 -0.56546484682E+02  0.56546484739E+02  0.25500000000E-02 0.  1.
        -24    2    1    2    0    0  0.00000000000E+00  0.00000000000E+00 -0.26529552893E+02  0.86563416951E+02  0.82397863913E+02 0.  0.
         66    2    3    3    0    0  0.10802432228E+02  0.33177694194E+02 -0.36238535275E+02  0.50345639037E+02  0.19999992715E+01 0.  0.
         13    1    3    3    0    0 -0.10802432228E+02 -0.33177694194E+02  0.97089823812E+01  0.36217777914E+02  0.10566000000E+00 0. -1.
         13    1    4    4    0    0  0.37821549580E+01  0.13787984391E+02 -0.15361208507E+02  0.20985497385E+02  0.10566000000E+00 0. -1.
        -13    1    4    4    0    0  0.33220346970E+01  0.10324992676E+02 -0.11344840100E+02  0.15695793997E+02  0.10566000000E+00 0.  1.
        -14    1    4    4    0    0  0.36982425733E+01  0.90647171274E+01 -0.95324866683E+01  0.13664347654E+02  0.00000000000E+00 0.  1.
<mgrwt>
<rscale>  0 0.82397864E+02</rscale>
<asrwt>0</asrwt>
<pdfrwt beam="1">  1        1 0.46179896E-02 0.82397864E+02</pdfrwt>
<pdfrwt beam="2">  1       -2 0.86994592E-02 0.82397864E+02</pdfrwt>
<totfact> 0.11108630E+05</totfact>
</mgrwt>
</event>
<event>
 8    1  0.8577104E-014  0.8433041E+02  0.7818608E-02  0.1317193E+00
          1   -1    0    0  501    0  0.00000000000E+00  0.00000000000E+00  0.19809103434E+02  0.19809104075E+02  0.50400000000E-02 0. -1.
         -2   -1    0    0    0  501 -0.00000000000E+00 -0.00000000000E+00 -0.89751899532E+02  0.89751899568E+02  0.25500000000E-02 0.  1.
        -24    2    1    2    0    0  0.00000000000E+00  0.11102230246E-15 -0.69942796098E+02  0.10956100364E+03  0.84330414403E+02 0.  0.
         66    2    3    3    0    0 -0.36644195275E+02 -0.90966859047E+00 -0.62002711651E+02  0.72055262092E+02  0.19999996982E+01 0.  0.
         13    1    3    3    0    0  0.36644195275E+02  0.90966859047E+00 -0.79400844470E+01  0.37505741551E+02  0.10566000000E+00 0. -1.
         13    1    4    4    0    0 -0.51699039787E+01  0.17142688490E+00 -0.79766642887E+01  0.95076617281E+01  0.10566000000E+00 0. -1.
        -13    1    4    4    0    0 -0.22107083090E+02 -0.59984937875E+00 -0.36827109633E+02  0.42957305665E+02  0.10566000000E+00 0.  1.
         14    1    4    4    0    0 -0.93672082062E+01 -0.48124609662E+00 -0.17198937729E+02  0.19590294699E+02  0.00000000000E+00 0. -1.
<mgrwt>
<rscale>  0 0.84330414E+02</rscale>
<asrwt>0</asrwt>
<pdfrwt beam="1">  1        1 0.30475545E-02 0.84330414E+02</pdfrwt>
<pdfrwt beam="2">  1       -2 0.13807984E-01 0.84330414E+02</pdfrwt>
<totfact> 0.95185232E+04</totfact>
</mgrwt>
</event>
<event>
 8    1  0.8577104E-014  0.7365399E+02  0.7818608E-02  0.1348091E+00
         -2   -1    0    0    0  501 -0.00000000000E+00  0.00000000000E+00  0.66284671117E+02  0.66284671166E+02  0.25500000000E-02 0.  1.
          1   -1    0    0  501    0  0.00000000000E+00 -0.00000000000E+00 -0.20460649422E+02  0.20460650043E+02  0.50400000000E-02 0. -1.
        -24    2    1    2    0    0  0.00000000000E+00  0.44408920985E-15  0.45824021695E+02  0.86745321209E+02  0.73653986908E+02 0.  0.
         66    2    3    3    0    0  0.16969513432E+02  0.14475146384E+01  0.61348548056E+02  0.63700109830E+02  0.19999897397E+01 0.  0.
         13    1    3    3    0    0 -0.16969513432E+02 -0.14475146384E+01 -0.15524526361E+02  0.23045211380E+02  0.10566000000E+00 0. -1.
         13    1    4    4    0    0  0.49806702458E+01  0.15296174220E+00  0.15607557891E+02  0.16384062400E+02  0.10566000000E+00 0.  1.
        -13    1    4    4    0    0  0.26570721010E+01  0.31848064304E+00  0.85418073006E+01  0.89518209357E+01  0.10566000000E+00 0. -1.
         14    1    4    4    0    0  0.93317710854E+01  0.97607225319E+00  0.37199182865E+02  0.38364226494E+02  0.00000000000E+00 0. -1.
<mgrwt>
<rscale>  0 0.73653987E+02</rscale>
<asrwt>0</asrwt>
<pdfrwt beam="1">  1        1 0.31477923E-02 0.73653987E+02</pdfrwt>
<pdfrwt beam="2">  1       -2 0.10197642E-01 0.73653987E+02</pdfrwt>
<totfact> 0.14320124E+05</totfact>
</mgrwt>
</event>
<event>
 8    1  0.8577104E-014  0.8473958E+02  0.7818608E-02  0.1316115E+00
         -2   -1    0    0    0  501 -0.00000000000E+00  0.00000000000E+00  0.12324615938E+03  0.12324615941E+03  0.25500000000E-02 0.  1.
          1   -1    0    0  501    0  0.00000000000E+00 -0.00000000000E+00 -0.14565964631E+02  0.14565965503E+02  0.50400000000E-02 0. -1.
        -24    2    1    2    0    0  0.00000000000E+00  0.00000000000E+00  0.10868019475E+03  0.13781212491E+03  0.84739583676E+02 0.  0.
         66    2    3    3    0    0 -0.93394353198E+00  0.21509924476E+02  0.11367223295E+03  0.11571052517E+03  0.19999977096E+01 0.  0.
         13    1    3    3    0    0  0.93394353198E+00 -0.21509924476E+02 -0.49920382003E+01  0.22101599736E+02  0.10566000000E+00 0. -1.
         13    1    4    4    0    0 -0.76792674344E+00  0.71591835693E+01  0.41181956477E+02  0.41806797584E+02  0.10566000000E+00 0. -1.
        -13    1    4    4    0    0  0.10321905043E+00  0.61678939904E+01  0.33444856159E+02  0.34009162560E+02  0.10566000000E+00 0.  1.
         14    1    4    4    0    0 -0.26923583898E+00  0.81828469162E+01  0.39045420313E+02  0.39894565031E+02  0.00000000000E+00 0. -1.
<mgrwt>
<rscale>  0 0.84739584E+02</rscale>
<asrwt>0</asrwt>
<pdfrwt beam="1">  1        1 0.22409177E-02 0.84739584E+02</pdfrwt>
<pdfrwt beam="2">  1       -2 0.18960948E-01 0.84739584E+02</pdfrwt>
<totfact> 0.86575209E+04</totfact>
</mgrwt>
</event>
<event>
 8    1  0.8577104E-014  0.7916662E+02  0.7818608E-02  0.1331433E+00
         -2   -1    0    0    0  501 -0.00000000000E+00  0.00000000000E+00  0.10258708993E+02  0.10258709310E+02  0.25500000000E-02 0.  1.
          1   -1    0    0  501    0  0.00000000000E+00 -0.00000000000E+00 -0.15273252097E+03  0.15273252105E+03  0.50400000000E-02 0. -1.
        -24    2    1    2    0    0 -0.35527136788E-14  0.17763568394E-14 -0.14247381197E+03  0.16299123036E+03  0.79166622234E+02 0.  0.
         66    2    3    3    0    0  0.25006369420E+02 -0.12315810520E+02 -0.13493933777E+02  0.31033593809E+02  0.19999989095E+01 0.  0.
         13    1    3    3    0    0 -0.25006369420E+02  0.12315810520E+02 -0.12897987820E+03  0.13195763655E+03  0.10566000000E+00 0. -1.
         13    1    4    4    0    0  0.73990564400E+01 -0.36466652452E+01 -0.31290293342E+01  0.88230489187E+01  0.10566000000E+00 0. -1.
        -13    1    4    4    0    0  0.16754112070E+01 -0.58268049440E+00 -0.96158755472E+00  0.20204786394E+01  0.10566000000E+00 0.  1.
        -14    1    4    4    0    0  0.15931901773E+02 -0.80864647803E+01 -0.94033168878E+01  0.20190066251E+02  0.00000000000E+00 0.  1.
<mgrwt>
<rscale>  0 0.79166622E+02</rscale>
<asrwt>0</asrwt>
<pdfrwt beam="1">  1        1 0.23497309E-01 0.79166622E+02</pdfrwt>
<pdfrwt beam="2">  1       -2 0.15782631E-02 0.79166622E+02</pdfrwt>
<totfact> 0.16290266E+05</totfact>
</mgrwt>
</event>
<event>
 8    1  0.8577104E-014  0.8089279E+02  0.7818608E-02  0.1326537E+00
          1   -1    0    0  501    0  0.00000000000E+00  0.00000000000E+00  0.68158179821E+01  0.68158198455E+01  0.50400000000E-02 0. -1.
         -2   -1    0    0    0  501 -0.00000000000E+00 -0.00000000000E+00 -0.24001678458E+03  0.24001678459E+03  0.25500000000E-02 0.  1.
        -24    2    1    2    0    0  0.00000000000E+00 -0.35527136788E-14 -0.23320096659E+03  0.24683260444E+03  0.80892791965E+02 0.  0.
         66    2    3    3    0    0 -0.18739744973E+02  0.20283339247E+02 -0.20674154000E+03  0.20858728691E+03  0.20000018901E+01 0.  0.
         13    1    3    3    0    0  0.18739744973E+02 -0.20283339247E+02 -0.26459426596E+02  0.38245317524E+02  0.10566000000E+00 0. -1.
         13    1    4    4    0    0 -0.58199233034E+01  0.67239799957E+01 -0.70047324797E+02  0.70609647283E+02  0.10566000000E+00 0. -1.
        -13    1    4    4    0    0 -0.63265667539E+01  0.75638798968E+01 -0.70694460588E+02  0.71378958018E+02  0.10566000000E+00 0.  1.
        -14    1    4    4    0    0 -0.65932549159E+01  0.59954793549E+01 -0.65999754614E+02  0.66598681610E+02  0.00000000000E+00 0.  1.
<mgrwt>
<rscale>  0 0.80892792E+02</rscale>
<asrwt>0</asrwt>
<pdfrwt beam="1">  1        1 0.10485877E-02 0.80892792E+02</pdfrwt>
<pdfrwt beam="2">  1       -2 0.36925653E-01 0.80892792E+02</pdfrwt>
<totfact> 0.76384466E+04</totfact>
</mgrwt>
</event>
<event>
 8    1  0.8577104E-014  0.8094946E+02  0.7818608E-02  0.1326378E+00
         -2   -1    0    0    0  501 -0.00000000000E+00  0.00000000000E+00  0.32140242528E+02  0.32140242629E+02  0.25500000000E-02 0.  1.
          1   -1    0    0  501    0  0.00000000000E+00 -0.00000000000E+00 -0.50970489902E+02  0.50970490152E+02  0.50400000000E-02 0. -1.
        -24    2    1    2    0    0  0.00000000000E+00  0.35527136788E-14 -0.18830247374E+02  0.83110732781E+02  0.80949463786E+02 0.  0.
         66    2    3    3    0    0  0.32452860807E+02 -0.20010268860E+02  0.44528809919E+01  0.38437314903E+02  0.19999983452E+01 0.  0.
         13    1    3    3    0    0 -0.32452860807E+02  0.20010268860E+02 -0.23283128366E+02  0.44673417878E+02  0.10566000000E+00 0. -1.
         13    1    4    4    0    0  0.94741559560E+01 -0.61037151058E+01  0.18078023556E+01  0.11414652100E+02  0.10566000000E+00 0.  1.
        -13    1    4    4    0    0  0.10332255235E+02 -0.63894597037E+01  0.18554132993E+01  0.12289606019E+02  0.10566000000E+00 0. -1.
        -14    1    4    4    0    0  0.12646449615E+02 -0.75170940507E+01  0.78966533706E+00  0.14733056784E+02  0.00000000000E+00 0.  1.
<mgrwt>
<rscale>  0 0.80949464E+02</rscale>
<asrwt>0</asrwt>
<pdfrwt beam="1">  1        1 0.78416139E-02 0.80949464E+02</pdfrwt>
<pdfrwt beam="2">  1       -2 0.49446527E-02 0.80949464E+02</pdfrwt>
<totfact> 0.12770842E+05</totfact>
</mgrwt>
</event>
<event>
 8    1  0.8577104E-014  0.7962212E+02  0.7818608E-02  0.1330127E+00
          1   -1    0    0  501    0  0.00000000000E+00  0.00000000000E+00  0.67062611079E+01  0.67062630018E+01  0.50400000000E-02 0. -1.
         -2   -1    0    0    0  501 -0.00000000000E+00 -0.00000000000E+00 -0.23633443048E+03  0.23633443049E+03  0.25500000000E-02 0.  1.
        -24    2    1    2    0    0 -0.35527136788E-14  0.17763568394E-14 -0.22962816937E+03  0.24304069349E+03  0.79622123343E+02 0.  0.
         66    2    3    3    0    0 -0.15787729811E+02  0.10792625079E+02 -0.22137982189E+03  0.22221331803E+03  0.20000000832E+01 0.  0.
         13    1    3    3    0    0  0.15787729811E+02 -0.10792625079E+02 -0.82483474832E+01  0.20827375469E+02  0.10566000000E+00 0. -1.
         13    1    4    4    0    0 -0.11137535753E+01  0.66726326686E+00 -0.17798282083E+02  0.17845887381E+02  0.10566000000E+00 0. -1.
        -13    1    4    4    0    0 -0.49584281656E+01  0.38274200601E+01 -0.79832334187E+02  0.80077761582E+02  0.10566000000E+00 0.  1.
        -14    1    4    4    0    0 -0.97155480696E+01  0.62979417524E+01 -0.12374920562E+03  0.12428966906E+03  0.00000000000E+00 0.  1.
<mgrwt>
<rscale>  0 0.79622123E+02</rscale>
<asrwt>0</asrwt>
<pdfrwt beam="1">  1        1 0.10317328E-02 0.79622123E+02</pdfrwt>
<pdfrwt beam="2">  1       -2 0.36359137E-01 0.79622123E+02</pdfrwt>
<totfact> 0.80140873E+04</totfact>
</mgrwt>
</event>
<event>
 8    1  0.8577104E-014  0.7740045E+02  0.7818608E-02  0.1336595E+00
          1   -1    0    0  501    0  0.00000000000E+00  0.00000000000E+00  0.45133385363E+01  0.45133413504E+01  0.50400000000E-02 0. -1.
         -2   -1    0    0    0  501 -0.00000000000E+00 -0.00000000000E+00 -0.33184014568E+03  0.33184014569E+03  0.25500000000E-02 0.  1.
        -24    2    1    2    0    0  0.71054273576E-14 -0.35527136788E-14 -0.32732680714E+03  0.33635348704E+03  0.77400449412E+02 0.  0.
         66    2    3    3    0    0 -0.36950934782E+02  0.11074318475E+02 -0.15172129639E+03  0.15656105482E+03  0.19999996328E+01 0.  0.
         13    1    3    3    0    0  0.36950934782E+02 -0.11074318475E+02 -0.17560551075E+03  0.17979243221E+03  0.10566000000E+00 0. -1.
         13    1    4    4    0    0 -0.89316825385E+01  0.33928198619E+01 -0.38619849949E+02  0.39784295315E+02  0.10566000000E+00 0.  1.
        -13    1    4    4    0    0 -0.14844424763E+01  0.57654194143E+00 -0.59735319992E+01  0.61830590048E+01  0.10566000000E+00 0.  1.
         14    1    4    4    0    0 -0.26534809767E+02  0.71049566721E+01 -0.10712791444E+03  0.11059370050E+03  0.00000000000E+00 0. -1.
<mgrwt>
<rscale>  0 0.77400449E+02</rscale>
<asrwt>0</asrwt>
<pdfrwt beam="1">  1        1 0.69436025E-03 0.77400449E+02</pdfrwt>
<pdfrwt beam="2">  1       -2 0.51052311E-01 0.77400449E+02</pdfrwt>
<totfact> 0.72293807E+04</totfact>
</mgrwt>
</event>
<event>
 8    1  0.8577104E-014  0.8343128E+02  0.7818608E-02  0.1319587E+00
          1   -1    0    0  501    0  0.00000000000E+00  0.00000000000E+00  0.23929198059E+03  0.23929198064E+03  0.50400000000E-02 0. -1.
         -2   -1    0    0    0  501 -0.00000000000E+00 -0.00000000000E+00 -0.72722646818E+01  0.72722651288E+01  0.25500000000E-02 0.  1.
        -24    2    1    2    0    0  0.00000000000E+00 -0.35527136788E-14  0.23201971590E+03  0.24656424577E+03  0.83431281441E+02 0.  0.
         66    2    3    3    0    0  0.32226615469E+02  0.18284505342E+02  0.59591347293E+02  0.70199761400E+02  0.19999870721E+01 0.  0.
         13    1    3    3    0    0 -0.32226615469E+02 -0.18284505342E+02  0.17242836861E+03  0.17636448437E+03  0.10566000000E+00 0. -1.
         13    1    4    4    0    0  0.25880623633E+01  0.16830317240E+01  0.54636120283E+01  0.62763749897E+01  0.10566000000E+00 0. -1.
        -13    1    4    4    0    0  0.12148987020E+02  0.75178200755E+01  0.23539049632E+02  0.27535677328E+02  0.10566000000E+00 0.  1.
        -14    1    4    4    0    0  0.17489566086E+02  0.90836535429E+01  0.30588685632E+02  0.36387709083E+02  0.00000000000E+00 0.  1.
<mgrwt>
<rscale>  0 0.83431281E+02</rscale>
<asrwt>0</asrwt>
<pdfrwt beam="1">  1        1 0.36814149E-01 0.83431281E+02</pdfrwt>
<pdfrwt beam="2">  1       -2 0.11188100E-02 0.83431281E+02</pdfrwt>
<totfact> 0.15447251E+05</totfact>
</mgrwt>
</event>
<event>
 8    1  0.8577104E-014  0.8018371E+02  0.7818608E-02  0.1328531E+00
         -2   -1    0    0    0  501 -0.00000000000E+00  0.00000000000E+00  0.15123417298E+02  0.15123417513E+02  0.25500000000E-02 0.  1.
          1   -1    0    0  501    0  0.00000000000E+00 -0.00000000000E+00 -0.10628264384E+03  0.10628264395E+03  0.50400000000E-02 0. -1.
        -24    2    1    2    0    0 -0.17763568394E-14  0.00000000000E+00 -0.91159226537E+02  0.12140606147E+03  0.80183708934E+02 0.  0.
         66    2    3    3    0    0  0.13563794567E+02  0.30637641652E+02 -0.12342128843E+02  0.35762686581E+02  0.19999995213E+01 0.  0.
         13    1    3    3    0    0 -0.13563794567E+02 -0.30637641652E+02 -0.78817097694E+02  0.85643374886E+02  0.10566000000E+00 0. -1.
         13    1    4    4    0    0  0.24532978027E+01  0.59155150194E+01 -0.17524893810E+01  0.66403592613E+01  0.10566000000E+00 0. -1.
        -13    1    4    4    0    0  0.94073484262E+01  0.19891841377E+02 -0.84324328966E+01  0.23564817979E+02  0.10566000000E+00 0.  1.
        -14    1    4    4    0    0  0.17031483377E+01  0.48302852556E+01 -0.21572065656E+01  0.55575093412E+01  0.00000000000E+00 0.  1.
<mgrwt>
<rscale>  0 0.80183709E+02</rscale>
<asrwt>0</asrwt>
<pdfrwt beam="1">  1        1 0.16351176E-01 0.80183709E+02</pdfrwt>
<pdfrwt beam="2">  1       -2 0.23266797E-02 0.80183709E+02</pdfrwt>
<totfact> 0.14759927E+05</totfact>
</mgrwt>
</event>
<event>
 8    1  0.8577104E-014  0.8017159E+02  0.7818608E-02  0.1328565E+00
          1   -1    0    0  501    0  0.00000000000E+00  0.00000000000E+00  0.98752613377E+01  0.98752626238E+01  0.50400000000E-02 0. -1.
         -2   -1    0    0    0  501 -0.00000000000E+00 -0.00000000000E+00 -0.16271679962E+03  0.16271679964E+03  0.25500000000E-02 0.  1.
        -24    2    1    2    0    0  0.35527136788E-14  0.00000000000E+00 -0.15284153829E+03  0.17259206227E+03  0.80171591802E+02 0.  0.
         66    2    3    3    0    0  0.19495238212E+02 -0.22820729309E+02 -0.13358864212E+03  0.13693347040E+03  0.20000032398E+01 0.  0.
         13    1    3    3    0    0 -0.19495238212E+02  0.22820729309E+02 -0.19252896163E+02  0.35658591865E+02  0.10566000000E+00 0. -1.
         13    1    4    4    0    0  0.12798653981E+02 -0.14398306831E+02 -0.86892795805E+02  0.89002729790E+02  0.10566000000E+00 0. -1.
        -13    1    4    4    0    0  0.23409017786E+01 -0.22878138691E+01 -0.13172458231E+02  0.13573456941E+02  0.10566000000E+00 0.  1.
         14    1    4    4    0    0  0.43556824521E+01 -0.61346086089E+01 -0.33523388088E+02  0.34357283672E+02  0.00000000000E+00 0. -1.
<mgrwt>
<rscale>  0 0.80171592E+02</rscale>
<asrwt>0</asrwt>
<pdfrwt beam="1">  1        1 0.15192712E-02 0.80171592E+02</pdfrwt>
<pdfrwt beam="2">  1       -2 0.25033352E-01 0.80171592E+02</pdfrwt>
<totfact> 0.91437773E+04</totfact>
</mgrwt>
</event>
<event>
 8    1  0.8577104E-014  0.8052680E+02  0.7818608E-02  0.1327563E+00
         -2   -1    0    0    0  501 -0.00000000000E+00  0.00000000000E+00  0.14352339812E+03  0.14352339814E+03  0.25500000000E-02 0.  1.
          1   -1    0    0  501    0  0.00000000000E+00 -0.00000000000E+00 -0.11295310726E+02  0.11295311851E+02  0.50400000000E-02 0. -1.
        -24    2    1    2    0    0  0.35527136788E-14  0.00000000000E+00  0.13222808740E+03  0.15481871000E+03  0.80526802173E+02 0.  0.
         66    2    3    3    0    0 -0.20621298815E+02  0.34346940708E+02  0.58913421967E+02  0.71272305933E+02  0.20000010856E+01 0.  0.
         13    1    3    3    0    0  0.20621298815E+02 -0.34346940708E+02  0.73314665429E+02  0.83546404062E+02  0.10566000000E+00 0. -1.
         13    1    4    4    0    0 -0.18043402745E+02  0.29472606172E+02  0.51731965430E+02  0.62212589630E+02  0.10566000000E+00 0. -1.
        -13    1    4    4    0    0 -0.13012222070E+01  0.23024845530E+01  0.36377283219E+01  0.44987604658E+01  0.10566000000E+00 0.  1.
         14    1    4    4    0    0 -0.12766738634E+01  0.25718499829E+01  0.35437282154E+01  0.45609558376E+01  0.00000000000E+00 0. -1.
<mgrwt>
<rscale>  0 0.80526802E+02</rscale>
<asrwt>0</asrwt>
<pdfrwt beam="1">  1        1 0.17377403E-02 0.80526802E+02</pdfrwt>
<pdfrwt beam="2">  1       -2 0.22080522E-01 0.80526802E+02</pdfrwt>
<totfact> 0.94264158E+04</totfact>
</mgrwt>
</event>
<event>
 8    1  0.8577104E-014  0.7903211E+02  0.7818608E-02  0.1331821E+00
         -2   -1    0    0    0  501 -0.00000000000E+00  0.00000000000E+00  0.41510327034E+03  0.41510327035E+03  0.25500000000E-02 0.  1.
          1   -1    0    0  501    0  0.00000000000E+00 -0.00000000000E+00 -0.37617572808E+01  0.37617606571E+01  0.50400000000E-02 0. -1.
        -24    2    1    2    0    0  0.00000000000E+00  0.00000000000E+00  0.41134151306E+03  0.41886503100E+03  0.79032106342E+02 0.  0.
         66    2    3    3    0    0  0.30615212966E+02  0.22443887577E+02  0.26349455541E+03  0.26622246353E+03  0.20000009585E+01 0.  0.
         13    1    3    3    0    0 -0.30615212966E+02 -0.22443887577E+02  0.14784695765E+03  0.15264256747E+03  0.10566000000E+00 0. -1.
         13    1    4    4    0    0  0.95165165335E+01  0.64690813991E+01  0.81557096116E+02  0.82364945165E+02  0.10566000000E+00 0. -1.
        -13    1    4    4    0    0  0.12929486165E+02  0.89327839384E+01  0.10862560560E+03  0.10975654694E+03  0.10566000000E+00 0.  1.
        -14    1    4    4    0    0  0.81692102677E+01  0.70420222391E+01  0.73311853697E+02  0.74100971424E+02  0.00000000000E+00 0.  1.
<mgrwt>
<rscale>  0 0.79032106E+02</rscale>
<asrwt>0</asrwt>
<pdfrwt beam="1">  1        1 0.57873201E-03 0.79032106E+02</pdfrwt>
<pdfrwt beam="2">  1       -2 0.63862057E-01 0.79032106E+02</pdfrwt>
<totfact> 0.59482771E+04</totfact>
</mgrwt>
</event>
<event>
 8    1  0.8577104E-014  0.7939315E+02  0.7818608E-02  0.1330782E+00
          1   -1    0    0  501    0  0.00000000000E+00  0.00000000000E+00  0.93199469156E+01  0.93199482783E+01  0.50400000000E-02 0. -1.
         -2   -1    0    0    0  501 -0.00000000000E+00 -0.00000000000E+00 -0.16908013654E+03  0.16908013656E+03  0.25500000000E-02 0.  1.
        -24    2    1    2    0    0  0.00000000000E+00  0.00000000000E+00 -0.15976018962E+03  0.17840008484E+03  0.79393148830E+02 0.  0.
         66    2    3    3    0    0 -0.24842595360E+02  0.29600115905E+02 -0.10009050320E+03  0.10730997267E+03  0.19999994758E+01 0.  0.
         13    1    3    3    0    0  0.24842595360E+02 -0.29600115905E+02 -0.59669686420E+02  0.71090112163E+02  0.10566000000E+00 0. -1.
         13    1    4    4    0    0 -0.12440342596E+01  0.21667064946E+01 -0.69673303036E+01  0.74025059181E+01  0.10566000000E+00 0. -1.
        -13    1    4    4    0    0 -0.87831463103E+01  0.10218139785E+02 -0.34342224604E+02  0.36891104545E+02  0.10566000000E+00 0.  1.
         14    1    4    4    0    0 -0.14815414790E+02  0.17215269626E+02 -0.58780948297E+02  0.63016362211E+02  0.00000000000E+00 0. -1.
<mgrwt>
<rscale>  0 0.79393149E+02</rscale>
<asrwt>0</asrwt>
<pdfrwt beam="1">  1        1 0.14338382E-02 0.79393149E+02</pdfrwt>
<pdfrwt beam="2">  1       -2 0.26012326E-01 0.79393149E+02</pdfrwt>
<totfact> 0.92503534E+04</totfact>
</mgrwt>
</event>
<event>
 8    1  0.8577104E-014  0.7918734E+02  0.7818608E-02  0.1331374E+00
         -2   -1    0    0    0  501 -0.00000000000E+00  0.00000000000E+00  0.14376100094E+03  0.14376100097E+03  0.25500000000E-02 0.  1.
          1   -1    0    0  501    0  0.00000000000E+00 -0.00000000000E+00 -0.10904616937E+02  0.10904618102E+02  0.50400000000E-02 0. -1.
        -24    2    1    2    0    0 -0.35527136788E-14 -0.35527136788E-14  0.13285638401E+03  0.15466561907E+03  0.79187340846E+02 0.  0.
         66    2    3    3    0    0  0.25983349667E+02  0.29381982012E+02  0.76660344404E+02  0.86135032043E+02  0.20000035204E+01 0.  0.
         13    1    3    3    0    0 -0.25983349667E+02 -0.29381982012E+02  0.56196039603E+02  0.68530587024E+02  0.10566000000E+00 0. -1.
         13    1    4    4    0    0  0.15801407165E+02  0.17440354953E+02  0.44382136379E+02  0.50235800410E+02  0.10566000000E+00 0. -1.
        -13    1    4    4    0    0  0.80632716447E+01  0.93695599373E+01  0.24701071610E+02  0.27621714388E+02  0.10566000000E+00 0.  1.
         14    1    4    4    0    0  0.21186708573E+01  0.25720671218E+01  0.75771364151E+01  0.82775172445E+01  0.00000000000E+00 0. -1.
<mgrwt>
<rscale>  0 0.79187341E+02</rscale>
<asrwt>0</asrwt>
<pdfrwt beam="1">  1        1 0.16776336E-02 0.79187341E+02</pdfrwt>
<pdfrwt beam="2">  1       -2 0.22117076E-01 0.79187341E+02</pdfrwt>
<totfact> 0.98368268E+04</totfact>
</mgrwt>
</event>
<event>
 8    1  0.8577104E-014  0.8159400E+02  0.7818608E-02  0.1324588E+00
          1   -1    0    0  501    0  0.00000000000E+00  0.00000000000E+00  0.25676621319E+02  0.25676621813E+02  0.50400000000E-02 0. -1.
         -2   -1    0    0    0  501 -0.00000000000E+00 -0.00000000000E+00 -0.64821418816E+02  0.64821418866E+02  0.25500000000E-02 0.  1.
        -24    2    1    2    0    0 -0.35527136788E-14  0.35527136788E-14 -0.39144797497E+02  0.90498040679E+02  0.81593996076E+02 0.  0.
         66    2    3    3    0    0  0.23867038966E+02 -0.21756028180E+02 -0.47188442354E+02  0.57216338532E+02  0.19999980230E+01 0.  0.
         13    1    3    3    0    0 -0.23867038966E+02  0.21756028180E+02  0.80436448571E+01  0.33281702147E+02  0.10566000000E+00 0. -1.
         13    1    4    4    0    0  0.53359822355E+01 -0.47082764770E+01 -0.98621576670E+01  0.12161985516E+02  0.10566000000E+00 0. -1.
        -13    1    4    4    0    0  0.23890667811E+01 -0.19722592173E+01 -0.55300715191E+01  0.63395821271E+01  0.10566000000E+00 0.  1.
         14    1    4    4    0    0  0.16141989949E+02 -0.15075492485E+02 -0.31796213168E+02  0.38714770890E+02  0.00000000000E+00 0. -1.
<mgrwt>
<rscale>  0 0.81593996E+02</rscale>
<asrwt>0</asrwt>
<pdfrwt beam="1">  1        1 0.39502495E-02 0.81593996E+02</pdfrwt>
<pdfrwt beam="2">  1       -2 0.99725259E-02 0.81593996E+02</pdfrwt>
<totfact> 0.11097287E+05</totfact>
</mgrwt>
</event>
<event>
 8    1  0.8577104E-014  0.7621895E+02  0.7818608E-02  0.1340137E+00
          1   -1    0    0  501    0  0.00000000000E+00  0.00000000000E+00  0.11421596684E+03  0.11421596695E+03  0.50400000000E-02 0. -1.
         -2   -1    0    0    0  501 -0.00000000000E+00 -0.00000000000E+00 -0.12715666677E+02  0.12715666932E+02  0.25500000000E-02 0.  1.
        -24    2    1    2    0    0  0.00000000000E+00  0.35527136788E-14  0.10150030016E+03  0.12693163388E+03  0.76218952675E+02 0.  0.
         66    2    3    3    0    0 -0.34901702635E+01  0.28050151549E+02  0.82830223321E+01  0.29522885094E+02  0.19999987348E+01 0.  0.
         13    1    3    3    0    0  0.34901702635E+01 -0.28050151549E+02  0.93217277827E+02  0.97408748785E+02  0.10566000000E+00 0. -1.
         13    1    4    4    0    0 -0.64045731464E-01  0.36357609452E+00  0.14227451229E+00  0.40950641591E+00  0.10566000000E+00 0.  1.
        -13    1    4    4    0    0 -0.24890121326E+01  0.23006233525E+02  0.73140328626E+01  0.24269079157E+02  0.10566000000E+00 0.  1.
        -14    1    4    4    0    0 -0.93711239948E+00  0.46803419299E+01  0.82671495721E+00  0.48442995211E+01  0.00000000000E+00 0.  1.
<mgrwt>
<rscale>  0 0.76218953E+02</rscale>
<asrwt>0</asrwt>
<pdfrwt beam="1">  1        1 0.17571687E-01 0.76218953E+02</pdfrwt>
<pdfrwt beam="2">  1       -2 0.19562564E-02 0.76218953E+02</pdfrwt>
<totfact> 0.17122560E+05</totfact>
</mgrwt>
</event>
<event>
 8    1  0.8577104E-014  0.7838220E+02  0.7818608E-02  0.1333706E+00
          1   -1    0    0  501    0  0.00000000000E+00  0.00000000000E+00  0.70869206831E+02  0.70869207010E+02  0.50400000000E-02 0. -1.
         -2   -1    0    0    0  501 -0.00000000000E+00 -0.00000000000E+00 -0.21672917655E+02  0.21672917805E+02  0.25500000000E-02 0.  1.
        -24    2    1    2    0    0  0.00000000000E+00  0.00000000000E+00  0.49196289176E+02  0.92542124815E+02  0.78382204592E+02 0.  0.
         66    2    3    3    0    0 -0.24895975488E+02 -0.30213808568E+02  0.23292133636E+02  0.45598325843E+02  0.20000016721E+01 0.  0.
         13    1    3    3    0    0  0.24895975488E+02  0.30213808568E+02  0.25904155539E+02  0.46943798972E+02  0.10566000000E+00 0. -1.
         13    1    4    4    0    0 -0.37480160855E+01 -0.54248033588E+01  0.35701984598E+01  0.74989063961E+01  0.10566000000E+00 0.  1.
        -13    1    4    4    0    0 -0.15115025938E+01 -0.19633274834E+01  0.12827063632E+01  0.27920950105E+01  0.10566000000E+00 0. -1.
        -14    1    4    4    0    0 -0.19636456809E+02 -0.22825677726E+02  0.18439228813E+02  0.35307324437E+02  0.00000000000E+00 0.  1.
<mgrwt>
<rscale>  0 0.78382205E+02</rscale>
<asrwt>0</asrwt>
<pdfrwt beam="1">  1        1 0.10902955E-01 0.78382205E+02</pdfrwt>
<pdfrwt beam="2">  1       -2 0.33342950E-02 0.78382205E+02</pdfrwt>
<totfact> 0.14695681E+05</totfact>
</mgrwt>
</event>
<event>
 8    1  0.8577104E-014  0.8058377E+02  0.7818608E-02  0.1327403E+00
          1   -1    0    0  501    0  0.00000000000E+00  0.00000000000E+00  0.28668487364E+03  0.28668487368E+03  0.50400000000E-02 0. -1.
         -2   -1    0    0    0  501 -0.00000000000E+00 -0.00000000000E+00 -0.56627881668E+01  0.56627887409E+01  0.25500000000E-02 0.  1.
        -24    2    1    2    0    0  0.00000000000E+00  0.88817841970E-15  0.28102208547E+03  0.29234766242E+03  0.80583765125E+02 0.  0.
         66    2    3    3    0    0 -0.36965067878E+02 -0.50074845794E+01  0.19560955850E+03  0.19914464706E+03  0.19999827901E+01 0.  0.
         13    1    3    3    0    0  0.36965067878E+02  0.50074845794E+01  0.85412526968E+02  0.93203015359E+02  0.10566000000E+00 0. -1.
         13    1    4    4    0    0 -0.36230287559E+01 -0.85801939580E+00  0.19862897615E+02  0.20209116763E+02  0.10566000000E+00 0. -1.
        -13    1    4    4    0    0 -0.26587499438E+02 -0.27202703545E+01  0.13937478597E+03  0.14191418930E+03  0.10566000000E+00 0.  1.
        -14    1    4    4    0    0 -0.67545396846E+01 -0.14291948291E+01  0.36371874919E+02  0.37021340999E+02  0.00000000000E+00 0.  1.
<mgrwt>
<rscale>  0 0.80583765E+02</rscale>
<asrwt>0</asrwt>
<pdfrwt beam="1">  1        1 0.44105365E-01 0.80583765E+02</pdfrwt>
<pdfrwt beam="2">  1       -2 0.87119823E-03 0.80583765E+02</pdfrwt>
<totfact> 0.17545492E+05</totfact>
</mgrwt>
</event>
<event>
 8    1  0.8577104E-014  0.8050816E+02  0.7818608E-02  0.1327616E+00
         -2   -1    0    0    0  501 -0.00000000000E+00  0.00000000000E+00  0.30736783297E+02  0.30736783403E+02  0.25500000000E-02 0.  1.
          1   -1    0    0  501    0  0.00000000000E+00 -0.00000000000E+00 -0.52718294722E+02  0.52718294963E+02  0.50400000000E-02 0. -1.
        -24    2    1    2    0    0  0.00000000000E+00  0.00000000000E+00 -0.21981511425E+02  0.83455078366E+02  0.80508156484E+02 0.  0.
         66    2    3    3    0    0  0.38998070537E+02  0.65773221613E+01 -0.18634357170E+02  0.43764710793E+02  0.19999928255E+01 0.  0.
         13    1    3    3    0    0 -0.38998070537E+02 -0.65773221613E+01 -0.33471542553E+01  0.39690367572E+02  0.10566000000E+00 0. -1.
         13    1    4    4    0    0  0.96678097781E+00  0.26874617886E+00 -0.71366506120E+00  0.12358688534E+01  0.10566000000E+00 0. -1.
        -13    1    4    4    0    0  0.10989802889E+02  0.23266253766E+01 -0.50331110072E+01  0.12309846612E+02  0.10566000000E+00 0.  1.
        -14    1    4    4    0    0  0.27041486670E+02  0.39819506058E+01 -0.12887581102E+02  0.30218995328E+02  0.00000000000E+00 0.  1.
<mgrwt>
<rscale>  0 0.80508156E+02</rscale>
<asrwt>0</asrwt>
<pdfrwt beam="1">  1        1 0.81105070E-02 0.80508156E+02</pdfrwt>
<pdfrwt beam="2">  1       -2 0.47287359E-02 0.80508156E+02</pdfrwt>
<totfact> 0.13035806E+05</totfact>
</mgrwt>
</event>
<event>
 8    1  0.8577104E-014  0.7986242E+02  0.7818608E-02  0.1329442E+00
         -2   -1    0    0    0  501 -0.00000000000E+00  0.00000000000E+00  0.14935639876E+02  0.14935640093E+02  0.25500000000E-02 0.  1.
          1   -1    0    0  501    0  0.00000000000E+00 -0.00000000000E+00 -0.10675816734E+03  0.10675816745E+03  0.50400000000E-02 0. -1.
        -24    2    1    2    0    0  0.35527136788E-14 -0.35527136788E-14 -0.91822527460E+02  0.12169380755E+03  0.79862420740E+02 0.  0.
         66    2    3    3    0    0 -0.31307612622E+02  0.16556905787E+02 -0.17917140988E+02  0.39740680390E+02  0.19999998439E+01 0.  0.
         13    1    3    3    0    0  0.31307612622E+02 -0.16556905787E+02 -0.73905386472E+02  0.81953127158E+02  0.10566000000E+00 0. -1.
         13    1    4    4    0    0 -0.24050206582E+01  0.18098589919E+01 -0.17934344024E+01  0.35053223715E+01  0.10566000000E+00 0. -1.
        -13    1    4    4    0    0 -0.17506513698E+02  0.87521058854E+01 -0.95851907472E+01  0.21793678555E+02  0.10566000000E+00 0.  1.
         14    1    4    4    0    0 -0.11396078266E+02  0.59949409094E+01 -0.65385158385E+01  0.14441679463E+02  0.00000000000E+00 0. -1.
<mgrwt>
<rscale>  0 0.79862421E+02</rscale>
<asrwt>0</asrwt>
<pdfrwt beam="1">  1        1 0.16424333E-01 0.79862421E+02</pdfrwt>
<pdfrwt beam="2">  1       -2 0.22977908E-02 0.79862421E+02</pdfrwt>
<totfact> 0.14932012E+05</totfact>
</mgrwt>
</event>
<event>
 8    1  0.8577104E-014  0.8113990E+02  0.7818608E-02  0.1325847E+00
          1   -1    0    0  501    0  0.00000000000E+00  0.00000000000E+00  0.26972919814E+02  0.26972920285E+02  0.50400000000E-02 0. -1.
         -2   -1    0    0    0  501 -0.00000000000E+00 -0.00000000000E+00 -0.61021232621E+02  0.61021232675E+02  0.25500000000E-02 0.  1.
        -24    2    1    2    0    0 -0.17763568394E-14  0.17763568394E-14 -0.34048312807E+02  0.87994152959E+02  0.81139899864E+02 0.  0.
         66    2    3    3    0    0 -0.97285837584E+01  0.81297002725E+01 -0.58799814237E+02  0.60184346137E+02  0.19999992816E+01 0.  0.
         13    1    3    3    0    0  0.97285837584E+01 -0.81297002725E+01  0.24751501430E+02  0.27809806823E+02  0.10566000000E+00 0. -1.
         13    1    4    4    0    0 -0.31653053093E+01  0.27032576171E+01 -0.17137298793E+02  0.17635898996E+02  0.10566000000E+00 0. -1.
        -13    1    4    4    0    0 -0.66294268597E+01  0.54299628457E+01 -0.41399024225E+02  0.42276756827E+02  0.10566000000E+00 0.  1.
         14    1    4    4    0    0  0.66148410601E-01 -0.35201902509E-02 -0.26349121892E+00  0.27169031343E+00  0.00000000000E+00 0. -1.
<mgrwt>
<rscale>  0 0.81139900E+02</rscale>
<asrwt>0</asrwt>
<pdfrwt beam="1">  1        1 0.41496800E-02 0.81139900E+02</pdfrwt>
<pdfrwt beam="2">  1       -2 0.93878819E-02 0.81139900E+02</pdfrwt>
<totfact> 0.11386513E+05</totfact>
</mgrwt>
</event>
<event>
 8    1  0.8577104E-014  0.8023904E+02  0.7818608E-02  0.1328374E+00
         -2   -1    0    0    0  501 -0.00000000000E+00  0.00000000000E+00  0.11307335370E+03  0.11307335373E+03  0.25500000000E-02 0.  1.
          1   -1    0    0  501    0  0.00000000000E+00 -0.00000000000E+00 -0.14234793356E+02  0.14234794248E+02  0.50400000000E-02 0. -1.
        -24    2    1    2    0    0  0.35527136788E-14  0.00000000000E+00  0.98838560341E+02  0.12730814797E+03  0.80239039938E+02 0.  0.
         66    2    3    3    0    0  0.23509117239E+02  0.42895672591E+01  0.10053019798E+03  0.10335085717E+03  0.19999977608E+01 0.  0.
         13    1    3    3    0    0 -0.23509117239E+02 -0.42895672591E+01 -0.16916376416E+01  0.23957290802E+02  0.10566000000E+00 0. -1.
         13    1    4    4    0    0  0.82974687913E+01  0.16563528316E+01  0.32504239470E+02  0.33587620347E+02  0.10566000000E+00 0. -1.
        -13    1    4    4    0    0  0.13081457678E+02  0.19011268260E+01  0.58195102180E+02  0.59677633163E+02  0.10566000000E+00 0.  1.
        -14    1    4    4    0    0  0.21301907697E+01  0.73208760150E+00  0.98308563329E+01  0.10085603661E+02  0.00000000000E+00 0.  1.
<mgrwt>
<rscale>  0 0.80239040E+02</rscale>
<asrwt>0</asrwt>
<pdfrwt beam="1">  1        1 0.21899682E-02 0.80239040E+02</pdfrwt>
<pdfrwt beam="2">  1       -2 0.17395901E-01 0.80239040E+02</pdfrwt>
<totfact> 0.10202641E+05</totfact>
</mgrwt>
</event>
<event>
 8    1  0.8577104E-014  0.7739414E+02  0.7818608E-02  0.1336613E+00
          1   -1    0    0  501    0  0.00000000000E+00  0.00000000000E+00  0.22350950875E+02  0.22350951443E+02  0.50400000000E-02 0. -1.
         -2   -1    0    0    0  501 -0.00000000000E+00 -0.00000000000E+00 -0.66997748644E+02  0.66997748692E+02  0.25500000000E-02 0.  1.
        -24    2    1    2    0    0  0.00000000000E+00  0.35527136788E-14 -0.44646797769E+02  0.89348700135E+02  0.77394144900E+02 0.  0.
         66    2    3    3    0    0 -0.12493285142E+02  0.26652790143E+02 -0.51292174488E+02  0.59172126575E+02  0.20000009068E+01 0.  0.
         13    1    3    3    0    0  0.12493285142E+02 -0.26652790143E+02  0.66453767189E+01  0.30176573560E+02  0.10566000000E+00 0. -1.
         13    1    4    4    0    0 -0.29409529929E+01  0.74564917746E+01 -0.14559318076E+02  0.16620270183E+02  0.10566000000E+00 0. -1.
        -13    1    4    4    0    0 -0.77049187840E+01  0.16115575009E+02 -0.31306994345E+02  0.36044647180E+02  0.10566000000E+00 0.  1.
         14    1    4    4    0    0 -0.18474133654E+01  0.30807233595E+01 -0.54258620669E+01  0.65072092120E+01  0.00000000000E+00 0. -1.
<mgrwt>
<rscale>  0 0.77394145E+02</rscale>
<asrwt>0</asrwt>
<pdfrwt beam="1">  1        1 0.34386079E-02 0.77394145E+02</pdfrwt>
<pdfrwt beam="2">  1       -2 0.10307346E-01 0.77394145E+02</pdfrwt>
<totfact> 0.12607270E+05</totfact>
</mgrwt>
</event>
<event>
 8    1  0.8577104E-014  0.8343349E+02  0.7818608E-02  0.1319581E+00
          1   -1    0    0  501    0  0.00000000000E+00  0.00000000000E+00  0.18859161133E+02  0.18859161807E+02  0.50400000000E-02 0. -1.
         -2   -1    0    0    0  501 -0.00000000000E+00 -0.00000000000E+00 -0.92278051700E+02  0.92278051735E+02  0.25500000000E-02 0.  1.
        -24    2    1    2    0    0 -0.35527136788E-14  0.17763568394E-14 -0.73418890566E+02  0.11113721354E+03  0.83433486933E+02 0.  0.
         66    2    3    3    0    0  0.16935046426E+02 -0.10845263189E+02 -0.85379627864E+02  0.87738796249E+02  0.19999954914E+01 0.  0.
         13    1    3    3    0    0 -0.16935046426E+02  0.10845263189E+02  0.11960737297E+02  0.23398417293E+02  0.10566000000E+00 0. -1.
         13    1    4    4    0    0  0.33062388483E+01 -0.28239545888E+01 -0.16959282063E+02  0.17508122314E+02  0.10566000000E+00 0. -1.
        -13    1    4    4    0    0  0.10782243519E+02 -0.67831989249E+01 -0.55068214986E+02  0.56522455969E+02  0.10566000000E+00 0.  1.
        -14    1    4    4    0    0  0.28465640586E+01 -0.12381096756E+01 -0.13352130814E+02  0.13708217965E+02  0.00000000000E+00 0.  1.
<mgrwt>
<rscale>  0 0.83433487E+02</rscale>
<asrwt>0</asrwt>
<pdfrwt beam="1">  1        1 0.29014095E-02 0.83433487E+02</pdfrwt>
<pdfrwt beam="2">  1       -2 0.14196623E-01 0.83433487E+02</pdfrwt>
<totfact> 0.97185985E+04</totfact>
</mgrwt>
</event>
<event>
 8    1  0.8577104E-014  0.8014580E+02  0.7818608E-02  0.1328638E+00
          1   -1    0    0  501    0  0.00000000000E+00  0.00000000000E+00  0.36229095541E+02  0.36229095892E+02  0.50400000000E-02 0. -1.
         -2   -1    0    0    0  501 -0.00000000000E+00 -0.00000000000E+00 -0.44324522609E+02  0.44324522682E+02  0.25500000000E-02 0.  1.
        -24    2    1    2    0    0  0.00000000000E+00  0.00000000000E+00 -0.80954270677E+01  0.80553618574E+02  0.80145801674E+02 0.  0.
         66    2    3    3    0    0 -0.39824489453E+02 -0.37420765813E+01 -0.60196180826E+01  0.40499739307E+02  0.19999961671E+01 0.  0.
         13    1    3    3    0    0  0.39824489453E+02  0.37420765813E+01 -0.20758089852E+01  0.40053879267E+02  0.10566000000E+00 0. -1.
         13    1    4    4    0    0 -0.58809454228E+00 -0.46646137760E-01  0.25599718750E-01  0.59987534874E+00  0.10566000000E+00 0. -1.
        -13    1    4    4    0    0 -0.13494483775E+02 -0.10249381157E+01 -0.27572588666E+01  0.13811778704E+02  0.10566000000E+00 0.  1.
        -14    1    4    4    0    0 -0.25741911137E+02 -0.26704923278E+01 -0.32879589347E+01  0.26088085254E+02  0.00000000000E+00 0.  1.
<mgrwt>
<rscale>  0 0.80145802E+02</rscale>
<asrwt>0</asrwt>
<pdfrwt beam="1">  1        1 0.55737071E-02 0.80145802E+02</pdfrwt>
<pdfrwt beam="2">  1       -2 0.68191573E-02 0.80145802E+02</pdfrwt>
<totfact> 0.12428100E+05</totfact>
</mgrwt>
</event>
<event>
 8    1  0.8577104E-014  0.7990609E+02  0.7818608E-02  0.1329318E+00
         -2   -1    0    0    0  501 -0.00000000000E+00  0.00000000000E+00  0.32335364302E+01  0.32335374356E+01  0.25500000000E-02 0.  1.
          1   -1    0    0  501    0  0.00000000000E+00 -0.00000000000E+00 -0.49365319439E+03  0.49365319442E+03  0.50400000000E-02 0. -1.
        -24    2    1    2    0    0  0.00000000000E+00  0.00000000000E+00 -0.49041965796E+03  0.49688673185E+03  0.79906090985E+02 0.  0.
         66    2    3    3    0    0 -0.14375219769E+02 -0.36520008923E+02 -0.29100903993E+03  0.29365050540E+03  0.20000013972E+01 0.  0.
         13    1    3    3    0    0  0.14375219769E+02  0.36520008923E+02 -0.19941061803E+03  0.20323622645E+03  0.10566000000E+00 0. -1.
         13    1    4    4    0    0 -0.24354350445E+01 -0.45194085180E+01 -0.38627634381E+02  0.38967444093E+02  0.10566000000E+00 0.  1.
        -13    1    4    4    0    0 -0.71116149243E+01 -0.18436976979E+02 -0.14793912297E+03  0.14925311540E+03  0.10566000000E+00 0.  1.
        -14    1    4    4    0    0 -0.48281697998E+01 -0.13563623426E+02 -0.10444228258E+03  0.10542994591E+03  0.00000000000E+00 0.  1.
<mgrwt>
<rscale>  0 0.79906091E+02</rscale>
<asrwt>0</asrwt>
<pdfrwt beam="1">  1        1 0.75946586E-01 0.79906091E+02</pdfrwt>
<pdfrwt beam="2">  1       -2 0.49746761E-03 0.79906091E+02</pdfrwt>
<totfact> 0.19638897E+05</totfact>
</mgrwt>
</event>
<event>
 8    1  0.8577104E-014  0.8896091E+02  0.7818608E-02  0.1305388E+00
          1   -1    0    0  501    0  0.00000000000E+00  0.00000000000E+00  0.11156844373E+03  0.11156844384E+03  0.50400000000E-02 0. -1.
         -2   -1    0    0    0  501 -0.00000000000E+00 -0.00000000000E+00 -0.17733606028E+02  0.17733606212E+02  0.25500000000E-02 0.  1.
        -24    2    1    2    0    0  0.00000000000E+00  0.00000000000E+00  0.93834837698E+02  0.12930205005E+03  0.88960909291E+02 0.  0.
         66    2    3    3    0    0 -0.20859826392E+02  0.29693973241E+02  0.96108814729E+01  0.37592997226E+02  0.19999984571E+01 0.  0.
         13    1    3    3    0    0  0.20859826392E+02 -0.29693973241E+02  0.84223956226E+02  0.91709052826E+02  0.10566000000E+00 0. -1.
         13    1    4    4    0    0 -0.15607446697E+02  0.23183029808E+02  0.75749336979E+01  0.28955760188E+02  0.10566000000E+00 0. -1.
        -13    1    4    4    0    0 -0.30757873777E+01  0.41690959890E+01  0.15065850489E+01  0.53965537062E+01  0.10566000000E+00 0.  1.
         14    1    4    4    0    0 -0.21765923165E+01  0.23418474441E+01  0.52936272608E+00  0.32406833321E+01  0.00000000000E+00 0. -1.
<mgrwt>
<rscale>  0 0.88960909E+02</rscale>
<asrwt>0</asrwt>
<pdfrwt beam="1">  1        1 0.17164376E-01 0.88960909E+02</pdfrwt>
<pdfrwt beam="2">  1       -2 0.27282471E-02 0.88960909E+02</pdfrwt>
<totfact> 0.11228627E+05</totfact>
</mgrwt>
</event>
<event>
 8    1  0.8577104E-014  0.8064694E+02  0.7818608E-02  0.1327225E+00
          1   -1    0    0  501    0  0.00000000000E+00  0.00000000000E+00  0.88878116726E+02  0.88878116869E+02  0.50400000000E-02 0. -1.
         -2   -1    0    0    0  501 -0.00000000000E+00 -0.00000000000E+00 -0.18294518679E+02  0.18294518856E+02  0.25500000000E-02 0.  1.
        -24    2    1    2    0    0  0.00000000000E+00 -0.88817841970E-15  0.70583598048E+02  0.10717263573E+03  0.80646943742E+02 0.  0.
         66    2    3    3    0    0  0.29989816065E+02 -0.69843354669E+01  0.76667156503E+00  0.30866774895E+02  0.19999993940E+01 0.  0.
         13    1    3    3    0    0 -0.29989816065E+02  0.69843354669E+01  0.69816926483E+02  0.76305860830E+02  0.10566000000E+00 0. -1.
         13    1    4    4    0    0  0.10158068541E+02 -0.17863519579E+01  0.86177606430E+00  0.10350421818E+02  0.10566000000E+00 0. -1.
        -13    1    4    4    0    0  0.18222108815E+02 -0.49265286537E+01  0.59069265859E-01  0.18876720781E+02  0.10566000000E+00 0.  1.
        -14    1    4    4    0    0  0.16096387102E+01 -0.27145485528E+00 -0.15417376513E+00  0.16396322958E+01  0.00000000000E+00 0.  1.
<mgrwt>
<rscale>  0 0.80646944E+02</rscale>
<asrwt>0</asrwt>
<pdfrwt beam="1">  1        1 0.13673556E-01 0.80646944E+02</pdfrwt>
<pdfrwt beam="2">  1       -2 0.28145414E-02 0.80646944E+02</pdfrwt>
<totfact> 0.14102239E+05</totfact>
</mgrwt>
</event>
<event>
 8    1  0.8577104E-014  0.8038708E+02  0.7818608E-02  0.1327957E+00
         -2   -1    0    0    0  501 -0.00000000000E+00  0.00000000000E+00  0.85178217128E+01  0.85178220945E+01  0.25500000000E-02 0.  1.
          1   -1    0    0  501    0  0.00000000000E+00 -0.00000000000E+00 -0.18966358437E+03  0.18966358444E+03  0.50400000000E-02 0. -1.
        -24    2    1    2    0    0  0.35527136788E-14  0.00000000000E+00 -0.18114576266E+03  0.19818140653E+03  0.80387079597E+02 0.  0.
         66    2    3    3    0    0 -0.27270611587E+02 -0.16681135367E+02 -0.30666333354E+02  0.44343776737E+02  0.20000001084E+01 0.  0.
         13    1    3    3    0    0  0.27270611587E+02  0.16681135367E+02 -0.15047942930E+03  0.15383762979E+03  0.10566000000E+00 0. -1.
         13    1    4    4    0    0 -0.41362530670E+00 -0.31640903159E+00 -0.31696602283E+00  0.61873424412E+00  0.10566000000E+00 0. -1.
        -13    1    4    4    0    0 -0.16537065955E+02 -0.10295651665E+02 -0.17958086162E+02  0.26494886606E+02  0.10566000000E+00 0.  1.
         14    1    4    4    0    0 -0.10319920325E+02 -0.60690746707E+01 -0.12391281169E+02  0.17230155887E+02  0.00000000000E+00 0. -1.
<mgrwt>
<rscale>  0 0.80387080E+02</rscale>
<asrwt>0</asrwt>
<pdfrwt beam="1">  1        1 0.29179010E-01 0.80387080E+02</pdfrwt>
<pdfrwt beam="2">  1       -2 0.13104343E-02 0.80387080E+02</pdfrwt>
<totfact> 0.16293119E+05</totfact>
</mgrwt>
</event>
<event>
 8    1  0.8577104E-014  0.7310550E+02  0.7818608E-02  0.1349840E+00
          1   -1    0    0  501    0  0.00000000000E+00  0.00000000000E+00  0.11676536228E+02  0.11676537315E+02  0.50400000000E-02 0. -1.
         -2   -1    0    0    0  501 -0.00000000000E+00 -0.00000000000E+00 -0.11442635228E+03  0.11442635231E+03  0.25500000000E-02 0.  1.
        -24    2    1    2    0    0  0.00000000000E+00  0.00000000000E+00 -0.10274981606E+03  0.12610288963E+03  0.73105499608E+02 0.  0.
         66    2    3    3    0    0  0.17616812532E+01 -0.36136738625E+02 -0.42765916743E+02  0.56052573853E+02  0.20000003430E+01 0.  0.
         13    1    3    3    0    0 -0.17616812532E+01  0.36136738625E+02 -0.59983899314E+02  0.70050315775E+02  0.10566000000E+00 0. -1.
         13    1    4    4    0    0  0.19836973710E+01 -0.28853069181E+02 -0.33703936909E+02  0.44411723493E+02  0.10566000000E+00 0. -1.
        -13    1    4    4    0    0  0.47033416140E-01 -0.35884045250E+01 -0.41331739019E+01  0.54747739420E+01  0.10566000000E+00 0.  1.
         14    1    4    4    0    0 -0.26904953388E+00 -0.36952649190E+01 -0.49288059326E+01  0.61660764182E+01  0.00000000000E+00 0. -1.
<mgrwt>
<rscale>  0 0.73105500E+02</rscale>
<asrwt>0</asrwt>
<pdfrwt beam="1">  1        1 0.17963904E-02 0.73105500E+02</pdfrwt>
<pdfrwt beam="2">  1       -2 0.17604053E-01 0.73105500E+02</pdfrwt>
<totfact> 0.12904467E+05</totfact>
</mgrwt>
</event>
<event>
 8    1  0.8577104E-014  0.7903664E+02  0.7818608E-02  0.1331808E+00
          1   -1    0    0  501    0  0.00000000000E+00  0.00000000000E+00  0.28427230157E+03  0.28427230161E+03  0.50400000000E-02 0. -1.
         -2   -1    0    0    0  501 -0.00000000000E+00 -0.00000000000E+00 -0.54936679312E+01  0.54936685230E+01  0.25500000000E-02 0.  1.
        -24    2    1    2    0    0  0.00000000000E+00  0.00000000000E+00  0.27877863364E+03  0.28976597014E+03  0.79036642618E+02 0.  0.
         66    2    3    3    0    0  0.26490892582E+00  0.37114609708E+02  0.90000831910E+02  0.97374093958E+02  0.19999997700E+01 0.  0.
         13    1    3    3    0    0 -0.26490892582E+00 -0.37114609708E+02  0.18877780173E+03  0.19239187618E+03  0.10566000000E+00 0. -1.
         13    1    4    4    0    0 -0.60090385982E+00  0.61179992356E+01  0.14752048126E+02  0.15982023903E+02  0.10566000000E+00 0. -1.
        -13    1    4    4    0    0  0.38697552127E+00  0.24499718777E+02  0.59921813354E+02  0.64738094271E+02  0.10566000000E+00 0.  1.
         14    1    4    4    0    0  0.47883726437E+00  0.64968916950E+01  0.15326970431E+02  0.16653975784E+02  0.00000000000E+00 0. -1.
<mgrwt>
<rscale>  0 0.79036643E+02</rscale>
<asrwt>0</asrwt>
<pdfrwt beam="1">  1        1 0.43734212E-01 0.79036643E+02</pdfrwt>
<pdfrwt beam="2">  1       -2 0.84517950E-03 0.79036643E+02</pdfrwt>
<totfact> 0.18435918E+05</totfact>
</mgrwt>
</event>
<event>
 8    1  0.8577104E-014  0.7655741E+02  0.7818608E-02  0.1339115E+00
         -2   -1    0    0    0  501 -0.00000000000E+00  0.00000000000E+00  0.20864782332E+02  0.20864782487E+02  0.25500000000E-02 0.  1.
          1   -1    0    0  501    0  0.00000000000E+00 -0.00000000000E+00 -0.70226430135E+02  0.70226430316E+02  0.50400000000E-02 0. -1.
        -24    2    1    2    0    0 -0.35527136788E-14 -0.88817841970E-15 -0.49361647804E+02  0.91091212803E+02  0.76557408368E+02 0.  0.
         66    2    3    3    0    0 -0.19451868508E+02 -0.23698548886E+01  0.14391228207E+02  0.24394647942E+02  0.19999995725E+01 0.  0.
         13    1    3    3    0    0  0.19451868508E+02  0.23698548886E+01 -0.63752876010E+02  0.66696564861E+02  0.10566000000E+00 0. -1.
         13    1    4    4    0    0 -0.64520269350E+01 -0.13551349538E+01  0.51000768943E+01  0.83358857164E+01  0.10566000000E+00 0.  1.
        -13    1    4    4    0    0 -0.27245753001E+01 -0.54262425376E+00  0.24482933400E+01  0.37044643285E+01  0.10566000000E+00 0. -1.
        -14    1    4    4    0    0 -0.10275266273E+02 -0.47209568102E+00  0.68428579726E+01  0.12354297897E+02  0.00000000000E+00 0.  1.
<mgrwt>
<rscale>  0 0.76557408E+02</rscale>
<asrwt>0</asrwt>
<pdfrwt beam="1">  1        1 0.10804066E-01 0.76557408E+02</pdfrwt>
<pdfrwt beam="2">  1       -2 0.32099666E-02 0.76557408E+02</pdfrwt>
<totfact> 0.15647546E+05</totfact>
</mgrwt>
</event>
<event>
 8    1  0.8577104E-014  0.8050722E+02  0.7818608E-02  0.1327618E+00
         -2   -1    0    0    0  501 -0.00000000000E+00  0.00000000000E+00  0.12420862851E+04  0.12420862851E+04  0.25500000000E-02 0.  1.
          1   -1    0    0  501    0  0.00000000000E+00 -0.00000000000E+00 -0.13045367374E+01  0.13045464732E+01  0.50400000000E-02 0. -1.
        -24    2    1    2    0    0  0.00000000000E+00 -0.17763568394E-14  0.12407817484E+04  0.12433908316E+04  0.80507223135E+02 0.  0.
         66    2    3    3    0    0 -0.21049118852E+02 -0.13952115065E+02  0.11044140986E+04  0.11047045886E+04  0.20000032129E+01 0.  0.
         13    1    3    3    0    0  0.21049118852E+02  0.13952115065E+02  0.13636764974E+03  0.13868624294E+03  0.10566000000E+00 0. -1.
         13    1    4    4    0    0 -0.54102098815E+01 -0.30642935284E+01  0.30087048695E+03  0.30093474600E+03  0.10566000000E+00 0. -1.
        -13    1    4    4    0    0 -0.99873013731E+01 -0.73012260963E+01  0.52860447767E+03  0.52874924025E+03  0.10566000000E+00 0.  1.
         14    1    4    4    0    0 -0.56516075976E+01 -0.35865954406E+01  0.27493913398E+03  0.27502060237E+03  0.00000000000E+00 0. -1.
<mgrwt>
<rscale>  0 0.80507223E+02</rscale>
<asrwt>0</asrwt>
<pdfrwt beam="1">  1        1 0.20069964E-03 0.80507223E+02</pdfrwt>
<pdfrwt beam="2">  1       -2 0.19108931E+00 0.80507223E+02</pdfrwt>
<totfact> 0.19489763E+04</totfact>
</mgrwt>
</event>
<event>
 8    1  0.8577104E-014  0.7069711E+02  0.7818608E-02  0.1357738E+00
          1   -1    0    0  501    0  0.00000000000E+00  0.00000000000E+00  0.35544822248E+02  0.35544822605E+02  0.50400000000E-02 0. -1.
         -2   -1    0    0    0  501 -0.00000000000E+00 -0.00000000000E+00 -0.35153369961E+02  0.35153370053E+02  0.25500000000E-02 0.  1.
        -24    2    1    2    0    0  0.00000000000E+00  0.00000000000E+00  0.39145228697E+00  0.70698192658E+02  0.70697108924E+02 0.  0.
         66    2    3    3    0    0 -0.30838057986E+02 -0.10087297573E+02 -0.13760553345E+02  0.35300031405E+02  0.19999990442E+01 0.  0.
         13    1    3    3    0    0  0.30838057986E+02  0.10087297573E+02  0.14152005632E+02  0.35398161253E+02  0.10566000000E+00 0. -1.
         13    1    4    4    0    0 -0.10183920263E+01 -0.63101386826E+00 -0.66152802509E+00  0.13726194610E+01  0.10566000000E+00 0. -1.
        -13    1    4    4    0    0 -0.15438580885E+02 -0.47145516445E+01 -0.63022849199E+01  0.17329360525E+02  0.10566000000E+00 0.  1.
        -14    1    4    4    0    0 -0.14381085074E+02 -0.47417320602E+01 -0.67967404003E+01  0.16598051419E+02  0.00000000000E+00 0.  1.
<mgrwt>
<rscale>  0 0.70697109E+02</rscale>
<asrwt>0</asrwt>
<pdfrwt beam="1">  1        1 0.54684343E-02 0.70697109E+02</pdfrwt>
<pdfrwt beam="2">  1       -2 0.54082108E-02 0.70697109E+02</pdfrwt>
<totfact> 0.17607266E+05</totfact>
</mgrwt>
</event>
<event>
 8    1  0.8577104E-014  0.7949293E+02  0.7818608E-02  0.1330497E+00
          1   -1    0    0  501    0  0.00000000000E+00  0.00000000000E+00  0.19289875061E+03  0.19289875068E+03  0.50400000000E-02 0. -1.
         -2   -1    0    0    0  501 -0.00000000000E+00 -0.00000000000E+00 -0.81896925320E+01  0.81896929290E+01  0.25500000000E-02 0.  1.
        -24    2    1    2    0    0  0.00000000000E+00 -0.35527136788E-14  0.18470905808E+03  0.20108844361E+03  0.79492930600E+02 0.  0.
         66    2    3    3    0    0  0.37592105176E+02 -0.12741419206E+02  0.88604547412E+02  0.97109607925E+02  0.19999985934E+01 0.  0.
         13    1    3    3    0    0 -0.37592105176E+02  0.12741419206E+02  0.96104510669E+02  0.10397883568E+03  0.10566000000E+00 0. -1.
         13    1    4    4    0    0  0.90521067971E+00 -0.33514321927E+00  0.29117052938E+01  0.30693515774E+01  0.10566000000E+00 0. -1.
        -13    1    4    4    0    0  0.10735899951E+02 -0.36866594338E+01  0.24413883936E+02  0.26923965132E+02  0.10566000000E+00 0.  1.
         14    1    4    4    0    0  0.25950994545E+02 -0.87196165532E+01  0.61278958182E+02  0.67116291216E+02  0.00000000000E+00 0. -1.
<mgrwt>
<rscale>  0 0.79492931E+02</rscale>
<asrwt>0</asrwt>
<pdfrwt beam="1">  1        1 0.29676731E-01 0.79492931E+02</pdfrwt>
<pdfrwt beam="2">  1       -2 0.12599527E-02 0.79492931E+02</pdfrwt>
<totfact> 0.16839558E+05</totfact>
</mgrwt>
</event>
<event>
 8    1  0.8577104E-014  0.8086341E+02  0.7818608E-02  0.1326619E+00
          1   -1    0    0  501    0  0.00000000000E+00  0.00000000000E+00  0.98147182562E+02  0.98147182691E+02  0.50400000000E-02 0. -1.
         -2   -1    0    0    0  501 -0.00000000000E+00 -0.00000000000E+00 -0.16655828779E+02  0.16655828974E+02  0.25500000000E-02 0.  1.
        -24    2    1    2    0    0  0.00000000000E+00  0.00000000000E+00  0.81491353782E+02  0.11480301167E+03  0.80863407955E+02 0.  0.
         66    2    3    3    0    0 -0.22427425518E+02  0.33005094482E+02  0.31747570916E+02  0.51031695425E+02  0.20000004364E+01 0.  0.
         13    1    3    3    0    0  0.22427425518E+02 -0.33005094482E+02  0.49743782866E+02  0.63771316240E+02  0.10566000000E+00 0. -1.
         13    1    4    4    0    0 -0.18664839579E+01  0.32056090420E+01  0.32859226255E+01  0.49566261944E+01  0.10566000000E+00 0. -1.
        -13    1    4    4    0    0 -0.18685729136E+02  0.27749355243E+02  0.26341409842E+02  0.42580091900E+02  0.10566000000E+00 0.  1.
         14    1    4    4    0    0 -0.18752124232E+01  0.20501301975E+01  0.21202384492E+01  0.34949773304E+01  0.00000000000E+00 0. -1.
<mgrwt>
<rscale>  0 0.80863408E+02</rscale>
<asrwt>0</asrwt>
<pdfrwt beam="1">  1        1 0.15099567E-01 0.80863408E+02</pdfrwt>
<pdfrwt beam="2">  1       -2 0.25624352E-02 0.80863408E+02</pdfrwt>
<totfact> 0.14233500E+05</totfact>
</mgrwt>
</event>
<event>
 8    1  0.8577104E-014  0.7760506E+02  0.7818608E-02  0.1335989E+00
          1   -1    0    0  501    0  0.00000000000E+00  0.00000000000E+00  0.19787795781E+02  0.19787796423E+02  0.50400000000E-02 0. -1.
         -2   -1    0    0    0  501 -0.00000000000E+00 -0.00000000000E+00 -0.76089127428E+02  0.76089127471E+02  0.25500000000E-02 0.  1.
        -24    2    1    2    0    0  0.00000000000E+00  0.00000000000E+00 -0.56301331647E+02  0.95876923894E+02  0.77605055184E+02 0.  0.
         66    2    3    3    0    0  0.24896640462E+02  0.27279036257E+02 -0.42768649736E+02  0.56543310163E+02  0.19999996171E+01 0.  0.
         13    1    3    3    0    0 -0.24896640462E+02 -0.27279036257E+02 -0.13532681911E+02  0.39333613731E+02  0.10566000000E+00 0. -1.
         13    1    4    4    0    0  0.11013335108E+02  0.12581798518E+02 -0.18766577621E+02  0.25135449146E+02  0.10566000000E+00 0. -1.
        -13    1    4    4    0    0  0.73194012278E+01  0.70379115049E+01 -0.11428338642E+02  0.15288031947E+02  0.10566000000E+00 0.  1.
         14    1    4    4    0    0  0.65639041268E+01  0.76593262348E+01 -0.12573733474E+02  0.16119829069E+02  0.00000000000E+00 0. -1.
<mgrwt>
<rscale>  0 0.77605055E+02</rscale>
<asrwt>0</asrwt>
<pdfrwt beam="1">  1        1 0.30442764E-02 0.77605055E+02</pdfrwt>
<pdfrwt beam="2">  1       -2 0.11706019E-01 0.77605055E+02</pdfrwt>
<totfact> 0.12204170E+05</totfact>
</mgrwt>
</event>
<event>
 8    1  0.8577104E-014  0.8278239E+02  0.7818608E-02  0.1321336E+00
         -2   -1    0    0    0  501 -0.00000000000E+00  0.00000000000E+00  0.16680943581E+03  0.16680943583E+03  0.25500000000E-02 0.  1.
          1   -1    0    0  501    0  0.00000000000E+00 -0.00000000000E+00 -0.10270588492E+02  0.10270589729E+02  0.50400000000E-02 0. -1.
        -24    2    1    2    0    0  0.00000000000E+00 -0.35527136788E-14  0.15653884732E+03  0.17708002556E+03  0.82782393854E+02 0.  0.
         66    2    3    3    0    0  0.26720413504E+02  0.30375074661E+02  0.96790750631E+02  0.10492413959E+03  0.20000005354E+01 0.  0.
         13    1    3    3    0    0 -0.26720413504E+02 -0.30375074661E+02  0.59748096691E+02  0.72155885974E+02  0.10566000000E+00 0. -1.
         13    1    4    4    0    0  0.61628090604E+01  0.75663958723E+01  0.23889081779E+02  0.25805618657E+02  0.10566000000E+00 0. -1.
        -13    1    4    4    0    0  0.14922826519E+02  0.15911688782E+02  0.53084460565E+02  0.57392017813E+02  0.10566000000E+00 0.  1.
         14    1    4    4    0    0  0.56347779243E+01  0.68969900069E+01  0.19817208287E+02  0.21726503117E+02  0.00000000000E+00 0. -1.
<mgrwt>
<rscale>  0 0.82782394E+02</rscale>
<asrwt>0</asrwt>
<pdfrwt beam="1">  1        1 0.15800908E-02 0.82782394E+02</pdfrwt>
<pdfrwt beam="2">  1       -2 0.25662988E-01 0.82782394E+02</pdfrwt>
<totfact> 0.83453195E+04</totfact>
</mgrwt>
</event>
<event>
 8    1  0.8577104E-014  0.8281584E+02  0.7818608E-02  0.1321245E+00
         -2   -1    0    0    0  501 -0.00000000000E+00  0.00000000000E+00  0.46495999501E+02  0.46495999571E+02  0.25500000000E-02 0.  1.
          1   -1    0    0  501    0  0.00000000000E+00 -0.00000000000E+00 -0.36876635119E+02  0.36876635463E+02  0.50400000000E-02 0. -1.
        -24    2    1    2    0    0  0.35527136788E-14  0.00000000000E+00  0.96193643827E+01  0.83372635034E+02  0.82815844507E+02 0.  0.
         66    2    3    3    0    0 -0.21632854664E+02 -0.99724631380E+01  0.38880514192E+02  0.45641262489E+02  0.20000089564E+01 0.  0.
         13    1    3    3    0    0  0.21632854664E+02  0.99724631380E+01 -0.29261149809E+02  0.37731372545E+02  0.10566000000E+00 0. -1.
         13    1    4    4    0    0 -0.71873473031E+01 -0.39978934266E+01  0.12801921143E+02  0.15216486522E+02  0.10566000000E+00 0. -1.
        -13    1    4    4    0    0 -0.88286832336E+01 -0.39813529111E+01  0.15294078212E+02  0.18102950340E+02  0.10566000000E+00 0.  1.
        -14    1    4    4    0    0 -0.56168241276E+01 -0.19932168003E+01  0.10784514837E+02  0.12321825626E+02  0.00000000000E+00 0.  1.
<mgrwt>
<rscale>  0 0.82815845E+02</rscale>
<asrwt>0</asrwt>
<pdfrwt beam="1">  1        1 0.56733285E-02 0.82815845E+02</pdfrwt>
<pdfrwt beam="2">  1       -2 0.71532307E-02 0.82815845E+02</pdfrwt>
<totfact> 0.11356015E+05</totfact>
</mgrwt>
</event>
<event>
 8    1  0.8577104E-014  0.7506633E+02  0.7818608E-02  0.1343666E+00
         -2   -1    0    0    0  501 -0.00000000000E+00  0.00000000000E+00  0.23652034108E+02  0.23652034246E+02  0.25500000000E-02 0.  1.
          1   -1    0    0  501    0  0.00000000000E+00 -0.00000000000E+00 -0.59560989307E+02  0.59560989520E+02  0.50400000000E-02 0. -1.
        -24    2    1    2    0    0 -0.35527136788E-14 -0.35527136788E-14 -0.35908955198E+02  0.83213023766E+02  0.75066332406E+02 0.  0.
         66    2    3    3    0    0  0.19236079589E+02  0.18908229522E+02  0.10922337865E+02  0.29169253767E+02  0.19999998280E+01 0.  0.
         13    1    3    3    0    0 -0.19236079589E+02 -0.18908229522E+02 -0.46831293064E+02  0.54043769998E+02  0.10566000000E+00 0. -1.
         13    1    4    4    0    0  0.56028170118E+01  0.58198515204E+01  0.39209586537E+01  0.89803847906E+01  0.10566000000E+00 0. -1.
        -13    1    4    4    0    0  0.83538008295E+01  0.79505247508E+01  0.48782439140E+01  0.12522190696E+02  0.10566000000E+00 0.  1.
        -14    1    4    4    0    0  0.52794617476E+01  0.51378532503E+01  0.21231352978E+01  0.76666782807E+01  0.00000000000E+00 0.  1.
<mgrwt>
<rscale>  0 0.75066332E+02</rscale>
<asrwt>0</asrwt>
<pdfrwt beam="1">  1        1 0.91632291E-02 0.75066332E+02</pdfrwt>
<pdfrwt beam="2">  1       -2 0.36387745E-02 0.75066332E+02</pdfrwt>
<totfact> 0.16102843E+05</totfact>
</mgrwt>
</event>
<event>
 8    1  0.8577104E-014  0.8012481E+02  0.7818608E-02  0.1328698E+00
         -2   -1    0    0    0  501 -0.00000000000E+00  0.00000000000E+00  0.37921183908E+02  0.37921183994E+02  0.25500000000E-02 0.  1.
          1   -1    0    0  501    0  0.00000000000E+00 -0.00000000000E+00 -0.42324525800E+02  0.42324526100E+02  0.50400000000E-02 0. -1.
        -24    2    1    2    0    0 -0.35527136788E-14  0.00000000000E+00 -0.44033418919E+01  0.80245710093E+02  0.80124806200E+02 0.  0.
         66    2    3    3    0    0  0.30495995941E+02 -0.15661243345E+02  0.18509339744E+02  0.39011228706E+02  0.19999989608E+01 0.  0.
         13    1    3    3    0    0 -0.30495995941E+02  0.15661243345E+02 -0.22912681636E+02  0.41234481388E+02  0.10566000000E+00 0. -1.
         13    1    4    4    0    0  0.16294226024E+02 -0.77933991120E+01  0.10257506667E+02  0.20771771193E+02  0.10566000000E+00 0. -1.
        -13    1    4    4    0    0  0.70186365983E+01 -0.34381040106E+01  0.42981212397E+01  0.89200240535E+01  0.10566000000E+00 0.  1.
        -14    1    4    4    0    0  0.71831333183E+01 -0.44297402223E+01  0.39537118374E+01  0.93194334592E+01  0.00000000000E+00 0.  1.
<mgrwt>
<rscale>  0 0.80124806E+02</rscale>
<asrwt>0</asrwt>
<pdfrwt beam="1">  1        1 0.65114656E-02 0.80124806E+02</pdfrwt>
<pdfrwt beam="2">  1       -2 0.58340283E-02 0.80124806E+02</pdfrwt>
<totfact> 0.12757865E+05</totfact>
</mgrwt>
</event>
<event>
 8    1  0.8577104E-014  0.7888829E+02  0.7818608E-02  0.1332236E+00
         -2   -1    0    0    0  501 -0.00000000000E+00  0.00000000000E+00  0.43009103295E+02  0.43009103371E+02  0.25500000000E-02 0.  1.
          1   -1    0    0  501    0  0.00000000000E+00 -0.00000000000E+00 -0.36174677115E+02  0.36174677467E+02  0.50400000000E-02 0. -1.
        -24    2    1    2    0    0  0.00000000000E+00  0.17763568394E-14  0.68344261796E+01  0.79183780837E+02  0.78888286624E+02 0.  0.
         66    2    3    3    0    0 -0.28341101049E+01 -0.14171144072E+02  0.40230770561E+02  0.42794490016E+02  0.19999928569E+01 0.  0.
         13    1    3    3    0    0  0.28341101049E+01  0.14171144072E+02 -0.33396344381E+02  0.36389290821E+02  0.10566000000E+00 0. -1.
         13    1    4    4    0    0 -0.21668300982E+01 -0.79507850612E+01  0.22816219303E+02  0.24259042914E+02  0.10566000000E+00 0.  1.
        -13    1    4    4    0    0 -0.75804398881E+00 -0.34482170322E+01  0.86820294288E+01  0.93730267485E+01  0.10566000000E+00 0.  1.
        -14    1    4    4    0    0  0.90763982119E-01 -0.27721419782E+01  0.87325218292E+01  0.91624203541E+01  0.00000000000E+00 0.  1.
<mgrwt>
<rscale>  0 0.78888287E+02</rscale>
<asrwt>0</asrwt>
<pdfrwt beam="1">  1        1 0.55653350E-02 0.78888287E+02</pdfrwt>
<pdfrwt beam="2">  1       -2 0.66167852E-02 0.78888287E+02</pdfrwt>
<totfact> 0.12994242E+05</totfact>
</mgrwt>
</event>
<event>
 8    1  0.8577104E-014  0.7902106E+02  0.7818608E-02  0.1331853E+00
          1   -1    0    0  501    0  0.00000000000E+00  0.00000000000E+00  0.36123078532E+01  0.36123113692E+01  0.50400000000E-02 0. -1.
         -2   -1    0    0    0  501 -0.00000000000E+00 -0.00000000000E+00 -0.43215614251E+03  0.43215614252E+03  0.25500000000E-02 0.  1.
        -24    2    1    2    0    0  0.17763568394E-14  0.17763568394E-14 -0.42854383466E+03  0.43576845389E+03  0.79021055299E+02 0.  0.
         66    2    3    3    0    0 -0.10391811121E+02 -0.66171664679E+01 -0.42128299689E+03  0.42146783993E+03  0.19999988621E+01 0.  0.
         13    1    3    3    0    0  0.10391811121E+02  0.66171664679E+01 -0.72608377662E+01  0.14300613957E+02  0.10566000000E+00 0. -1.
         13    1    4    4    0    0 -0.21066261922E+01 -0.18990899252E+01 -0.93806163680E+02  0.93849091231E+02  0.10566000000E+00 0. -1.
        -13    1    4    4    0    0 -0.24318152054E+01 -0.21057962681E+01 -0.11782546645E+03  0.11786941847E+03  0.10566000000E+00 0.  1.
         14    1    4    4    0    0 -0.58533697238E+01 -0.26122802745E+01 -0.20965136676E+03  0.20974933023E+03  0.00000000000E+00 0. -1.
<mgrwt>
<rscale>  0 0.79021055E+02</rscale>
<asrwt>0</asrwt>
<pdfrwt beam="1">  1        1 0.55574028E-03 0.79021055E+02</pdfrwt>
<pdfrwt beam="2">  1       -2 0.66485520E-01 0.79021055E+02</pdfrwt>
<totfact> 0.57877116E+04</totfact>
</mgrwt>
</event>
<event>
 8    1  0.8577104E-014  0.7430907E+02  0.7818608E-02  0.1346024E+00
          1   -1    0    0  501    0  0.00000000000E+00  0.00000000000E+00  0.22616690342E+02  0.22616690903E+02  0.50400000000E-02 0. -1.
         -2   -1    0    0    0  501 -0.00000000000E+00 -0.00000000000E+00 -0.61037199046E+02  0.61037199100E+02  0.25500000000E-02 0.  1.
        -24    2    1    2    0    0 -0.17763568394E-14 -0.17763568394E-14 -0.38420508705E+02  0.83653890003E+02  0.74309069591E+02 0.  0.
         66    2    3    3    0    0  0.14474382391E+02 -0.91800997556E+01 -0.56300198162E+02  0.58885433526E+02  0.19999978496E+01 0.  0.
         13    1    3    3    0    0 -0.14474382391E+02  0.91800997556E+01  0.17879689457E+02  0.24768456477E+02  0.10566000000E+00 0. -1.
         13    1    4    4    0    0  0.13134844715E+01 -0.80039483561E+00 -0.46023160335E+01  0.48536944957E+01  0.10566000000E+00 0. -1.
        -13    1    4    4    0    0  0.10692210800E+02 -0.59194458977E+01 -0.39929808416E+02  0.41758400062E+02  0.10566000000E+00 0.  1.
         14    1    4    4    0    0  0.24686871194E+01 -0.24602590223E+01 -0.11768073712E+02  0.12273338969E+02  0.00000000000E+00 0. -1.
<mgrwt>
<rscale>  0 0.74309070E+02</rscale>
<asrwt>0</asrwt>
<pdfrwt beam="1">  1        1 0.34794909E-02 0.74309070E+02</pdfrwt>
<pdfrwt beam="2">  1       -2 0.93903383E-02 0.74309070E+02</pdfrwt>
<totfact> 0.14220701E+05</totfact>
</mgrwt>
</event>
<event>
 8    1  0.8849418E-014  0.8122407E+02  0.7818608E-02  0.1325613E+00
          1   -1    0    0  501    0  0.00000000000E+00  0.00000000000E+00  0.53587188663E+01  0.53587212364E+01  0.50400000000E-02 0. -1.
         -2   -1    0    0    0  501 -0.00000000000E+00 -0.00000000000E+00 -0.30778571389E+03  0.30778571390E+03  0.25500000000E-02 0.  1.
        -24    2    1    2    0    0  0.00000000000E+00  0.00000000000E+00 -0.30242699502E+03  0.31314443514E+03  0.81224072406E+02 0.  0.
         66    2    3    3    0    0  0.93599153495E+01 -0.10604114934E+02 -0.29797306948E+03  0.29831527853E+03  0.20000001261E+01 0.  0.
         13    1    3    3    0    0 -0.93599153495E+01  0.10604114934E+02 -0.44539255446E+01  0.14829156607E+02  0.10566000000E+00 0. -1.
         13    1    4    4    0    0  0.22419134344E+01 -0.19779655695E+01 -0.59916538423E+02  0.59991176553E+02  0.10566000000E+00 0. -1.
        -13    1    4    4    0    0  0.63977457061E+01 -0.70253472396E+01 -0.20701122328E+03  0.20722920736E+03  0.10566000000E+00 0.  1.
         14    1    4    4    0    0  0.72025620902E+00 -0.16008021254E+01 -0.31045307770E+02  0.31094894613E+02  0.00000000000E+00 0. -1.
<mgrwt>
<rscale>  0 0.81224072E+02</rscale>
<asrwt>0</asrwt>
<pdfrwt beam="1">  1        1 0.82441871E-03 0.81224072E+02</pdfrwt>
<pdfrwt beam="2">  1       -2 0.47351635E-01 0.81224072E+02</pdfrwt>
<totfact> 0.66621242E+04</totfact>
</mgrwt>
</event>
<event>
 8    1  0.8577104E-014  0.7852279E+02  0.7818608E-02  0.1333297E+00
         -2   -1    0    0    0  501 -0.00000000000E+00  0.00000000000E+00  0.10265687549E+02  0.10265687865E+02  0.25500000000E-02 0.  1.
          1   -1    0    0  501    0  0.00000000000E+00 -0.00000000000E+00 -0.15015626068E+03  0.15015626077E+03  0.50400000000E-02 0. -1.
        -24    2    1    2    0    0  0.00000000000E+00  0.00000000000E+00 -0.13989057314E+03  0.16042194863E+03  0.78522793833E+02 0.  0.
         66    2    3    3    0    0 -0.32329921397E+02 -0.20063018764E+02 -0.50426352131E+02  0.63202575342E+02  0.20000002710E+01 0.  0.
         13    1    3    3    0    0  0.32329921397E+02  0.20063018764E+02 -0.89464221004E+02  0.97219373292E+02  0.10566000000E+00 0. -1.
         13    1    4    4    0    0 -0.38033677021E+00 -0.11672355278E+00 -0.35586688505E+00  0.54413759475E+00  0.10566000000E+00 0.  1.
        -13    1    4    4    0    0 -0.22995580949E+02 -0.14633723241E+02 -0.36469480747E+02  0.45529954855E+02  0.10566000000E+00 0.  1.
        -14    1    4    4    0    0 -0.89540036774E+01 -0.53125719700E+01 -0.13601004500E+02  0.17128482892E+02  0.00000000000E+00 0.  1.
<mgrwt>
<rscale>  0 0.78522794E+02</rscale>
<asrwt>0</asrwt>
<pdfrwt beam="1">  1        1 0.23100962E-01 0.78522794E+02</pdfrwt>
<pdfrwt beam="2">  1       -2 0.15793367E-02 0.78522794E+02</pdfrwt>
<totfact> 0.16596898E+05</totfact>
</mgrwt>
</event>
<event>
 8    1  0.8577104E-014  0.7921883E+02  0.7818608E-02  0.1331283E+00
         -2   -1    0    0    0  501 -0.00000000000E+00  0.00000000000E+00  0.18820430217E+02  0.18820430390E+02  0.25500000000E-02 0.  1.
          1   -1    0    0  501    0  0.00000000000E+00 -0.00000000000E+00 -0.83361851713E+02  0.83361851865E+02  0.50400000000E-02 0. -1.
        -24    2    1    2    0    0  0.00000000000E+00 -0.44408920985E-15 -0.64541421496E+02  0.10218228225E+03  0.79218834364E+02 0.  0.
         66    2    3    3    0    0  0.18695887689E+02 -0.35361740623E+01  0.12481706092E+02  0.22843678215E+02  0.19999759796E+01 0.  0.
         13    1    3    3    0    0 -0.18695887689E+02  0.35361740623E+01 -0.77023127588E+02  0.79338604040E+02  0.10566000000E+00 0. -1.
         13    1    4    4    0    0  0.97495219134E+00 -0.58539932000E+00  0.75269727433E+00  0.13678235857E+01  0.10566000000E+00 0. -1.
        -13    1    4    4    0    0  0.62589853935E+01 -0.12264086946E+01  0.46549328707E+01  0.78967423985E+01  0.10566000000E+00 0.  1.
        -14    1    4    4    0    0  0.11461950104E+02 -0.17243660476E+01  0.70740759472E+01  0.13579112231E+02  0.00000000000E+00 0.  1.
<mgrwt>
<rscale>  0 0.79218834E+02</rscale>
<asrwt>0</asrwt>
<pdfrwt beam="1">  1        1 0.12824900E-01 0.79218834E+02</pdfrwt>
<pdfrwt beam="2">  1       -2 0.28954509E-02 0.79218834E+02</pdfrwt>
<totfact> 0.14649514E+05</totfact>
</mgrwt>
</event>
<event>
 8    1  0.8577104E-014  0.7649056E+02  0.7818608E-02  0.1339316E+00
         -2   -1    0    0    0  501 -0.00000000000E+00  0.00000000000E+00  0.48317805374E+02  0.48317805441E+02  0.25500000000E-02 0.  1.
          1   -1    0    0  501    0  0.00000000000E+00 -0.00000000000E+00 -0.30272516846E+02  0.30272517265E+02  0.50400000000E-02 0. -1.
        -24    2    1    2    0    0  0.00000000000E+00  0.00000000000E+00  0.18045288528E+02  0.78590322706E+02  0.76490564026E+02 0.  0.
         66    2    3    3    0    0  0.15123558330E+02  0.30527903468E+02  0.26825418777E+02  0.43408271062E+02  0.19999993196E+01 0.  0.
         13    1    3    3    0    0 -0.15123558330E+02 -0.30527903468E+02 -0.87801302488E+01  0.35182051645E+02  0.10566000000E+00 0. -1.
         13    1    4    4    0    0  0.55486781282E+00  0.84886278120E+00  0.69635810737E+00  0.12347165506E+01  0.10566000000E+00 0. -1.
        -13    1    4    4    0    0  0.12621885708E+02  0.25264215668E+02  0.21589189096E+02  0.35548513921E+02  0.10566000000E+00 0.  1.
        -14    1    4    4    0    0  0.19468048091E+01  0.44148250190E+01  0.45398715732E+01  0.66250405897E+01  0.00000000000E+00 0.  1.
<mgrwt>
<rscale>  0 0.76490564E+02</rscale>
<asrwt>0</asrwt>
<pdfrwt beam="1">  1        1 0.46573104E-02 0.76490564E+02</pdfrwt>
<pdfrwt beam="2">  1       -2 0.74335084E-02 0.76490564E+02</pdfrwt>
<totfact> 0.13771495E+05</totfact>
</mgrwt>
</event>
<event>
 8    1  0.8577104E-014  0.8555287E+02  0.7818608E-02  0.1313993E+00
         -2   -1    0    0    0  501 -0.00000000000E+00  0.00000000000E+00  0.17117666455E+03  0.17117666457E+03  0.25500000000E-02 0.  1.
          1   -1    0    0  501    0  0.00000000000E+00 -0.00000000000E+00 -0.10689677106E+02  0.10689678294E+02  0.50400000000E-02 0. -1.
        -24    2    1    2    0    0  0.00000000000E+00  0.00000000000E+00  0.16048698744E+03  0.18186634286E+03  0.85552869778E+02 0.  0.
         66    2    3    3    0    0  0.35436779241E+02  0.23479619843E+02  0.89973047869E+02  0.99529931054E+02  0.19999904761E+01 0.  0.
         13    1    3    3    0    0 -0.35436779241E+02 -0.23479619843E+02  0.70513939571E+02  0.82336411805E+02  0.10566000000E+00 0. -1.
         13    1    4    4    0    0  0.34706558442E+01  0.19645659679E+01  0.87978743100E+01  0.96601618952E+01  0.10566000000E+00 0. -1.
        -13    1    4    4    0    0  0.21873833595E+02  0.15110349397E+02  0.57478003556E+02  0.63328661061E+02  0.10566000000E+00 0.  1.
         14    1    4    4    0    0  0.10092289801E+02  0.64047044782E+01  0.23697170003E+02  0.26541108098E+02  0.00000000000E+00 0. -1.
<mgrwt>
<rscale>  0 0.85552870E+02</rscale>
<asrwt>0</asrwt>
<pdfrwt beam="1">  1        1 0.16445659E-02 0.85552870E+02</pdfrwt>
<pdfrwt beam="2">  1       -2 0.26334870E-01 0.85552870E+02</pdfrwt>
<totfact> 0.75940563E+04</totfact>
</mgrwt>
</event>
<event>
 8    1  0.8577104E-014  0.7872255E+02  0.7818608E-02  0.1332716E+00
         -2   -1    0    0    0  501 -0.00000000000E+00  0.00000000000E+00  0.46260823978E+01  0.46260831006E+01  0.25500000000E-02 0.  1.
          1   -1    0    0  501    0  0.00000000000E+00 -0.00000000000E+00 -0.33490749430E+03  0.33490749434E+03  0.50400000000E-02 0. -1.
        -24    2    1    2    0    0  0.71054273576E-14 -0.55511151231E-16 -0.33028141191E+03  0.33953357744E+03  0.78722545437E+02 0.  0.
         66    2    3    3    0    0 -0.39248611989E+02  0.49371659023E+00 -0.15416029422E+03  0.15909146330E+03  0.20000200208E+01 0.  0.
         13    1    3    3    0    0  0.39248611989E+02 -0.49371659023E+00 -0.17612111769E+03  0.18044211415E+03  0.10566000000E+00 0. -1.
         13    1    4    4    0    0 -0.58316638425E+00  0.22296085726E-01 -0.17698813463E+01  0.18666076617E+01  0.10566000000E+00 0. -1.
        -13    1    4    4    0    0 -0.64292876808E+01  0.52677275380E+00 -0.25796921584E+02  0.26591456464E+02  0.10566000000E+00 0. -1.
        -14    1    4    4    0    0 -0.32236157924E+02 -0.55352249294E-01 -0.12659349129E+03  0.13063339917E+03  0.00000000000E+00 0.  1.
<mgrwt>
<rscale>  0 0.78722545E+02</rscale>
<asrwt>0</asrwt>
<pdfrwt beam="1">  1        1 0.51524211E-01 0.78722545E+02</pdfrwt>
<pdfrwt beam="2">  1       -2 0.71170530E-03 0.78722545E+02</pdfrwt>
<totfact> 0.19212668E+05</totfact>
</mgrwt>
</event>
<event>
 8    1  0.8577104E-014  0.7931648E+02  0.7818608E-02  0.1331002E+00
         -2   -1    0    0    0  501 -0.00000000000E+00  0.00000000000E+00  0.11068341554E+02  0.11068341848E+02  0.25500000000E-02 0.  1.
          1   -1    0    0  501    0  0.00000000000E+00 -0.00000000000E+00 -0.14209679817E+03  0.14209679826E+03  0.50400000000E-02 0. -1.
        -24    2    1    2    0    0  0.00000000000E+00  0.35527136788E-14 -0.13102845661E+03  0.15316514010E+03  0.79316478117E+02 0.  0.
         66    2    3    3    0    0 -0.25892235735E+02  0.28531104290E+02 -0.47612542146E+02  0.61281203893E+02  0.19999993861E+01 0.  0.
         13    1    3    3    0    0  0.25892235735E+02 -0.28531104290E+02 -0.83415914466E+02  0.91883936211E+02  0.10566000000E+00 0. -1.
         13    1    4    4    0    0 -0.52286927697E+01  0.67289317935E+01 -0.98869893671E+01  0.13053025471E+02  0.10566000000E+00 0.  1.
        -13    1    4    4    0    0 -0.12394281023E+02  0.13355121142E+02 -0.22486605187E+02  0.28941942569E+02  0.10566000000E+00 0.  1.
        -14    1    4    4    0    0 -0.82692619423E+01  0.84470513543E+01 -0.15238947592E+02  0.19286235853E+02  0.00000000000E+00 0.  1.
<mgrwt>
<rscale>  0 0.79316478E+02</rscale>
<asrwt>0</asrwt>
<pdfrwt beam="1">  1        1 0.21861045E-01 0.79316478E+02</pdfrwt>
<pdfrwt beam="2">  1       -2 0.17028219E-02 0.79316478E+02</pdfrwt>
<totfact> 0.15995272E+05</totfact>
</mgrwt>
</event>
<event>
 8    1  0.8577104E-014  0.7955723E+02  0.7818608E-02  0.1330313E+00
          1   -1    0    0  501    0  0.00000000000E+00  0.00000000000E+00  0.12155367483E+02  0.12155368528E+02  0.50400000000E-02 0. -1.
         -2   -1    0    0    0  501 -0.00000000000E+00 -0.00000000000E+00 -0.13017607995E+03  0.13017607998E+03  0.25500000000E-02 0.  1.
        -24    2    1    2    0    0  0.35527136788E-14  0.35527136788E-14 -0.11802071247E+03  0.14233144851E+03  0.79557228849E+02 0.  0.
         66    2    3    3    0    0  0.27881264295E+02 -0.18689745636E+02 -0.97153012491E+02  0.10280748670E+03  0.19999986298E+01 0.  0.
         13    1    3    3    0    0 -0.27881264295E+02  0.18689745636E+02 -0.20867699980E+02  0.39523961809E+02  0.10566000000E+00 0. -1.
         13    1    4    4    0    0  0.16562873290E+02 -0.10335249785E+02 -0.54761798281E+02  0.58137869541E+02  0.10566000000E+00 0. -1.
        -13    1    4    4    0    0  0.10026084654E+02 -0.71701163086E+01 -0.37476797264E+02  0.39451925663E+02  0.10566000000E+00 0.  1.
        -14    1    4    4    0    0  0.12923063506E+01 -0.11843795429E+01 -0.49144169461E+01  0.52176914939E+01  0.00000000000E+00 0.  1.
<mgrwt>
<rscale>  0 0.79557229E+02</rscale>
<asrwt>0</asrwt>
<pdfrwt beam="1">  1        1 0.18700567E-02 0.79557229E+02</pdfrwt>
<pdfrwt beam="2">  1       -2 0.20027088E-01 0.79557229E+02</pdfrwt>
<totfact> 0.10021245E+05</totfact>
</mgrwt>
</event>
<event>
 8    1  0.8577104E-014  0.8027323E+02  0.7818608E-02  0.1328278E+00
         -2   -1    0    0    0  501 -0.00000000000E+00  0.00000000000E+00  0.10349398981E+02  0.10349399295E+02  0.25500000000E-02 0.  1.
          1   -1    0    0  501    0  0.00000000000E+00 -0.00000000000E+00 -0.15565618688E+03  0.15565618696E+03  0.50400000000E-02 0. -1.
        -24    2    1    2    0    0  0.00000000000E+00  0.00000000000E+00 -0.14530678790E+03  0.16600558625E+03  0.80273233762E+02 0.  0.
         66    2    3    3    0    0 -0.89483074475E+01 -0.30911548997E+02 -0.23180638481E+02  0.39710678982E+02  0.19999893115E+01 0.  0.
         13    1    3    3    0    0  0.89483074475E+01  0.30911548997E+02 -0.12212614942E+03  0.12629490727E+03  0.10566000000E+00 0. -1.
         13    1    4    4    0    0 -0.12229357110E+01 -0.48427709859E+01 -0.41967389694E+01  0.65247057089E+01  0.10566000000E+00 0.  1.
        -13    1    4    4    0    0 -0.70107954638E+01 -0.24081083667E+02 -0.17886709316E+02  0.30805768580E+02  0.10566000000E+00 0.  1.
        -14    1    4    4    0    0 -0.71457627273E+00 -0.19876943439E+01 -0.10971901953E+01  0.23802046927E+01  0.00000000000E+00 0.  1.
<mgrwt>
<rscale>  0 0.80273234E+02</rscale>
<asrwt>0</asrwt>
<pdfrwt beam="1">  1        1 0.23947104E-01 0.80273234E+02</pdfrwt>
<pdfrwt beam="2">  1       -2 0.15922154E-02 0.80273234E+02</pdfrwt>
<totfact> 0.15752969E+05</totfact>
</mgrwt>
</event>
<event>
 8    1  0.8577104E-014  0.8119344E+02  0.7818608E-02  0.1325698E+00
          1   -1    0    0  501    0  0.00000000000E+00  0.00000000000E+00  0.12620867574E+02  0.12620868580E+02  0.50400000000E-02 0. -1.
         -2   -1    0    0    0  501 -0.00000000000E+00 -0.00000000000E+00 -0.13058480822E+03  0.13058480825E+03  0.25500000000E-02 0.  1.
        -24    2    1    2    0    0  0.17763568394E-14  0.00000000000E+00 -0.11796394065E+03  0.14320567683E+03  0.81193439282E+02 0.  0.
         66    2    3    3    0    0  0.10279092905E+02  0.10852566754E+02 -0.12554320305E+03  0.12644577413E+03  0.20000014705E+01 0.  0.
         13    1    3    3    0    0 -0.10279092905E+02 -0.10852566754E+02  0.75792623999E+01  0.16759902704E+02  0.10566000000E+00 0. -1.
         13    1    4    4    0    0  0.56174739000E+01  0.56632073906E+01 -0.71296115234E+02  0.71741028306E+02  0.10566000000E+00 0. -1.
        -13    1    4    4    0    0  0.38112028918E+01  0.45404371200E+01 -0.48261732960E+02  0.48624550066E+02  0.10566000000E+00 0.  1.
         14    1    4    4    0    0  0.85041611294E+00  0.64892224338E+00 -0.59853548565E+01  0.60801957536E+01  0.00000000000E+00 0. -1.
<mgrwt>
<rscale>  0 0.81193439E+02</rscale>
<asrwt>0</asrwt>
<pdfrwt beam="1">  1        1 0.19416721E-02 0.81193439E+02</pdfrwt>
<pdfrwt beam="2">  1       -2 0.20089970E-01 0.81193439E+02</pdfrwt>
<totfact> 0.95015380E+04</totfact>
</mgrwt>
</event>
<event>
 8    1  0.8577104E-014  0.8012176E+02  0.7818608E-02  0.1328706E+00
         -2   -1    0    0    0  501 -0.00000000000E+00  0.00000000000E+00  0.13346581692E+03  0.13346581695E+03  0.25500000000E-02 0.  1.
          1   -1    0    0  501    0  0.00000000000E+00 -0.00000000000E+00 -0.12024606324E+02  0.12024607380E+02  0.50400000000E-02 0. -1.
        -24    2    1    2    0    0  0.17763568394E-14 -0.71054273576E-14  0.12144121060E+03  0.14549042433E+03  0.80121756964E+02 0.  0.
         66    2    3    3    0    0  0.15809422641E+02 -0.36263782605E+02  0.71932813502E+02  0.82117777860E+02  0.20000023110E+01 0.  0.
         13    1    3    3    0    0 -0.15809422641E+02  0.36263782605E+02  0.49508397096E+02  0.63372646466E+02  0.10566000000E+00 0. -1.
         13    1    4    4    0    0  0.52927118635E+01 -0.12611283479E+02  0.26000969479E+02  0.29378884385E+02  0.10566000000E+00 0.  1.
        -13    1    4    4    0    0  0.22883306875E+01 -0.62835514622E+01  0.11263214211E+02  0.13099260846E+02  0.10566000000E+00 0. -1.
         14    1    4    4    0    0  0.82283800904E+01 -0.17368947663E+02  0.34668629813E+02  0.39639632628E+02  0.00000000000E+00 0. -1.
<mgrwt>
<rscale>  0 0.80121757E+02</rscale>
<asrwt>0</asrwt>
<pdfrwt beam="1">  1        1 0.18499394E-02 0.80121757E+02</pdfrwt>
<pdfrwt beam="2">  1       -2 0.20533204E-01 0.80121757E+02</pdfrwt>
<totfact> 0.97674168E+04</totfact>
</mgrwt>
</event>
<event>
 8    1  0.8577104E-014  0.7735238E+02  0.7818608E-02  0.1336737E+00
         -2   -1    0    0    0  501 -0.00000000000E+00  0.00000000000E+00  0.13756113929E+02  0.13756114165E+02  0.25500000000E-02 0.  1.
          1   -1    0    0  501    0  0.00000000000E+00 -0.00000000000E+00 -0.10874057258E+03  0.10874057270E+03  0.50400000000E-02 0. -1.
        -24    2    1    2    0    0 -0.71054273576E-14  0.35527136788E-14 -0.94984458653E+02  0.12249668686E+03  0.77352381391E+02 0.  0.
         66    2    3    3    0    0 -0.27150414278E+02  0.17016383712E+02 -0.81751329648E+02  0.87829278864E+02  0.20000041155E+01 0.  0.
         13    1    3    3    0    0  0.27150414278E+02 -0.17016383712E+02 -0.13233129006E+02  0.34667408000E+02  0.10566000000E+00 0. -1.
         13    1    4    4    0    0 -0.20098091992E+01  0.11159207194E+01 -0.61588500334E+01  0.65747402867E+01  0.10566000000E+00 0. -1.
        -13    1    4    4    0    0 -0.96264672515E+01  0.53691630947E+01 -0.26344890581E+02  0.28558032282E+02  0.10566000000E+00 0.  1.
         14    1    4    4    0    0 -0.15514137828E+02  0.10531299897E+02 -0.49247589034E+02  0.52696506295E+02  0.00000000000E+00 0. -1.
<mgrwt>
<rscale>  0 0.77352381E+02</rscale>
<asrwt>0</asrwt>
<pdfrwt beam="1">  1        1 0.16729318E-01 0.77352381E+02</pdfrwt>
<pdfrwt beam="2">  1       -2 0.21163253E-02 0.77352381E+02</pdfrwt>
<totfact> 0.16322398E+05</totfact>
</mgrwt>
</event>
<event>
 8    1  0.8577104E-014  0.7998932E+02  0.7818608E-02  0.1329082E+00
         -2   -1    0    0    0  501 -0.00000000000E+00  0.00000000000E+00  0.37452595723E+02  0.37452595810E+02  0.25500000000E-02 0.  1.
          1   -1    0    0  501    0  0.00000000000E+00 -0.00000000000E+00 -0.42709268266E+02  0.42709268563E+02  0.50400000000E-02 0. -1.
        -24    2    1    2    0    0 -0.71054273576E-14  0.35527136788E-14 -0.52566725432E+01  0.80161864373E+02  0.79989323622E+02 0.  0.
         66    2    3    3    0    0  0.26965120761E+02 -0.29430242202E+02 -0.47107766611E+01  0.40242369636E+02  0.20000008720E+01 0.  0.
         13    1    3    3    0    0 -0.26965120761E+02  0.29430242202E+02 -0.54589588208E+00  0.39919494737E+02  0.10566000000E+00 0. -1.
         13    1    4    4    0    0  0.80865107883E+01 -0.92920240071E+01 -0.19064100631E+01  0.12465108513E+02  0.10566000000E+00 0. -1.
        -13    1    4    4    0    0  0.59163542912E+01 -0.69273977082E+01 -0.13800512467E+01  0.92145424513E+01  0.10566000000E+00 0.  1.
         14    1    4    4    0    0  0.12962255682E+02 -0.13210820486E+02 -0.14243153514E+01  0.18562718672E+02  0.00000000000E+00 0. -1.
<mgrwt>
<rscale>  0 0.79989324E+02</rscale>
<asrwt>0</asrwt>
<pdfrwt beam="1">  1        1 0.65706567E-02 0.79989324E+02</pdfrwt>
<pdfrwt beam="2">  1       -2 0.57619378E-02 0.79989324E+02</pdfrwt>
<totfact> 0.12837245E+05</totfact>
</mgrwt>
</event>
<event>
 8    1  0.8577104E-014  0.7953836E+02  0.7818608E-02  0.1330367E+00
         -2   -1    0    0    0  501 -0.00000000000E+00  0.00000000000E+00  0.10109351804E+02  0.10109352126E+02  0.25500000000E-02 0.  1.
          1   -1    0    0  501    0  0.00000000000E+00 -0.00000000000E+00 -0.15644798536E+03  0.15644798544E+03  0.50400000000E-02 0. -1.
        -24    2    1    2    0    0  0.00000000000E+00  0.00000000000E+00 -0.14633863356E+03  0.16655733757E+03  0.79538361981E+02 0.  0.
         66    2    3    3    0    0  0.10998459678E+02  0.32445054716E+02 -0.31024876653E+02  0.46262194748E+02  0.20000001916E+01 0.  0.
         13    1    3    3    0    0 -0.10998459678E+02 -0.32445054716E+02 -0.11531375691E+03  0.12029514282E+03  0.10566000000E+00 0. -1.
         13    1    4    4    0    0  0.22933527259E+01  0.77134625749E+01 -0.77083634294E+01  0.11143922219E+02  0.10566000000E+00 0. -1.
        -13    1    4    4    0    0  0.63501907830E+01  0.16519900580E+02 -0.15085783011E+02  0.23255624078E+02  0.10566000000E+00 0.  1.
        -14    1    4    4    0    0  0.23549161694E+01  0.82116915609E+01 -0.82307302123E+01  0.11862648451E+02  0.00000000000E+00 0.  1.
<mgrwt>
<rscale>  0 0.79538362E+02</rscale>
<asrwt>0</asrwt>
<pdfrwt beam="1">  1        1 0.24068919E-01 0.79538362E+02</pdfrwt>
<pdfrwt beam="2">  1       -2 0.15552850E-02 0.79538362E+02</pdfrwt>
<totfact> 0.16159694E+05</totfact>
</mgrwt>
</event>
<event>
 8    1  0.8577104E-014  0.8020300E+02  0.7818608E-02  0.1328476E+00
          1   -1    0    0  501    0  0.00000000000E+00  0.00000000000E+00  0.16581901481E+02  0.16581902247E+02  0.50400000000E-02 0. -1.
         -2   -1    0    0    0  501 -0.00000000000E+00 -0.00000000000E+00 -0.96981047367E+02  0.96981047400E+02  0.25500000000E-02 0.  1.
        -24    2    1    2    0    0 -0.35527136788E-14  0.00000000000E+00 -0.80399145886E+02  0.11356294965E+03  0.80202997907E+02 0.  0.
         66    2    3    3    0    0 -0.22171524031E+02  0.52324494208E+01 -0.86911379818E+02  0.89869588560E+02  0.20000003419E+01 0.  0.
         13    1    3    3    0    0  0.22171524031E+02 -0.52324494208E+01  0.65122339316E+01  0.23693361087E+02  0.10566000000E+00 0. -1.
         13    1    4    4    0    0 -0.87613672386E+01  0.13800152703E+01 -0.34863822172E+02  0.35974480657E+02  0.10566000000E+00 0. -1.
        -13    1    4    4    0    0 -0.62695703921E+01  0.13313220317E+01 -0.22972243598E+02  0.23849844260E+02  0.10566000000E+00 0.  1.
        -14    1    4    4    0    0 -0.71405863998E+01  0.25211121188E+01 -0.29075314048E+02  0.30045263644E+02  0.00000000000E+00 0.  1.
<mgrwt>
<rscale>  0 0.80202998E+02</rscale>
<asrwt>0</asrwt>
<pdfrwt beam="1">  1        1 0.25510619E-02 0.80202998E+02</pdfrwt>
<pdfrwt beam="2">  1       -2 0.14920161E-01 0.80202998E+02</pdfrwt>
<totfact> 0.10623982E+05</totfact>
</mgrwt>
</event>
<event>
 8    1  0.8577104E-014  0.7990199E+02  0.7818608E-02  0.1329330E+00
          1   -1    0    0  501    0  0.00000000000E+00  0.00000000000E+00  0.15736533060E+03  0.15736533068E+03  0.50400000000E-02 0. -1.
         -2   -1    0    0    0  501 -0.00000000000E+00 -0.00000000000E+00 -0.10142525277E+02  0.10142525597E+02  0.25500000000E-02 0.  1.
        -24    2    1    2    0    0  0.00000000000E+00  0.00000000000E+00  0.14722280532E+03  0.16750785627E+03  0.79901986880E+02 0.  0.
         66    2    3    3    0    0  0.99523149473E+01 -0.36608889975E+02  0.47572585904E+02  0.60880295148E+02  0.20000024347E+01 0.  0.
         13    1    3    3    0    0 -0.99523149473E+01  0.36608889975E+02  0.99650219415E+02  0.10662756113E+03  0.10566000000E+00 0. -1.
         13    1    4    4    0    0  0.22306268978E+01 -0.93340852922E+01  0.11052279206E+02  0.14637789597E+02  0.10566000000E+00 0. -1.
        -13    1    4    4    0    0  0.57420536257E+01 -0.19761241150E+02  0.25780470510E+02  0.32986689064E+02  0.10566000000E+00 0.  1.
         14    1    4    4    0    0  0.19796344238E+01 -0.75135635329E+01  0.10739836188E+02  0.13255816488E+02  0.00000000000E+00 0. -1.
<mgrwt>
<rscale>  0 0.79901987E+02</rscale>
<asrwt>0</asrwt>
<pdfrwt beam="1">  1        1 0.24210050E-01 0.79901987E+02</pdfrwt>
<pdfrwt beam="2">  1       -2 0.15603886E-02 0.79901987E+02</pdfrwt>
<totfact> 0.15981585E+05</totfact>
</mgrwt>
</event>
<event>
 8    1  0.8577104E-014  0.8213754E+02  0.7818608E-02  0.1323093E+00
         -2   -1    0    0    0  501 -0.00000000000E+00  0.00000000000E+00  0.10718613495E+03  0.10718613498E+03  0.25500000000E-02 0.  1.
          1   -1    0    0  501    0  0.00000000000E+00 -0.00000000000E+00 -0.15735652546E+02  0.15735653353E+02  0.50400000000E-02 0. -1.
        -24    2    1    2    0    0  0.00000000000E+00 -0.35527136788E-14  0.91450482401E+02  0.12292178833E+03  0.82137539013E+02 0.  0.
         66    2    3    3    0    0 -0.12857512008E+02  0.21909664789E+02  0.93997632012E+02  0.97390471064E+02  0.20000009962E+01 0.  0.
         13    1    3    3    0    0  0.12857512008E+02 -0.21909664789E+02 -0.25471496112E+01  0.25531317267E+02  0.10566000000E+00 0. -1.
         13    1    4    4    0    0 -0.23694092551E+01  0.32449513397E+01  0.14520324375E+02  0.15066346385E+02  0.10566000000E+00 0. -1.
        -13    1    4    4    0    0 -0.10106847426E+02  0.17267310623E+02  0.74565135277E+02  0.77202842849E+02  0.10566000000E+00 0.  1.
        -14    1    4    4    0    0 -0.38125532701E+00  0.13974028266E+01  0.49121723607E+01  0.51212818303E+01  0.00000000000E+00 0.  1.
<mgrwt>
<rscale>  0 0.82137539E+02</rscale>
<asrwt>0</asrwt>
<pdfrwt beam="1">  1        1 0.24208697E-02 0.82137539E+02</pdfrwt>
<pdfrwt beam="2">  1       -2 0.16490175E-01 0.82137539E+02</pdfrwt>
<totfact> 0.97457301E+04</totfact>
</mgrwt>
</event>
<event>
 8    1  0.8577104E-014  0.8230678E+02  0.7818608E-02  0.1322630E+00
         -2   -1    0    0    0  501 -0.00000000000E+00  0.00000000000E+00  0.50084521769E+02  0.50084521834E+02  0.25500000000E-02 0.  1.
          1   -1    0    0  501    0  0.00000000000E+00 -0.00000000000E+00 -0.33814870962E+02  0.33814871337E+02  0.50400000000E-02 0. -1.
        -24    2    1    2    0    0  0.00000000000E+00  0.00000000000E+00  0.16269650807E+02  0.83899393171E+02  0.82306783664E+02 0.  0.
         66    2    3    3    0    0 -0.21212567972E+01 -0.37743975063E+02 -0.83753996479E+01  0.38771828869E+02  0.20000026590E+01 0.  0.
         13    1    3    3    0    0  0.21212567972E+01  0.37743975063E+02  0.24645050455E+02  0.45127564303E+02  0.10566000000E+00 0. -1.
         13    1    4    4    0    0  0.15293437617E+00 -0.61081064640E+01 -0.16960037464E+01  0.63419197600E+01  0.10566000000E+00 0. -1.
        -13    1    4    4    0    0 -0.15839146171E+01 -0.22903738154E+02 -0.43650710539E+01  0.23369959698E+02  0.10566000000E+00 0.  1.
        -14    1    4    4    0    0 -0.69027655625E+00 -0.87321304449E+01 -0.23143248476E+01  0.90599494111E+01  0.00000000000E+00 0.  1.
<mgrwt>
<rscale>  0 0.82306784E+02</rscale>
<asrwt>0</asrwt>
<pdfrwt beam="1">  1        1 0.52022880E-02 0.82306784E+02</pdfrwt>
<pdfrwt beam="2">  1       -2 0.77053109E-02 0.82306784E+02</pdfrwt>
<totfact> 0.11384996E+05</totfact>
</mgrwt>
</event>
<event>
 8    1  0.8577104E-014  0.7471060E+02  0.7818608E-02  0.1344770E+00
         -2   -1    0    0    0  501 -0.00000000000E+00  0.00000000000E+00  0.14939448958E+03  0.14939448960E+03  0.25500000000E-02 0.  1.
          1   -1    0    0  501    0  0.00000000000E+00 -0.00000000000E+00 -0.93404944185E+01  0.93404957782E+01  0.50400000000E-02 0. -1.
        -24    2    1    2    0    0 -0.35527136788E-14  0.00000000000E+00  0.14005399516E+03  0.15873498538E+03  0.74710601810E+02 0.  0.
         66    2    3    3    0    0 -0.23329813631E+02 -0.28241873031E+02  0.85328825200E+02  0.92881063798E+02  0.20000014786E+01 0.  0.
         13    1    3    3    0    0  0.23329813631E+02  0.28241873031E+02  0.54725169960E+02  0.65853921580E+02  0.10566000000E+00 0. -1.
         13    1    4    4    0    0 -0.21742480958E+01 -0.32734734461E+01  0.92179701269E+01  0.10021233481E+02  0.10566000000E+00 0. -1.
        -13    1    4    4    0    0 -0.11040354876E+02 -0.12345520096E+02  0.37175127424E+02  0.40697697297E+02  0.10566000000E+00 0.  1.
        -14    1    4    4    0    0 -0.10115210659E+02 -0.12622879489E+02  0.38935727649E+02  0.42162133020E+02  0.00000000000E+00 0.  1.
<mgrwt>
<rscale>  0 0.74710602E+02</rscale>
<asrwt>0</asrwt>
<pdfrwt beam="1">  1        1 0.14369993E-02 0.74710602E+02</pdfrwt>
<pdfrwt beam="2">  1       -2 0.22983767E-01 0.74710602E+02</pdfrwt>
<totfact> 0.11280826E+05</totfact>
</mgrwt>
</event>
<event>
 8    1  0.8577104E-014  0.8065443E+02  0.7818608E-02  0.1327204E+00
          1   -1    0    0  501    0  0.00000000000E+00  0.00000000000E+00  0.11029589053E+02  0.11029590204E+02  0.50400000000E-02 0. -1.
         -2   -1    0    0    0  501 -0.00000000000E+00 -0.00000000000E+00 -0.14744739194E+03  0.14744739196E+03  0.25500000000E-02 0.  1.
        -24    2    1    2    0    0 -0.35527136788E-14  0.17763568394E-14 -0.13641780289E+03  0.15847698217E+03  0.80654429091E+02 0.  0.
         66    2    3    3    0    0  0.26757950943E+02 -0.13571518723E+02 -0.12112431671E+03  0.12480093812E+03  0.19999995022E+01 0.  0.
         13    1    3    3    0    0 -0.26757950943E+02  0.13571518723E+02 -0.15293486178E+02  0.33676044047E+02  0.10566000000E+00 0. -1.
         13    1    4    4    0    0  0.42892352633E+01 -0.20097659198E+01 -0.17315067166E+02  0.17951585256E+02  0.10566000000E+00 0. -1.
        -13    1    4    4    0    0  0.18791842265E+02 -0.95696543766E+01 -0.84402429614E+02  0.86997085638E+02  0.10566000000E+00 0.  1.
        -14    1    4    4    0    0  0.36768734154E+01 -0.19920984267E+01 -0.19406819929E+02  0.19852267226E+02  0.00000000000E+00 0.  1.
<mgrwt>
<rscale>  0 0.80654429E+02</rscale>
<asrwt>0</asrwt>
<pdfrwt beam="1">  1        1 0.16968601E-02 0.80654429E+02</pdfrwt>
<pdfrwt beam="2">  1       -2 0.22684213E-01 0.80654429E+02</pdfrwt>
<totfact> 0.93069468E+04</totfact>
</mgrwt>
</event>
<event>
 8    1  0.8577104E-014  0.8093538E+02  0.7818608E-02  0.1326418E+00
         -2   -1    0    0    0  501 -0.00000000000E+00  0.00000000000E+00  0.29896102692E+02  0.29896102801E+02  0.25500000000E-02 0.  1.
          1   -1    0    0  501    0  0.00000000000E+00 -0.00000000000E+00 -0.54777504907E+02  0.54777505139E+02  0.50400000000E-02 0. -1.
        -24    2    1    2    0    0  0.00000000000E+00  0.00000000000E+00 -0.24881402215E+02  0.84673607940E+02  0.80935379812E+02 0.  0.
         66    2    3    3    0    0 -0.33311918818E+02  0.94053001488E+00  0.11524276834E+02  0.35318231706E+02  0.20000005630E+01 0.  0.
         13    1    3    3    0    0  0.33311918818E+02 -0.94053001488E+00 -0.36405679049E+02  0.49355376233E+02  0.10566000000E+00 0. -1.
         13    1    4    4    0    0 -0.87267043712E+01  0.31495968002E+00  0.35499702126E+01  0.94269836813E+01  0.10566000000E+00 0. -1.
        -13    1    4    4    0    0 -0.73558503868E+01  0.26603580175E+00  0.17322330503E+01  0.75624801049E+01  0.10566000000E+00 0.  1.
         14    1    4    4    0    0 -0.17229364060E+02  0.35953453311E+00  0.62420735715E+01  0.18328767920E+02  0.00000000000E+00 0. -1.
<mgrwt>
<rscale>  0 0.80935380E+02</rscale>
<asrwt>0</asrwt>
<pdfrwt beam="1">  1        1 0.84273085E-02 0.80935380E+02</pdfrwt>
<pdfrwt beam="2">  1       -2 0.45994004E-02 0.80935380E+02</pdfrwt>
<totfact> 0.12923688E+05</totfact>
</mgrwt>
</event>
<event>
 8    1  0.8577104E-014  0.7423725E+02  0.7818608E-02  0.1346249E+00
         -2   -1    0    0    0  501 -0.00000000000E+00  0.00000000000E+00  0.82001111615E+02  0.82001111655E+02  0.25500000000E-02 0.  1.
          1   -1    0    0  501    0  0.00000000000E+00 -0.00000000000E+00 -0.16802118575E+02  0.16802119331E+02  0.50400000000E-02 0. -1.
        -24    2    1    2    0    0  0.00000000000E+00  0.00000000000E+00  0.65198993040E+02  0.98803230986E+02  0.74237253180E+02 0.  0.
         66    2    3    3    0    0 -0.11085836782E+02  0.19059292262E+02  0.72319866232E+02  0.75632767077E+02  0.20000012929E+01 0.  0.
         13    1    3    3    0    0  0.11085836782E+02 -0.19059292262E+02 -0.71208731920E+01  0.23170463909E+02  0.10566000000E+00 0. -1.
         13    1    4    4    0    0 -0.27080309503E+01  0.47483744178E+01  0.17144555972E+02  0.17995206438E+02  0.10566000000E+00 0. -1.
        -13    1    4    4    0    0 -0.17893614759E+01  0.20181809365E+01  0.79437454808E+01  0.83898227086E+01  0.10566000000E+00 0.  1.
        -14    1    4    4    0    0 -0.65884443559E+01  0.12292736908E+02  0.47231564779E+02  0.49247737930E+02  0.00000000000E+00 0.  1.
<mgrwt>
<rscale>  0 0.74237253E+02</rscale>
<asrwt>0</asrwt>
<pdfrwt beam="1">  1        1 0.25849414E-02 0.74237253E+02</pdfrwt>
<pdfrwt beam="2">  1       -2 0.12615556E-01 0.74237253E+02</pdfrwt>
<totfact> 0.13445787E+05</totfact>
</mgrwt>
</event>
<event>
 8    1  0.8577104E-014  0.8089112E+02  0.7818608E-02  0.1326541E+00
         -2   -1    0    0    0  501 -0.00000000000E+00  0.00000000000E+00  0.53289644598E+02  0.53289644659E+02  0.25500000000E-02 0.  1.
          1   -1    0    0  501    0  0.00000000000E+00 -0.00000000000E+00 -0.30697206081E+02  0.30697206495E+02  0.50400000000E-02 0. -1.
        -24    2    1    2    0    0  0.00000000000E+00 -0.35527136788E-14  0.22592438517E+02  0.83986851154E+02  0.80891117489E+02 0.  0.
         66    2    3    3    0    0 -0.21823919489E+02 -0.29169272282E+02  0.29486428663E+02  0.46910333363E+02  0.19999983942E+01 0.  0.
         13    1    3    3    0    0  0.21823919489E+02  0.29169272282E+02 -0.68939901458E+01  0.37076517791E+02  0.10566000000E+00 0. -1.
         13    1    4    4    0    0 -0.64857194748E+01 -0.93068786741E+01  0.93915864371E+01  0.14727376128E+02  0.10566000000E+00 0. -1.
        -13    1    4    4    0    0 -0.19981685599E+01 -0.24328537478E+01  0.19455665725E+01  0.37024111435E+01  0.10566000000E+00 0.  1.
        -14    1    4    4    0    0 -0.13340031454E+02 -0.17429539861E+02  0.18149275653E+02  0.28480546092E+02  0.00000000000E+00 0.  1.
<mgrwt>
<rscale>  0 0.80891117E+02</rscale>
<asrwt>0</asrwt>
<pdfrwt beam="1">  1        1 0.47226472E-02 0.80891117E+02</pdfrwt>
<pdfrwt beam="2">  1       -2 0.81984067E-02 0.80891117E+02</pdfrwt>
<totfact> 0.11763559E+05</totfact>
</mgrwt>
</event>
<event>
 8    1  0.8577104E-014  0.7677097E+02  0.7818608E-02  0.1338473E+00
          1   -1    0    0  501    0  0.00000000000E+00  0.00000000000E+00  0.21673376852E+02  0.21673377438E+02  0.50400000000E-02 0. -1.
         -2   -1    0    0    0  501 -0.00000000000E+00 -0.00000000000E+00 -0.67984110250E+02  0.67984110298E+02  0.25500000000E-02 0.  1.
        -24    2    1    2    0    0  0.22204460493E-15  0.00000000000E+00 -0.46310733398E+02  0.89657487736E+02  0.76770965080E+02 0.  0.
         66    2    3    3    0    0 -0.10112490790E+01  0.28441867889E+02 -0.53207393107E+02  0.60373745610E+02  0.20000010051E+01 0.  0.
         13    1    3    3    0    0  0.10112490790E+01 -0.28441867889E+02  0.68966597090E+01  0.29283742126E+02  0.10566000000E+00 0. -1.
         13    1    4    4    0    0 -0.55001580135E+00  0.52736769466E+01 -0.88745916304E+01  0.10338458616E+02  0.10566000000E+00 0. -1.
        -13    1    4    4    0    0  0.33879853677E+00  0.60108243291E+01 -0.11634235881E+02  0.13100053517E+02  0.10566000000E+00 0.  1.
         14    1    4    4    0    0 -0.80003181438E+00  0.17157366614E+02 -0.32698565595E+02  0.36935233477E+02  0.00000000000E+00 0. -1.
<mgrwt>
<rscale>  0 0.76770965E+02</rscale>
<asrwt>0</asrwt>
<pdfrwt beam="1">  1        1 0.33343658E-02 0.76770965E+02</pdfrwt>
<pdfrwt beam="2">  1       -2 0.10459094E-01 0.76770965E+02</pdfrwt>
<totfact> 0.12831796E+05</totfact>
</mgrwt>
</event>
<event>
 8    1  0.8577104E-014  0.8206928E+02  0.7818608E-02  0.1323280E+00
          1   -1    0    0  501    0  0.00000000000E+00  0.00000000000E+00  0.91151426096E+01  0.91151440030E+01  0.50400000000E-02 0. -1.
         -2   -1    0    0    0  501 -0.00000000000E+00 -0.00000000000E+00 -0.18473013457E+03  0.18473013459E+03  0.25500000000E-02 0.  1.
        -24    2    1    2    0    0  0.00000000000E+00  0.00000000000E+00 -0.17561499196E+03  0.19384527859E+03  0.82069279458E+02 0.  0.
         66    2    3    3    0    0  0.13874685875E+02  0.37673641955E+02 -0.68094093569E+02  0.79073483444E+02  0.19999996688E+01 0.  0.
         13    1    3    3    0    0 -0.13874685875E+02 -0.37673641955E+02 -0.10752089840E+03  0.11477179515E+03  0.10566000000E+00 0. -1.
         13    1    4    4    0    0  0.27397336883E+01  0.72680280255E+01 -0.12038712022E+02  0.14327320868E+02  0.10566000000E+00 0. -1.
        -13    1    4    4    0    0  0.41136607399E+01  0.12488319898E+02 -0.22015359548E+02  0.25643080132E+02  0.10566000000E+00 0.  1.
         14    1    4    4    0    0  0.70212914465E+01  0.17917294031E+02 -0.34040021999E+02  0.39103082445E+02  0.00000000000E+00 0. -1.
<mgrwt>
<rscale>  0 0.82069279E+02</rscale>
<asrwt>0</asrwt>
<pdfrwt beam="1">  1        1 0.14023299E-02 0.82069279E+02</pdfrwt>
<pdfrwt beam="2">  1       -2 0.28420018E-01 0.82069279E+02</pdfrwt>
<totfact> 0.82184235E+04</totfact>
</mgrwt>
</event>
<event>
 8    1  0.8577104E-014  0.8009429E+02  0.7818608E-02  0.1328784E+00
         -2   -1    0    0    0  501 -0.00000000000E+00  0.00000000000E+00  0.21445267038E+02  0.21445267189E+02  0.25500000000E-02 0.  1.
          1   -1    0    0  501    0  0.00000000000E+00 -0.00000000000E+00 -0.74784513789E+02  0.74784513959E+02  0.50400000000E-02 0. -1.
        -24    2    1    2    0    0  0.00000000000E+00  0.00000000000E+00 -0.53339246752E+02  0.96229781148E+02  0.80094291531E+02 0.  0.
         66    2    3    3    0    0 -0.23361831788E+01  0.18471215950E+02  0.15878680843E+02  0.24551498279E+02  0.19999979756E+01 0.  0.
         13    1    3    3    0    0  0.23361831788E+01 -0.18471215950E+02 -0.69217927595E+02  0.71678282870E+02  0.10566000000E+00 0. -1.
         13    1    4    4    0    0  0.16047750821E-01  0.88350731895E+00  0.12197647485E+01  0.15099115173E+01  0.10566000000E+00 0. -1.
        -13    1    4    4    0    0 -0.17642584883E+01  0.15201602005E+02  0.12285901934E+02  0.19625388198E+02  0.10566000000E+00 0.  1.
         14    1    4    4    0    0 -0.58797244125E+00  0.23861066255E+01  0.23730141606E+01  0.34161985637E+01  0.00000000000E+00 0. -1.
<mgrwt>
<rscale>  0 0.80094292E+02</rscale>
<asrwt>0</asrwt>
<pdfrwt beam="1">  1        1 0.11505310E-01 0.80094292E+02</pdfrwt>
<pdfrwt beam="2">  1       -2 0.32992719E-02 0.80094292E+02</pdfrwt>
<totfact> 0.13972072E+05</totfact>
</mgrwt>
</event>
<event>
 8    1  0.8577104E-014  0.8035381E+02  0.7818608E-02  0.1328050E+00
          1   -1    0    0  501    0  0.00000000000E+00  0.00000000000E+00  0.34163667923E+02  0.34163668294E+02  0.50400000000E-02 0. -1.
         -2   -1    0    0    0  501 -0.00000000000E+00 -0.00000000000E+00 -0.47248548165E+02  0.47248548234E+02  0.25500000000E-02 0.  1.
        -24    2    1    2    0    0  0.00000000000E+00  0.00000000000E+00 -0.13084880242E+02  0.81412216528E+02  0.80353810794E+02 0.  0.
         66    2    3    3    0    0  0.27142429831E+02 -0.29573941594E+00 -0.36523012131E+02  0.45549197283E+02  0.19999997641E+01 0.  0.
         13    1    3    3    0    0 -0.27142429831E+02  0.29573941594E+00  0.23438131889E+02  0.35863019245E+02  0.10566000000E+00 0. -1.
         13    1    4    4    0    0  0.52855072913E+01  0.19500425393E+00 -0.68663963309E+01  0.86679395818E+01  0.10566000000E+00 0. -1.
        -13    1    4    4    0    0  0.13521809600E+02 -0.74804952338E+00 -0.17217193719E+02  0.21905292433E+02  0.10566000000E+00 0.  1.
        -14    1    4    4    0    0  0.83351129394E+01  0.25730585351E+00 -0.12439422081E+02  0.14975965268E+02  0.00000000000E+00 0.  1.
<mgrwt>
<rscale>  0 0.80353811E+02</rscale>
<asrwt>0</asrwt>
<pdfrwt beam="1">  1        1 0.52559490E-02 0.80353811E+02</pdfrwt>
<pdfrwt beam="2">  1       -2 0.72690074E-02 0.80353811E+02</pdfrwt>
<totfact> 0.12215407E+05</totfact>
</mgrwt>
</event>
<event>
 8    1  0.8577104E-014  0.7567233E+02  0.7818608E-02  0.1341802E+00
         -2   -1    0    0    0  501 -0.00000000000E+00  0.00000000000E+00  0.65885905267E+02  0.65885905316E+02  0.25500000000E-02 0.  1.
          1   -1    0    0  501    0  0.00000000000E+00 -0.00000000000E+00 -0.21728094679E+02  0.21728095264E+02  0.50400000000E-02 0. -1.
        -24    2    1    2    0    0  0.35527136788E-14  0.00000000000E+00  0.44157810587E+02  0.87614000580E+02  0.75672325601E+02 0.  0.
         66    2    3    3    0    0  0.30725998714E+02 -0.78318232094E+01  0.45939105361E+02  0.55855401322E+02  0.20000009072E+01 0.  0.
         13    1    3    3    0    0 -0.30725998714E+02  0.78318232094E+01 -0.17812947738E+01  0.31758599259E+02  0.10566000000E+00 0. -1.
         13    1    4    4    0    0  0.13216901531E+02 -0.36390559230E+01  0.18713369525E+02  0.23197641628E+02  0.10566000000E+00 0. -1.
        -13    1    4    4    0    0  0.11234276761E+02 -0.29880489284E+01  0.16806472996E+02  0.20435413119E+02  0.10566000000E+00 0.  1.
        -14    1    4    4    0    0  0.62748204224E+01 -0.12047183580E+01  0.10419262840E+02  0.12222346574E+02  0.00000000000E+00 0.  1.
<mgrwt>
<rscale>  0 0.75672326E+02</rscale>
<asrwt>0</asrwt>
<pdfrwt beam="1">  1        1 0.33427840E-02 0.75672326E+02</pdfrwt>
<pdfrwt beam="2">  1       -2 0.10136293E-01 0.75672326E+02</pdfrwt>
<totfact> 0.13390051E+05</totfact>
</mgrwt>
</event>
<event>
 8    1  0.8577104E-014  0.8023885E+02  0.7818608E-02  0.1328375E+00
         -2   -1    0    0    0  501 -0.00000000000E+00  0.00000000000E+00  0.12226148942E+02  0.12226149208E+02  0.25500000000E-02 0.  1.
          1   -1    0    0  501    0  0.00000000000E+00 -0.00000000000E+00 -0.13164964343E+03  0.13164964352E+03  0.50400000000E-02 0. -1.
        -24    2    1    2    0    0  0.00000000000E+00  0.00000000000E+00 -0.11942349448E+03  0.14387579273E+03  0.80238847816E+02 0.  0.
         66    2    3    3    0    0  0.25167435589E+02  0.27378088582E+02 -0.32876031914E+02  0.49676886208E+02  0.20000000807E+01 0.  0.
         13    1    3    3    0    0 -0.25167435589E+02 -0.27378088582E+02 -0.86547462570E+02  0.94198906522E+02  0.10566000000E+00 0. -1.
         13    1    4    4    0    0  0.16412425902E+02  0.18133812528E+02 -0.20720931361E+02  0.32055748958E+02  0.10566000000E+00 0.  1.
        -13    1    4    4    0    0  0.25599288867E+01  0.22513886131E+01 -0.30439715309E+01  0.45715329277E+01  0.10566000000E+00 0.  1.
        -14    1    4    4    0    0  0.61950808010E+01  0.69928874410E+01 -0.91111290221E+01  0.13049604322E+02  0.00000000000E+00 0.  1.
<mgrwt>
<rscale>  0 0.80238848E+02</rscale>
<asrwt>0</asrwt>
<pdfrwt beam="1">  1        1 0.20253790E-01 0.80238848E+02</pdfrwt>
<pdfrwt beam="2">  1       -2 0.18809461E-02 0.80238848E+02</pdfrwt>
<totfact> 0.15295124E+05</totfact>
</mgrwt>
</event>
<event>
 8    1  0.9554611E-014  0.7881904E+02  0.7818608E-02  0.1332437E+00
          1   -1    0    0  501    0  0.00000000000E+00  0.00000000000E+00  0.19664950625E+02  0.19664951271E+02  0.50400000000E-02 0. -1.
         -2   -1    0    0    0  501 -0.00000000000E+00 -0.00000000000E+00 -0.78978592511E+02  0.78978592553E+02  0.25500000000E-02 0.  1.
        -24    2    1    2    0    0  0.00000000000E+00  0.00000000000E+00 -0.59313641886E+02  0.98643543824E+02  0.78819037195E+02 0.  0.
         66    2    3    3    0    0  0.17621595954E+02 -0.63724342802E+01 -0.73029340203E+02  0.75421569166E+02  0.20000005830E+01 0.  0.
         13    1    3    3    0    0 -0.17621595954E+02  0.63724342802E+01  0.13715698317E+02  0.23221974658E+02  0.10566000000E+00 0. -1.
         13    1    4    4    0    0  0.61894557819E+01 -0.15564422798E+01 -0.24583554845E+02  0.25398704854E+02  0.10566000000E+00 0. -1.
        -13    1    4    4    0    0  0.54180311253E+01 -0.16714668615E+01 -0.22694282941E+02  0.23392103475E+02  0.10566000000E+00 0.  1.
         14    1    4    4    0    0  0.60141090472E+01 -0.31445251389E+01 -0.25751502417E+02  0.26630760836E+02  0.00000000000E+00 0. -1.
<mgrwt>
<rscale>  0 0.78819037E+02</rscale>
<asrwt>0</asrwt>
<pdfrwt beam="1">  1        1 0.30253771E-02 0.78819037E+02</pdfrwt>
<pdfrwt beam="2">  1       -2 0.12150552E-01 0.78819037E+02</pdfrwt>
<totfact> 0.11639631E+05</totfact>
</mgrwt>
</event>
<event>
 8    1  0.8577104E-014  0.7979213E+02  0.7818608E-02  0.1329642E+00
          1   -1    0    0  501    0  0.00000000000E+00  0.00000000000E+00  0.12901517419E+03  0.12901517429E+03  0.50400000000E-02 0. -1.
         -2   -1    0    0    0  501 -0.00000000000E+00 -0.00000000000E+00 -0.12337276404E+02  0.12337276667E+02  0.25500000000E-02 0.  1.
        -24    2    1    2    0    0  0.35527136788E-14  0.00000000000E+00  0.11667789779E+03  0.14135245095E+03  0.79792127177E+02 0.  0.
         66    2    3    3    0    0 -0.23987074185E+02  0.75336909958E+01  0.35572575833E+01  0.25471362629E+02  0.20000011684E+01 0.  0.
         13    1    3    3    0    0  0.23987074185E+02 -0.75336909958E+01  0.11312064020E+03  0.11588108833E+03  0.10566000000E+00 0. -1.
         13    1    4    4    0    0 -0.66094680235E+01  0.15803984870E+01  0.16448542935E+01  0.69928132118E+01  0.10566000000E+00 0. -1.
        -13    1    4    4    0    0 -0.14265763295E+02  0.47218442491E+01  0.13907565669E+01  0.15091493742E+02  0.10566000000E+00 0.  1.
        -14    1    4    4    0    0 -0.31118428669E+01  0.12314482597E+01  0.52164672291E+00  0.33870556753E+01  0.00000000000E+00 0.  1.
<mgrwt>
<rscale>  0 0.79792127E+02</rscale>
<asrwt>0</asrwt>
<pdfrwt beam="1">  1        1 0.19848490E-01 0.79792127E+02</pdfrwt>
<pdfrwt beam="2">  1       -2 0.18980424E-02 0.79792127E+02</pdfrwt>
<totfact> 0.15469747E+05</totfact>
</mgrwt>
</event>
<event>
 8    1  0.8577104E-014  0.7791240E+02  0.7818608E-02  0.1335082E+00
         -2   -1    0    0    0  501 -0.00000000000E+00  0.00000000000E+00  0.75719706221E+02  0.75719706264E+02  0.25500000000E-02 0.  1.
          1   -1    0    0  501    0  0.00000000000E+00 -0.00000000000E+00 -0.20042145582E+02  0.20042146216E+02  0.50400000000E-02 0. -1.
        -24    2    1    2    0    0  0.00000000000E+00 -0.71054273576E-14  0.55677560639E+02  0.95761852480E+02  0.77912397163E+02 0.  0.
         66    2    3    3    0    0  0.38253390529E+01  0.36356849950E+02  0.44307083170E+02  0.57476702890E+02  0.19999997245E+01 0.  0.
         13    1    3    3    0    0 -0.38253390529E+01 -0.36356849950E+02  0.11370477469E+02  0.38285149589E+02  0.10566000000E+00 0. -1.
         13    1    4    4    0    0  0.12578486812E+01  0.85788674281E+01  0.95476430029E+01  0.12897588945E+02  0.10566000000E+00 0. -1.
        -13    1    4    4    0    0  0.53272247665E+00  0.33020128534E+01  0.44526520545E+01  0.55699512094E+01  0.10566000000E+00 0.  1.
        -14    1    4    4    0    0  0.20347678950E+01  0.24475969669E+02  0.30306788113E+02  0.39009162736E+02  0.00000000000E+00 0.  1.
<mgrwt>
<rscale>  0 0.77912397E+02</rscale>
<asrwt>0</asrwt>
<pdfrwt beam="1">  1        1 0.30834071E-02 0.77912397E+02</pdfrwt>
<pdfrwt beam="2">  1       -2 0.11649186E-01 0.77912397E+02</pdfrwt>
<totfact> 0.12094349E+05</totfact>
</mgrwt>
</event>
<event>
 8    1  0.8577104E-014  0.8053977E+02  0.7818608E-02  0.1327527E+00
         -2   -1    0    0    0  501 -0.00000000000E+00  0.00000000000E+00  0.45868473605E+01  0.45868480693E+01  0.25500000000E-02 0.  1.
          1   -1    0    0  501    0  0.00000000000E+00 -0.00000000000E+00 -0.35354646814E+03  0.35354646818E+03  0.50400000000E-02 0. -1.
        -24    2    1    2    0    0  0.00000000000E+00  0.00000000000E+00 -0.34895962078E+03  0.35813331625E+03  0.80539774461E+02 0.  0.
         66    2    3    3    0    0  0.45575722078E+01  0.39106116204E+02 -0.13749034077E+03  0.14303025411E+03  0.19999990471E+01 0.  0.
         13    1    3    3    0    0 -0.45575722078E+01 -0.39106116204E+02 -0.21146928001E+03  0.21510306214E+03  0.10566000000E+00 0. -1.
         13    1    4    4    0    0  0.39225646015E+00  0.46286735498E+01 -0.18232708352E+02  0.18815453804E+02  0.10566000000E+00 0. -1.
        -13    1    4    4    0    0  0.39791470043E+01  0.30870436262E+02 -0.10634031088E+03  0.11080203214E+03  0.10566000000E+00 0.  1.
        -14    1    4    4    0    0  0.18616874330E+00  0.36070063923E+01 -0.12917321539E+02  0.13412768158E+02  0.00000000000E+00 0.  1.
<mgrwt>
<rscale>  0 0.80539774E+02</rscale>
<asrwt>0</asrwt>
<pdfrwt beam="1">  1        1 0.54391743E-01 0.80539774E+02</pdfrwt>
<pdfrwt beam="2">  1       -2 0.70566916E-03 0.80539774E+02</pdfrwt>
<totfact> 0.18270491E+05</totfact>
</mgrwt>
</event>
<event>
 8    1  0.8577104E-014  0.8257639E+02  0.7818608E-02  0.1321895E+00
          1   -1    0    0  501    0  0.00000000000E+00  0.00000000000E+00  0.30636403123E+03  0.30636403128E+03  0.50400000000E-02 0. -1.
         -2   -1    0    0    0  501 -0.00000000000E+00 -0.00000000000E+00 -0.55643444871E+01  0.55643450714E+01  0.25500000000E-02 0.  1.
        -24    2    1    2    0    0  0.88817841970E-15  0.00000000000E+00  0.30079968675E+03  0.31192837635E+03  0.82576391441E+02 0.  0.
         66    2    3    3    0    0  0.50955679798E+01  0.36657014623E+02  0.81554900341E+02  0.89581824621E+02  0.19999996878E+01 0.  0.
         13    1    3    3    0    0 -0.50955679798E+01 -0.36657014623E+02  0.21924478641E+03  0.22234655173E+03  0.10566000000E+00 0. -1.
         13    1    4    4    0    0  0.53813993109E+00  0.23446924375E+01  0.44306543328E+01  0.50427213947E+01  0.10566000000E+00 0. -1.
        -13    1    4    4    0    0  0.44298825305E+01  0.33203615940E+02  0.74290729320E+02  0.81493727351E+02  0.10566000000E+00 0.  1.
        -14    1    4    4    0    0  0.12754551823E+00  0.11087062451E+01  0.28335166882E+01  0.30453758749E+01  0.00000000000E+00 0.  1.
<mgrwt>
<rscale>  0 0.82576391E+02</rscale>
<asrwt>0</asrwt>
<pdfrwt beam="1">  1        1 0.47132940E-01 0.82576391E+02</pdfrwt>
<pdfrwt beam="2">  1       -2 0.85605282E-03 0.82576391E+02</pdfrwt>
<totfact> 0.16659590E+05</totfact>
</mgrwt>
</event>
<event>
 8    1  0.8797252E-014  0.7870397E+02  0.7818608E-02  0.1332770E+00
          1   -1    0    0  501    0  0.00000000000E+00  0.00000000000E+00  0.18211907966E+02  0.18211908664E+02  0.50400000000E-02 0. -1.
         -2   -1    0    0    0  501 -0.00000000000E+00 -0.00000000000E+00 -0.85031100840E+02  0.85031100878E+02  0.25500000000E-02 0.  1.
        -24    2    1    2    0    0  0.00000000000E+00  0.00000000000E+00 -0.66819192874E+02  0.10324300954E+03  0.78703967390E+02 0.  0.
         66    2    3    3    0    0 -0.92141010277E+01  0.18301469292E+02 -0.77463677876E+02  0.80152759197E+02  0.19999951755E+01 0.  0.
         13    1    3    3    0    0  0.92141010277E+01 -0.18301469292E+02  0.10644485003E+02  0.23090250345E+02  0.10566000000E+00 0. -1.
         13    1    4    4    0    0 -0.73761700813E+00  0.90187393873E+00 -0.35062062041E+01  0.36962280007E+01  0.10566000000E+00 0. -1.
        -13    1    4    4    0    0 -0.55821476790E+01  0.10713925396E+02 -0.44380093615E+02  0.45995134997E+02  0.10566000000E+00 0.  1.
         14    1    4    4    0    0 -0.28943363406E+01  0.66856699576E+01 -0.29577378057E+02  0.30461396199E+02  0.00000000000E+00 0. -1.
<mgrwt>
<rscale>  0 0.78703967E+02</rscale>
<asrwt>0</asrwt>
<pdfrwt beam="1">  1        1 0.28018321E-02 0.78703967E+02</pdfrwt>
<pdfrwt beam="2">  1       -2 0.13081708E-01 0.78703967E+02</pdfrwt>
<totfact> 0.11496142E+05</totfact>
</mgrwt>
</event>
<event>
 8    1  0.8577104E-014  0.8145663E+02  0.7818608E-02  0.1324968E+00
         -2   -1    0    0    0  501 -0.00000000000E+00  0.00000000000E+00  0.12343584173E+02  0.12343584436E+02  0.25500000000E-02 0.  1.
          1   -1    0    0  501    0  0.00000000000E+00 -0.00000000000E+00 -0.13438525343E+03  0.13438525352E+03  0.50400000000E-02 0. -1.
        -24    2    1    2    0    0  0.00000000000E+00 -0.17763568394E-14 -0.12204166925E+03  0.14672883796E+03  0.81456631738E+02 0.  0.
         66    2    3    3    0    0 -0.38187247620E+02 -0.11846063081E+02 -0.47316015029E+02  0.61979031735E+02  0.20000013379E+01 0.  0.
         13    1    3    3    0    0  0.38187247620E+02  0.11846063081E+02 -0.74725654225E+02  0.84749806222E+02  0.10566000000E+00 0. -1.
         13    1    4    4    0    0 -0.14980848678E+02 -0.46368163257E+01 -0.17492774737E+02  0.23493280418E+02  0.10566000000E+00 0. -1.
        -13    1    4    4    0    0 -0.11575987598E+02 -0.38091575388E+01 -0.14151770484E+02  0.18676106176E+02  0.10566000000E+00 0.  1.
        -14    1    4    4    0    0 -0.11630411344E+02 -0.34000892166E+01 -0.15671469808E+02  0.19809645142E+02  0.00000000000E+00 0.  1.
<mgrwt>
<rscale>  0 0.81456632E+02</rscale>
<asrwt>0</asrwt>
<pdfrwt beam="1">  1        1 0.20674653E-01 0.81456632E+02</pdfrwt>
<pdfrwt beam="2">  1       -2 0.18990131E-02 0.81456632E+02</pdfrwt>
<totfact> 0.14743846E+05</totfact>
</mgrwt>
</event>
<event>
 8    1  0.8577104E-014  0.8214758E+02  0.7818608E-02  0.1323065E+00
          1   -1    0    0  501    0  0.00000000000E+00  0.00000000000E+00  0.15405938984E+03  0.15405938992E+03  0.50400000000E-02 0. -1.
         -2   -1    0    0    0  501 -0.00000000000E+00 -0.00000000000E+00 -0.10950688563E+02  0.10950688859E+02  0.25500000000E-02 0.  1.
        -24    2    1    2    0    0  0.35527136788E-14 -0.17763568394E-14  0.14310870128E+03  0.16501007878E+03  0.82147584982E+02 0.  0.
         66    2    3    3    0    0 -0.27143200361E+02  0.14558075702E+02  0.17088560560E+02  0.35280444834E+02  0.19999979054E+01 0.  0.
         13    1    3    3    0    0  0.27143200361E+02 -0.14558075702E+02  0.12602014072E+03  0.12972963395E+03  0.10566000000E+00 0. -1.
         13    1    4    4    0    0 -0.12428941341E+01  0.27259596399E+00  0.56252748112E+00  0.13952403344E+01  0.10566000000E+00 0. -1.
        -13    1    4    4    0    0 -0.14004393926E+02  0.75000981424E+01  0.89576259206E+01  0.18238002839E+02  0.10566000000E+00 0.  1.
         14    1    4    4    0    0 -0.11895912301E+02  0.67853815956E+01  0.75684071588E+01  0.15647201660E+02  0.00000000000E+00 0. -1.
<mgrwt>
<rscale>  0 0.82147585E+02</rscale>
<asrwt>0</asrwt>
<pdfrwt beam="1">  1        1 0.23701443E-01 0.82147585E+02</pdfrwt>
<pdfrwt beam="2">  1       -2 0.16847215E-02 0.82147585E+02</pdfrwt>
<totfact> 0.14781377E+05</totfact>
</mgrwt>
</event>
<event>
 8    1  0.8577104E-014  0.7922903E+02  0.7818608E-02  0.1331254E+00
          1   -1    0    0  501    0  0.00000000000E+00  0.00000000000E+00  0.91665559108E+02  0.91665559247E+02  0.50400000000E-02 0. -1.
         -2   -1    0    0    0  501 -0.00000000000E+00 -0.00000000000E+00 -0.17119950502E+02  0.17119950692E+02  0.25500000000E-02 0.  1.
        -24    2    1    2    0    0  0.35527136788E-14  0.00000000000E+00  0.74545608606E+02  0.10878550994E+03  0.79229031359E+02 0.  0.
         66    2    3    3    0    0 -0.17038543884E+02 -0.35730872313E+02  0.38045643951E+02  0.54940679196E+02  0.19999982239E+01 0.  0.
         13    1    3    3    0    0  0.17038543884E+02  0.35730872313E+02  0.36499964655E+02  0.53844830743E+02  0.10566000000E+00 0. -1.
         13    1    4    4    0    0 -0.52387987207E+01 -0.10296430812E+02  0.10749798063E+02  0.15780710439E+02  0.10566000000E+00 0. -1.
        -13    1    4    4    0    0 -0.11831919402E+02 -0.25333420874E+02  0.27106194532E+02  0.38942694770E+02  0.10566000000E+00 0.  1.
         14    1    4    4    0    0  0.32174238579E-01 -0.10102062631E+00  0.18965135610E+00  0.21727398703E+00  0.00000000000E+00 0. -1.
<mgrwt>
<rscale>  0 0.79229031E+02</rscale>
<asrwt>0</asrwt>
<pdfrwt beam="1">  1        1 0.14102394E-01 0.79229031E+02</pdfrwt>
<pdfrwt beam="2">  1       -2 0.26338385E-02 0.79229031E+02</pdfrwt>
<totfact> 0.14872487E+05</totfact>
</mgrwt>
</event>
<event>
 8    1  0.8577104E-014  0.7989925E+02  0.7818608E-02  0.1329338E+00
          1   -1    0    0  501    0  0.00000000000E+00  0.00000000000E+00  0.27488064494E+02  0.27488064956E+02  0.50400000000E-02 0. -1.
         -2   -1    0    0    0  501 -0.00000000000E+00 -0.00000000000E+00 -0.58060561561E+02  0.58060561617E+02  0.25500000000E-02 0.  1.
        -24    2    1    2    0    0  0.00000000000E+00  0.35527136788E-14 -0.30572497068E+02  0.85548626573E+02  0.79899248630E+02 0.  0.
         66    2    3    3    0    0  0.28662183455E+02  0.26709955366E+02 -0.70698032833E+01  0.39861317009E+02  0.19999997960E+01 0.  0.
         13    1    3    3    0    0 -0.28662183455E+02 -0.26709955366E+02 -0.23502693784E+02  0.45687309564E+02  0.10566000000E+00 0. -1.
         13    1    4    4    0    0  0.26545394605E+00  0.35670768438E+00 -0.30483961095E-01  0.45803872877E+00  0.10566000000E+00 0.  1.
        -13    1    4    4    0    0  0.14580285781E+02  0.13133161483E+02 -0.42536397694E+01  0.20079075659E+02  0.10566000000E+00 0.  1.
        -14    1    4    4    0    0  0.13816443728E+02  0.13220086198E+02 -0.27856795529E+01  0.19324202622E+02  0.00000000000E+00 0.  1.
<mgrwt>
<rscale>  0 0.79899249E+02</rscale>
<asrwt>0</asrwt>
<pdfrwt beam="1">  1        1 0.42289331E-02 0.79899249E+02</pdfrwt>
<pdfrwt beam="2">  1       -2 0.89323941E-02 0.79899249E+02</pdfrwt>
<totfact> 0.11949182E+05</totfact>
</mgrwt>
</event>
<event>
 8    1  0.8577104E-014  0.7959683E+02  0.7818608E-02  0.1330199E+00
          1   -1    0    0  501    0  0.00000000000E+00  0.00000000000E+00  0.47352904708E+01  0.47352931529E+01  0.50400000000E-02 0. -1.
         -2   -1    0    0    0  501 -0.00000000000E+00 -0.00000000000E+00 -0.33449130667E+03  0.33449130668E+03  0.25500000000E-02 0.  1.
        -24    2    1    2    0    0  0.00000000000E+00 -0.44408920985E-15 -0.32975601620E+03  0.33922659984E+03  0.79596832942E+02 0.  0.
         66    2    3    3    0    0  0.37460640700E+02 -0.32539791779E+01 -0.10973898309E+03  0.11601953452E+03  0.19999997492E+01 0.  0.
         13    1    3    3    0    0 -0.37460640700E+02  0.32539791779E+01 -0.22001703312E+03  0.22320706532E+03  0.10566000000E+00 0. -1.
         13    1    4    4    0    0  0.65204023013E+01 -0.66737190628E+00 -0.20777823316E+02  0.21787384819E+02  0.10566000000E+00 0. -1.
        -13    1    4    4    0    0  0.10850540884E+02 -0.65312952375E+00 -0.29506147255E+02  0.31444947217E+02  0.10566000000E+00 0.  1.
        -14    1    4    4    0    0  0.20089697515E+02 -0.19334777478E+01 -0.59455012515E+02  0.62787202483E+02  0.00000000000E+00 0.  1.
<mgrwt>
<rscale>  0 0.79596833E+02</rscale>
<asrwt>0</asrwt>
<pdfrwt beam="1">  1        1 0.72850670E-03 0.79596833E+02</pdfrwt>
<pdfrwt beam="2">  1       -2 0.51460183E-01 0.79596833E+02</pdfrwt>
<totfact> 0.66945211E+04</totfact>
</mgrwt>
</event>
<event>
 8    1  0.8577104E-014  0.7651014E+02  0.7818608E-02  0.1339257E+00
          1   -1    0    0  501    0  0.00000000000E+00  0.00000000000E+00  0.39499847009E+02  0.39499847330E+02  0.50400000000E-02 0. -1.
         -2   -1    0    0    0  501 -0.00000000000E+00 -0.00000000000E+00 -0.37049519420E+02  0.37049519507E+02  0.25500000000E-02 0.  1.
        -24    2    1    2    0    0  0.00000000000E+00 -0.17763568394E-14  0.24503275890E+01  0.76549366838E+02  0.76510139576E+02 0.  0.
         66    2    3    3    0    0 -0.25330414275E+02 -0.10196653185E+02 -0.25542977168E+02  0.37443895369E+02  0.19999985591E+01 0.  0.
         13    1    3    3    0    0  0.25330414275E+02  0.10196653185E+02  0.27993304757E+02  0.39105471469E+02  0.10566000000E+00 0. -1.
         13    1    4    4    0    0 -0.80705011415E+01 -0.27406101750E+01 -0.83836782785E+01  0.11955800196E+02  0.10566000000E+00 0. -1.
        -13    1    4    4    0    0 -0.11899778078E+02 -0.50875990706E+01 -0.10984514695E+02  0.16975249917E+02  0.10566000000E+00 0.  1.
         14    1    4    4    0    0 -0.53601350558E+01 -0.23684439395E+01 -0.61747841943E+01  0.85128452563E+01  0.00000000000E+00 0. -1.
<mgrwt>
<rscale>  0 0.76510140E+02</rscale>
<asrwt>0</asrwt>
<pdfrwt beam="1">  1        1 0.60768996E-02 0.76510140E+02</pdfrwt>
<pdfrwt beam="2">  1       -2 0.56999261E-02 0.76510140E+02</pdfrwt>
<totfact> 0.14362086E+05</totfact>
</mgrwt>
</event>
<event>
 8    1  0.8577104E-014  0.7906974E+02  0.7818608E-02  0.1331712E+00
          1   -1    0    0  501    0  0.00000000000E+00  0.00000000000E+00  0.16516040579E+03  0.16516040587E+03  0.50400000000E-02 0. -1.
         -2   -1    0    0    0  501 -0.00000000000E+00 -0.00000000000E+00 -0.94635625546E+01  0.94635628982E+01  0.25500000000E-02 0.  1.
        -24    2    1    2    0    0  0.00000000000E+00  0.00000000000E+00  0.15569684324E+03  0.17462396876E+03  0.79069738041E+02 0.  0.
         66    2    3    3    0    0 -0.23683534495E+02 -0.98097789505E+01  0.11501773047E+02  0.28167930993E+02  0.19999960012E+01 0.  0.
         13    1    3    3    0    0  0.23683534495E+02  0.98097789505E+01  0.14419507019E+03  0.14645603777E+03  0.10566000000E+00 0. -1.
         13    1    4    4    0    0 -0.28932305225E+01 -0.16030068983E+01  0.95578914464E+00  0.34445770273E+01  0.10566000000E+00 0.  1.
        -13    1    4    4    0    0 -0.17065163510E+02 -0.69733920416E+01  0.88199270342E+01  0.20436493806E+02  0.10566000000E+00 0.  1.
        -14    1    4    4    0    0 -0.37251404624E+01 -0.12333800105E+01  0.17260568685E+01  0.42868601597E+01  0.00000000000E+00 0.  1.
<mgrwt>
<rscale>  0 0.79069738E+02</rscale>
<asrwt>0</asrwt>
<pdfrwt beam="1">  1        1 0.25409293E-01 0.79069738E+02</pdfrwt>
<pdfrwt beam="2">  1       -2 0.14559327E-02 0.79069738E+02</pdfrwt>
<totfact> 0.16582928E+05</totfact>
</mgrwt>
</event>
<event>
 8    1  0.8577104E-014  0.7971459E+02  0.7818608E-02  0.1329863E+00
          1   -1    0    0  501    0  0.00000000000E+00  0.00000000000E+00  0.10833973957E+02  0.10833975130E+02  0.50400000000E-02 0. -1.
         -2   -1    0    0    0  501 -0.00000000000E+00 -0.00000000000E+00 -0.14663168482E+03  0.14663168484E+03  0.25500000000E-02 0.  1.
        -24    2    1    2    0    0  0.17763568394E-14  0.35527136788E-14 -0.13579771086E+03  0.15746565997E+03  0.79714589598E+02 0.  0.
         66    2    3    3    0    0  0.99747491561E+01  0.20794096902E+02 -0.13209409029E+03  0.13410719136E+03  0.19999995483E+01 0.  0.
         13    1    3    3    0    0 -0.99747491561E+01 -0.20794096902E+02 -0.37036205779E+01  0.23358468617E+02  0.10566000000E+00 0. -1.
         13    1    4    4    0    0  0.12999428079E+01  0.34515065829E+01 -0.23546175911E+02  0.23833512394E+02  0.10566000000E+00 0. -1.
        -13    1    4    4    0    0  0.72609101625E+01  0.13867977683E+02 -0.89783833739E+02  0.91138299229E+02  0.10566000000E+00 0.  1.
        -14    1    4    4    0    0  0.14138961857E+01  0.34746126368E+01 -0.18764080636E+02  0.19135379733E+02  0.00000000000E+00 0.  1.
<mgrwt>
<rscale>  0 0.79714590E+02</rscale>
<asrwt>0</asrwt>
<pdfrwt beam="1">  1        1 0.16667654E-02 0.79714590E+02</pdfrwt>
<pdfrwt beam="2">  1       -2 0.22558719E-01 0.79714590E+02</pdfrwt>
<totfact> 0.96092051E+04</totfact>
</mgrwt>
</event>
<event>
 8    1  0.8577104E-014  0.8050406E+02  0.7818608E-02  0.1327627E+00
          1   -1    0    0  501    0  0.00000000000E+00  0.00000000000E+00  0.13803078118E+02  0.13803079038E+02  0.50400000000E-02 0. -1.
         -2   -1    0    0    0  501 -0.00000000000E+00 -0.00000000000E+00 -0.11738149048E+03  0.11738149051E+03  0.25500000000E-02 0.  1.
        -24    2    1    2    0    0  0.00000000000E+00  0.00000000000E+00 -0.10357841236E+03  0.13118456955E+03  0.80504060639E+02 0.  0.
         66    2    3    3    0    0 -0.13015341521E+01 -0.29978685380E+02 -0.95479532955E+02  0.10010373011E+03  0.20000001507E+01 0.  0.
         13    1    3    3    0    0  0.13015341521E+01  0.29978685380E+02 -0.80988794079E+01  0.31080839435E+02  0.10566000000E+00 0. -1.
         13    1    4    4    0    0 -0.43575582568E-01 -0.87659440150E+00 -0.21651428775E+01  0.23386586523E+01  0.10566000000E+00 0. -1.
        -13    1    4    4    0    0  0.19915357650E+00 -0.10016090811E+02 -0.32610066684E+02  0.34114356955E+02  0.10566000000E+00 0.  1.
         14    1    4    4    0    0 -0.14571121460E+01 -0.19086000168E+02 -0.60704323394E+02  0.63650714504E+02  0.00000000000E+00 0. -1.
<mgrwt>
<rscale>  0 0.80504061E+02</rscale>
<asrwt>0</asrwt>
<pdfrwt beam="1">  1        1 0.21235506E-02 0.80504061E+02</pdfrwt>
<pdfrwt beam="2">  1       -2 0.18058690E-01 0.80504061E+02</pdfrwt>
<totfact> 0.10014045E+05</totfact>
</mgrwt>
</event>
<event>
 8    1  0.8577104E-014  0.7971558E+02  0.7818608E-02  0.1329861E+00
         -2   -1    0    0    0  501 -0.00000000000E+00  0.00000000000E+00  0.61103506050E+02  0.61103506103E+02  0.25500000000E-02 0.  1.
          1   -1    0    0  501    0  0.00000000000E+00 -0.00000000000E+00 -0.25999216963E+02  0.25999217451E+02  0.50400000000E-02 0. -1.
        -24    2    1    2    0    0  0.00000000000E+00  0.17763568394E-14  0.35104289087E+02  0.87102723554E+02  0.79715577764E+02 0.  0.
         66    2    3    3    0    0 -0.13219774704E+02 -0.81935198046E+01  0.57632120106E+02  0.59727359730E+02  0.20000055858E+01 0.  0.
         13    1    3    3    0    0  0.13219774704E+02  0.81935198046E+01 -0.22527831020E+02  0.27375363824E+02  0.10566000000E+00 0. -1.
         13    1    4    4    0    0 -0.27035247205E+01 -0.10666163137E+01  0.11003421198E+02  0.11381263478E+02  0.10566000000E+00 0. -1.
        -13    1    4    4    0    0 -0.33509882275E+01 -0.29452813236E+01  0.15298532126E+02  0.15936124166E+02  0.10566000000E+00 0.  1.
         14    1    4    4    0    0 -0.71652617561E+01 -0.41816221672E+01  0.31330166782E+02  0.32409972086E+02  0.00000000000E+00 0. -1.
<mgrwt>
<rscale>  0 0.79715578E+02</rscale>
<asrwt>0</asrwt>
<pdfrwt beam="1">  1        1 0.39998796E-02 0.79715578E+02</pdfrwt>
<pdfrwt beam="2">  1       -2 0.94005393E-02 0.79715578E+02</pdfrwt>
<totfact> 0.11905420E+05</totfact>
</mgrwt>
</event>
<event>
 8    1  0.8577104E-014  0.7505406E+02  0.7818608E-02  0.1343704E+00
         -2   -1    0    0    0  501 -0.00000000000E+00  0.00000000000E+00  0.12800596479E+02  0.12800596733E+02  0.25500000000E-02 0.  1.
          1   -1    0    0  501    0  0.00000000000E+00 -0.00000000000E+00 -0.11001659909E+03  0.11001659920E+03  0.50400000000E-02 0. -1.
        -24    2    1    2    0    0  0.35527136788E-14  0.35527136788E-14 -0.97216002609E+02  0.12281719594E+03  0.75054063543E+02 0.  0.
         66    2    3    3    0    0  0.17987145248E+02  0.30690460611E+02 -0.29223064765E+02  0.46080682285E+02  0.19999997152E+01 0.  0.
         13    1    3    3    0    0 -0.17987145248E+02 -0.30690460611E+02 -0.67992937844E+02  0.76736513651E+02  0.10566000000E+00 0. -1.
         13    1    4    4    0    0  0.12218957631E+01  0.22770764457E+01 -0.26090312667E+01  0.36737330580E+01  0.10566000000E+00 0. -1.
        -13    1    4    4    0    0  0.13320514558E+02  0.21557204841E+02 -0.20625294259E+02  0.32673584376E+02  0.10566000000E+00 0.  1.
         14    1    4    4    0    0  0.34447349269E+01  0.68561793243E+01 -0.59887392394E+01  0.97333648509E+01  0.00000000000E+00 0. -1.
<mgrwt>
<rscale>  0 0.75054064E+02</rscale>
<asrwt>0</asrwt>
<pdfrwt beam="1">  1        1 0.16925630E-01 0.75054064E+02</pdfrwt>
<pdfrwt beam="2">  1       -2 0.19693226E-02 0.75054064E+02</pdfrwt>
<totfact> 0.17729939E+05</totfact>
</mgrwt>
</event>
<event>
 8    1  0.8577104E-014  0.7362251E+02  0.7818608E-02  0.1348191E+00
          1   -1    0    0  501    0  0.00000000000E+00  0.00000000000E+00  0.25055042576E+02  0.25055043083E+02  0.50400000000E-02 0. -1.
         -2   -1    0    0    0  501 -0.00000000000E+00 -0.00000000000E+00 -0.54083663712E+02  0.54083663772E+02  0.25500000000E-02 0.  1.
        -24    2    1    2    0    0  0.00000000000E+00 -0.71054273576E-14 -0.29028621136E+02  0.79138706856E+02  0.73622510673E+02 0.  0.
         66    2    3    3    0    0  0.37634754272E+01  0.32102233984E+02 -0.33400464927E+02  0.46522125854E+02  0.19999906382E+01 0.  0.
         13    1    3    3    0    0 -0.37634754272E+01 -0.32102233984E+02  0.43718437914E+01  0.32616581002E+02  0.10566000000E+00 0. -1.
         13    1    4    4    0    0  0.19535567453E+01  0.13511329259E+02 -0.14620393206E+02  0.20003486292E+02  0.10566000000E+00 0. -1.
        -13    1    4    4    0    0  0.17518387418E+01  0.18572318683E+02 -0.18669989085E+02  0.26392794788E+02  0.10566000000E+00 0.  1.
         14    1    4    4    0    0  0.58079940056E-01  0.18586042158E-01 -0.11008263568E+00  0.12584477374E+00  0.00000000000E+00 0. -1.
<mgrwt>
<rscale>  0 0.73622511E+02</rscale>
<asrwt>0</asrwt>
<pdfrwt beam="1">  1        1 0.38546220E-02 0.73622511E+02</pdfrwt>
<pdfrwt beam="2">  1       -2 0.83205637E-02 0.73622511E+02</pdfrwt>
<totfact> 0.14871878E+05</totfact>
</mgrwt>
</event>
<event>
 8    1  0.8577104E-014  0.7685143E+02  0.7818608E-02  0.1338232E+00
          1   -1    0    0  501    0  0.00000000000E+00  0.00000000000E+00  0.40288979681E+02  0.40288979997E+02  0.50400000000E-02 0. -1.
         -2   -1    0    0    0  501 -0.00000000000E+00 -0.00000000000E+00 -0.36648619742E+02  0.36648619831E+02  0.25500000000E-02 0.  1.
        -24    2    1    2    0    0 -0.17763568394E-14  0.00000000000E+00  0.36403599391E+01  0.76937599827E+02  0.76851428397E+02 0.  0.
         66    2    3    3    0    0  0.14027096159E+02 -0.23234854224E+02 -0.25373598643E+02  0.37208028548E+02  0.20000007145E+01 0.  0.
         13    1    3    3    0    0 -0.14027096159E+02  0.23234854224E+02  0.29013958582E+02  0.39729571280E+02  0.10566000000E+00 0. -1.
         13    1    4    4    0    0  0.23041600213E+01 -0.48845297098E+01 -0.42956108739E+01  0.69015375610E+01  0.10566000000E+00 0. -1.
        -13    1    4    4    0    0  0.80210248876E+01 -0.12455865658E+02 -0.14407055206E+02  0.20665426037E+02  0.10566000000E+00 0.  1.
         14    1    4    4    0    0  0.37019112504E+01 -0.58944588556E+01 -0.66709325630E+01  0.96410649498E+01  0.00000000000E+00 0. -1.
<mgrwt>
<rscale>  0 0.76851428E+02</rscale>
<asrwt>0</asrwt>
<pdfrwt beam="1">  1        1 0.61983046E-02 0.76851428E+02</pdfrwt>
<pdfrwt beam="2">  1       -2 0.56382492E-02 0.76851428E+02</pdfrwt>
<totfact> 0.14228123E+05</totfact>
</mgrwt>
</event>
<event>
 8    1  0.8577104E-014  0.7765981E+02  0.7818608E-02  0.1335827E+00
          1   -1    0    0  501    0  0.00000000000E+00  0.00000000000E+00  0.42863835931E+02  0.42863836227E+02  0.50400000000E-02 0. -1.
         -2   -1    0    0    0  501 -0.00000000000E+00 -0.00000000000E+00 -0.35175605643E+02  0.35175605735E+02  0.25500000000E-02 0.  1.
        -24    2    1    2    0    0  0.00000000000E+00  0.00000000000E+00  0.76882302880E+01  0.78039441962E+02  0.77659806958E+02 0.  0.
         66    2    3    3    0    0 -0.18114656195E+02  0.24374586692E+02 -0.20427071880E+02  0.36654147165E+02  0.19999983279E+01 0.  0.
         13    1    3    3    0    0  0.18114656195E+02 -0.24374586692E+02  0.28115302168E+02  0.41385294798E+02  0.10566000000E+00 0. -1.
         13    1    4    4    0    0 -0.32341947826E+01  0.52653023373E+01 -0.42759040170E+01  0.75151808890E+01  0.10566000000E+00 0. -1.
        -13    1    4    4    0    0 -0.14345440007E+02  0.18130971231E+02 -0.15160018693E+02  0.27647081177E+02  0.10566000000E+00 0.  1.
        -14    1    4    4    0    0 -0.53502140547E+00  0.97831312356E+00 -0.99114916990E+00  0.14918850991E+01  0.00000000000E+00 0.  1.
<mgrwt>
<rscale>  0 0.77659807E+02</rscale>
<asrwt>0</asrwt>
<pdfrwt beam="1">  1        1 0.65944364E-02 0.77659807E+02</pdfrwt>
<pdfrwt beam="2">  1       -2 0.54116316E-02 0.77659807E+02</pdfrwt>
<totfact> 0.13951958E+05</totfact>
</mgrwt>
</event>
<event>
 8    1  0.8577104E-014  0.8020548E+02  0.7818608E-02  0.1328469E+00
          1   -1    0    0  501    0  0.00000000000E+00  0.00000000000E+00  0.35582540313E+03  0.35582540316E+03  0.50400000000E-02 0. -1.
         -2   -1    0    0    0  501 -0.00000000000E+00 -0.00000000000E+00 -0.45197151590E+01  0.45197158783E+01  0.25500000000E-02 0.  1.
        -24    2    1    2    0    0  0.00000000000E+00  0.00000000000E+00  0.35130568797E+03  0.36034511904E+03  0.80205476235E+02 0.  0.
         66    2    3    3    0    0  0.34581878835E+02 -0.20226341776E+02  0.17081277151E+03  0.17545943733E+03  0.19999981573E+01 0.  0.
         13    1    3    3    0    0 -0.34581878835E+02  0.20226341776E+02  0.18049291646E+03  0.18488568171E+03  0.10566000000E+00 0. -1.
         13    1    4    4    0    0  0.42801450823E+01 -0.30888797692E+01  0.23674350484E+02  0.24255862282E+02  0.10566000000E+00 0. -1.
        -13    1    4    4    0    0  0.43791983506E+01 -0.28353323854E+01  0.22484344619E+02  0.23081884778E+02  0.10566000000E+00 0.  1.
        -14    1    4    4    0    0  0.25922535402E+02 -0.14302129622E+02  0.12465407640E+03  0.12812169027E+03  0.00000000000E+00 0.  1.
<mgrwt>
<rscale>  0 0.80205476E+02</rscale>
<asrwt>0</asrwt>
<pdfrwt beam="1">  1        1 0.54742382E-01 0.80205476E+02</pdfrwt>
<pdfrwt beam="2">  1       -2 0.69534069E-03 0.80205476E+02</pdfrwt>
<totfact> 0.18492607E+05</totfact>
</mgrwt>
</event>
<event>
 8    1  0.8577104E-014  0.7933156E+02  0.7818608E-02  0.1330959E+00
          1   -1    0    0  501    0  0.00000000000E+00  0.00000000000E+00  0.68521800793E+01  0.68521819328E+01  0.50400000000E-02 0. -1.
         -2   -1    0    0    0  501 -0.00000000000E+00 -0.00000000000E+00 -0.22961652978E+03  0.22961652979E+03  0.25500000000E-02 0.  1.
        -24    2    1    2    0    0  0.00000000000E+00  0.35527136788E-14 -0.22276434970E+03  0.23646871172E+03  0.79331558211E+02 0.  0.
         66    2    3    3    0    0  0.31066207763E+02  0.21081017335E+02 -0.14937420364E+03  0.15403302006E+03  0.20000002572E+01 0.  0.
         13    1    3    3    0    0 -0.31066207763E+02 -0.21081017335E+02 -0.73390146061E+02  0.82435691660E+02  0.10566000000E+00 0. -1.
         13    1    4    4    0    0  0.12462782233E+01  0.52993929174E+00 -0.47395764907E+01  0.49303949547E+01  0.10566000000E+00 0.  1.
        -13    1    4    4    0    0  0.37359993216E+01  0.23346054407E+01 -0.18446597518E+02  0.18965658373E+02  0.10566000000E+00 0. -1.
        -14    1    4    4    0    0  0.26083930218E+02  0.18216472603E+02 -0.12618802963E+03  0.13013696674E+03  0.00000000000E+00 0.  1.
<mgrwt>
<rscale>  0 0.79331558E+02</rscale>
<asrwt>0</asrwt>
<pdfrwt beam="1">  1        1 0.10541819E-02 0.79331558E+02</pdfrwt>
<pdfrwt beam="2">  1       -2 0.35325614E-01 0.79331558E+02</pdfrwt>
<totfact> 0.81964249E+04</totfact>
</mgrwt>
</event>
<event>
 8    1  0.8577104E-014  0.8337653E+02  0.7818608E-02  0.1319734E+00
         -2   -1    0    0    0  501 -0.00000000000E+00  0.00000000000E+00  0.66224297112E+02  0.66224297161E+02  0.25500000000E-02 0.  1.
          1   -1    0    0  501    0  0.00000000000E+00 -0.00000000000E+00 -0.26242804110E+02  0.26242804593E+02  0.50400000000E-02 0. -1.
        -24    2    1    2    0    0  0.00000000000E+00 -0.44408920985E-15  0.39981493003E+02  0.92467101755E+02  0.83376526218E+02 0.  0.
         66    2    3    3    0    0  0.33093348449E+02 -0.37451871967E+01  0.47765882856E+02  0.58264703767E+02  0.20000003257E+01 0.  0.
         13    1    3    3    0    0 -0.33093348449E+02  0.37451871967E+01 -0.77843898534E+01  0.34202397988E+02  0.10566000000E+00 0. -1.
         13    1    4    4    0    0  0.24632136268E+02 -0.22665705003E+01  0.34796611316E+02  0.42693029900E+02  0.10566000000E+00 0. -1.
        -13    1    4    4    0    0  0.73971287308E+01 -0.10760094271E+01  0.11428140067E+02  0.13656092383E+02  0.10566000000E+00 0.  1.
         14    1    4    4    0    0  0.10640834504E+01 -0.40260726936E+00  0.15411314737E+01  0.19155814841E+01  0.00000000000E+00 0. -1.
<mgrwt>
<rscale>  0 0.83376526E+02</rscale>
<asrwt>0</asrwt>
<pdfrwt beam="1">  1        1 0.40373546E-02 0.83376526E+02</pdfrwt>
<pdfrwt beam="2">  1       -2 0.10188353E-01 0.83376526E+02</pdfrwt>
<totfact> 0.10461131E+05</totfact>
</mgrwt>
</event>
<event>
 8    1  0.8577104E-014  0.7866562E+02  0.7818608E-02  0.1332881E+00
         -2   -1    0    0    0  501 -0.00000000000E+00  0.00000000000E+00  0.28571975369E+03  0.28571975370E+03  0.25500000000E-02 0.  1.
          1   -1    0    0  501    0  0.00000000000E+00 -0.00000000000E+00 -0.54146401176E+01  0.54146424633E+01  0.50400000000E-02 0. -1.
        -24    2    1    2    0    0  0.00000000000E+00  0.00000000000E+00  0.28030511357E+03  0.29113439616E+03  0.78665621051E+02 0.  0.
         66    2    3    3    0    0  0.12939756885E+02  0.71882615502E+01  0.27500668197E+03  0.27541202504E+03  0.19999988260E+01 0.  0.
         13    1    3    3    0    0 -0.12939756885E+02 -0.71882615502E+01  0.52984316031E+01  0.15722371127E+02  0.10566000000E+00 0. -1.
         13    1    4    4    0    0  0.31642831159E+01  0.15286372003E+01  0.73365384498E+02  0.73449576077E+02  0.10566000000E+00 0. -1.
        -13    1    4    4    0    0  0.40984091292E+01  0.16368388222E+01  0.82965553298E+02  0.83082912785E+02  0.10566000000E+00 0.  1.
         14    1    4    4    0    0  0.56770646401E+01  0.40227855277E+01  0.11867574417E+03  0.11887953617E+03  0.00000000000E+00 0. -1.
<mgrwt>
<rscale>  0 0.78665621E+02</rscale>
<asrwt>0</asrwt>
<pdfrwt beam="1">  1        1 0.83302157E-03 0.78665621E+02</pdfrwt>
<pdfrwt beam="2">  1       -2 0.43956894E-01 0.78665621E+02</pdfrwt>
<totfact> 0.75326976E+04</totfact>
</mgrwt>
</event>
<event>
 8    1  0.8577104E-014  0.7920243E+02  0.7818608E-02  0.1331330E+00
          1   -1    0    0  501    0  0.00000000000E+00  0.00000000000E+00  0.16521034244E+02  0.16521035013E+02  0.50400000000E-02 0. -1.
         -2   -1    0    0    0  501 -0.00000000000E+00 -0.00000000000E+00 -0.94924828659E+02  0.94924828693E+02  0.25500000000E-02 0.  1.
        -24    2    1    2    0    0 -0.35527136788E-14  0.00000000000E+00 -0.78403794414E+02  0.11144586371E+03  0.79202434045E+02 0.  0.
         66    2    3    3    0    0 -0.31418501823E+02 -0.19256363470E+02 -0.59536015894E+02  0.70046177461E+02  0.19999993920E+01 0.  0.
         13    1    3    3    0    0  0.31418501823E+02  0.19256363470E+02 -0.18867778520E+02  0.41399686245E+02  0.10566000000E+00 0. -1.
         13    1    4    4    0    0 -0.90282740386E+01 -0.46802792587E+01 -0.17356177602E+02  0.20116232526E+02  0.10566000000E+00 0. -1.
        -13    1    4    4    0    0 -0.71046796030E+01 -0.46275257250E+01 -0.13211392966E+02  0.15698488295E+02  0.10566000000E+00 0.  1.
         14    1    4    4    0    0 -0.15285548181E+02 -0.99485584858E+01 -0.28968445326E+02  0.34231456641E+02  0.00000000000E+00 0. -1.
<mgrwt>
<rscale>  0 0.79202434E+02</rscale>
<asrwt>0</asrwt>
<pdfrwt beam="1">  1        1 0.25416977E-02 0.79202434E+02</pdfrwt>
<pdfrwt beam="2">  1       -2 0.14603820E-01 0.79202434E+02</pdfrwt>
<totfact> 0.11027551E+05</totfact>
</mgrwt>
</event>
<event>
 8    1  0.8577104E-014  0.8079690E+02  0.7818608E-02  0.1326805E+00
          1   -1    0    0  501    0  0.00000000000E+00  0.00000000000E+00  0.39284861690E+03  0.39284861694E+03  0.50400000000E-02 0. -1.
         -2   -1    0    0    0  501 -0.00000000000E+00 -0.00000000000E+00 -0.41543602730E+01  0.41543610556E+01  0.25500000000E-02 0.  1.
        -24    2    1    2    0    0 -0.71054273576E-14 -0.17763568394E-14  0.38869425663E+03  0.39700297799E+03  0.80796902147E+02 0.  0.
         66    2    3    3    0    0 -0.39356167849E+02 -0.89194465643E+01  0.20061356513E+03  0.20464180167E+03  0.20000008931E+01 0.  0.
         13    1    3    3    0    0  0.39356167849E+02  0.89194465643E+01  0.18808069150E+03  0.19236117632E+03  0.10566000000E+00 0. -1.
         13    1    4    4    0    0 -0.83643246441E+01 -0.16570319941E+01  0.38767909637E+02  0.39694705736E+02  0.10566000000E+00 0. -1.
        -13    1    4    4    0    0 -0.15356667431E+02 -0.38024357189E+01  0.79569302604E+02  0.81126881075E+02  0.10566000000E+00 0.  1.
        -14    1    4    4    0    0 -0.15635175774E+02 -0.34599788513E+01  0.82276352886E+02  0.83820214861E+02  0.00000000000E+00 0.  1.
<mgrwt>
<rscale>  0 0.80796902E+02</rscale>
<asrwt>0</asrwt>
<pdfrwt beam="1">  1        1 0.60438267E-01 0.80796902E+02</pdfrwt>
<pdfrwt beam="2">  1       -2 0.63913222E-03 0.80796902E+02</pdfrwt>
<totfact> 0.18450153E+05</totfact>
</mgrwt>
</event>
<event>
 8    1  0.8577104E-014  0.7925963E+02  0.7818608E-02  0.1331166E+00
         -2   -1    0    0    0  501 -0.00000000000E+00  0.00000000000E+00  0.29224555109E+03  0.29224555110E+03  0.25500000000E-02 0.  1.
          1   -1    0    0  501    0  0.00000000000E+00 -0.00000000000E+00 -0.53739810349E+01  0.53739833983E+01  0.50400000000E-02 0. -1.
        -24    2    1    2    0    0 -0.44408920985E-15 -0.17763568394E-14  0.28687157006E+03  0.29761953450E+03  0.79259634177E+02 0.  0.
         66    2    3    3    0    0  0.28908485684E+01  0.10381602321E+02  0.28663024793E+03  0.28683973522E+03  0.20000003499E+01 0.  0.
         13    1    3    3    0    0 -0.28908485684E+01 -0.10381602321E+02  0.24132213118E+00  0.10779799284E+02  0.10566000000E+00 0. -1.
         13    1    4    4    0    0  0.21477976177E+00  0.51069472070E-01  0.68623099321E+01  0.68666731448E+01  0.10566000000E+00 0. -1.
        -13    1    4    4    0    0  0.12773723292E+00  0.10402087051E+01  0.34272529616E+02  0.34288712447E+02  0.10566000000E+00 0.  1.
        -14    1    4    4    0    0  0.25483315737E+01  0.92903241436E+01  0.24549540838E+03  0.24568434963E+03  0.00000000000E+00 0.  1.
<mgrwt>
<rscale>  0 0.79259634E+02</rscale>
<asrwt>0</asrwt>
<pdfrwt beam="1">  1        1 0.82676626E-03 0.79259634E+02</pdfrwt>
<pdfrwt beam="2">  1       -2 0.44960867E-01 0.79259634E+02</pdfrwt>
<totfact> 0.73000368E+04</totfact>
</mgrwt>
</event>
<event>
 8    1  0.8577104E-014  0.8081701E+02  0.7818608E-02  0.1326749E+00
          1   -1    0    0  501    0  0.00000000000E+00  0.00000000000E+00  0.10536970185E+03  0.10536970197E+03  0.50400000000E-02 0. -1.
         -2   -1    0    0    0  501 -0.00000000000E+00 -0.00000000000E+00 -0.15496362104E+02  0.15496362313E+02  0.25500000000E-02 0.  1.
        -24    2    1    2    0    0  0.00000000000E+00  0.00000000000E+00  0.89873339743E+02  0.12086606428E+03  0.80817005006E+02 0.  0.
         66    2    3    3    0    0 -0.38078353753E+02 -0.34133229424E+00  0.65071623208E+02  0.75421440403E+02  0.19999983250E+01 0.  0.
         13    1    3    3    0    0  0.38078353753E+02  0.34133229424E+00  0.24801716535E+02  0.45444623877E+02  0.10566000000E+00 0. -1.
         13    1    4    4    0    0 -0.88983847177E+01  0.45686747598E+00  0.15934351112E+02  0.18256634078E+02  0.10566000000E+00 0. -1.
        -13    1    4    4    0    0 -0.10786397284E+02 -0.25063648796E+00  0.19204779469E+02  0.22028252393E+02  0.10566000000E+00 0.  1.
         14    1    4    4    0    0 -0.18393571751E+02 -0.54756328225E+00  0.29932492628E+02  0.35136553932E+02  0.00000000000E+00 0. -1.
<mgrwt>
<rscale>  0 0.80817005E+02</rscale>
<asrwt>0</asrwt>
<pdfrwt beam="1">  1        1 0.16210723E-01 0.80817005E+02</pdfrwt>
<pdfrwt beam="2">  1       -2 0.23840558E-02 0.80817005E+02</pdfrwt>
<totfact> 0.14428436E+05</totfact>
</mgrwt>
</event>
<event>
 8    1  0.8577104E-014  0.7996981E+02  0.7818608E-02  0.1329137E+00
         -2   -1    0    0    0  501 -0.00000000000E+00  0.00000000000E+00  0.11232777123E+02  0.11232777412E+02  0.25500000000E-02 0.  1.
          1   -1    0    0  501    0  0.00000000000E+00 -0.00000000000E+00 -0.14233278452E+03  0.14233278461E+03  0.50400000000E-02 0. -1.
        -24    2    1    2    0    0  0.00000000000E+00  0.00000000000E+00 -0.13110000740E+03  0.15356556203E+03  0.79969806174E+02 0.  0.
         66    2    3    3    0    0  0.26964988345E+02 -0.22198555232E+02 -0.10287136736E+03  0.10865728068E+03  0.19999928826E+01 0.  0.
         13    1    3    3    0    0 -0.26964988345E+02  0.22198555232E+02 -0.28228640045E+02  0.44908281348E+02  0.10566000000E+00 0. -1.
         13    1    4    4    0    0  0.11577115644E+02 -0.88290676161E+01 -0.41994297890E+02  0.44446757598E+02  0.10566000000E+00 0.  1.
        -13    1    4    4    0    0  0.44788593643E+01 -0.42378508151E+01 -0.19943366305E+02  0.20875070883E+02  0.10566000000E+00 0. -1.
         14    1    4    4    0    0  0.10909013337E+02 -0.91316368005E+01 -0.40933703161E+02  0.43335452197E+02  0.00000000000E+00 0. -1.
<mgrwt>
<rscale>  0 0.79969806E+02</rscale>
<asrwt>0</asrwt>
<pdfrwt beam="1">  1        1 0.21897350E-01 0.79969806E+02</pdfrwt>
<pdfrwt beam="2">  1       -2 0.17281197E-02 0.79969806E+02</pdfrwt>
<totfact> 0.15652944E+05</totfact>
</mgrwt>
</event>
<event>
 8    1  0.8869077E-014  0.8042501E+02  0.7818608E-02  0.1327850E+00
          1   -1    0    0  501    0  0.00000000000E+00  0.00000000000E+00  0.58442399406E+02  0.58442399623E+02  0.50400000000E-02 0. -1.
         -2   -1    0    0    0  501 -0.00000000000E+00 -0.00000000000E+00 -0.27669046866E+02  0.27669046984E+02  0.25500000000E-02 0.  1.
        -24    2    1    2    0    0  0.00000000000E+00  0.00000000000E+00  0.30773352539E+02  0.86111446607E+02  0.80425008612E+02 0.  0.
         66    2    3    3    0    0 -0.21725605671E+02  0.15513521326E+02 -0.16767232081E+02  0.31588152175E+02  0.20000001160E+01 0.  0.
         13    1    3    3    0    0  0.21725605671E+02 -0.15513521326E+02  0.47540584620E+02  0.54523294432E+02  0.10566000000E+00 0. -1.
         13    1    4    4    0    0 -0.89719138239E+01  0.71224380727E+01 -0.70879534449E+01  0.13471251235E+02  0.10566000000E+00 0. -1.
        -13    1    4    4    0    0 -0.10230810754E+02  0.72841149634E+01 -0.79499199614E+01  0.14864057687E+02  0.10566000000E+00 0.  1.
         14    1    4    4    0    0 -0.25228810929E+01  0.11069682898E+01 -0.17293586742E+01  0.32528432529E+01  0.00000000000E+00 0. -1.
<mgrwt>
<rscale>  0 0.80425009E+02</rscale>
<asrwt>0</asrwt>
<pdfrwt beam="1">  1        1 0.89911384E-02 0.80425009E+02</pdfrwt>
<pdfrwt beam="2">  1       -2 0.42567765E-02 0.80425009E+02</pdfrwt>
<totfact> 0.13287032E+05</totfact>
</mgrwt>
</event>
<event>
 8    1  0.8577104E-014  0.7959238E+02  0.7818608E-02  0.1330212E+00
          1   -1    0    0  501    0  0.00000000000E+00  0.00000000000E+00  0.39074249062E+01  0.39074281567E+01  0.50400000000E-02 0. -1.
         -2   -1    0    0    0  501 -0.00000000000E+00 -0.00000000000E+00 -0.40531454670E+03  0.40531454671E+03  0.25500000000E-02 0.  1.
        -24    2    1    2    0    0  0.00000000000E+00  0.35527136788E-14 -0.40140712179E+03  0.40922197487E+03  0.79592382082E+02 0.  0.
         66    2    3    3    0    0 -0.30536339283E+02 -0.18918544454E+02 -0.28858998144E+03  0.29082392732E+03  0.19999931602E+01 0.  0.
         13    1    3    3    0    0  0.30536339283E+02  0.18918544454E+02 -0.11281714036E+03  0.11839804755E+03  0.10566000000E+00 0. -1.
         13    1    4    4    0    0 -0.55899700782E+01 -0.29856380656E+01 -0.55868230824E+02  0.56226614513E+02  0.10566000000E+00 0. -1.
        -13    1    4    4    0    0 -0.48119143898E+01 -0.31127656759E+01 -0.43541566650E+02  0.43917229201E+02  0.10566000000E+00 0.  1.
         14    1    4    4    0    0 -0.20134454815E+02 -0.12820140712E+02 -0.18918018396E+03  0.19068008360E+03  0.00000000000E+00 0. -1.
<mgrwt>
<rscale>  0 0.79592382E+02</rscale>
<asrwt>0</asrwt>
<pdfrwt beam="1">  1        1 0.60114287E-03 0.79592382E+02</pdfrwt>
<pdfrwt beam="2">  1       -2 0.62356051E-01 0.79592382E+02</pdfrwt>
<totfact> 0.59354715E+04</totfact>
</mgrwt>
</event>
<event>
 8    1  0.8577104E-014  0.7657393E+02  0.7818608E-02  0.1339065E+00
          1   -1    0    0  501    0  0.00000000000E+00  0.00000000000E+00  0.33473514741E+02  0.33473515121E+02  0.50400000000E-02 0. -1.
         -2   -1    0    0    0  501 -0.00000000000E+00 -0.00000000000E+00 -0.43792577598E+02  0.43792577672E+02  0.25500000000E-02 0.  1.
        -24    2    1    2    0    0  0.00000000000E+00  0.00000000000E+00 -0.10319062857E+02  0.77266092793E+02  0.76573925309E+02 0.  0.
         66    2    3    3    0    0 -0.23971425917E+01 -0.23741898290E+02 -0.35340949210E+02  0.42689655907E+02  0.20000008476E+01 0.  0.
         13    1    3    3    0    0  0.23971425917E+01  0.23741898290E+02  0.25021886353E+02  0.34576436886E+02  0.10566000000E+00 0. -1.
         13    1    4    4    0    0 -0.14274293919E+01 -0.15864075797E+02 -0.23012965703E+02  0.27987751072E+02  0.10566000000E+00 0. -1.
        -13    1    4    4    0    0 -0.10915364724E+01 -0.50806565882E+01 -0.76076235725E+01  0.92136650522E+01  0.10566000000E+00 0.  1.
        -14    1    4    4    0    0  0.12182327270E+00 -0.27971659050E+01 -0.47203599340E+01  0.54882397830E+01  0.00000000000E+00 0.  1.
<mgrwt>
<rscale>  0 0.76573925E+02</rscale>
<asrwt>0</asrwt>
<pdfrwt beam="1">  1        1 0.51497716E-02 0.76573925E+02</pdfrwt>
<pdfrwt beam="2">  1       -2 0.67373196E-02 0.76573925E+02</pdfrwt>
<totfact> 0.13957814E+05</totfact>
</mgrwt>
</event>
<event>
 8    1  0.8577104E-014  0.7986348E+02  0.7818608E-02  0.1329439E+00
         -2   -1    0    0    0  501 -0.00000000000E+00  0.00000000000E+00  0.20273176829E+02  0.20273176989E+02  0.25500000000E-02 0.  1.
          1   -1    0    0  501    0  0.00000000000E+00 -0.00000000000E+00 -0.78652882246E+02  0.78652882407E+02  0.50400000000E-02 0. -1.
        -24    2    1    2    0    0  0.00000000000E+00 -0.88817841970E-15 -0.58379705417E+02  0.98926059396E+02  0.79863478656E+02 0.  0.
         66    2    3    3    0    0  0.37934419783E+02  0.56696892943E+01 -0.15561521963E+02  0.41440638815E+02  0.19999996654E+01 0.  0.
         13    1    3    3    0    0 -0.37934419783E+02 -0.56696892943E+01 -0.42818183454E+02  0.57485420581E+02  0.10566000000E+00 0. -1.
         13    1    4    4    0    0  0.10433711111E+02  0.89037374644E+00 -0.42018194458E+01  0.11283684843E+02  0.10566000000E+00 0. -1.
        -13    1    4    4    0    0  0.98610616176E+01  0.15670839305E+01 -0.35118043813E+01  0.10584905400E+02  0.10566000000E+00 0.  1.
         14    1    4    4    0    0  0.17639647055E+02  0.32122316173E+01 -0.78478981355E+01  0.19572048573E+02  0.00000000000E+00 0. -1.
<mgrwt>
<rscale>  0 0.79863479E+02</rscale>
<asrwt>0</asrwt>
<pdfrwt beam="1">  1        1 0.12100443E-01 0.79863479E+02</pdfrwt>
<pdfrwt beam="2">  1       -2 0.31189503E-02 0.79863479E+02</pdfrwt>
<totfact> 0.14196659E+05</totfact>
</mgrwt>
</event>
<event>
 8    1  0.8577104E-014  0.7998552E+02  0.7818608E-02  0.1329093E+00
          1   -1    0    0  501    0  0.00000000000E+00  0.00000000000E+00  0.14195639054E+02  0.14195639948E+02  0.50400000000E-02 0. -1.
         -2   -1    0    0    0  501 -0.00000000000E+00 -0.00000000000E+00 -0.11266986403E+03  0.11266986406E+03  0.25500000000E-02 0.  1.
        -24    2    1    2    0    0  0.00000000000E+00  0.00000000000E+00 -0.98474224977E+02  0.12686550401E+03  0.79985518204E+02 0.  0.
         66    2    3    3    0    0  0.86948439163E+01  0.14135568715E+02 -0.10693756670E+03  0.10823612048E+03  0.19999974476E+01 0.  0.
         13    1    3    3    0    0 -0.86948439163E+01 -0.14135568715E+02  0.84633417246E+01  0.18629383533E+02  0.10566000000E+00 0. -1.
         13    1    4    4    0    0  0.49670128290E+01  0.70178864678E+01 -0.56044217020E+02  0.56699976829E+02  0.10566000000E+00 0. -1.
        -13    1    4    4    0    0  0.15806065879E+01  0.22690754784E+01 -0.20087746832E+02  0.20277469209E+02  0.10566000000E+00 0.  1.
        -14    1    4    4    0    0  0.21472244995E+01  0.48486067689E+01 -0.30805602850E+02  0.31258674437E+02  0.00000000000E+00 0.  1.
<mgrwt>
<rscale>  0 0.79985518E+02</rscale>
<asrwt>0</asrwt>
<pdfrwt beam="1">  1        1 0.21839446E-02 0.79985518E+02</pdfrwt>
<pdfrwt beam="2">  1       -2 0.17333825E-01 0.79985518E+02</pdfrwt>
<totfact> 0.10295677E+05</totfact>
</mgrwt>
</event>
<event>
 8    1  0.8577104E-014  0.7793003E+02  0.7818608E-02  0.1335030E+00
         -2   -1    0    0    0  501 -0.00000000000E+00  0.00000000000E+00  0.14395579581E+03  0.14395579583E+03  0.25500000000E-02 0.  1.
          1   -1    0    0  501    0  0.00000000000E+00 -0.00000000000E+00 -0.10546795719E+02  0.10546796923E+02  0.50400000000E-02 0. -1.
        -24    2    1    2    0    0  0.00000000000E+00  0.00000000000E+00  0.13340900009E+03  0.15450259275E+03  0.77930031840E+02 0.  0.
         66    2    3    3    0    0  0.15657882900E+02  0.16208918238E+02  0.12970483103E+03  0.13166336422E+03  0.19999897226E+01 0.  0.
         13    1    3    3    0    0 -0.15657882900E+02 -0.16208918238E+02  0.37041690593E+01  0.22839228529E+02  0.10566000000E+00 0. -1.
         13    1    4    4    0    0  0.12408518052E+01  0.92228608148E+00  0.84673472494E+01  0.86079880516E+01  0.10566000000E+00 0. -1.
        -13    1    4    4    0    0  0.66878475788E+01  0.65220345369E+01  0.57915642393E+02  0.58664273946E+02  0.10566000000E+00 0.  1.
        -14    1    4    4    0    0  0.77291835158E+01  0.87645976200E+01  0.63321841385E+02  0.64391102225E+02  0.00000000000E+00 0.  1.
<mgrwt>
<rscale>  0 0.77930032E+02</rscale>
<asrwt>0</asrwt>
<pdfrwt beam="1">  1        1 0.16225842E-02 0.77930032E+02</pdfrwt>
<pdfrwt beam="2">  1       -2 0.22147044E-01 0.77930032E+02</pdfrwt>
<totfact> 0.10245455E+05</totfact>
</mgrwt>
</event>
<event>
 8    1  0.8577104E-014  0.7896049E+02  0.7818608E-02  0.1332028E+00
          1   -1    0    0  501    0  0.00000000000E+00  0.00000000000E+00  0.12464453009E+02  0.12464454028E+02  0.50400000000E-02 0. -1.
         -2   -1    0    0    0  501 -0.00000000000E+00 -0.00000000000E+00 -0.12505078202E+03  0.12505078205E+03  0.25500000000E-02 0.  1.
        -24    2    1    2    0    0  0.00000000000E+00  0.00000000000E+00 -0.11258632901E+03  0.13751523607E+03  0.78960488047E+02 0.  0.
         66    2    3    3    0    0  0.32269917107E+02 -0.75254875434E+01 -0.93629052854E+02  0.99339720411E+02  0.20000000187E+01 0.  0.
         13    1    3    3    0    0 -0.32269917107E+02  0.75254875434E+01 -0.18957276157E+02  0.38175515664E+02  0.10566000000E+00 0. -1.
         13    1    4    4    0    0  0.13058785180E+02 -0.28997156940E+01 -0.39468477330E+02  0.41673877769E+02  0.10566000000E+00 0. -1.
        -13    1    4    4    0    0  0.13277203443E+02 -0.36983889581E+01 -0.38533117230E+02  0.40924008841E+02  0.10566000000E+00 0.  1.
        -14    1    4    4    0    0  0.59339284849E+01 -0.92738289138E+00 -0.15627458294E+02  0.16741833801E+02  0.00000000000E+00 0.  1.
<mgrwt>
<rscale>  0 0.78960488E+02</rscale>
<asrwt>0</asrwt>
<pdfrwt beam="1">  1        1 0.19176083E-02 0.78960488E+02</pdfrwt>
<pdfrwt beam="2">  1       -2 0.19238581E-01 0.78960488E+02</pdfrwt>
<totfact> 0.10337815E+05</totfact>
</mgrwt>
</event>
<event>
 8    1  0.8577104E-014  0.8025514E+02  0.7818608E-02  0.1328329E+00
         -2   -1    0    0    0  501 -0.00000000000E+00  0.00000000000E+00  0.36340095581E+02  0.36340095671E+02  0.25500000000E-02 0.  1.
          1   -1    0    0  501    0  0.00000000000E+00 -0.00000000000E+00 -0.44309785101E+02  0.44309785388E+02  0.50400000000E-02 0. -1.
        -24    2    1    2    0    0 -0.22204460493E-15  0.00000000000E+00 -0.79696895198E+01  0.80649881059E+02  0.80255139173E+02 0.  0.
         66    2    3    3    0    0 -0.12925853093E+01 -0.40045841719E+02 -0.56917250103E+01  0.40518341067E+02  0.20000033693E+01 0.  0.
         13    1    3    3    0    0  0.12925853093E+01  0.40045841719E+02 -0.22779645095E+01  0.40131539992E+02  0.10566000000E+00 0. -1.
         13    1    4    4    0    0  0.10870557819E-01 -0.87308066264E+01 -0.16379054046E+01  0.88837492460E+01  0.10566000000E+00 0. -1.
        -13    1    4    4    0    0 -0.15900145798E+00 -0.60229226010E+01 -0.13256088763E+01  0.61700308792E+01  0.10566000000E+00 0.  1.
        -14    1    4    4    0    0 -0.11444544092E+01 -0.25292112491E+02 -0.27282107293E+01  0.25464560942E+02  0.00000000000E+00 0.  1.
<mgrwt>
<rscale>  0 0.80255139E+02</rscale>
<asrwt>0</asrwt>
<pdfrwt beam="1">  1        1 0.68168900E-02 0.80255139E+02</pdfrwt>
<pdfrwt beam="2">  1       -2 0.55907840E-02 0.80255139E+02</pdfrwt>
<totfact> 0.12793475E+05</totfact>
</mgrwt>
</event>
<event>
 8    1  0.8577104E-014  0.7857740E+02  0.7818608E-02  0.1333138E+00
         -2   -1    0    0    0  501 -0.00000000000E+00  0.00000000000E+00  0.91733778120E+02  0.91733778156E+02  0.25500000000E-02 0.  1.
          1   -1    0    0  501    0  0.00000000000E+00 -0.00000000000E+00 -0.16826972791E+02  0.16826973545E+02  0.50400000000E-02 0. -1.
        -24    2    1    2    0    0  0.35527136788E-14  0.00000000000E+00  0.74906805330E+02  0.10856075170E+03  0.78577397037E+02 0.  0.
         66    2    3    3    0    0 -0.30788121437E+02 -0.35812676916E+01  0.70775131591E+02  0.77290705462E+02  0.19999997803E+01 0.  0.
         13    1    3    3    0    0  0.30788121437E+02  0.35812676916E+01  0.41316737384E+01  0.31270046239E+02  0.10566000000E+00 0. -1.
         13    1    4    4    0    0 -0.61173061811E+01 -0.94441612799E+00  0.13850558595E+02  0.15171107216E+02  0.10566000000E+00 0. -1.
        -13    1    4    4    0    0 -0.14611431384E+02 -0.19427167719E+01  0.31954233816E+02  0.35190230155E+02  0.10566000000E+00 0.  1.
         14    1    4    4    0    0 -0.10059383872E+02 -0.69413479171E+00  0.24970339180E+02  0.26929368091E+02  0.00000000000E+00 0. -1.
<mgrwt>
<rscale>  0 0.78577397E+02</rscale>
<asrwt>0</asrwt>
<pdfrwt beam="1">  1        1 0.25887651E-02 0.78577397E+02</pdfrwt>
<pdfrwt beam="2">  1       -2 0.14112889E-01 0.78577397E+02</pdfrwt>
<totfact> 0.11344638E+05</totfact>
</mgrwt>
</event>
<event>
 8    1  0.8577104E-014  0.7811765E+02  0.7818608E-02  0.1334480E+00
          1   -1    0    0  501    0  0.00000000000E+00  0.00000000000E+00  0.76065138377E+01  0.76065155074E+01  0.50400000000E-02 0. -1.
         -2   -1    0    0    0  501 -0.00000000000E+00 -0.00000000000E+00 -0.20056383699E+03  0.20056383700E+03  0.25500000000E-02 0.  1.
        -24    2    1    2    0    0  0.00000000000E+00  0.17763568394E-14 -0.19295732315E+03  0.20817035251E+03  0.78117649142E+02 0.  0.
         66    2    3    3    0    0  0.25496158168E+02  0.13922682070E+02 -0.16601626609E+03  0.16855057365E+03  0.20000286506E+01 0.  0.
         13    1    3    3    0    0 -0.25496158168E+02 -0.13922682070E+02 -0.26941057063E+02  0.39619778862E+02  0.10566000000E+00 0. -1.
         13    1    4    4    0    0  0.14629548508E+02  0.75133075913E+01 -0.90843853407E+02  0.92320584630E+02  0.10566000000E+00 0. -1.
        -13    1    4    4    0    0  0.59319138698E+01  0.35583869223E+01 -0.44080815593E+02  0.44620389813E+02  0.10566000000E+00 0.  1.
         14    1    4    4    0    0  0.49346957908E+01  0.28509875568E+01 -0.31091597085E+02  0.31609599205E+02  0.00000000000E+00 0. -1.
<mgrwt>
<rscale>  0 0.78117649E+02</rscale>
<asrwt>0</asrwt>
<pdfrwt beam="1">  1        1 0.11702332E-02 0.78117649E+02</pdfrwt>
<pdfrwt beam="2">  1       -2 0.30855971E-01 0.78117649E+02</pdfrwt>
<totfact> 0.90357910E+04</totfact>
</mgrwt>
</event>
<event>
 8    1  0.8577104E-014  0.7919263E+02  0.7818608E-02  0.1331358E+00
         -2   -1    0    0    0  501 -0.00000000000E+00  0.00000000000E+00  0.29920362605E+03  0.29920362606E+03  0.25500000000E-02 0.  1.
          1   -1    0    0  501    0  0.00000000000E+00 -0.00000000000E+00 -0.52401358193E+01  0.52401382430E+01  0.50400000000E-02 0. -1.
        -24    2    1    2    0    0  0.17763568394E-14  0.35527136788E-14  0.29396349023E+03  0.30444376430E+03  0.79192626140E+02 0.  0.
         66    2    3    3    0    0 -0.85199093563E+01 -0.21609648612E+02  0.27023218101E+03  0.27123605481E+03  0.20000015494E+01 0.  0.
         13    1    3    3    0    0  0.85199093563E+01  0.21609648612E+02  0.23731309221E+02  0.33207709495E+02  0.10566000000E+00 0. -1.
         13    1    4    4    0    0 -0.17083308061E+01 -0.64114283468E+01  0.74104784184E+02  0.74401310543E+02  0.10566000000E+00 0. -1.
        -13    1    4    4    0    0 -0.17074800931E+01 -0.40499228097E+01  0.55470532274E+02  0.55644482905E+02  0.10566000000E+00 0.  1.
         14    1    4    4    0    0 -0.51040984572E+01 -0.11148297455E+02  0.14065686455E+03  0.14119026136E+03  0.00000000000E+00 0. -1.
<mgrwt>
<rscale>  0 0.79192626E+02</rscale>
<asrwt>0</asrwt>
<pdfrwt beam="1">  1        1 0.80617504E-03 0.79192626E+02</pdfrwt>
<pdfrwt beam="2">  1       -2 0.46031321E-01 0.79192626E+02</pdfrwt>
<totfact> 0.72239201E+04</totfact>
</mgrwt>
</event>
<event>
 8    1  0.8577104E-014  0.7974049E+02  0.7818608E-02  0.1329790E+00
          1   -1    0    0  501    0  0.00000000000E+00  0.00000000000E+00  0.82813957846E+02  0.82813957999E+02  0.50400000000E-02 0. -1.
         -2   -1    0    0    0  501 -0.00000000000E+00 -0.00000000000E+00 -0.19195271233E+02  0.19195271402E+02  0.25500000000E-02 0.  1.
        -24    2    1    2    0    0  0.00000000000E+00 -0.17763568394E-14  0.63618686613E+02  0.10200922940E+03  0.79740489067E+02 0.  0.
         66    2    3    3    0    0 -0.10362948677E+02 -0.12119550723E+02 -0.14883279584E+02  0.21904023104E+02  0.20000004870E+01 0.  0.
         13    1    3    3    0    0  0.10362948677E+02  0.12119550723E+02  0.78501966197E+02  0.80105206297E+02  0.10566000000E+00 0. -1.
         13    1    4    4    0    0 -0.14363020724E+01 -0.97007489922E+00 -0.14796464377E+01  0.22813431503E+01  0.10566000000E+00 0. -1.
        -13    1    4    4    0    0 -0.89119251810E+01 -0.11156065363E+02 -0.13286434581E+02  0.19504376758E+02  0.10566000000E+00 0.  1.
        -14    1    4    4    0    0 -0.14721423751E-01  0.65895388823E-02 -0.11719856577E+00  0.11830319590E+00  0.00000000000E+00 0.  1.
<mgrwt>
<rscale>  0 0.79740489E+02</rscale>
<asrwt>0</asrwt>
<pdfrwt beam="1">  1        1 0.12740609E-01 0.79740489E+02</pdfrwt>
<pdfrwt beam="2">  1       -2 0.29531186E-02 0.79740489E+02</pdfrwt>
<totfact> 0.14375239E+05</totfact>
</mgrwt>
</event>
<event>
 8    1  0.8577104E-014  0.7961270E+02  0.7818608E-02  0.1330154E+00
         -2   -1    0    0    0  501 -0.00000000000E+00  0.00000000000E+00  0.12758824020E+03  0.12758824022E+03  0.25500000000E-02 0.  1.
          1   -1    0    0  501    0  0.00000000000E+00 -0.00000000000E+00 -0.12419212708E+02  0.12419213730E+02  0.50400000000E-02 0. -1.
        -24    2    1    2    0    0  0.00000000000E+00 -0.17763568394E-14  0.11516902749E+03  0.14000745395E+03  0.79612701683E+02 0.  0.
         66    2    3    3    0    0  0.34419083258E+02 -0.13787361829E+02  0.82970082210E+02  0.90899940477E+02  0.19999995757E+01 0.  0.
         13    1    3    3    0    0 -0.34419083258E+02  0.13787361829E+02  0.32198945278E+02  0.49107513474E+02  0.10566000000E+00 0. -1.
         13    1    4    4    0    0  0.27482678784E+02 -0.10894524582E+02  0.64548129841E+02  0.70996200807E+02  0.10566000000E+00 0.  1.
        -13    1    4    4    0    0  0.14353262182E+01 -0.82589597643E+00  0.40331997838E+01  0.43612074071E+01  0.10566000000E+00 0. -1.
        -14    1    4    4    0    0  0.55010782559E+01 -0.20669412703E+01  0.14388752585E+02  0.15542532263E+02  0.00000000000E+00 0.  1.
<mgrwt>
<rscale>  0 0.79612702E+02</rscale>
<asrwt>0</asrwt>
<pdfrwt beam="1">  1        1 0.19106483E-02 0.79612702E+02</pdfrwt>
<pdfrwt beam="2">  1       -2 0.19628959E-01 0.79612702E+02</pdfrwt>
<totfact> 0.10062792E+05</totfact>
</mgrwt>
</event>
<event>
 8    1  0.8577104E-014  0.7951457E+02  0.7818608E-02  0.1330435E+00
         -2   -1    0    0    0  501 -0.00000000000E+00  0.00000000000E+00  0.22112489066E+02  0.22112489213E+02  0.25500000000E-02 0.  1.
          1   -1    0    0  501    0  0.00000000000E+00 -0.00000000000E+00 -0.71481851494E+02  0.71481851672E+02  0.50400000000E-02 0. -1.
        -24    2    1    2    0    0 -0.35527136788E-14  0.00000000000E+00 -0.49369362428E+02  0.93594340885E+02  0.79514569101E+02 0.  0.
         66    2    3    3    0    0 -0.15852498004E+02 -0.28548808587E+02  0.19416516329E+01  0.32773559135E+02  0.20000006491E+01 0.  0.
         13    1    3    3    0    0  0.15852498004E+02  0.28548808587E+02 -0.51311014061E+02  0.60820781750E+02  0.10566000000E+00 0. -1.
         13    1    4    4    0    0 -0.17231104244E+01 -0.25653089239E+01  0.40281387253E+00  0.31182274550E+01  0.10566000000E+00 0. -1.
        -13    1    4    4    0    0 -0.40533755495E+01 -0.74744343959E+01  0.11231810991E+01  0.85772794464E+01  0.10566000000E+00 0.  1.
        -14    1    4    4    0    0 -0.10076012030E+02 -0.18509065267E+02  0.41565666127E+00  0.21078052234E+02  0.00000000000E+00 0.  1.
<mgrwt>
<rscale>  0 0.79514569E+02</rscale>
<asrwt>0</asrwt>
<pdfrwt beam="1">  1        1 0.10997208E-01 0.79514569E+02</pdfrwt>
<pdfrwt beam="2">  1       -2 0.34019214E-02 0.79514569E+02</pdfrwt>
<totfact> 0.14150305E+05</totfact>
</mgrwt>
</event>
<event>
 8    1  0.8577104E-014  0.7948101E+02  0.7818608E-02  0.1330531E+00
         -2   -1    0    0    0  501 -0.00000000000E+00  0.00000000000E+00  0.39764416271E+02  0.39764416353E+02  0.25500000000E-02 0.  1.
          1   -1    0    0  501    0  0.00000000000E+00 -0.00000000000E+00 -0.39716610147E+02  0.39716610467E+02  0.50400000000E-02 0. -1.
        -24    2    1    2    0    0  0.35527136788E-14 -0.35527136788E-14  0.47806123758E-01  0.79481026820E+02  0.79481012443E+02 0.  0.
         66    2    3    3    0    0  0.29899014145E+02 -0.24427013944E+02  0.93337460711E+01  0.39771205594E+02  0.19999804164E+01 0.  0.
         13    1    3    3    0    0 -0.29899014145E+02  0.24427013944E+02 -0.92859399473E+01  0.39709821226E+02  0.10566000000E+00 0. -1.
         13    1    4    4    0    0  0.11290560396E+02 -0.87419384761E+01  0.35360951320E+01  0.14710995044E+02  0.10566000000E+00 0. -1.
        -13    1    4    4    0    0  0.68795934658E+01 -0.60343344684E+01  0.28752367553E+01  0.95927133370E+01  0.10566000000E+00 0.  1.
         14    1    4    4    0    0  0.11728860283E+02 -0.96507409990E+01  0.29224141839E+01  0.15467497213E+02  0.00000000000E+00 0. -1.
<mgrwt>
<rscale>  0 0.79481012E+02</rscale>
<asrwt>0</asrwt>
<pdfrwt beam="1">  1        1 0.61102478E-02 0.79481012E+02</pdfrwt>
<pdfrwt beam="2">  1       -2 0.61176025E-02 0.79481012E+02</pdfrwt>
<totfact> 0.12917583E+05</totfact>
</mgrwt>
</event>
<event>
 8    1  0.8577104E-014  0.8101674E+02  0.7818608E-02  0.1326191E+00
          1   -1    0    0  501    0  0.00000000000E+00  0.00000000000E+00  0.21774822238E+03  0.21774822244E+03  0.50400000000E-02 0. -1.
         -2   -1    0    0    0  501 -0.00000000000E+00 -0.00000000000E+00 -0.75358959570E+01  0.75358963884E+01  0.25500000000E-02 0.  1.
        -24    2    1    2    0    0  0.00000000000E+00  0.71054273576E-14  0.21021232642E+03  0.22528411883E+03  0.81016739106E+02 0.  0.
         66    2    3    3    0    0  0.84350588304E+01 -0.28860204964E+02  0.29789621292E+02  0.42373142287E+02  0.20000006137E+01 0.  0.
         13    1    3    3    0    0 -0.84350588304E+01  0.28860204964E+02  0.18042270513E+03  0.18291097654E+03  0.10566000000E+00 0. -1.
         13    1    4    4    0    0  0.51051435015E-01 -0.40773317091E+00  0.31510111008E+00  0.52849345582E+00  0.10566000000E+00 0. -1.
        -13    1    4    4    0    0  0.50518009913E+01 -0.17203801632E+02  0.18869860409E+02  0.26030257005E+02  0.10566000000E+00 0.  1.
        -14    1    4    4    0    0  0.33322064041E+01 -0.11248670162E+02  0.10604659773E+02  0.15814391826E+02  0.00000000000E+00 0.  1.
<mgrwt>
<rscale>  0 0.81016739E+02</rscale>
<asrwt>0</asrwt>
<pdfrwt beam="1">  1        1 0.33499726E-01 0.81016739E+02</pdfrwt>
<pdfrwt beam="2">  1       -2 0.11593687E-02 0.81016739E+02</pdfrwt>
<totfact> 0.16393700E+05</totfact>
</mgrwt>
</event>
<event>
 8    1  0.8577104E-014  0.8101573E+02  0.7818608E-02  0.1326193E+00
         -2   -1    0    0    0  501 -0.00000000000E+00  0.00000000000E+00  0.54937282199E+02  0.54937282259E+02  0.25500000000E-02 0.  1.
          1   -1    0    0  501    0  0.00000000000E+00 -0.00000000000E+00 -0.29868369250E+02  0.29868369676E+02  0.50400000000E-02 0. -1.
        -24    2    1    2    0    0  0.00000000000E+00  0.00000000000E+00  0.25068912949E+02  0.84805651934E+02  0.81015728124E+02 0.  0.
         66    2    3    3    0    0  0.24643828585E+01 -0.24801202399E+02  0.45935987555E+02  0.52299978738E+02  0.20000000273E+01 0.  0.
         13    1    3    3    0    0 -0.24643828585E+01  0.24801202399E+02 -0.20867074606E+02  0.32505673196E+02  0.10566000000E+00 0. -1.
         13    1    4    4    0    0  0.24620851674E+01 -0.19223251823E+02  0.34555982485E+02  0.39619721901E+02  0.10566000000E+00 0. -1.
        -13    1    4    4    0    0 -0.81888447339E-01 -0.13682092264E+01  0.25181254086E+01  0.28689408872E+01  0.10566000000E+00 0.  1.
         14    1    4    4    0    0  0.84186138362E-01 -0.42097413494E+01  0.88618796613E+01  0.98113159497E+01  0.00000000000E+00 0. -1.
<mgrwt>
<rscale>  0 0.81015728E+02</rscale>
<asrwt>0</asrwt>
<pdfrwt beam="1">  1        1 0.45951338E-02 0.81015728E+02</pdfrwt>
<pdfrwt beam="2">  1       -2 0.84518895E-02 0.81015728E+02</pdfrwt>
<totfact> 0.11654268E+05</totfact>
</mgrwt>
</event>
<event>
 8    1  0.8577104E-014  0.8145851E+02  0.7818608E-02  0.1324963E+00
         -2   -1    0    0    0  501 -0.00000000000E+00  0.00000000000E+00  0.43932404619E+01  0.43932412019E+01  0.25500000000E-02 0.  1.
          1   -1    0    0  501    0  0.00000000000E+00 -0.00000000000E+00 -0.37759645608E+03  0.37759645611E+03  0.50400000000E-02 0. -1.
        -24    2    1    2    0    0  0.00000000000E+00  0.88817841970E-15 -0.37320321561E+03  0.38198969731E+03  0.81458509116E+02 0.  0.
         66    2    3    3    0    0  0.40338850275E+02  0.45719868327E+01 -0.20057823871E+03  0.20465521189E+03  0.20000010013E+01 0.  0.
         13    1    3    3    0    0 -0.40338850275E+02 -0.45719868327E+01 -0.17262497690E+03  0.17733448542E+03  0.10566000000E+00 0. -1.
         13    1    4    4    0    0  0.64084331455E+01  0.98508753306E+00 -0.29588463567E+02  0.30290704071E+02  0.10566000000E+00 0. -1.
        -13    1    4    4    0    0  0.28363519041E+02  0.29510277140E+01 -0.14067915750E+03  0.14354035772E+03  0.10566000000E+00 0.  1.
        -14    1    4    4    0    0  0.55668980879E+01  0.63587158567E+00 -0.30310617650E+02  0.30824150099E+02  0.00000000000E+00 0.  1.
<mgrwt>
<rscale>  0 0.81458509E+02</rscale>
<asrwt>0</asrwt>
<pdfrwt beam="1">  1        1 0.58091737E-01 0.81458509E+02</pdfrwt>
<pdfrwt beam="2">  1       -2 0.67588351E-03 0.81458509E+02</pdfrwt>
<totfact> 0.17937766E+05</totfact>
</mgrwt>
</event>
<event>
 8    1  0.8577104E-014  0.8013356E+02  0.7818608E-02  0.1328673E+00
          1   -1    0    0  501    0  0.00000000000E+00  0.00000000000E+00  0.68831014267E+02  0.68831014452E+02  0.50400000000E-02 0. -1.
         -2   -1    0    0    0  501 -0.00000000000E+00 -0.00000000000E+00 -0.23323016437E+02  0.23323016576E+02  0.25500000000E-02 0.  1.
        -24    2    1    2    0    0  0.00000000000E+00  0.00000000000E+00  0.45507997831E+02  0.92154031028E+02  0.80133560810E+02 0.  0.
         66    2    3    3    0    0 -0.26008032003E+02  0.27679267060E+02  0.81860652910E+01  0.38904642617E+02  0.19999996394E+01 0.  0.
         13    1    3    3    0    0  0.26008032003E+02 -0.27679267060E+02  0.37321932540E+02  0.53249388411E+02  0.10566000000E+00 0. -1.
         13    1    4    4    0    0 -0.19920180263E+01  0.21389235617E+01  0.11511441303E+01  0.31431555266E+01  0.10566000000E+00 0. -1.
        -13    1    4    4    0    0 -0.93781233873E+01  0.98689690213E+01  0.29881983110E+01  0.13938659943E+02  0.10566000000E+00 0.  1.
         14    1    4    4    0    0 -0.14637890589E+02  0.15671374477E+02  0.40467228497E+01  0.21822827148E+02  0.00000000000E+00 0. -1.
<mgrwt>
<rscale>  0 0.80133561E+02</rscale>
<asrwt>0</asrwt>
<pdfrwt beam="1">  1        1 0.10589387E-01 0.80133561E+02</pdfrwt>
<pdfrwt beam="2">  1       -2 0.35881563E-02 0.80133561E+02</pdfrwt>
<totfact> 0.13770654E+05</totfact>
</mgrwt>
</event>
<event>
 8    1  0.8577104E-014  0.8091005E+02  0.7818608E-02  0.1326488E+00
          1   -1    0    0  501    0  0.00000000000E+00  0.00000000000E+00  0.22739189425E+03  0.22739189430E+03  0.50400000000E-02 0. -1.
         -2   -1    0    0    0  501 -0.00000000000E+00 -0.00000000000E+00 -0.71973063308E+01  0.71973067825E+01  0.25500000000E-02 0.  1.
        -24    2    1    2    0    0  0.00000000000E+00  0.00000000000E+00  0.22019458792E+03  0.23458920109E+03  0.80910053259E+02 0.  0.
         66    2    3    3    0    0  0.28512648938E+02  0.28031800078E+02  0.92804062449E+02  0.10107099968E+03  0.20000007960E+01 0.  0.
         13    1    3    3    0    0 -0.28512648938E+02 -0.28031800078E+02  0.12739052547E+03  0.13351820141E+03  0.10566000000E+00 0. -1.
         13    1    4    4    0    0  0.59218698966E+01  0.52112411140E+01  0.16792682073E+02  0.18553460924E+02  0.10566000000E+00 0. -1.
        -13    1    4    4    0    0  0.13815765445E+02  0.13845980583E+02  0.45672361890E+02  0.49684628989E+02  0.10566000000E+00 0.  1.
         14    1    4    4    0    0  0.87750135968E+01  0.89745783803E+01  0.30339018486E+02  0.32832909761E+02  0.00000000000E+00 0. -1.
<mgrwt>
<rscale>  0 0.80910053E+02</rscale>
<asrwt>0</asrwt>
<pdfrwt beam="1">  1        1 0.34983361E-01 0.80910053E+02</pdfrwt>
<pdfrwt beam="2">  1       -2 0.11072782E-02 0.80910053E+02</pdfrwt>
<totfact> 0.16591289E+05</totfact>
</mgrwt>
</event>
<event>
 8    1  0.8577104E-014  0.7919358E+02  0.7818608E-02  0.1331356E+00
          1   -1    0    0  501    0  0.00000000000E+00  0.00000000000E+00  0.20330922640E+03  0.20330922646E+03  0.50400000000E-02 0. -1.
         -2   -1    0    0    0  501 -0.00000000000E+00 -0.00000000000E+00 -0.77119252483E+01  0.77119256698E+01  0.25500000000E-02 0.  1.
        -24    2    1    2    0    0  0.00000000000E+00  0.00000000000E+00  0.19559730115E+03  0.21102115213E+03  0.79193575682E+02 0.  0.
         66    2    3    3    0    0  0.25847561054E+02 -0.17095971169E+02  0.32290941210E+02  0.44800374237E+02  0.20000012221E+01 0.  0.
         13    1    3    3    0    0 -0.25847561054E+02  0.17095971169E+02  0.16330635994E+03  0.16622077789E+03  0.10566000000E+00 0. -1.
         13    1    4    4    0    0  0.31232595213E+01 -0.18339556502E+01  0.36886025632E+01  0.51705992177E+01  0.10566000000E+00 0. -1.
        -13    1    4    4    0    0  0.20101386665E+02 -0.13172442861E+02  0.24330476306E+02  0.34198863111E+02  0.10566000000E+00 0.  1.
         14    1    4    4    0    0  0.26229148675E+01 -0.20895726577E+01  0.42718623406E+01  0.54309119079E+01  0.00000000000E+00 0. -1.
<mgrwt>
<rscale>  0 0.79193576E+02</rscale>
<asrwt>0</asrwt>
<pdfrwt beam="1">  1        1 0.31278340E-01 0.79193576E+02</pdfrwt>
<pdfrwt beam="2">  1       -2 0.11864502E-02 0.79193576E+02</pdfrwt>
<totfact> 0.17182792E+05</totfact>
</mgrwt>
</event>
<event>
 8    1  0.8577104E-014  0.7879344E+02  0.7818608E-02  0.1332511E+00
         -2   -1    0    0    0  501 -0.00000000000E+00  0.00000000000E+00  0.26103886830E+02  0.26103886955E+02  0.25500000000E-02 0.  1.
          1   -1    0    0  501    0  0.00000000000E+00 -0.00000000000E+00 -0.59458639880E+02  0.59458640094E+02  0.50400000000E-02 0. -1.
        -24    2    1    2    0    0  0.00000000000E+00  0.17763568394E-14 -0.33354753050E+02  0.85562527049E+02  0.78793441884E+02 0.  0.
         66    2    3    3    0    0 -0.40242128463E+01  0.10893068084E+02  0.24163512049E+02  0.26883610857E+02  0.19999992135E+01 0.  0.
         13    1    3    3    0    0  0.40242128463E+01 -0.10893068084E+02 -0.57518265100E+02  0.58678916192E+02  0.10566000000E+00 0. -1.
         13    1    4    4    0    0 -0.29545061821E+01  0.83285982837E+01  0.17478078346E+02  0.19585429351E+02  0.10566000000E+00 0.  1.
        -13    1    4    4    0    0 -0.10917370317E+01  0.17202823423E+01  0.41227657409E+01  0.45999589643E+01  0.10566000000E+00 0. -1.
         14    1    4    4    0    0  0.22030367455E-01  0.84418745774E+00  0.25626679621E+01  0.26982225417E+01  0.00000000000E+00 0. -1.
<mgrwt>
<rscale>  0 0.78793442E+02</rscale>
<asrwt>0</asrwt>
<pdfrwt beam="1">  1        1 0.91474831E-02 0.78793442E+02</pdfrwt>
<pdfrwt beam="2">  1       -2 0.40159826E-02 0.78793442E+02</pdfrwt>
<totfact> 0.14097135E+05</totfact>
</mgrwt>
</event>
<event>
 8    1  0.8577104E-014  0.7925106E+02  0.7818608E-02  0.1331190E+00
         -2   -1    0    0    0  501 -0.00000000000E+00  0.00000000000E+00  0.28220879026E+03  0.28220879027E+03  0.25500000000E-02 0.  1.
          1   -1    0    0  501    0  0.00000000000E+00 -0.00000000000E+00 -0.55639035041E+01  0.55639057869E+01  0.50400000000E-02 0. -1.
        -24    2    1    2    0    0  0.00000000000E+00  0.00000000000E+00  0.27664488676E+03  0.28777269606E+03  0.79251064527E+02 0.  0.
         66    2    3    3    0    0 -0.56499907089E+01 -0.29578176424E+02  0.23179425156E+03  0.23375064911E+03  0.19999962249E+01 0.  0.
         13    1    3    3    0    0  0.56499907089E+01  0.29578176424E+02  0.44850635196E+02  0.54022046954E+02  0.10566000000E+00 0. -1.
         13    1    4    4    0    0 -0.20590533835E+00 -0.21830791213E+01  0.15485949985E+02  0.15640781389E+02  0.10566000000E+00 0. -1.
        -13    1    4    4    0    0 -0.28898542093E+01 -0.18360943623E+02  0.14360787755E+03  0.14480576358E+03  0.10566000000E+00 0.  1.
         14    1    4    4    0    0 -0.25542311612E+01 -0.90341536801E+01  0.72700424030E+02  0.73304104139E+02  0.00000000000E+00 0. -1.
<mgrwt>
<rscale>  0 0.79251065E+02</rscale>
<asrwt>0</asrwt>
<pdfrwt beam="1">  1        1 0.85598531E-03 0.79251065E+02</pdfrwt>
<pdfrwt beam="2">  1       -2 0.43416738E-01 0.79251065E+02</pdfrwt>
<totfact> 0.74378530E+04</totfact>
</mgrwt>
</event>
<event>
 8    1  0.8577104E-014  0.8186542E+02  0.7818608E-02  0.1323839E+00
         -2   -1    0    0    0  501 -0.00000000000E+00  0.00000000000E+00  0.86685411530E+01  0.86685415281E+01  0.25500000000E-02 0.  1.
          1   -1    0    0  501    0  0.00000000000E+00 -0.00000000000E+00 -0.19328357201E+03  0.19328357208E+03  0.50400000000E-02 0. -1.
        -24    2    1    2    0    0  0.00000000000E+00  0.00000000000E+00 -0.18461503086E+03  0.20195211360E+03  0.81865417428E+02 0.  0.
         66    2    3    3    0    0 -0.46673170741E+01  0.40640373165E+02 -0.92955915405E+02  0.10157866896E+03  0.19999999519E+01 0.  0.
         13    1    3    3    0    0  0.46673170741E+01 -0.40640373165E+02 -0.91659115451E+02  0.10037344464E+03  0.10566000000E+00 0. -1.
         13    1    4    4    0    0 -0.16659037275E+01  0.17399748873E+02 -0.40193099084E+02  0.43829474946E+02  0.10566000000E+00 0. -1.
        -13    1    4    4    0    0 -0.26044959591E+01  0.15837988529E+02 -0.36876992788E+02  0.40218764787E+02  0.10566000000E+00 0.  1.
         14    1    4    4    0    0 -0.39691738750E+00  0.74026357633E+01 -0.15885823533E+02  0.17530429230E+02  0.00000000000E+00 0. -1.
<mgrwt>
<rscale>  0 0.81865417E+02</rscale>
<asrwt>0</asrwt>
<pdfrwt beam="1">  1        1 0.29735931E-01 0.81865417E+02</pdfrwt>
<pdfrwt beam="2">  1       -2 0.13336219E-02 0.81865417E+02</pdfrwt>
<totfact> 0.15578767E+05</totfact>
</mgrwt>
</event>
<event>
 8    1  0.8577104E-014  0.8550434E+02  0.7818608E-02  0.1314119E+00
          1   -1    0    0  501    0  0.00000000000E+00  0.00000000000E+00  0.22932858779E+01  0.22932914161E+01  0.50400000000E-02 0. -1.
         -2   -1    0    0    0  501 -0.00000000000E+00 -0.00000000000E+00 -0.79699863310E+03  0.79699863311E+03  0.25500000000E-02 0.  1.
        -24    2    1    2    0    0 -0.17763568394E-14  0.35527136788E-14 -0.79470534722E+03  0.79929192452E+03  0.85504337316E+02 0.  0.
         66    2    3    3    0    0  0.11207669701E+02  0.30041601462E+02 -0.66157856497E+03  0.66235814127E+03  0.19999999865E+01 0.  0.
         13    1    3    3    0    0 -0.11207669701E+02 -0.30041601462E+02 -0.13312678226E+03  0.13693378325E+03  0.10566000000E+00 0. -1.
         13    1    4    4    0    0  0.64424763384E+00  0.27156969830E+01 -0.60722950000E+02  0.60787152310E+02  0.10566000000E+00 0. -1.
        -13    1    4    4    0    0  0.26643081612E+01  0.72232230602E+01 -0.14615818691E+03  0.14636085630E+03  0.10566000000E+00 0.  1.
        -14    1    4    4    0    0  0.78991139055E+01  0.20102681418E+02 -0.45469742805E+03  0.45521013266E+03  0.00000000000E+00 0.  1.
<mgrwt>
<rscale>  0 0.85504337E+02</rscale>
<asrwt>0</asrwt>
<pdfrwt beam="1">  1        1 0.35281427E-03 0.85504337E+02</pdfrwt>
<pdfrwt beam="2">  1       -2 0.12261495E+00 0.85504337E+02</pdfrwt>
<totfact> 0.28077487E+04</totfact>
</mgrwt>
</event>
<event>
 8    1  0.8577104E-014  0.8697670E+02  0.7818608E-02  0.1310343E+00
         -2   -1    0    0    0  501 -0.00000000000E+00  0.00000000000E+00  0.34798687592E+02  0.34798687686E+02  0.25500000000E-02 0.  1.
          1   -1    0    0  501    0  0.00000000000E+00 -0.00000000000E+00 -0.54347930237E+02  0.54347930470E+02  0.50400000000E-02 0. -1.
        -24    2    1    2    0    0  0.71054273576E-14 -0.35527136788E-14 -0.19549242645E+02  0.89146618156E+02  0.86976701712E+02 0.  0.
         66    2    3    3    0    0 -0.40569048700E+02  0.11218577946E+02  0.13316943634E+01  0.42160142465E+02  0.19999998127E+01 0.  0.
         13    1    3    3    0    0  0.40569048700E+02 -0.11218577946E+02 -0.20880937008E+02  0.46986475691E+02  0.10566000000E+00 0. -1.
         13    1    4    4    0    0 -0.71914408578E+01  0.22505117648E+01  0.24982537596E+00  0.75402388270E+01  0.10566000000E+00 0. -1.
        -13    1    4    4    0    0 -0.24776969910E+02  0.72270043563E+01  0.12961487003E+01  0.25842194090E+02  0.10566000000E+00 0.  1.
         14    1    4    4    0    0 -0.86006379314E+01  0.17410618248E+01 -0.21427971291E+00  0.87777095475E+01  0.00000000000E+00 0. -1.
<mgrwt>
<rscale>  0 0.86976702E+02</rscale>
<asrwt>0</asrwt>
<pdfrwt beam="1">  1        1 0.83612201E-02 0.86976702E+02</pdfrwt>
<pdfrwt beam="2">  1       -2 0.53536442E-02 0.86976702E+02</pdfrwt>
<totfact> 0.10557163E+05</totfact>
</mgrwt>
</event>
<event>
 8    1  0.8577104E-014  0.7975143E+02  0.7818608E-02  0.1329758E+00
         -2   -1    0    0    0  501 -0.00000000000E+00  0.00000000000E+00  0.35867335663E+02  0.35867335753E+02  0.25500000000E-02 0.  1.
          1   -1    0    0  501    0  0.00000000000E+00 -0.00000000000E+00 -0.44332050208E+02  0.44332050494E+02  0.50400000000E-02 0. -1.
        -24    2    1    2    0    0  0.35527136788E-14 -0.35527136788E-14 -0.84647145453E+01  0.80199386248E+02  0.79751427336E+02 0.  0.
         66    2    3    3    0    0  0.27201319026E+02 -0.26334700994E+02  0.82702446576E+01  0.38804963233E+02  0.19999979025E+01 0.  0.
         13    1    3    3    0    0 -0.27201319026E+02  0.26334700994E+02 -0.16734959203E+02  0.41394423015E+02  0.10566000000E+00 0. -1.
         13    1    4    4    0    0  0.19978138556E+02 -0.19934858225E+02  0.60325529688E+01  0.28860482531E+02  0.10566000000E+00 0. -1.
        -13    1    4    4    0    0  0.39081129184E+00 -0.21088981943E+00  0.22372444107E+00  0.50835483956E+00  0.10566000000E+00 0.  1.
        -14    1    4    4    0    0  0.68323691785E+01 -0.61889529499E+01  0.20139672477E+01  0.94361258619E+01  0.00000000000E+00 0.  1.
<mgrwt>
<rscale>  0 0.79751427E+02</rscale>
<asrwt>0</asrwt>
<pdfrwt beam="1">  1        1 0.68203155E-02 0.79751427E+02</pdfrwt>
<pdfrwt beam="2">  1       -2 0.55180517E-02 0.79751427E+02</pdfrwt>
<totfact> 0.13022059E+05</totfact>
</mgrwt>
</event>
<event>
 8    1  0.8577104E-014  0.8094429E+02  0.7818608E-02  0.1326393E+00
          1   -1    0    0  501    0  0.00000000000E+00  0.00000000000E+00  0.14915833374E+02  0.14915834225E+02  0.50400000000E-02 0. -1.
         -2   -1    0    0    0  501 -0.00000000000E+00 -0.00000000000E+00 -0.10981582171E+03  0.10981582174E+03  0.25500000000E-02 0.  1.
        -24    2    1    2    0    0  0.00000000000E+00  0.88817841970E-15 -0.94899988336E+02  0.12473165596E+03  0.80944290803E+02 0.  0.
         66    2    3    3    0    0  0.36082845347E+02 -0.66121056281E+01 -0.73733905351E+02  0.82379490706E+02  0.20000053702E+01 0.  0.
         13    1    3    3    0    0 -0.36082845347E+02  0.66121056281E+01 -0.21166082985E+02  0.42352165259E+02  0.10566000000E+00 0. -1.
         13    1    4    4    0    0  0.11154868988E+02 -0.25915488934E+01 -0.21538015878E+02  0.24393534385E+02  0.10566000000E+00 0. -1.
        -13    1    4    4    0    0  0.61856052439E+01 -0.82020599904E+00 -0.12480446203E+02  0.13953750448E+02  0.10566000000E+00 0.  1.
         14    1    4    4    0    0  0.18742371115E+02 -0.32003507356E+01 -0.39715443270E+02  0.44032205872E+02  0.00000000000E+00 0. -1.
<mgrwt>
<rscale>  0 0.80944291E+02</rscale>
<asrwt>0</asrwt>
<pdfrwt beam="1">  1        1 0.22947437E-02 0.80944291E+02</pdfrwt>
<pdfrwt beam="2">  1       -2 0.16894741E-01 0.80944291E+02</pdfrwt>
<totfact> 0.10054300E+05</totfact>
</mgrwt>
</event>
<event>
 8    1  0.8577104E-014  0.7931764E+02  0.7818608E-02  0.1330999E+00
          1   -1    0    0  501    0  0.00000000000E+00  0.00000000000E+00  0.56883011237E+01  0.56883033565E+01  0.50400000000E-02 0. -1.
         -2   -1    0    0    0  501 -0.00000000000E+00 -0.00000000000E+00 -0.27650115049E+03  0.27650115050E+03  0.25500000000E-02 0.  1.
        -24    2    1    2    0    0  0.44408920985E-15  0.00000000000E+00 -0.27081284937E+03  0.28218945386E+03  0.79317642974E+02 0.  0.
         66    2    3    3    0    0  0.29620467988E+01 -0.39323251549E+02 -0.12138409722E+03  0.12764478405E+03  0.20000010181E+01 0.  0.
         13    1    3    3    0    0 -0.29620467988E+01  0.39323251549E+02 -0.14942875215E+03  0.15454466981E+03  0.10566000000E+00 0. -1.
         13    1    4    4    0    0 -0.11956767066E+00 -0.26684119312E+01 -0.80485420431E+01  0.84808556006E+01  0.10566000000E+00 0. -1.
        -13    1    4    4    0    0  0.76081128831E+00 -0.13770231383E+02 -0.40693844774E+02  0.42967409425E+02  0.10566000000E+00 0.  1.
         14    1    4    4    0    0  0.23208031811E+01 -0.22884608235E+02 -0.72641710403E+02  0.76196519026E+02  0.00000000000E+00 0. -1.
<mgrwt>
<rscale>  0 0.79317643E+02</rscale>
<asrwt>0</asrwt>
<pdfrwt beam="1">  1        1 0.87512364E-03 0.79317643E+02</pdfrwt>
<pdfrwt beam="2">  1       -2 0.42538628E-01 0.79317643E+02</pdfrwt>
<totfact> 0.75005387E+04</totfact>
</mgrwt>
</event>
<event>
 8    1  0.8577104E-014  0.8891040E+02  0.7818608E-02  0.1305512E+00
         -2   -1    0    0    0  501 -0.00000000000E+00  0.00000000000E+00  0.41610626364E+02  0.41610626442E+02  0.25500000000E-02 0.  1.
          1   -1    0    0  501    0  0.00000000000E+00 -0.00000000000E+00 -0.47494231625E+02  0.47494231892E+02  0.50400000000E-02 0. -1.
        -24    2    1    2    0    0  0.35527136788E-14  0.00000000000E+00 -0.58836052608E+01  0.89104858335E+02  0.88910398537E+02 0.  0.
         66    2    3    3    0    0  0.26172617698E+02 -0.99967048530E+01  0.31618653743E+02  0.42292780626E+02  0.20000008739E+01 0.  0.
         13    1    3    3    0    0 -0.26172617698E+02  0.99967048530E+01 -0.37502259003E+02  0.46812077709E+02  0.10566000000E+00 0. -1.
         13    1    4    4    0    0  0.11648648216E+02 -0.49276863298E+01  0.13501065940E+02  0.18500352520E+02  0.10566000000E+00 0. -1.
        -13    1    4    4    0    0  0.58248769940E+01 -0.21883294919E+01  0.65503819856E+01  0.90353000035E+01  0.10566000000E+00 0.  1.
        -14    1    4    4    0    0  0.86990924880E+01 -0.28806890313E+01  0.11567205817E+02  0.14757128102E+02  0.00000000000E+00 0.  1.
<mgrwt>
<rscale>  0 0.88910399E+02</rscale>
<asrwt>0</asrwt>
<pdfrwt beam="1">  1        1 0.73068050E-02 0.88910399E+02</pdfrwt>
<pdfrwt beam="2">  1       -2 0.64016348E-02 0.88910399E+02</pdfrwt>
<totfact> 0.96937004E+04</totfact>
</mgrwt>
</event>
<event>
 8    1  0.8577104E-014  0.8133477E+02  0.7818608E-02  0.1325306E+00
          1   -1    0    0  501    0  0.00000000000E+00  0.00000000000E+00  0.13034077953E+03  0.13034077962E+03  0.50400000000E-02 0. -1.
         -2   -1    0    0    0  501 -0.00000000000E+00 -0.00000000000E+00 -0.12688554973E+02  0.12688555229E+02  0.25500000000E-02 0.  1.
        -24    2    1    2    0    0  0.00000000000E+00  0.00000000000E+00  0.11765222455E+03  0.14302933485E+03  0.81334769232E+02 0.  0.
         66    2    3    3    0    0 -0.16467552185E+02  0.15576134649E+02 -0.46190571612E+00  0.22759824257E+02  0.19999994301E+01 0.  0.
         13    1    3    3    0    0  0.16467552185E+02 -0.15576134649E+02  0.11811413027E+03  0.12026951060E+03  0.10566000000E+00 0. -1.
         13    1    4    4    0    0 -0.41224302204E+01  0.40144184482E+01  0.65222515548E+00  0.57919381979E+01  0.10566000000E+00 0.  1.
        -13    1    4    4    0    0 -0.41357097463E+01  0.34460490979E+01 -0.20032051800E+00  0.53880090791E+01  0.10566000000E+00 0.  1.
        -14    1    4    4    0    0 -0.82094122187E+01  0.81156671029E+01 -0.91381035360E+00  0.11579876980E+02  0.00000000000E+00 0.  1.
<mgrwt>
<rscale>  0 0.81334769E+02</rscale>
<asrwt>0</asrwt>
<pdfrwt beam="1">  1        1 0.20052427E-01 0.81334769E+02</pdfrwt>
<pdfrwt beam="2">  1       -2 0.19520854E-02 0.81334769E+02</pdfrwt>
<totfact> 0.14721664E+05</totfact>
</mgrwt>
</event>
<event>
 8    1  0.8577104E-014  0.7788576E+02  0.7818608E-02  0.1335161E+00
         -2   -1    0    0    0  501 -0.00000000000E+00  0.00000000000E+00  0.17682619845E+02  0.17682620028E+02  0.25500000000E-02 0.  1.
          1   -1    0    0  501    0  0.00000000000E+00 -0.00000000000E+00 -0.85764883864E+02  0.85764884012E+02  0.50400000000E-02 0. -1.
        -24    2    1    2    0    0  0.00000000000E+00  0.00000000000E+00 -0.68082264019E+02  0.10344750404E+03  0.77885758763E+02 0.  0.
         66    2    3    3    0    0 -0.25986555538E+02  0.11549240535E+02  0.12239356392E+01  0.28533910475E+02  0.20000007290E+01 0.  0.
         13    1    3    3    0    0  0.25986555538E+02 -0.11549240535E+02 -0.69306199658E+02  0.74913593565E+02  0.10566000000E+00 0. -1.
         13    1    4    4    0    0 -0.10952346062E+02  0.55135081881E+01  0.17821406983E+00  0.12263587611E+02  0.10566000000E+00 0. -1.
        -13    1    4    4    0    0 -0.13017142645E+02  0.51588968998E+01  0.53697479235E+00  0.14012841462E+02  0.10566000000E+00 0.  1.
         14    1    4    4    0    0 -0.20170668310E+01  0.87683544699E+00  0.50874677704E+00  0.22574814030E+01  0.00000000000E+00 0. -1.
<mgrwt>
<rscale>  0 0.77885759E+02</rscale>
<asrwt>0</asrwt>
<pdfrwt beam="1">  1        1 0.13194597E-01 0.77885759E+02</pdfrwt>
<pdfrwt beam="2">  1       -2 0.27204031E-02 0.77885759E+02</pdfrwt>
<totfact> 0.15409556E+05</totfact>
</mgrwt>
</event>
<event>
 8    1  0.8577104E-014  0.7891517E+02  0.7818608E-02  0.1332159E+00
          1   -1    0    0  501    0  0.00000000000E+00  0.00000000000E+00  0.13589149277E+03  0.13589149287E+03  0.50400000000E-02 0. -1.
         -2   -1    0    0    0  501 -0.00000000000E+00 -0.00000000000E+00 -0.11456942791E+02  0.11456943075E+02  0.25500000000E-02 0.  1.
        -24    2    1    2    0    0 -0.35527136788E-14  0.00000000000E+00  0.12443454998E+03  0.14734843594E+03  0.78915171832E+02 0.  0.
         66    2    3    3    0    0  0.27271504694E+02  0.11301821968E+02  0.13444514443E+02  0.32499555664E+02  0.20000004137E+01 0.  0.
         13    1    3    3    0    0 -0.27271504694E+02 -0.11301821968E+02  0.11099003554E+03  0.11484888028E+03  0.10566000000E+00 0. -1.
         13    1    4    4    0    0  0.36337303455E+00  0.27065661670E+00  0.13885442794E+00  0.48553017842E+00  0.10566000000E+00 0.  1.
        -13    1    4    4    0    0  0.37989407371E+01  0.10732327543E+01  0.15921748012E+01  0.42579295323E+01  0.10566000000E+00 0.  1.
        -14    1    4    4    0    0  0.23109190923E+02  0.99579325974E+01  0.11713485214E+02  0.27756095954E+02  0.00000000000E+00 0.  1.
<mgrwt>
<rscale>  0 0.78915172E+02</rscale>
<asrwt>0</asrwt>
<pdfrwt beam="1">  1        1 0.20906384E-01 0.78915172E+02</pdfrwt>
<pdfrwt beam="2">  1       -2 0.17626066E-02 0.78915172E+02</pdfrwt>
<totfact> 0.16083271E+05</totfact>
</mgrwt>
</event>
<event>
 8    1  0.8577104E-014  0.7602941E+02  0.7818608E-02  0.1340713E+00
         -2   -1    0    0    0  501 -0.00000000000E+00  0.00000000000E+00  0.93122745760E+02  0.93122745795E+02  0.25500000000E-02 0.  1.
          1   -1    0    0  501    0  0.00000000000E+00 -0.00000000000E+00 -0.15518419251E+02  0.15518420070E+02  0.50400000000E-02 0. -1.
        -24    2    1    2    0    0 -0.71054273576E-14  0.17763568394E-14  0.77604326508E+02  0.10864116586E+03  0.76029411596E+02 0.  0.
         66    2    3    3    0    0 -0.28305643894E+02  0.82663669762E+01  0.73051007114E+02  0.78803502068E+02  0.19999996491E+01 0.  0.
         13    1    3    3    0    0  0.28305643894E+02 -0.82663669762E+01  0.45533193944E+01  0.29837663796E+02  0.10566000000E+00 0. -1.
         13    1    4    4    0    0 -0.86277938077E+01  0.26343356567E+01  0.21429648596E+02  0.23251226921E+02  0.10566000000E+00 0. -1.
        -13    1    4    4    0    0 -0.18210973974E+02  0.55507257749E+01  0.47286608782E+02  0.50975333877E+02  0.10566000000E+00 0.  1.
        -14    1    4    4    0    0 -0.14668761125E+01  0.81305544587E-01  0.43347497362E+01  0.45769412709E+01  0.00000000000E+00 0.  1.
<mgrwt>
<rscale>  0 0.76029412E+02</rscale>
<asrwt>0</asrwt>
<pdfrwt beam="1">  1        1 0.23874492E-02 0.76029412E+02</pdfrwt>
<pdfrwt beam="2">  1       -2 0.14326576E-01 0.76029412E+02</pdfrwt>
<totfact> 0.12297023E+05</totfact>
</mgrwt>
</event>
<event>
 8    1  0.8577104E-014  0.7986404E+02  0.7818608E-02  0.1329438E+00
         -2   -1    0    0    0  501 -0.00000000000E+00  0.00000000000E+00  0.35574263457E+02  0.35574263548E+02  0.25500000000E-02 0.  1.
          1   -1    0    0  501    0  0.00000000000E+00 -0.00000000000E+00 -0.44823590764E+02  0.44823591048E+02  0.50400000000E-02 0. -1.
        -24    2    1    2    0    0  0.35527136788E-14  0.00000000000E+00 -0.92493273078E+01  0.80397854596E+02  0.79864040518E+02 0.  0.
         66    2    3    3    0    0  0.23102227301E+02  0.20659869179E+02  0.20680452450E+02  0.37312520883E+02  0.20000000830E+01 0.  0.
         13    1    3    3    0    0 -0.23102227301E+02 -0.20659869179E+02 -0.29929779758E+02  0.43085333713E+02  0.10566000000E+00 0. -1.
         13    1    4    4    0    0  0.15216019317E+01  0.19549764574E+01  0.17470960133E+01  0.30332678588E+01  0.10566000000E+00 0. -1.
        -13    1    4    4    0    0  0.14191070895E+02  0.11973606650E+02  0.11821660282E+02  0.22011736987E+02  0.10566000000E+00 0.  1.
         14    1    4    4    0    0  0.73895544743E+01  0.67312860720E+01  0.71116961551E+01  0.12267516037E+02  0.00000000000E+00 0. -1.
<mgrwt>
<rscale>  0 0.79864041E+02</rscale>
<asrwt>0</asrwt>
<pdfrwt beam="1">  1        1 0.68959371E-02 0.79864041E+02</pdfrwt>
<pdfrwt beam="2">  1       -2 0.54729636E-02 0.79864041E+02</pdfrwt>
<totfact> 0.12993480E+05</totfact>
</mgrwt>
</event>
<event>
 8    1  0.8577104E-014  0.8085760E+02  0.7818608E-02  0.1326635E+00
         -2   -1    0    0    0  501 -0.00000000000E+00  0.00000000000E+00  0.23959561878E+02  0.23959562014E+02  0.25500000000E-02 0.  1.
          1   -1    0    0  501    0  0.00000000000E+00 -0.00000000000E+00 -0.68218601926E+02  0.68218602112E+02  0.50400000000E-02 0. -1.
        -24    2    1    2    0    0  0.00000000000E+00  0.00000000000E+00 -0.44259040048E+02  0.92178164125E+02  0.80857598997E+02 0.  0.
         66    2    3    3    0    0 -0.99078026339E+01 -0.34743651850E+02 -0.15219206500E+01  0.36216048053E+02  0.19999992960E+01 0.  0.
         13    1    3    3    0    0  0.99078026339E+01  0.34743651850E+02 -0.42737119398E+02  0.55962116073E+02  0.10566000000E+00 0. -1.
         13    1    4    4    0    0 -0.47357181893E+00 -0.13209344651E+01  0.17361748392E+00  0.14179016874E+01  0.10566000000E+00 0.  1.
        -13    1    4    4    0    0 -0.59219170812E+01 -0.23342273822E+02 -0.11607092277E+01  0.24109941084E+02  0.10566000000E+00 0.  1.
        -14    1    4    4    0    0 -0.35123137338E+01 -0.10080443562E+02 -0.53482890628E+00  0.10688205282E+02  0.00000000000E+00 0.  1.
<mgrwt>
<rscale>  0 0.80857599E+02</rscale>
<asrwt>0</asrwt>
<pdfrwt beam="1">  1        1 0.10495170E-01 0.80857599E+02</pdfrwt>
<pdfrwt beam="2">  1       -2 0.36860865E-02 0.80857599E+02</pdfrwt>
<totfact> 0.13416015E+05</totfact>
</mgrwt>
</event>
<event>
 8    1  0.8577104E-014  0.8024270E+02  0.7818608E-02  0.1328364E+00
         -2   -1    0    0    0  501 -0.00000000000E+00  0.00000000000E+00  0.41602600108E+03  0.41602600109E+03  0.25500000000E-02 0.  1.
          1   -1    0    0  501    0  0.00000000000E+00 -0.00000000000E+00 -0.38692824434E+01  0.38692857259E+01  0.50400000000E-02 0. -1.
        -24    2    1    2    0    0  0.00000000000E+00  0.00000000000E+00  0.41215671863E+03  0.41989528681E+03  0.80242701668E+02 0.  0.
         66    2    3    3    0    0  0.11049600120E+02  0.35054946095E+02  0.29005770119E+03  0.29238401619E+03  0.19999999992E+01 0.  0.
         13    1    3    3    0    0 -0.11049600120E+02 -0.35054946095E+02  0.12209901745E+03  0.12751127062E+03  0.10566000000E+00 0. -1.
         13    1    4    4    0    0  0.25215150550E+00  0.59260337924E+00  0.36942870389E+01  0.37514903583E+01  0.10566000000E+00 0. -1.
        -13    1    4    4    0    0  0.62617097826E+01  0.19793101722E+02  0.16728263643E+03  0.16856591441E+03  0.10566000000E+00 0.  1.
        -14    1    4    4    0    0  0.45357388321E+01  0.14669240994E+02  0.11908077772E+03  0.12006661143E+03  0.00000000000E+00 0.  1.
<mgrwt>
<rscale>  0 0.80242702E+02</rscale>
<asrwt>0</asrwt>
<pdfrwt beam="1">  1        1 0.59527446E-03 0.80242702E+02</pdfrwt>
<pdfrwt beam="2">  1       -2 0.64004002E-01 0.80242702E+02</pdfrwt>
<totfact> 0.57106049E+04</totfact>
</mgrwt>
</event>
<event>
 8    1  0.8577104E-014  0.7919154E+02  0.7818608E-02  0.1331362E+00
         -2   -1    0    0    0  501 -0.00000000000E+00  0.00000000000E+00  0.64096390876E+02  0.64096390926E+02  0.25500000000E-02 0.  1.
          1   -1    0    0  501    0  0.00000000000E+00 -0.00000000000E+00 -0.24460424054E+02  0.24460424573E+02  0.50400000000E-02 0. -1.
        -24    2    1    2    0    0  0.00000000000E+00  0.00000000000E+00  0.39635966821E+02  0.88556815500E+02  0.79191538093E+02 0.  0.
         66    2    3    3    0    0  0.92323114072E+01  0.34314538947E+02  0.39299151820E+02  0.53020246089E+02  0.20000011200E+01 0.  0.
         13    1    3    3    0    0 -0.92323114072E+01 -0.34314538947E+02  0.33681500142E+00  0.35536569411E+02  0.10566000000E+00 0. -1.
         13    1    4    4    0    0  0.39597321550E+01  0.15972500866E+02  0.17367042342E+02  0.23925417162E+02  0.10566000000E+00 0. -1.
        -13    1    4    4    0    0  0.21371099319E+01  0.94466665261E+01  0.11152224758E+02  0.14771256832E+02  0.10566000000E+00 0.  1.
        -14    1    4    4    0    0  0.31354693203E+01  0.88953715558E+01  0.10779884720E+02  0.14323572095E+02  0.00000000000E+00 0.  1.
<mgrwt>
<rscale>  0 0.79191538E+02</rscale>
<asrwt>0</asrwt>
<pdfrwt beam="1">  1        1 0.37631423E-02 0.79191538E+02</pdfrwt>
<pdfrwt beam="2">  1       -2 0.98609831E-02 0.79191538E+02</pdfrwt>
<totfact> 0.11996619E+05</totfact>
</mgrwt>
</event>
<event>
 8    1  0.8577104E-014  0.8093774E+02  0.7818608E-02  0.1326411E+00
         -2   -1    0    0    0  501 -0.00000000000E+00  0.00000000000E+00  0.88141035732E+01  0.88141039421E+01  0.25500000000E-02 0.  1.
          1   -1    0    0  501    0  0.00000000000E+00 -0.00000000000E+00 -0.18580780344E+03  0.18580780351E+03  0.50400000000E-02 0. -1.
        -24    2    1    2    0    0 -0.71054273576E-14 -0.35527136788E-14 -0.17699369987E+03  0.19462190745E+03  0.80937735743E+02 0.  0.
         66    2    3    3    0    0 -0.34480551187E+02 -0.21129980868E+02 -0.89952397065E+02  0.98644909899E+02  0.20000023759E+01 0.  0.
         13    1    3    3    0    0  0.34480551187E+02  0.21129980868E+02 -0.87041302803E+02  0.95976997553E+02  0.10566000000E+00 0. -1.
         13    1    4    4    0    0 -0.17499486271E+02 -0.11468272516E+02 -0.47873579438E+02  0.52245995698E+02  0.10566000000E+00 0. -1.
        -13    1    4    4    0    0 -0.73732337318E+01 -0.43547567219E+01 -0.17678618778E+02  0.19643655660E+02  0.10566000000E+00 0.  1.
         14    1    4    4    0    0 -0.96078311844E+01 -0.53069516303E+01 -0.24400198850E+02  0.26755258541E+02  0.00000000000E+00 0. -1.
<mgrwt>
<rscale>  0 0.80937736E+02</rscale>
<asrwt>0</asrwt>
<pdfrwt beam="1">  1        1 0.28585813E-01 0.80937736E+02</pdfrwt>
<pdfrwt beam="2">  1       -2 0.13560161E-02 0.80937736E+02</pdfrwt>
<totfact> 0.15936467E+05</totfact>
</mgrwt>
</event>
<event>
 8    1  0.8577104E-014  0.7918471E+02  0.7818608E-02  0.1331381E+00
         -2   -1    0    0    0  501 -0.00000000000E+00  0.00000000000E+00  0.81952256911E+03  0.81952256911E+03  0.25500000000E-02 0.  1.
          1   -1    0    0  501    0  0.00000000000E+00 -0.00000000000E+00 -0.19127621508E+01  0.19127687908E+01  0.50400000000E-02 0. -1.
        -24    2    1    2    0    0 -0.71054273576E-14  0.88817841970E-15  0.81760980696E+03  0.82143533790E+03  0.79184707632E+02 0.  0.
         66    2    3    3    0    0  0.32986075272E+02 -0.52771068315E+01  0.62903074828E+03  0.62992032138E+03  0.19999965754E+01 0.  0.
         13    1    3    3    0    0 -0.32986075272E+02  0.52771068315E+01  0.18857905867E+03  0.19151501652E+03  0.10566000000E+00 0. -1.
         13    1    4    4    0    0  0.43188375188E+01 -0.12983896771E+01  0.86146125156E+02  0.86264153718E+02  0.10566000000E+00 0. -1.
        -13    1    4    4    0    0  0.10899476894E+02 -0.11683548349E+01  0.20205144839E+03  0.20234861653E+03  0.10566000000E+00 0.  1.
        -14    1    4    4    0    0  0.17767760860E+02 -0.28103623195E+01  0.34083317474E+03  0.34130755114E+03  0.00000000000E+00 0.  1.
<mgrwt>
<rscale>  0 0.79184708E+02</rscale>
<asrwt>0</asrwt>
<pdfrwt beam="1">  1        1 0.29427241E-03 0.79184708E+02</pdfrwt>
<pdfrwt beam="2">  1       -2 0.12608005E+00 0.79184708E+02</pdfrwt>
<totfact> 0.33284941E+04</totfact>
</mgrwt>
</event>
<event>
 8    1  0.8577104E-014  0.8028230E+02  0.7818608E-02  0.1328252E+00
         -2   -1    0    0    0  501 -0.00000000000E+00  0.00000000000E+00  0.91150883620E+02  0.91150883656E+02  0.25500000000E-02 0.  1.
          1   -1    0    0  501    0  0.00000000000E+00 -0.00000000000E+00 -0.17677412022E+02  0.17677412740E+02  0.50400000000E-02 0. -1.
        -24    2    1    2    0    0  0.00000000000E+00  0.00000000000E+00  0.73473471599E+02  0.10882829640E+03  0.80282296104E+02 0.  0.
         66    2    3    3    0    0 -0.75592929395E+00  0.10944050731E+02  0.89066977861E+02  0.89762298465E+02  0.20000012584E+01 0.  0.
         13    1    3    3    0    0  0.75592929395E+00 -0.10944050731E+02 -0.15593506262E+02  0.19065997931E+02  0.10566000000E+00 0. -1.
         13    1    4    4    0    0 -0.78621197413E+00  0.21434101487E+01  0.19344218415E+02  0.19478765013E+02  0.10566000000E+00 0. -1.
        -13    1    4    4    0    0 -0.44646553513E+00  0.61824514905E+01  0.48796633956E+02  0.49188867515E+02  0.10566000000E+00 0.  1.
         14    1    4    4    0    0  0.47674821531E+00  0.26181890921E+01  0.20926125490E+02  0.21094665937E+02  0.00000000000E+00 0. -1.
<mgrwt>
<rscale>  0 0.80282296E+02</rscale>
<asrwt>0</asrwt>
<pdfrwt beam="1">  1        1 0.27196019E-02 0.80282296E+02</pdfrwt>
<pdfrwt beam="2">  1       -2 0.14023213E-01 0.80282296E+02</pdfrwt>
<totfact> 0.10755373E+05</totfact>
</mgrwt>
</event>
<event>
 8    1  0.8577104E-014  0.8102050E+02  0.7818608E-02  0.1326180E+00
          1   -1    0    0  501    0  0.00000000000E+00  0.00000000000E+00  0.15975789843E+01  0.15975869343E+01  0.50400000000E-02 0. -1.
         -2   -1    0    0    0  501 -0.00000000000E+00 -0.00000000000E+00 -0.10272269067E+04  0.10272269067E+04  0.25500000000E-02 0.  1.
        -24    2    1    2    0    0  0.17763568394E-14 -0.35527136788E-14 -0.10256293278E+04  0.10288244937E+04  0.81020496407E+02 0.  0.
         66    2    3    3    0    0  0.13834709346E+02 -0.26454616511E+02 -0.86038058271E+03  0.86090068709E+03  0.20000002195E+01 0.  0.
         13    1    3    3    0    0 -0.13834709346E+02  0.26454616511E+02 -0.16524874504E+03  0.16792380659E+03  0.10566000000E+00 0. -1.
         13    1    4    4    0    0  0.55154278599E+00 -0.72883848688E+00 -0.31430088035E+02  0.31443552644E+02  0.10566000000E+00 0. -1.
        -13    1    4    4    0    0  0.68691455571E+00 -0.21039398228E+01 -0.62433318228E+02  0.62472624431E+02  0.10566000000E+00 0.  1.
         14    1    4    4    0    0  0.12596252004E+02 -0.23621838201E+02 -0.76651717645E+03  0.76698451001E+03  0.00000000000E+00 0. -1.
<mgrwt>
<rscale>  0 0.81020496E+02</rscale>
<asrwt>0</asrwt>
<pdfrwt beam="1">  1        1 0.24578282E-03 0.81020496E+02</pdfrwt>
<pdfrwt beam="2">  1       -2 0.15803438E+00 0.81020496E+02</pdfrwt>
<totfact> 0.24452080E+04</totfact>
</mgrwt>
</event>
<event>
 8    1  0.8577104E-014  0.7605232E+02  0.7818608E-02  0.1340643E+00
         -2   -1    0    0    0  501 -0.00000000000E+00  0.00000000000E+00  0.20201338825E+03  0.20201338826E+03  0.25500000000E-02 0.  1.
          1   -1    0    0  501    0  0.00000000000E+00 -0.00000000000E+00 -0.71578861404E+01  0.71578879147E+01  0.50400000000E-02 0. -1.
        -24    2    1    2    0    0  0.00000000000E+00  0.00000000000E+00  0.19485550211E+03  0.20917127618E+03  0.76052324597E+02 0.  0.
         66    2    3    3    0    0  0.20834163208E+02 -0.15825284394E+02  0.17329129861E+03  0.17526658595E+03  0.19999988121E+01 0.  0.
         13    1    3    3    0    0 -0.20834163208E+02  0.15825284394E+02  0.21564203498E+02  0.33904690226E+02  0.10566000000E+00 0. -1.
         13    1    4    4    0    0  0.59730709428E+01 -0.39688366335E+01  0.49645189860E+02  0.50160594903E+02  0.10566000000E+00 0. -1.
        -13    1    4    4    0    0  0.51646290732E+01 -0.35822490831E+01  0.37980348326E+02  0.38497063849E+02  0.10566000000E+00 0.  1.
        -14    1    4    4    0    0  0.96964631924E+01 -0.82741986773E+01  0.85665760422E+02  0.86608927200E+02  0.00000000000E+00 0.  1.
<mgrwt>
<rscale>  0 0.76052325E+02</rscale>
<asrwt>0</asrwt>
<pdfrwt beam="1">  1        1 0.11012134E-02 0.76052325E+02</pdfrwt>
<pdfrwt beam="2">  1       -2 0.31078982E-01 0.76052325E+02</pdfrwt>
<totfact> 0.96525204E+04</totfact>
</mgrwt>
</event>
<event>
 8    1  0.8577104E-014  0.7908830E+02  0.7818608E-02  0.1331659E+00
         -2   -1    0    0    0  501 -0.00000000000E+00  0.00000000000E+00  0.37840241641E+01  0.37840250233E+01  0.25500000000E-02 0.  1.
          1   -1    0    0  501    0  0.00000000000E+00 -0.00000000000E+00 -0.41324778041E+03  0.41324778044E+03  0.50400000000E-02 0. -1.
        -24    2    1    2    0    0  0.00000000000E+00  0.00000000000E+00 -0.40946375625E+03  0.41703180547E+03  0.79088299322E+02 0.  0.
         66    2    3    3    0    0 -0.16156168863E+02  0.36016894998E+02 -0.19500282164E+03  0.19896818596E+03  0.20000142113E+01 0.  0.
         13    1    3    3    0    0  0.16156168863E+02 -0.36016894998E+02 -0.21446093461E+03  0.21806361951E+03  0.10566000000E+00 0. -1.
         13    1    4    4    0    0 -0.35029177634E+01  0.95038097273E+01 -0.48573194561E+02  0.49618134045E+02  0.10566000000E+00 0. -1.
        -13    1    4    4    0    0 -0.27252543531E+01  0.55214900076E+01 -0.29044832862E+02  0.29690526153E+02  0.10566000000E+00 0.  1.
         14    1    4    4    0    0 -0.99279967461E+01  0.20991595263E+02 -0.11738479422E+03  0.11965952576E+03  0.00000000000E+00 0. -1.
<mgrwt>
<rscale>  0 0.79088299E+02</rscale>
<asrwt>0</asrwt>
<pdfrwt beam="1">  1        1 0.63576546E-01 0.79088299E+02</pdfrwt>
<pdfrwt beam="2">  1       -2 0.58215796E-03 0.79088299E+02</pdfrwt>
<totfact> 0.19676289E+05</totfact>
</mgrwt>
</event>
<event>
 8    1  0.8577104E-014  0.7738626E+02  0.7818608E-02  0.1336637E+00
          1   -1    0    0  501    0  0.00000000000E+00  0.00000000000E+00  0.50300048844E+01  0.50300074094E+01  0.50400000000E-02 0. -1.
         -2   -1    0    0    0  501 -0.00000000000E+00 -0.00000000000E+00 -0.29764544782E+03  0.29764544783E+03  0.25500000000E-02 0.  1.
        -24    2    1    2    0    0  0.22204460493E-15  0.00000000000E+00 -0.29261544294E+03  0.30267545524E+03  0.77386263384E+02 0.  0.
         66    2    3    3    0    0  0.11956342526E+01 -0.36226342764E+02 -0.19908002393E+03  0.20236262842E+03  0.20000008691E+01 0.  0.
         13    1    3    3    0    0 -0.11956342526E+01  0.36226342764E+02 -0.93535419011E+02  0.10031282682E+03  0.10566000000E+00 0. -1.
         13    1    4    4    0    0  0.90715783167E+00 -0.25413506299E+02 -0.14247691532E+03  0.14472854522E+03  0.10566000000E+00 0. -1.
        -13    1    4    4    0    0 -0.21362161573E+00 -0.60760298596E+01 -0.30608933212E+02  0.31207078195E+02  0.10566000000E+00 0.  1.
        -14    1    4    4    0    0  0.50209803668E+00 -0.47368066048E+01 -0.25994175397E+02  0.26427005010E+02  0.00000000000E+00 0.  1.
<mgrwt>
<rscale>  0 0.77386263E+02</rscale>
<asrwt>0</asrwt>
<pdfrwt beam="1">  1        1 0.77384734E-03 0.77386263E+02</pdfrwt>
<pdfrwt beam="2">  1       -2 0.45791594E-01 0.77386263E+02</pdfrwt>
<totfact> 0.76886680E+04</totfact>
</mgrwt>
</event>
<event>
 8    1  0.8577104E-014  0.7867067E+02  0.7818608E-02  0.1332867E+00
         -2   -1    0    0    0  501 -0.00000000000E+00  0.00000000000E+00  0.15781969975E+02  0.15781970181E+02  0.25500000000E-02 0.  1.
          1   -1    0    0  501    0  0.00000000000E+00 -0.00000000000E+00 -0.98040267006E+02  0.98040267135E+02  0.50400000000E-02 0. -1.
        -24    2    1    2    0    0  0.88817841970E-15  0.00000000000E+00 -0.82258297031E+02  0.11382223732E+03  0.78670669740E+02 0.  0.
         66    2    3    3    0    0 -0.43028046741E+01  0.29393867694E+02 -0.39088401596E+01  0.30029862114E+02  0.20000002776E+01 0.  0.
         13    1    3    3    0    0  0.43028046741E+01 -0.29393867694E+02 -0.78349456871E+02  0.83792375203E+02  0.10566000000E+00 0. -1.
         13    1    4    4    0    0 -0.33273647902E+01  0.20234673392E+02 -0.21791985345E+01  0.20622158811E+02  0.10566000000E+00 0. -1.
        -13    1    4    4    0    0 -0.11296773763E+00  0.47321989885E+01 -0.99255651060E+00  0.48376442034E+01  0.10566000000E+00 0.  1.
        -14    1    4    4    0    0 -0.86247214624E+00  0.44269953131E+01 -0.73708511458E+00  0.45700590993E+01  0.00000000000E+00 0.  1.
<mgrwt>
<rscale>  0 0.78670670E+02</rscale>
<asrwt>0</asrwt>
<pdfrwt beam="1">  1        1 0.15083118E-01 0.78670670E+02</pdfrwt>
<pdfrwt beam="2">  1       -2 0.24279955E-02 0.78670670E+02</pdfrwt>
<totfact> 0.15328746E+05</totfact>
</mgrwt>
</event>
<event>
 8    1  0.8577104E-014  0.7658164E+02  0.7818608E-02  0.1339042E+00
          1   -1    0    0  501    0  0.00000000000E+00  0.00000000000E+00  0.13960718331E+03  0.13960718340E+03  0.50400000000E-02 0. -1.
         -2   -1    0    0    0  501 -0.00000000000E+00 -0.00000000000E+00 -0.10502231444E+02  0.10502231754E+02  0.25500000000E-02 0.  1.
        -24    2    1    2    0    0  0.00000000000E+00  0.00000000000E+00  0.12910495186E+03  0.15010941515E+03  0.76581642197E+02 0.  0.
         66    2    3    3    0    0  0.19736305637E+02 -0.32510500054E+02  0.56343425345E+02  0.68007616881E+02  0.20000000695E+01 0.  0.
         13    1    3    3    0    0 -0.19736305637E+02  0.32510500054E+02  0.72761526516E+02  0.82101798269E+02  0.10566000000E+00 0. -1.
         13    1    4    4    0    0  0.55625845039E+01 -0.87616387610E+01  0.16550184307E+02  0.19535312252E+02  0.10566000000E+00 0. -1.
        -13    1    4    4    0    0  0.11557935578E+02 -0.20090985002E+02  0.33558483535E+02  0.40785003793E+02  0.10566000000E+00 0.  1.
        -14    1    4    4    0    0  0.26157855547E+01 -0.36578762914E+01  0.62347575030E+01  0.76873008366E+01  0.00000000000E+00 0.  1.
<mgrwt>
<rscale>  0 0.76581642E+02</rscale>
<asrwt>0</asrwt>
<pdfrwt beam="1">  1        1 0.21478026E-01 0.76581642E+02</pdfrwt>
<pdfrwt beam="2">  1       -2 0.16157281E-02 0.76581642E+02</pdfrwt>
<totfact> 0.17509014E+05</totfact>
</mgrwt>
</event>
<event>
 8    1  0.8577104E-014  0.7958390E+02  0.7818608E-02  0.1330236E+00
         -2   -1    0    0    0  501 -0.00000000000E+00  0.00000000000E+00  0.15242784724E+02  0.15242784937E+02  0.25500000000E-02 0.  1.
          1   -1    0    0  501    0  0.00000000000E+00 -0.00000000000E+00 -0.10387861438E+03  0.10387861451E+03  0.50400000000E-02 0. -1.
        -24    2    1    2    0    0  0.00000000000E+00  0.17763568394E-14 -0.88635829659E+02  0.11912139944E+03  0.79583902303E+02 0.  0.
         66    2    3    3    0    0  0.33610360018E+02 -0.15384475230E+02 -0.22395529533E+02  0.43265437887E+02  0.19999984618E+01 0.  0.
         13    1    3    3    0    0 -0.33610360018E+02  0.15384475230E+02 -0.66240300126E+02  0.75855961556E+02  0.10566000000E+00 0. -1.
         13    1    4    4    0    0  0.77576846352E+01 -0.38098603948E+01 -0.56139682398E+01  0.10306527570E+02  0.10566000000E+00 0. -1.
        -13    1    4    4    0    0  0.13695105796E+02 -0.54089917070E+01 -0.91534774630E+01  0.17338120652E+02  0.10566000000E+00 0.  1.
         14    1    4    4    0    0  0.12157569587E+02 -0.61656231279E+01 -0.76280838302E+01  0.15620789665E+02  0.00000000000E+00 0. -1.
<mgrwt>
<rscale>  0 0.79583902E+02</rscale>
<asrwt>0</asrwt>
<pdfrwt beam="1">  1        1 0.15981325E-01 0.79583902E+02</pdfrwt>
<pdfrwt beam="2">  1       -2 0.23450439E-02 0.79583902E+02</pdfrwt>
<totfact> 0.15003542E+05</totfact>
</mgrwt>
</event>
<event>
 8    1  0.8577104E-014  0.8311732E+02  0.7818608E-02  0.1320431E+00
         -2   -1    0    0    0  501 -0.00000000000E+00  0.00000000000E+00  0.32767010316E+02  0.32767010415E+02  0.25500000000E-02 0.  1.
          1   -1    0    0  501    0  0.00000000000E+00 -0.00000000000E+00 -0.52709182148E+02  0.52709182389E+02  0.50400000000E-02 0. -1.
        -24    2    1    2    0    0  0.00000000000E+00  0.00000000000E+00 -0.19942171832E+02  0.85476192804E+02  0.83117322616E+02 0.  0.
         66    2    3    3    0    0 -0.17960574246E+02 -0.22971261130E+02  0.20440549182E+02  0.35666189936E+02  0.19999971235E+01 0.  0.
         13    1    3    3    0    0  0.17960574246E+02  0.22971261130E+02 -0.40382721014E+02  0.49810002868E+02  0.10566000000E+00 0. -1.
         13    1    4    4    0    0 -0.15686012710E+02 -0.20118774837E+02  0.17218179331E+02  0.30778124686E+02  0.10566000000E+00 0. -1.
        -13    1    4    4    0    0 -0.16175188963E+01 -0.21011783777E+01  0.20850018726E+01  0.33748651528E+01  0.10566000000E+00 0.  1.
         14    1    4    4    0    0 -0.65704264009E+00 -0.75130791586E+00  0.11373679789E+01  0.15132000974E+01  0.00000000000E+00 0. -1.
<mgrwt>
<rscale>  0 0.83117323E+02</rscale>
<asrwt>0</asrwt>
<pdfrwt beam="1">  1        1 0.81091050E-02 0.83117323E+02</pdfrwt>
<pdfrwt beam="2">  1       -2 0.50410785E-02 0.83117323E+02</pdfrwt>
<totfact> 0.11927653E+05</totfact>
</mgrwt>
</event>
<event>
 8    1  0.8577104E-014  0.7778201E+02  0.7818608E-02  0.1335466E+00
         -2   -1    0    0    0  501 -0.00000000000E+00  0.00000000000E+00  0.68546993670E+02  0.68546993718E+02  0.25500000000E-02 0.  1.
          1   -1    0    0  501    0  0.00000000000E+00 -0.00000000000E+00 -0.22065301005E+02  0.22065301580E+02  0.50400000000E-02 0. -1.
        -24    2    1    2    0    0 -0.35527136788E-14  0.00000000000E+00  0.46481692665E+02  0.90612295298E+02  0.77782005027E+02 0.  0.
         66    2    3    3    0    0 -0.17935554706E+02 -0.15646838678E+02  0.59048782841E+02  0.63696675247E+02  0.19999998108E+01 0.  0.
         13    1    3    3    0    0  0.17935554706E+02  0.15646838678E+02 -0.12567090176E+02  0.26915620051E+02  0.10566000000E+00 0. -1.
         13    1    4    4    0    0 -0.72888570744E+00 -0.46834485189E+00  0.29847905454E+01  0.31097845441E+01  0.10566000000E+00 0. -1.
        -13    1    4    4    0    0 -0.13087490032E+02 -0.12105235613E+02  0.43147492794E+02  0.46685505492E+02  0.10566000000E+00 0.  1.
        -14    1    4    4    0    0 -0.41191789672E+01 -0.30732582132E+01  0.12916499502E+02  0.13901385211E+02  0.00000000000E+00 0.  1.
<mgrwt>
<rscale>  0 0.77782005E+02</rscale>
<asrwt>0</asrwt>
<pdfrwt beam="1">  1        1 0.33946618E-02 0.77782005E+02</pdfrwt>
<pdfrwt beam="2">  1       -2 0.10545691E-01 0.77782005E+02</pdfrwt>
<totfact> 0.12392904E+05</totfact>
</mgrwt>
</event>
<event>
 8    1  0.8577104E-014  0.8430600E+02  0.7818608E-02  0.1317257E+00
         -2   -1    0    0    0  501 -0.00000000000E+00  0.00000000000E+00  0.79681159205E+02  0.79681159245E+02  0.25500000000E-02 0.  1.
          1   -1    0    0  501    0  0.00000000000E+00 -0.00000000000E+00 -0.22299819367E+02  0.22299819937E+02  0.50400000000E-02 0. -1.
        -24    2    1    2    0    0  0.00000000000E+00  0.00000000000E+00  0.57381339837E+02  0.10198097918E+03  0.84306001882E+02 0.  0.
         66    2    3    3    0    0 -0.23603976196E+02 -0.32301932060E+02  0.44677300228E+02  0.60005196956E+02  0.19999997417E+01 0.  0.
         13    1    3    3    0    0  0.23603976196E+02  0.32301932060E+02  0.12704039610E+02  0.41975782226E+02  0.10566000000E+00 0. -1.
         13    1    4    4    0    0 -0.97032663003E+01 -0.12053437356E+02  0.16953213573E+02  0.22953460381E+02  0.10566000000E+00 0. -1.
        -13    1    4    4    0    0 -0.20835716046E+01 -0.26817244494E+01  0.34542066731E+01  0.48451650571E+01  0.10566000000E+00 0.  1.
        -14    1    4    4    0    0 -0.11817138291E+02 -0.17566770254E+02  0.24269879982E+02  0.32206571517E+02  0.00000000000E+00 0.  1.
<mgrwt>
<rscale>  0 0.84306002E+02</rscale>
<asrwt>0</asrwt>
<pdfrwt beam="1">  1        1 0.34307415E-02 0.84306002E+02</pdfrwt>
<pdfrwt beam="2">  1       -2 0.12258640E-01 0.84306002E+02</pdfrwt>
<totfact> 0.97859569E+04</totfact>
</mgrwt>
</event>
<event>
 8    1  0.8577104E-014  0.7873364E+02  0.7818608E-02  0.1332684E+00
         -2   -1    0    0    0  501 -0.00000000000E+00  0.00000000000E+00  0.34890901931E+02  0.34890902024E+02  0.25500000000E-02 0.  1.
          1   -1    0    0  501    0  0.00000000000E+00 -0.00000000000E+00 -0.44416917637E+02  0.44416917923E+02  0.50400000000E-02 0. -1.
        -24    2    1    2    0    0  0.35527136788E-14  0.00000000000E+00 -0.95260157061E+01  0.79307819946E+02  0.78733635312E+02 0.  0.
         66    2    3    3    0    0 -0.23159660147E+02  0.31005820156E+02 -0.11889466510E+02  0.40535048503E+02  0.20000003896E+01 0.  0.
         13    1    3    3    0    0  0.23159660147E+02 -0.31005820156E+02  0.23634508044E+01  0.38772771443E+02  0.10566000000E+00 0. -1.
         13    1    4    4    0    0 -0.20194702679E+02  0.25990784902E+02 -0.10104575200E+02  0.34430517279E+02  0.10566000000E+00 0. -1.
        -13    1    4    4    0    0 -0.18783031578E+01  0.30369408600E+01 -0.93357284898E+00  0.36923914797E+01  0.10566000000E+00 0.  1.
         14    1    4    4    0    0 -0.10866543110E+01  0.19780943938E+01 -0.85131846101E+00  0.24121397439E+01  0.00000000000E+00 0. -1.
<mgrwt>
<rscale>  0 0.78733635E+02</rscale>
<asrwt>0</asrwt>
<pdfrwt beam="1">  1        1 0.68333721E-02 0.78733635E+02</pdfrwt>
<pdfrwt beam="2">  1       -2 0.53678310E-02 0.78733635E+02</pdfrwt>
<totfact> 0.13502113E+05</totfact>
</mgrwt>
</event>
<event>
 8    1  0.8577104E-014  0.8400633E+02  0.7818608E-02  0.1318052E+00
          1   -1    0    0  501    0  0.00000000000E+00  0.00000000000E+00  0.63492822212E+02  0.63492822412E+02  0.50400000000E-02 0. -1.
         -2   -1    0    0    0  501 -0.00000000000E+00 -0.00000000000E+00 -0.27786855407E+02  0.27786855524E+02  0.25500000000E-02 0.  1.
        -24    2    1    2    0    0 -0.44408920985E-15 -0.35527136788E-14  0.35705966804E+02  0.91279677936E+02  0.84006330349E+02 0.  0.
         66    2    3    3    0    0  0.21412958566E+01  0.16431028956E+02 -0.24047086577E+02  0.29271594488E+02  0.20000026248E+01 0.  0.
         13    1    3    3    0    0 -0.21412958566E+01 -0.16431028956E+02  0.59753053382E+02  0.62008083448E+02  0.10566000000E+00 0. -1.
         13    1    4    4    0    0  0.17553240065E+01  0.10565541085E+02 -0.15483104655E+02  0.18826829648E+02  0.10566000000E+00 0. -1.
        -13    1    4    4    0    0 -0.11253851925E+00  0.11111423669E+01 -0.23565114603E+01  0.26099066221E+01  0.10566000000E+00 0.  1.
         14    1    4    4    0    0  0.49851036940E+00  0.47543455035E+01 -0.62074704622E+01  0.78348582179E+01  0.00000000000E+00 0. -1.
<mgrwt>
<rscale>  0 0.84006330E+02</rscale>
<asrwt>0</asrwt>
<pdfrwt beam="1">  1        1 0.97681264E-02 0.84006330E+02</pdfrwt>
<pdfrwt beam="2">  1       -2 0.42749009E-02 0.84006330E+02</pdfrwt>
<totfact> 0.11935680E+05</totfact>
</mgrwt>
</event>
<event>
 8    1  0.8577104E-014  0.8153807E+02  0.7818608E-02  0.1324742E+00
         -2   -1    0    0    0  501 -0.00000000000E+00  0.00000000000E+00  0.10263318357E+03  0.10263318360E+03  0.25500000000E-02 0.  1.
          1   -1    0    0  501    0  0.00000000000E+00 -0.00000000000E+00 -0.16194705428E+02  0.16194706213E+02  0.50400000000E-02 0. -1.
        -24    2    1    2    0    0  0.00000000000E+00  0.00000000000E+00  0.86438478137E+02  0.11882788981E+03  0.81538070212E+02 0.  0.
         66    2    3    3    0    0  0.20335278620E+02 -0.18553689091E+02  0.87022025985E+02  0.91294008362E+02  0.20000052284E+01 0.  0.
         13    1    3    3    0    0 -0.20335278620E+02  0.18553689091E+02 -0.58354784741E+00  0.27533881448E+02  0.10566000000E+00 0. -1.
         13    1    4    4    0    0  0.30100964149E+01 -0.27829057540E+01  0.11508439147E+02  0.12217224746E+02  0.10566000000E+00 0.  1.
        -13    1    4    4    0    0  0.86508981456E+01 -0.85786255416E+01  0.37677071755E+02  0.39598027160E+02  0.10566000000E+00 0.  1.
         14    1    4    4    0    0  0.86742840596E+01 -0.71921577955E+01  0.37836515082E+02  0.39478756455E+02  0.00000000000E+00 0. -1.
<mgrwt>
<rscale>  0 0.81538070E+02</rscale>
<asrwt>0</asrwt>
<pdfrwt beam="1">  1        1 0.24914931E-02 0.81538070E+02</pdfrwt>
<pdfrwt beam="2">  1       -2 0.15789721E-01 0.81538070E+02</pdfrwt>
<totfact> 0.10041927E+05</totfact>
</mgrwt>
</event>
<event>
 8    1  0.8577104E-014  0.7907607E+02  0.7818608E-02  0.1331694E+00
         -2   -1    0    0    0  501 -0.00000000000E+00  0.00000000000E+00  0.92895739995E+01  0.92895743495E+01  0.25500000000E-02 0.  1.
          1   -1    0    0  501    0  0.00000000000E+00 -0.00000000000E+00 -0.16828069611E+03  0.16828069619E+03  0.50400000000E-02 0. -1.
        -24    2    1    2    0    0 -0.17763568394E-14  0.71054273576E-14 -0.15899112211E+03  0.17757027054E+03  0.79076065076E+02 0.  0.
         66    2    3    3    0    0 -0.81005510847E+01  0.33196745101E+02 -0.12409725654E+03  0.12873139430E+03  0.19999963300E+01 0.  0.
         13    1    3    3    0    0  0.81005510847E+01 -0.33196745101E+02 -0.34893865573E+02  0.48838876234E+02  0.10566000000E+00 0. -1.
         13    1    4    4    0    0 -0.93840580745E+00  0.25148114479E+01 -0.93389560529E+01  0.97176204017E+01  0.10566000000E+00 0. -1.
        -13    1    4    4    0    0 -0.26882430638E+01  0.12078960629E+02 -0.47726487368E+02  0.49304733050E+02  0.10566000000E+00 0.  1.
         14    1    4    4    0    0 -0.44739022134E+01  0.18602973024E+02 -0.67031813118E+02  0.69709040850E+02  0.00000000000E+00 0. -1.
<mgrwt>
<rscale>  0 0.79076065E+02</rscale>
<asrwt>0</asrwt>
<pdfrwt beam="1">  1        1 0.25889336E-01 0.79076065E+02</pdfrwt>
<pdfrwt beam="2">  1       -2 0.14291654E-02 0.79076065E+02</pdfrwt>
<totfact> 0.16637695E+05</totfact>
</mgrwt>
</event>
<event>
 8    1  0.8577104E-014  0.7935951E+02  0.7818608E-02  0.1330879E+00
         -2   -1    0    0    0  501 -0.00000000000E+00  0.00000000000E+00  0.37966724978E+01  0.37966733542E+01  0.25500000000E-02 0.  1.
          1   -1    0    0  501    0  0.00000000000E+00 -0.00000000000E+00 -0.41470067190E+03  0.41470067193E+03  0.50400000000E-02 0. -1.
        -24    2    1    2    0    0  0.00000000000E+00  0.00000000000E+00 -0.41090399941E+03  0.41849734529E+03  0.79359506587E+02 0.  0.
         66    2    3    3    0    0  0.55633817296E+01 -0.37430547013E+02 -0.26808532231E+03  0.27075032245E+03  0.20000008020E+01 0.  0.
         13    1    3    3    0    0 -0.55633817296E+01  0.37430547013E+02 -0.14281867709E+03  0.14774702283E+03  0.10566000000E+00 0. -1.
         13    1    4    4    0    0  0.11157028428E+00 -0.22916279365E+01 -0.15861200366E+02  0.16026629328E+02  0.10566000000E+00 0. -1.
        -13    1    4    4    0    0  0.40625486277E+01 -0.29888383317E+02 -0.21265062488E+03  0.21477923360E+03  0.10566000000E+00 0.  1.
         14    1    4    4    0    0  0.13892628177E+01 -0.52505357591E+01 -0.39573497066E+02  0.39944459528E+02  0.00000000000E+00 0. -1.
<mgrwt>
<rscale>  0 0.79359507E+02</rscale>
<asrwt>0</asrwt>
<pdfrwt beam="1">  1        1 0.63800068E-01 0.79359507E+02</pdfrwt>
<pdfrwt beam="2">  1       -2 0.58410386E-03 0.79359507E+02</pdfrwt>
<totfact> 0.19511225E+05</totfact>
</mgrwt>
</event>
<event>
 8    1  0.8577104E-014  0.8264814E+02  0.7818608E-02  0.1321700E+00
         -2   -1    0    0    0  501 -0.00000000000E+00  0.00000000000E+00  0.12558007925E+02  0.12558008184E+02  0.25500000000E-02 0.  1.
          1   -1    0    0  501    0  0.00000000000E+00 -0.00000000000E+00 -0.13598326153E+03  0.13598326163E+03  0.50400000000E-02 0. -1.
        -24    2    1    2    0    0 -0.71054273576E-14  0.00000000000E+00 -0.12342525361E+03  0.14854126981E+03  0.82648143408E+02 0.  0.
         66    2    3    3    0    0  0.40993775540E+02  0.47818626493E+01 -0.59012285538E+02  0.72040306006E+02  0.20000004262E+01 0.  0.
         13    1    3    3    0    0 -0.40993775540E+02 -0.47818626493E+01 -0.64412968070E+02  0.76500963804E+02  0.10566000000E+00 0. -1.
         13    1    4    4    0    0  0.76024603629E+01  0.12540374954E+01 -0.11074690442E+02  0.13491847392E+02  0.10566000000E+00 0. -1.
        -13    1    4    4    0    0  0.96052179921E+01  0.14898217845E+01 -0.12962222904E+02  0.16202165543E+02  0.10566000000E+00 0.  1.
         14    1    4    4    0    0  0.23786097185E+02  0.20380033694E+01 -0.34975372191E+02  0.42346293072E+02  0.00000000000E+00 0. -1.
<mgrwt>
<rscale>  0 0.82648143E+02</rscale>
<asrwt>0</asrwt>
<pdfrwt beam="1">  1        1 0.20920501E-01 0.82648143E+02</pdfrwt>
<pdfrwt beam="2">  1       -2 0.19320013E-02 0.82648143E+02</pdfrwt>
<totfact> 0.14210160E+05</totfact>
</mgrwt>
</event>
<event>
 8    1  0.8577104E-014  0.8121768E+02  0.7818608E-02  0.1325631E+00
          1   -1    0    0  501    0  0.00000000000E+00  0.00000000000E+00  0.69506657999E+02  0.69506658182E+02  0.50400000000E-02 0. -1.
         -2   -1    0    0    0  501 -0.00000000000E+00 -0.00000000000E+00 -0.23725465153E+02  0.23725465290E+02  0.25500000000E-02 0.  1.
        -24    2    1    2    0    0 -0.17763568394E-14  0.00000000000E+00  0.45781192846E+02  0.93232123472E+02  0.81217678056E+02 0.  0.
         66    2    3    3    0    0  0.11273448606E+02 -0.38977512725E+02  0.21919835095E+02  0.46160765945E+02  0.20000000915E+01 0.  0.
         13    1    3    3    0    0 -0.11273448606E+02  0.38977512725E+02  0.23861357752E+02  0.47071357527E+02  0.10566000000E+00 0. -1.
         13    1    4    4    0    0  0.12070413893E+01 -0.49250263682E+01  0.26181112395E+01  0.57077582413E+01  0.10566000000E+00 0.  1.
        -13    1    4    4    0    0  0.32441229230E+01 -0.97869627153E+01  0.48114610873E+01  0.11378501420E+02  0.10566000000E+00 0. -1.
        -14    1    4    4    0    0  0.68222842938E+01 -0.24265523641E+02  0.14490262768E+02  0.29074506284E+02  0.00000000000E+00 0.  1.
<mgrwt>
<rscale>  0 0.81217678E+02</rscale>
<asrwt>0</asrwt>
<pdfrwt beam="1">  1        1 0.10693332E-01 0.81217678E+02</pdfrwt>
<pdfrwt beam="2">  1       -2 0.36500716E-02 0.81217678E+02</pdfrwt>
<totfact> 0.13292949E+05</totfact>
</mgrwt>
</event>
<event>
 8    1  0.8577104E-014  0.7957922E+02  0.7818608E-02  0.1330250E+00
          1   -1    0    0  501    0  0.00000000000E+00  0.00000000000E+00  0.64817577294E+02  0.64817577490E+02  0.50400000000E-02 0. -1.
         -2   -1    0    0    0  501 -0.00000000000E+00 -0.00000000000E+00 -0.24425675504E+02  0.24425675637E+02  0.25500000000E-02 0.  1.
        -24    2    1    2    0    0  0.35527136788E-14 -0.35527136788E-14  0.40391901790E+02  0.89243253126E+02  0.79579221524E+02 0.  0.
         66    2    3    3    0    0  0.23139241853E+02 -0.31729965458E+02  0.13205918452E+02  0.41480254104E+02  0.19999942130E+01 0.  0.
         13    1    3    3    0    0 -0.23139241853E+02  0.31729965458E+02  0.27185983338E+02  0.47762999022E+02  0.10566000000E+00 0. -1.
         13    1    4    4    0    0  0.92299788304E+00 -0.13658254605E+01  0.80682431245E+00  0.18383508336E+01  0.10566000000E+00 0. -1.
        -13    1    4    4    0    0  0.18864279235E+02 -0.26453573272E+02  0.10364519758E+02  0.34104061397E+02  0.10566000000E+00 0.  1.
         14    1    4    4    0    0  0.33519647353E+01 -0.39105667257E+01  0.20345743816E+01  0.55378418736E+01  0.00000000000E+00 0. -1.
<mgrwt>
<rscale>  0 0.79579222E+02</rscale>
<asrwt>0</asrwt>
<pdfrwt beam="1">  1        1 0.99719348E-02 0.79579222E+02</pdfrwt>
<pdfrwt beam="2">  1       -2 0.37577963E-02 0.79579222E+02</pdfrwt>
<totfact> 0.13903297E+05</totfact>
</mgrwt>
</event>
<event>
 8    1  0.8577104E-014  0.7951055E+02  0.7818608E-02  0.1330446E+00
         -2   -1    0    0    0  501 -0.00000000000E+00  0.00000000000E+00  0.93044918079E+02  0.93044918114E+02  0.25500000000E-02 0.  1.
          1   -1    0    0  501    0  0.00000000000E+00 -0.00000000000E+00 -0.16986222373E+02  0.16986223121E+02  0.50400000000E-02 0. -1.
        -24    2    1    2    0    0  0.00000000000E+00  0.00000000000E+00  0.76058695706E+02  0.11003114124E+03  0.79510545521E+02 0.  0.
         66    2    3    3    0    0  0.24984963060E+02  0.15950519030E+02  0.74661742423E+02  0.80355729209E+02  0.19999996286E+01 0.  0.
         13    1    3    3    0    0 -0.24984963060E+02 -0.15950519030E+02  0.13969532823E+01  0.29675412027E+02  0.10566000000E+00 0. -1.
         13    1    4    4    0    0  0.12732771795E+02  0.86182119398E+01  0.38485803367E+02  0.41443519149E+02  0.10566000000E+00 0. -1.
        -13    1    4    4    0    0  0.88553293504E+01  0.57196570842E+01  0.27759604183E+02  0.29694075563E+02  0.10566000000E+00 0.  1.
        -14    1    4    4    0    0  0.33968619142E+01  0.16126500062E+01  0.84163348734E+01  0.92181344971E+01  0.00000000000E+00 0.  1.
<mgrwt>
<rscale>  0 0.79510546E+02</rscale>
<asrwt>0</asrwt>
<pdfrwt beam="1">  1        1 0.26132651E-02 0.79510546E+02</pdfrwt>
<pdfrwt beam="2">  1       -2 0.14314603E-01 0.79510546E+02</pdfrwt>
<totfact> 0.10970852E+05</totfact>
</mgrwt>
</event>
<event>
 8    1  0.8577104E-014  0.7986452E+02  0.7818608E-02  0.1329436E+00
          1   -1    0    0  501    0  0.00000000000E+00  0.00000000000E+00  0.30877505757E+02  0.30877506168E+02  0.50400000000E-02 0. -1.
         -2   -1    0    0    0  501 -0.00000000000E+00 -0.00000000000E+00 -0.51642301983E+02  0.51642302046E+02  0.25500000000E-02 0.  1.
        -24    2    1    2    0    0 -0.17763568394E-14 -0.71054273576E-14 -0.20764796226E+02  0.82519808214E+02  0.79864522695E+02 0.  0.
         66    2    3    3    0    0 -0.95568012888E+01 -0.36254856847E+02 -0.24512042560E+02  0.44839573143E+02  0.19999983135E+01 0.  0.
         13    1    3    3    0    0  0.95568012888E+01  0.36254856847E+02  0.37472463342E+01  0.37680235071E+02  0.10566000000E+00 0. -1.
         13    1    4    4    0    0 -0.28496624725E+01 -0.12401211949E+02 -0.76390700187E+01  0.14841738065E+02  0.10566000000E+00 0. -1.
        -13    1    4    4    0    0 -0.66281062753E+00 -0.36870949043E+01 -0.24103751358E+01  0.44559016026E+01  0.10566000000E+00 0.  1.
        -14    1    4    4    0    0 -0.60443281888E+01 -0.20166549994E+02 -0.14462597406E+02  0.25541933475E+02  0.00000000000E+00 0.  1.
<mgrwt>
<rscale>  0 0.79864523E+02</rscale>
<asrwt>0</asrwt>
<pdfrwt beam="1">  1        1 0.47503856E-02 0.79864523E+02</pdfrwt>
<pdfrwt beam="2">  1       -2 0.79449695E-02 0.79864523E+02</pdfrwt>
<totfact> 0.12215604E+05</totfact>
</mgrwt>
</event>
<event>
 8    1  0.8577104E-014  0.7968236E+02  0.7818608E-02  0.1329955E+00
         -2   -1    0    0    0  501 -0.00000000000E+00  0.00000000000E+00  0.36877742862E+02  0.36877742950E+02  0.25500000000E-02 0.  1.
          1   -1    0    0  501    0  0.00000000000E+00 -0.00000000000E+00 -0.43042758858E+02  0.43042759153E+02  0.50400000000E-02 0. -1.
        -24    2    1    2    0    0  0.00000000000E+00  0.00000000000E+00 -0.61650159955E+01  0.79920502103E+02  0.79682364637E+02 0.  0.
         66    2    3    3    0    0 -0.26923547377E+02 -0.17314731671E+02  0.20664103748E+02  0.38153407801E+02  0.20000017167E+01 0.  0.
         13    1    3    3    0    0  0.26923547377E+02  0.17314731671E+02 -0.26829119744E+02  0.41767094303E+02  0.10566000000E+00 0. -1.
         13    1    4    4    0    0 -0.10765800926E+02 -0.75521766198E+01  0.79686021140E+01  0.15376853545E+02  0.10566000000E+00 0. -1.
        -13    1    4    4    0    0 -0.28042488760E+01 -0.15650652529E+01  0.17056417623E+01  0.36378041263E+01  0.10566000000E+00 0.  1.
        -14    1    4    4    0    0 -0.13353497575E+02 -0.81974897986E+01  0.10989859872E+02  0.19138750129E+02  0.00000000000E+00 0.  1.
<mgrwt>
<rscale>  0 0.79682365E+02</rscale>
<asrwt>0</asrwt>
<pdfrwt beam="1">  1        1 0.66219629E-02 0.79682365E+02</pdfrwt>
<pdfrwt beam="2">  1       -2 0.56734989E-02 0.79682365E+02</pdfrwt>
<totfact> 0.12992547E+05</totfact>
</mgrwt>
</event>
<event>
 8    1  0.8577104E-014  0.7968938E+02  0.7818608E-02  0.1329935E+00
         -2   -1    0    0    0  501 -0.00000000000E+00  0.00000000000E+00  0.26798043091E+03  0.26798043093E+03  0.25500000000E-02 0.  1.
          1   -1    0    0  501    0  0.00000000000E+00 -0.00000000000E+00 -0.59243091923E+01  0.59243113361E+01  0.50400000000E-02 0. -1.
        -24    2    1    2    0    0  0.00000000000E+00  0.00000000000E+00  0.26205612172E+03  0.27390474226E+03  0.79689377598E+02 0.  0.
         66    2    3    3    0    0  0.32338311572E+02  0.21033523187E+02  0.16503540950E+03  0.16949590520E+03  0.19999992782E+01 0.  0.
         13    1    3    3    0    0 -0.32338311572E+02 -0.21033523187E+02  0.97020712224E+02  0.10440883707E+03  0.10566000000E+00 0. -1.
         13    1    4    4    0    0  0.11280489503E+02  0.76804500548E+01  0.60102033722E+02  0.61632007740E+02  0.10566000000E+00 0.  1.
        -13    1    4    4    0    0  0.24204968529E+01  0.12025181583E+01  0.12747502482E+02  0.13031302256E+02  0.10566000000E+00 0. -1.
         14    1    4    4    0    0  0.18637325216E+02  0.12150554974E+02  0.92185873295E+02  0.94832595201E+02  0.00000000000E+00 0. -1.
<mgrwt>
<rscale>  0 0.79689378E+02</rscale>
<asrwt>0</asrwt>
<pdfrwt beam="1">  1        1 0.91143227E-03 0.79689378E+02</pdfrwt>
<pdfrwt beam="2">  1       -2 0.41227762E-01 0.79689378E+02</pdfrwt>
<totfact> 0.75291637E+04</totfact>
</mgrwt>
</event>
<event>
 8    1  0.8577104E-014  0.7342839E+02  0.7818608E-02  0.1348808E+00
         -2   -1    0    0    0  501 -0.00000000000E+00  0.00000000000E+00  0.89377716192E+01  0.89377719830E+01  0.25500000000E-02 0.  1.
          1   -1    0    0  501    0  0.00000000000E+00 -0.00000000000E+00 -0.15081299681E+03  0.15081299689E+03  0.50400000000E-02 0. -1.
        -24    2    1    2    0    0  0.00000000000E+00  0.00000000000E+00 -0.14187522519E+03  0.15975076888E+03  0.73428391198E+02 0.  0.
         66    2    3    3    0    0  0.20780151067E+02 -0.24673490380E+02 -0.32974238550E+02  0.46172461700E+02  0.20000013933E+01 0.  0.
         13    1    3    3    0    0 -0.20780151067E+02  0.24673490380E+02 -0.10890098664E+03  0.11357830718E+03  0.10566000000E+00 0. -1.
         13    1    4    4    0    0  0.62451084951E+01 -0.71622752589E+01 -0.10878126035E+02  0.14444526890E+02  0.10566000000E+00 0.  1.
        -13    1    4    4    0    0  0.11636367238E+02 -0.13959772622E+02 -0.18030587395E+02  0.25600655070E+02  0.10566000000E+00 0. -1.
         14    1    4    4    0    0  0.28986753334E+01 -0.35514424989E+01 -0.40655251202E+01  0.61272797402E+01  0.00000000000E+00 0. -1.
<mgrwt>
<rscale>  0 0.73428391E+02</rscale>
<asrwt>0</asrwt>
<pdfrwt beam="1">  1        1 0.23201998E-01 0.73428391E+02</pdfrwt>
<pdfrwt beam="2">  1       -2 0.13750419E-02 0.73428391E+02</pdfrwt>
<totfact> 0.19846066E+05</totfact>
</mgrwt>
</event>
<event>
 8    1  0.8577104E-014  0.8214740E+02  0.7818608E-02  0.1323066E+00
          1   -1    0    0  501    0  0.00000000000E+00  0.00000000000E+00  0.54389227727E+02  0.54389227961E+02  0.50400000000E-02 0. -1.
         -2   -1    0    0    0  501 -0.00000000000E+00 -0.00000000000E+00 -0.31018068769E+02  0.31018068873E+02  0.25500000000E-02 0.  1.
        -24    2    1    2    0    0  0.35527136788E-14  0.35527136788E-14  0.23371158959E+02  0.85407296834E+02  0.82147399724E+02 0.  0.
         66    2    3    3    0    0 -0.23552133138E+02 -0.28457696243E+02 -0.69204726353E+01  0.37635573404E+02  0.19999982909E+01 0.  0.
         13    1    3    3    0    0  0.23552133138E+02  0.28457696243E+02  0.30291631594E+02  0.47771723430E+02  0.10566000000E+00 0. -1.
         13    1    4    4    0    0 -0.83070499398E+01 -0.93305847255E+01 -0.25109875695E+01  0.12742963259E+02  0.10566000000E+00 0.  1.
        -13    1    4    4    0    0 -0.22675889197E+01 -0.21222869375E+01 -0.52308756654E+00  0.31513244822E+01  0.10566000000E+00 0.  1.
        -14    1    4    4    0    0 -0.12977494279E+02 -0.17004824580E+02 -0.38863974993E+01  0.21741285663E+02  0.00000000000E+00 0.  1.
<mgrwt>
<rscale>  0 0.82147400E+02</rscale>
<asrwt>0</asrwt>
<pdfrwt beam="1">  1        1 0.83675735E-02 0.82147400E+02</pdfrwt>
<pdfrwt beam="2">  1       -2 0.47720106E-02 0.82147400E+02</pdfrwt>
<totfact> 0.12386847E+05</totfact>
</mgrwt>
</event>
<event>
 8    1  0.8577104E-014  0.8081456E+02  0.7818608E-02  0.1326756E+00
          1   -1    0    0  501    0  0.00000000000E+00  0.00000000000E+00  0.12863227484E+03  0.12863227493E+03  0.50400000000E-02 0. -1.
         -2   -1    0    0    0  501 -0.00000000000E+00 -0.00000000000E+00 -0.12693144744E+02  0.12693145000E+02  0.25500000000E-02 0.  1.
        -24    2    1    2    0    0  0.00000000000E+00  0.00000000000E+00  0.11593913009E+03  0.14132541993E+03  0.80814555826E+02 0.  0.
         66    2    3    3    0    0  0.12453392906E+02 -0.27457156408E+02  0.11023423317E+02  0.32163617436E+02  0.19999980125E+01 0.  0.
         13    1    3    3    0    0 -0.12453392906E+02  0.27457156408E+02  0.10491570677E+03  0.10916180250E+03  0.10566000000E+00 0. -1.
         13    1    4    4    0    0  0.16938556385E+01 -0.39444915690E+01  0.94158914563E+00  0.43961249774E+01  0.10566000000E+00 0. -1.
        -13    1    4    4    0    0  0.58398930219E+01 -0.11986416977E+02  0.55092046628E+01  0.14427094042E+02  0.10566000000E+00 0.  1.
         14    1    4    4    0    0  0.49196442458E+01 -0.11526247862E+02  0.45726295086E+01  0.13340398416E+02  0.00000000000E+00 0. -1.
<mgrwt>
<rscale>  0 0.80814556E+02</rscale>
<asrwt>0</asrwt>
<pdfrwt beam="1">  1        1 0.19789581E-01 0.80814556E+02</pdfrwt>
<pdfrwt beam="2">  1       -2 0.19527915E-02 0.80814556E+02</pdfrwt>
<totfact> 0.14942152E+05</totfact>
</mgrwt>
</event>
<event>
 8    1  0.8577104E-014  0.8037602E+02  0.7818608E-02  0.1327988E+00
          1   -1    0    0  501    0  0.00000000000E+00  0.00000000000E+00  0.91167178205E+02  0.91167178344E+02  0.50400000000E-02 0. -1.
         -2   -1    0    0    0  501 -0.00000000000E+00 -0.00000000000E+00 -0.17715541905E+02  0.17715542088E+02  0.25500000000E-02 0.  1.
        -24    2    1    2    0    0  0.00000000000E+00  0.00000000000E+00  0.73451636300E+02  0.10888272043E+03  0.80376015910E+02 0.  0.
         66    2    3    3    0    0 -0.37582939012E+02  0.28718912853E+01  0.17960776875E+02  0.41800891983E+02  0.20000000730E+01 0.  0.
         13    1    3    3    0    0  0.37582939012E+02 -0.28718912853E+01  0.55490859425E+02  0.67081828449E+02  0.10566000000E+00 0. -1.
         13    1    4    4    0    0 -0.81746862749E+00  0.18471478654E+00  0.30262652992E+00  0.89728555182E+00  0.10566000000E+00 0.  1.
        -13    1    4    4    0    0 -0.23395268792E+02  0.11520746427E+01  0.11752136121E+02  0.26206673678E+02  0.10566000000E+00 0.  1.
        -14    1    4    4    0    0 -0.13370201593E+02  0.15351018560E+01  0.59060142238E+01  0.14696932753E+02  0.00000000000E+00 0.  1.
<mgrwt>
<rscale>  0 0.80376016E+02</rscale>
<asrwt>0</asrwt>
<pdfrwt beam="1">  1        1 0.14025720E-01 0.80376016E+02</pdfrwt>
<pdfrwt beam="2">  1       -2 0.27254680E-02 0.80376016E+02</pdfrwt>
<totfact> 0.14291547E+05</totfact>
</mgrwt>
</event>
<event>
 8    1  0.8577104E-014  0.7741728E+02  0.7818608E-02  0.1336545E+00
         -2   -1    0    0    0  501 -0.00000000000E+00  0.00000000000E+00  0.46207316203E+02  0.46207316273E+02  0.25500000000E-02 0.  1.
          1   -1    0    0  501    0  0.00000000000E+00 -0.00000000000E+00 -0.32426870579E+02  0.32426870971E+02  0.50400000000E-02 0. -1.
        -24    2    1    2    0    0 -0.17763568394E-14  0.00000000000E+00  0.13780445623E+02  0.78634187244E+02  0.77417276638E+02 0.  0.
         66    2    3    3    0    0 -0.73192140184E+01 -0.37924016041E+02  0.90618557335E+01  0.39723030218E+02  0.20000034631E+01 0.  0.
         13    1    3    3    0    0  0.73192140184E+01  0.37924016041E+02  0.47185898898E+01  0.38911157026E+02  0.10566000000E+00 0. -1.
         13    1    4    4    0    0 -0.47163726327E+00 -0.21139656102E+01  0.85332043639E+00  0.23303673771E+01  0.10566000000E+00 0. -1.
        -13    1    4    4    0    0 -0.48204607978E+01 -0.23681103307E+02  0.49089160631E+01  0.24660497097E+02  0.10566000000E+00 0.  1.
        -14    1    4    4    0    0 -0.20271159573E+01 -0.12128947124E+02  0.32996192340E+01  0.12732165744E+02  0.00000000000E+00 0.  1.
<mgrwt>
<rscale>  0 0.77417277E+02</rscale>
<asrwt>0</asrwt>
<pdfrwt beam="1">  1        1 0.49887494E-02 0.77417277E+02</pdfrwt>
<pdfrwt beam="2">  1       -2 0.71088179E-02 0.77417277E+02</pdfrwt>
<totfact> 0.13461259E+05</totfact>
</mgrwt>
</event>
<event>
 8    1  0.8577104E-014  0.8065563E+02  0.7818608E-02  0.1327201E+00
         -2   -1    0    0    0  501 -0.00000000000E+00  0.00000000000E+00  0.22162711537E+02  0.22162711684E+02  0.25500000000E-02 0.  1.
          1   -1    0    0  501    0  0.00000000000E+00 -0.00000000000E+00 -0.73381478038E+02  0.73381478211E+02  0.50400000000E-02 0. -1.
        -24    2    1    2    0    0  0.00000000000E+00  0.71054273576E-14 -0.51218766501E+02  0.95544189895E+02  0.80655627087E+02 0.  0.
         66    2    3    3    0    0  0.15711591535E+01  0.29353014254E+02  0.70374997728E+01  0.30291820504E+02  0.19999998788E+01 0.  0.
         13    1    3    3    0    0 -0.15711591535E+01 -0.29353014254E+02 -0.58256266273E+02  0.65252369390E+02  0.10566000000E+00 0. -1.
         13    1    4    4    0    0 -0.18799374445E-01  0.97087756803E+00 -0.22834508768E-01  0.97705788927E+00  0.10566000000E+00 0. -1.
        -13    1    4    4    0    0  0.35881995003E+00  0.30080157181E+01  0.10659304022E+01  0.32131420720E+01  0.10566000000E+00 0.  1.
        -14    1    4    4    0    0  0.12311385779E+01  0.25374120968E+02  0.59944038794E+01  0.26101620543E+02  0.00000000000E+00 0.  1.
<mgrwt>
<rscale>  0 0.80655627E+02</rscale>
<asrwt>0</asrwt>
<pdfrwt beam="1">  1        1 0.11289458E-01 0.80655627E+02</pdfrwt>
<pdfrwt beam="2">  1       -2 0.34096480E-02 0.80655627E+02</pdfrwt>
<totfact> 0.13666408E+05</totfact>
</mgrwt>
</event>
<event>
 8    1  0.8577104E-014  0.8163251E+02  0.7818608E-02  0.1324481E+00
         -2   -1    0    0    0  501 -0.00000000000E+00  0.00000000000E+00  0.17076683287E+02  0.17076683478E+02  0.25500000000E-02 0.  1.
          1   -1    0    0  501    0  0.00000000000E+00 -0.00000000000E+00 -0.97557965601E+02  0.97557965731E+02  0.50400000000E-02 0. -1.
        -24    2    1    2    0    0  0.00000000000E+00  0.11102230246E-15 -0.80481282314E+02  0.11463464921E+03  0.81632505758E+02 0.  0.
         66    2    3    3    0    0  0.20479842229E+02  0.69641222216E+00  0.92657073966E+01  0.22577915323E+02  0.19999997659E+01 0.  0.
         13    1    3    3    0    0 -0.20479842229E+02 -0.69641222216E+00 -0.89746989710E+02  0.92056733886E+02  0.10566000000E+00 0. -1.
         13    1    4    4    0    0  0.45126971918E+01 -0.27678868487E+00  0.22286425156E+01  0.50417317877E+01  0.10566000000E+00 0. -1.
        -13    1    4    4    0    0  0.99682801470E+01  0.10033239177E+01  0.37677563256E+01  0.10704224388E+02  0.10566000000E+00 0.  1.
        -14    1    4    4    0    0  0.59988648897E+01 -0.30123010648E-01  0.32693085554E+01  0.68319591474E+01  0.00000000000E+00 0.  1.
<mgrwt>
<rscale>  0 0.81632506E+02</rscale>
<asrwt>0</asrwt>
<pdfrwt beam="1">  1        1 0.15008918E-01 0.81632506E+02</pdfrwt>
<pdfrwt beam="2">  1       -2 0.26271821E-02 0.81632506E+02</pdfrwt>
<totfact> 0.13858906E+05</totfact>
</mgrwt>
</event>
<event>
 8    1  0.8577104E-014  0.7864836E+02  0.7818608E-02  0.1332932E+00
         -2   -1    0    0    0  501 -0.00000000000E+00  0.00000000000E+00  0.79953175223E+02  0.79953175263E+02  0.25500000000E-02 0.  1.
          1   -1    0    0  501    0  0.00000000000E+00 -0.00000000000E+00 -0.19341209281E+02  0.19341209938E+02  0.50400000000E-02 0. -1.
        -24    2    1    2    0    0  0.35527136788E-14  0.35527136788E-14  0.60611965941E+02  0.99294385201E+02  0.78648359914E+02 0.  0.
         66    2    3    3    0    0  0.20994892119E+02  0.29154820244E+02  0.10220380990E+02  0.37406486251E+02  0.19999968855E+01 0.  0.
         13    1    3    3    0    0 -0.20994892119E+02 -0.29154820244E+02  0.50391584952E+02  0.61887898950E+02  0.10566000000E+00 0. -1.
         13    1    4    4    0    0  0.15616016925E+01  0.21459104743E+01  0.71852702982E+00  0.27515407935E+01  0.10566000000E+00 0. -1.
        -13    1    4    4    0    0  0.31328679614E+01  0.32692184364E+01  0.12274918840E+01  0.46926060147E+01  0.10566000000E+00 0.  1.
         14    1    4    4    0    0  0.16300422465E+02  0.23739691333E+02  0.82743620757E+01  0.29962339442E+02  0.00000000000E+00 0. -1.
<mgrwt>
<rscale>  0 0.78648360E+02</rscale>
<asrwt>0</asrwt>
<pdfrwt beam="1">  1        1 0.29755708E-02 0.78648360E+02</pdfrwt>
<pdfrwt beam="2">  1       -2 0.12300488E-01 0.78648360E+02</pdfrwt>
<totfact> 0.11673349E+05</totfact>
</mgrwt>
</event>
<event>
 8    1  0.8577104E-014  0.7238428E+02  0.7818608E-02  0.1352168E+00
         -2   -1    0    0    0  501 -0.00000000000E+00  0.00000000000E+00  0.29264083483E+02  0.29264083594E+02  0.25500000000E-02 0.  1.
          1   -1    0    0  501    0  0.00000000000E+00 -0.00000000000E+00 -0.44760368543E+02  0.44760368827E+02  0.50400000000E-02 0. -1.
        -24    2    1    2    0    0 -0.17763568394E-14 -0.35527136788E-14 -0.15496285060E+02  0.74024452421E+02  0.72384284935E+02 0.  0.
         66    2    3    3    0    0 -0.13109944964E+02 -0.20058167951E+02  0.19945973000E+02  0.31241680433E+02  0.19999997127E+01 0.  0.
         13    1    3    3    0    0  0.13109944964E+02  0.20058167951E+02 -0.35442258061E+02  0.42782771988E+02  0.10566000000E+00 0. -1.
         13    1    4    4    0    0 -0.13553832270E+01 -0.16766329518E+01  0.13316864312E+01  0.25362796639E+01  0.10566000000E+00 0. -1.
        -13    1    4    4    0    0 -0.76345732915E+01 -0.11100214129E+02  0.10996102939E+02  0.17390425726E+02  0.10566000000E+00 0.  1.
         14    1    4    4    0    0 -0.41199884458E+01 -0.72813208694E+01  0.76181836303E+01  0.11314975043E+02  0.00000000000E+00 0. -1.
<mgrwt>
<rscale>  0 0.72384285E+02</rscale>
<asrwt>0</asrwt>
<pdfrwt beam="1">  1        1 0.68862106E-02 0.72384285E+02</pdfrwt>
<pdfrwt beam="2">  1       -2 0.45021667E-02 0.72384285E+02</pdfrwt>
<totfact> 0.17059476E+05</totfact>
</mgrwt>
</event>
<event>
 8    1  0.8577104E-014  0.8030038E+02  0.7818608E-02  0.1328201E+00
          1   -1    0    0  501    0  0.00000000000E+00  0.00000000000E+00  0.25630567000E+03  0.25630567005E+03  0.50400000000E-02 0. -1.
         -2   -1    0    0    0  501 -0.00000000000E+00 -0.00000000000E+00 -0.62895128125E+01  0.62895133294E+01  0.25500000000E-02 0.  1.
        -24    2    1    2    0    0  0.00000000000E+00  0.00000000000E+00  0.25001615719E+03  0.26259518338E+03  0.80300382807E+02 0.  0.
         66    2    3    3    0    0 -0.34385606322E+02 -0.20651140102E+02  0.12865782173E+03  0.13478009718E+03  0.19999988160E+01 0.  0.
         13    1    3    3    0    0  0.34385606322E+02  0.20651140102E+02  0.12135833546E+03  0.12781508620E+03  0.10566000000E+00 0. -1.
         13    1    4    4    0    0 -0.75912109377E+01 -0.39446570585E+01  0.28173128562E+02  0.29443558545E+02  0.10566000000E+00 0. -1.
        -13    1    4    4    0    0 -0.22747833463E+02 -0.13647958708E+02  0.84523888914E+02  0.88589105793E+02  0.10566000000E+00 0.  1.
         14    1    4    4    0    0 -0.40465619220E+01 -0.30585243359E+01  0.15960804253E+02  0.16747432845E+02  0.00000000000E+00 0. -1.
<mgrwt>
<rscale>  0 0.80300383E+02</rscale>
<asrwt>0</asrwt>
<pdfrwt beam="1">  1        1 0.39431649E-01 0.80300383E+02</pdfrwt>
<pdfrwt beam="2">  1       -2 0.96761721E-03 0.80300383E+02</pdfrwt>
<totfact> 0.17327341E+05</totfact>
</mgrwt>
</event>
<event>
 8    1  0.8577104E-014  0.7970767E+02  0.7818608E-02  0.1329883E+00
         -2   -1    0    0    0  501 -0.00000000000E+00  0.00000000000E+00  0.38683929704E+01  0.38683938109E+01  0.25500000000E-02 0.  1.
          1   -1    0    0  501    0  0.00000000000E+00 -0.00000000000E+00 -0.41059115768E+03  0.41059115771E+03  0.50400000000E-02 0. -1.
        -24    2    1    2    0    0 -0.35527136788E-14  0.00000000000E+00 -0.40672276471E+03  0.41445955152E+03  0.79707669109E+02 0.  0.
         66    2    3    3    0    0 -0.25411316252E+02  0.30446835095E+02 -0.18432857900E+03  0.18855707309E+03  0.20000036289E+01 0.  0.
         13    1    3    3    0    0  0.25411316252E+02 -0.30446835095E+02 -0.22239418571E+03  0.22590247844E+03  0.10566000000E+00 0. -1.
         13    1    4    4    0    0 -0.14682950922E+01  0.17677818227E+01 -0.11517042933E+02  0.11744547033E+02  0.10566000000E+00 0. -1.
        -13    1    4    4    0    0 -0.18520127619E+02  0.23285728849E+02 -0.13741554660E+03  0.14059965827E+03  0.10566000000E+00 0.  1.
        -14    1    4    4    0    0 -0.54228935403E+01  0.53933244239E+01 -0.35395989465E+02  0.36212867781E+02  0.00000000000E+00 0.  1.
<mgrwt>
<rscale>  0 0.79707669E+02</rscale>
<asrwt>0</asrwt>
<pdfrwt beam="1">  1        1 0.63167836E-01 0.79707669E+02</pdfrwt>
<pdfrwt beam="2">  1       -2 0.59513777E-03 0.79707669E+02</pdfrwt>
<totfact> 0.19257996E+05</totfact>
</mgrwt>
</event>
<event>
 8    1  0.8577104E-014  0.7913531E+02  0.7818608E-02  0.1331523E+00
          1   -1    0    0  501    0  0.00000000000E+00  0.00000000000E+00  0.13031459573E+02  0.13031460547E+02  0.50400000000E-02 0. -1.
         -2   -1    0    0    0  501 -0.00000000000E+00 -0.00000000000E+00 -0.12013998039E+03  0.12013998042E+03  0.25500000000E-02 0.  1.
        -24    2    1    2    0    0  0.00000000000E+00  0.35527136788E-14 -0.10710852082E+03  0.13317144097E+03  0.79135311063E+02 0.  0.
         66    2    3    3    0    0  0.34858857362E+02 -0.18227385667E+02 -0.60365181856E+02  0.72078655580E+02  0.19999712068E+01 0.  0.
         13    1    3    3    0    0 -0.34858857362E+02  0.18227385667E+02 -0.46743338964E+02  0.61092785388E+02  0.10566000000E+00 0. -1.
         13    1    4    4    0    0  0.12796357310E+02 -0.65298734198E+01 -0.20666315457E+02  0.25169302054E+02  0.10566000000E+00 0. -1.
        -13    1    4    4    0    0  0.21596047101E+02 -0.11469261943E+02 -0.38593873974E+02  0.45688417485E+02  0.10566000000E+00 0.  1.
        -14    1    4    4    0    0  0.46645295175E+00 -0.22825030410E+00 -0.11049924245E+01  0.12209360408E+01  0.00000000000E+00 0.  1.
<mgrwt>
<rscale>  0 0.79135311E+02</rscale>
<asrwt>0</asrwt>
<pdfrwt beam="1">  1        1 0.20048401E-02 0.79135311E+02</pdfrwt>
<pdfrwt beam="2">  1       -2 0.18483073E-01 0.79135311E+02</pdfrwt>
<totfact> 0.10397188E+05</totfact>
</mgrwt>
</event>
<event>
 8    1  0.8577104E-014  0.7920028E+02  0.7818608E-02  0.1331336E+00
          1   -1    0    0  501    0  0.00000000000E+00  0.00000000000E+00  0.31349578558E+03  0.31349578562E+03  0.50400000000E-02 0. -1.
         -2   -1    0    0    0  501 -0.00000000000E+00 -0.00000000000E+00 -0.50022072878E+01  0.50022079378E+01  0.25500000000E-02 0.  1.
        -24    2    1    2    0    0  0.00000000000E+00  0.35527136788E-14  0.30849357829E+03  0.31849799355E+03  0.79200278112E+02 0.  0.
         66    2    3    3    0    0 -0.30330609535E+02 -0.24682101278E+02  0.12987884692E+03  0.13565274362E+03  0.19999939360E+01 0.  0.
         13    1    3    3    0    0  0.30330609535E+02  0.24682101278E+02  0.17861473137E+03  0.18284524993E+03  0.10566000000E+00 0. -1.
         13    1    4    4    0    0 -0.45140798666E+01 -0.33644620572E+01  0.17273645803E+02  0.18168283500E+02  0.10566000000E+00 0.  1.
        -13    1    4    4    0    0 -0.62074169622E+01 -0.50468257430E+01  0.28882224620E+02  0.29969927234E+02  0.10566000000E+00 0. -1.
         14    1    4    4    0    0 -0.19609112706E+02 -0.16270813478E+02  0.83722976500E+02  0.87514532887E+02  0.00000000000E+00 0. -1.
<mgrwt>
<rscale>  0 0.79200278E+02</rscale>
<asrwt>0</asrwt>
<pdfrwt beam="1">  1        1 0.48230120E-01 0.79200278E+02</pdfrwt>
<pdfrwt beam="2">  1       -2 0.76957042E-03 0.79200278E+02</pdfrwt>
<totfact> 0.18680040E+05</totfact>
</mgrwt>
</event>
<event>
 8    1  0.8577104E-014  0.8057460E+02  0.7818608E-02  0.1327429E+00
          1   -1    0    0  501    0  0.00000000000E+00  0.00000000000E+00  0.14942423164E+01  0.14942508162E+01  0.50400000000E-02 0. -1.
         -2   -1    0    0    0  501 -0.00000000000E+00 -0.00000000000E+00 -0.10862106535E+04  0.10862106535E+04  0.25500000000E-02 0.  1.
        -24    2    1    2    0    0 -0.17763568394E-14  0.35527136788E-14 -0.10847164112E+04  0.10877049044E+04  0.80574600150E+02 0.  0.
         66    2    3    3    0    0 -0.13042726752E+02  0.20699715743E+02 -0.97434799163E+03  0.97465717037E+03  0.20000008191E+01 0.  0.
         13    1    3    3    0    0  0.13042726752E+02 -0.20699715743E+02 -0.11036841960E+03  0.11304773399E+03  0.10566000000E+00 0. -1.
         13    1    4    4    0    0 -0.19056802491E+01  0.28559750437E+01 -0.12105940692E+03  0.12110813093E+03  0.10566000000E+00 0. -1.
        -13    1    4    4    0    0 -0.68892209190E+01  0.11611406071E+02 -0.52166864708E+03  0.52184334299E+03  0.10566000000E+00 0.  1.
        -14    1    4    4    0    0 -0.42478255835E+01  0.62323346287E+01 -0.33161993764E+03  0.33170569645E+03  0.00000000000E+00 0.  1.
<mgrwt>
<rscale>  0 0.80574600E+02</rscale>
<asrwt>0</asrwt>
<pdfrwt beam="1">  1        1 0.22988496E-03 0.80574600E+02</pdfrwt>
<pdfrwt beam="2">  1       -2 0.16710870E+00 0.80574600E+02</pdfrwt>
<totfact> 0.23176674E+04</totfact>
</mgrwt>
</event>
<event>
 8    1  0.8577104E-014  0.7939797E+02  0.7818608E-02  0.1330769E+00
          1   -1    0    0  501    0  0.00000000000E+00  0.00000000000E+00  0.26476495396E+02  0.26476495876E+02  0.50400000000E-02 0. -1.
         -2   -1    0    0    0  501 -0.00000000000E+00 -0.00000000000E+00 -0.59524856083E+02  0.59524856138E+02  0.25500000000E-02 0.  1.
        -24    2    1    2    0    0  0.00000000000E+00  0.00000000000E+00 -0.33048360687E+02  0.86001352014E+02  0.79397974811E+02 0.  0.
         66    2    3    3    0    0 -0.26200779882E+02 -0.15655848766E+02 -0.43988581400E+02  0.53577810253E+02  0.19999977485E+01 0.  0.
         13    1    3    3    0    0  0.26200779882E+02  0.15655848766E+02  0.10940220713E+02  0.32423541760E+02  0.10566000000E+00 0. -1.
         13    1    4    4    0    0 -0.65554305733E+01 -0.31070469854E+01 -0.10331963877E+02  0.12624898121E+02  0.10566000000E+00 0. -1.
        -13    1    4    4    0    0 -0.13200540460E+02 -0.89641493336E+01 -0.22920837046E+02  0.27928232608E+02  0.10566000000E+00 0.  1.
        -14    1    4    4    0    0 -0.64448088486E+01 -0.35846524466E+01 -0.10735780477E+02  0.13024679524E+02  0.00000000000E+00 0.  1.
<mgrwt>
<rscale>  0 0.79397975E+02</rscale>
<asrwt>0</asrwt>
<pdfrwt beam="1">  1        1 0.40733070E-02 0.79397975E+02</pdfrwt>
<pdfrwt beam="2">  1       -2 0.91576702E-02 0.79397975E+02</pdfrwt>
<totfact> 0.12085108E+05</totfact>
</mgrwt>
</event>
<event>
 8    1  0.8577104E-014  0.7899798E+02  0.7818608E-02  0.1331919E+00
         -2   -1    0    0    0  501 -0.00000000000E+00  0.00000000000E+00  0.92913769732E+02  0.92913769767E+02  0.25500000000E-02 0.  1.
          1   -1    0    0  501    0  0.00000000000E+00 -0.00000000000E+00 -0.16791592258E+02  0.16791593015E+02  0.50400000000E-02 0. -1.
        -24    2    1    2    0    0  0.00000000000E+00  0.35527136788E-14  0.76122177474E+02  0.10970536278E+03  0.78997979213E+02 0.  0.
         66    2    3    3    0    0  0.26272852157E+02  0.28500887657E+02  0.27730261176E+02  0.47702523454E+02  0.20000003343E+01 0.  0.
         13    1    3    3    0    0 -0.26272852157E+02 -0.28500887657E+02  0.48391916298E+02  0.62002839328E+02  0.10566000000E+00 0. -1.
         13    1    4    4    0    0  0.74489953310E+01  0.86470820578E+01  0.80127391619E+01  0.13945419050E+02  0.10566000000E+00 0. -1.
        -13    1    4    4    0    0  0.12068224566E+02  0.13722867618E+02  0.12945760531E+02  0.22395602684E+02  0.10566000000E+00 0.  1.
        -14    1    4    4    0    0  0.67556322599E+01  0.61309379813E+01  0.67717614828E+01  0.11361501720E+02  0.00000000000E+00 0.  1.
<mgrwt>
<rscale>  0 0.78997979E+02</rscale>
<asrwt>0</asrwt>
<pdfrwt beam="1">  1        1 0.25833220E-02 0.78997979E+02</pdfrwt>
<pdfrwt beam="2">  1       -2 0.14294426E-01 0.78997979E+02</pdfrwt>
<totfact> 0.11157380E+05</totfact>
</mgrwt>
</event>
<event>
 8    1  0.8577104E-014  0.7887452E+02  0.7818608E-02  0.1332276E+00
          1   -1    0    0  501    0  0.00000000000E+00  0.00000000000E+00  0.30379711603E+02  0.30379712021E+02  0.50400000000E-02 0. -1.
         -2   -1    0    0    0  501 -0.00000000000E+00 -0.00000000000E+00 -0.51195263811E+02  0.51195263874E+02  0.25500000000E-02 0.  1.
        -24    2    1    2    0    0  0.00000000000E+00  0.00000000000E+00 -0.20815552208E+02  0.81574975895E+02  0.78874517295E+02 0.  0.
         66    2    3    3    0    0 -0.24326685563E+02 -0.73104803565E+01 -0.41580222896E+02  0.48766235195E+02  0.20000013714E+01 0.  0.
         13    1    3    3    0    0  0.24326685563E+02  0.73104803565E+01  0.20764670688E+02  0.32808740700E+02  0.10566000000E+00 0. -1.
         13    1    4    4    0    0 -0.10968478539E+01 -0.49648111401E-01 -0.17408582792E+01  0.20608958570E+01  0.10566000000E+00 0. -1.
        -13    1    4    4    0    0 -0.12180216955E+02 -0.36490539437E+01 -0.22077813322E+02  0.25477721344E+02  0.10566000000E+00 0.  1.
        -14    1    4    4    0    0 -0.11049620754E+02 -0.36117783014E+01 -0.17761551295E+02  0.21227617994E+02  0.00000000000E+00 0.  1.
<mgrwt>
<rscale>  0 0.78874517E+02</rscale>
<asrwt>0</asrwt>
<pdfrwt beam="1">  1        1 0.46738018E-02 0.78874517E+02</pdfrwt>
<pdfrwt beam="2">  1       -2 0.78761944E-02 0.78874517E+02</pdfrwt>
<totfact> 0.12624247E+05</totfact>
</mgrwt>
</event>
<event>
 8    1  0.8577104E-014  0.7803454E+02  0.7818608E-02  0.1334723E+00
         -2   -1    0    0    0  501 -0.00000000000E+00  0.00000000000E+00  0.32158456874E+03  0.32158456875E+03  0.25500000000E-02 0.  1.
          1   -1    0    0  501    0  0.00000000000E+00 -0.00000000000E+00 -0.47338932368E+01  0.47338959197E+01  0.50400000000E-02 0. -1.
        -24    2    1    2    0    0 -0.22204460493E-15  0.00000000000E+00  0.31685067550E+03  0.32631846467E+03  0.78034542464E+02 0.  0.
         66    2    3    3    0    0  0.13948916284E+01 -0.25353721406E+02  0.28226739219E+03  0.28341425088E+03  0.19999996909E+01 0.  0.
         13    1    3    3    0    0 -0.13948916284E+01  0.25353721406E+02  0.34583283314E+02  0.42904213787E+02  0.10566000000E+00 0. -1.
         13    1    4    4    0    0  0.21035405792E+00 -0.18242134560E+01  0.19282548092E+02  0.19370075594E+02  0.10566000000E+00 0.  1.
        -13    1    4    4    0    0  0.15277301554E+01 -0.21056911384E+02  0.23170319609E+03  0.23266308198E+03  0.10566000000E+00 0.  1.
        -14    1    4    4    0    0 -0.34319258489E+00 -0.24725965669E+01  0.31281648007E+02  0.31381093304E+02  0.00000000000E+00 0.  1.
<mgrwt>
<rscale>  0 0.78034542E+02</rscale>
<asrwt>0</asrwt>
<pdfrwt beam="1">  1        1 0.72829135E-03 0.78034542E+02</pdfrwt>
<pdfrwt beam="2">  1       -2 0.49474557E-01 0.78034542E+02</pdfrwt>
<totfact> 0.72083754E+04</totfact>
</mgrwt>
</event>
<event>
 8    1  0.1058723E-013  0.7970766E+02  0.7818608E-02  0.1329883E+00
          1   -1    0    0  501    0  0.00000000000E+00  0.00000000000E+00  0.15491423443E+03  0.15491423451E+03  0.50400000000E-02 0. -1.
         -2   -1    0    0    0  501 -0.00000000000E+00 -0.00000000000E+00 -0.10252949172E+02  0.10252949489E+02  0.25500000000E-02 0.  1.
        -24    2    1    2    0    0  0.00000000000E+00 -0.35527136788E-14  0.14466128525E+03  0.16516718400E+03  0.79707660977E+02 0.  0.
         66    2    3    3    0    0  0.95538949678E-01 -0.25124492169E+02  0.83374110109E+01  0.26547347440E+02  0.19999998268E+01 0.  0.
         13    1    3    3    0    0 -0.95538949678E-01  0.25124492169E+02  0.13632387424E+03  0.13861983656E+03  0.10566000000E+00 0. -1.
         13    1    4    4    0    0 -0.13358013543E+00 -0.44326589107E+01  0.20052219130E+01  0.48680989746E+01  0.10566000000E+00 0. -1.
        -13    1    4    4    0    0  0.11358566722E+00 -0.12765559543E+02  0.45600697046E+01  0.13556467530E+02  0.10566000000E+00 0.  1.
         14    1    4    4    0    0  0.11553341788E+00 -0.79262737157E+01  0.17721193933E+01  0.81227809358E+01  0.00000000000E+00 0. -1.
<mgrwt>
<rscale>  0 0.79707661E+02</rscale>
<asrwt>0</asrwt>
<pdfrwt beam="1">  1        1 0.23832958E-01 0.79707661E+02</pdfrwt>
<pdfrwt beam="2">  1       -2 0.15773769E-02 0.79707661E+02</pdfrwt>
<totfact> 0.16038922E+05</totfact>
</mgrwt>
</event>
<event>
 8    1  0.8577104E-014  0.8094597E+02  0.7818608E-02  0.1326388E+00
         -2   -1    0    0    0  501 -0.00000000000E+00  0.00000000000E+00  0.83599296393E+02  0.83599296432E+02  0.25500000000E-02 0.  1.
          1   -1    0    0  501    0  0.00000000000E+00 -0.00000000000E+00 -0.19594215899E+02  0.19594216547E+02  0.50400000000E-02 0. -1.
        -24    2    1    2    0    0  0.00000000000E+00  0.00000000000E+00  0.64005080494E+02  0.10319351298E+03  0.80945974525E+02 0.  0.
         66    2    3    3    0    0 -0.21409325749E+02  0.33608472219E+02  0.40869946609E+02  0.57116032385E+02  0.19999964297E+01 0.  0.
         13    1    3    3    0    0  0.21409325749E+02 -0.33608472219E+02  0.23135133885E+02  0.46077480593E+02  0.10566000000E+00 0. -1.
         13    1    4    4    0    0 -0.51121003968E+01  0.70873010374E+01  0.94077301883E+01  0.12840559092E+02  0.10566000000E+00 0. -1.
        -13    1    4    4    0    0 -0.38577440887E+01  0.57344564622E+01  0.75704398503E+01  0.10251287916E+02  0.10566000000E+00 0.  1.
         14    1    4    4    0    0 -0.12439481263E+02  0.20786714719E+02  0.23891776570E+02  0.34024185377E+02  0.00000000000E+00 0. -1.
<mgrwt>
<rscale>  0 0.80945975E+02</rscale>
<asrwt>0</asrwt>
<pdfrwt beam="1">  1        1 0.30144949E-02 0.80945975E+02</pdfrwt>
<pdfrwt beam="2">  1       -2 0.12861430E-01 0.80945975E+02</pdfrwt>
<totfact> 0.10741876E+05</totfact>
</mgrwt>
</event>
<event>
 8    1  0.8577104E-014  0.8107052E+02  0.7818608E-02  0.1326041E+00
         -2   -1    0    0    0  501 -0.00000000000E+00  0.00000000000E+00  0.10129440137E+02  0.10129440458E+02  0.25500000000E-02 0.  1.
          1   -1    0    0  501    0  0.00000000000E+00 -0.00000000000E+00 -0.16221104731E+03  0.16221104739E+03  0.50400000000E-02 0. -1.
        -24    2    1    2    0    0  0.00000000000E+00  0.00000000000E+00 -0.15208160717E+03  0.17234048785E+03  0.81070515669E+02 0.  0.
         66    2    3    3    0    0  0.16332008054E+02  0.36224966763E+02 -0.92841711463E+02  0.10100775264E+03  0.20000005709E+01 0.  0.
         13    1    3    3    0    0 -0.16332008054E+02 -0.36224966763E+02 -0.59239895709E+02  0.71332735204E+02  0.10566000000E+00 0. -1.
         13    1    4    4    0    0  0.42854660675E+01  0.83795083102E+01 -0.22449717491E+02  0.24343014571E+02  0.10566000000E+00 0. -1.
        -13    1    4    4    0    0  0.73369498465E+01  0.16250948868E+02 -0.39772049346E+02  0.43586135931E+02  0.10566000000E+00 0.  1.
        -14    1    4    4    0    0  0.47095921398E+01  0.11594509584E+02 -0.30619944626E+02  0.33078602140E+02  0.00000000000E+00 0.  1.
<mgrwt>
<rscale>  0 0.81070516E+02</rscale>
<asrwt>0</asrwt>
<pdfrwt beam="1">  1        1 0.24955544E-01 0.81070516E+02</pdfrwt>
<pdfrwt beam="2">  1       -2 0.15583755E-02 0.81070516E+02</pdfrwt>
<totfact> 0.15461438E+05</totfact>
</mgrwt>
</event>
<event>
 8    1  0.8577104E-014  0.7421236E+02  0.7818608E-02  0.1346328E+00
         -2   -1    0    0    0  501 -0.00000000000E+00  0.00000000000E+00  0.47099276080E+01  0.47099282983E+01  0.25500000000E-02 0.  1.
          1   -1    0    0  501    0  0.00000000000E+00 -0.00000000000E+00 -0.29233327199E+03  0.29233327204E+03  0.50400000000E-02 0. -1.
        -24    2    1    2    0    0  0.00000000000E+00  0.00000000000E+00 -0.28762334439E+03  0.29704320034E+03  0.74212361706E+02 0.  0.
         66    2    3    3    0    0  0.15795362546E+02  0.32722845180E+02 -0.17348796903E+03  0.17726351447E+03  0.20000222735E+01 0.  0.
         13    1    3    3    0    0 -0.15795362546E+02 -0.32722845180E+02 -0.11413537536E+03  0.11977968587E+03  0.10566000000E+00 0. -1.
         13    1    4    4    0    0  0.44549745139E+01  0.78980052299E+01 -0.40652256422E+02  0.41651439360E+02  0.10566000000E+00 0.  1.
        -13    1    4    4    0    0  0.68467635523E+01  0.15112916953E+02 -0.79208354849E+02  0.80927455613E+02  0.10566000000E+00 0. -1.
        -14    1    4    4    0    0  0.44936244802E+01  0.97119229976E+01 -0.53627357758E+02  0.54684619496E+02  0.00000000000E+00 0.  1.
<mgrwt>
<rscale>  0 0.74212362E+02</rscale>
<asrwt>0</asrwt>
<pdfrwt beam="1">  1        1 0.44974335E-01 0.74212362E+02</pdfrwt>
<pdfrwt beam="2">  1       -2 0.72460453E-03 0.74212362E+02</pdfrwt>
<totfact> 0.21866461E+05</totfact>
</mgrwt>
</event>
<event>
 8    1  0.8577104E-014  0.8245203E+02  0.7818608E-02  0.1322234E+00
          1   -1    0    0  501    0  0.00000000000E+00  0.00000000000E+00  0.30008858144E+02  0.30008858567E+02  0.50400000000E-02 0. -1.
         -2   -1    0    0    0  501 -0.00000000000E+00 -0.00000000000E+00 -0.56636085845E+02  0.56636085902E+02  0.25500000000E-02 0.  1.
        -24    2    1    2    0    0  0.00000000000E+00  0.00000000000E+00 -0.26627227701E+02  0.86644944469E+02  0.82452029369E+02 0.  0.
         66    2    3    3    0    0 -0.24316359063E+02  0.17023224599E+01 -0.48228029125E+02  0.54075188468E+02  0.19999986952E+01 0.  0.
         13    1    3    3    0    0  0.24316359063E+02 -0.17023224599E+01  0.21600801423E+02  0.32569756001E+02  0.10566000000E+00 0. -1.
         13    1    4    4    0    0 -0.47919033600E+01  0.20810240442E+00 -0.79464899431E+01  0.92824302245E+01  0.10566000000E+00 0. -1.
        -13    1    4    4    0    0 -0.11695443277E+02  0.11785637996E+01 -0.24156523315E+02  0.26864869044E+02  0.10566000000E+00 0.  1.
         14    1    4    4    0    0 -0.78290124257E+01  0.31565625593E+00 -0.16125015867E+02  0.17927889199E+02  0.00000000000E+00 0. -1.
<mgrwt>
<rscale>  0 0.82452029E+02</rscale>
<asrwt>0</asrwt>
<pdfrwt beam="1">  1        1 0.46167475E-02 0.82452029E+02</pdfrwt>
<pdfrwt beam="2">  1       -2 0.87132440E-02 0.82452029E+02</pdfrwt>
<totfact> 0.11086982E+05</totfact>
</mgrwt>
</event>
<event>
 8    1  0.8577104E-014  0.7694692E+02  0.7818608E-02  0.1337946E+00
          1   -1    0    0  501    0  0.00000000000E+00  0.00000000000E+00  0.45880577461E+02  0.45880577738E+02  0.50400000000E-02 0. -1.
         -2   -1    0    0    0  501 -0.00000000000E+00 -0.00000000000E+00 -0.32262176198E+02  0.32262176299E+02  0.25500000000E-02 0.  1.
        -24    2    1    2    0    0  0.44408920985E-15  0.00000000000E+00  0.13618401263E+02  0.78142754037E+02  0.76946924276E+02 0.  0.
         66    2    3    3    0    0 -0.23388309457E+01  0.18165249686E+02 -0.27516242923E+02  0.33114801133E+02  0.20000007980E+01 0.  0.
         13    1    3    3    0    0  0.23388309457E+01 -0.18165249686E+02  0.41134644186E+02  0.45027952904E+02  0.10566000000E+00 0. -1.
         13    1    4    4    0    0 -0.15955124750E+01  0.92248277183E+01 -0.13440725478E+02  0.16380090717E+02  0.10566000000E+00 0. -1.
        -13    1    4    4    0    0 -0.45491178437E+00  0.39334075873E+01 -0.51559172817E+01  0.65017910633E+01  0.10566000000E+00 0.  1.
         14    1    4    4    0    0 -0.28840668640E+00  0.50070143801E+01 -0.89196001626E+01  0.10232919353E+02  0.00000000000E+00 0. -1.
<mgrwt>
<rscale>  0 0.76946924E+02</rscale>
<asrwt>0</asrwt>
<pdfrwt beam="1">  1        1 0.70585504E-02 0.76946924E+02</pdfrwt>
<pdfrwt beam="2">  1       -2 0.49634117E-02 0.76946924E+02</pdfrwt>
<totfact> 0.14465350E+05</totfact>
</mgrwt>
</event>
<event>
 8    1  0.8577104E-014  0.7971294E+02  0.7818608E-02  0.1329868E+00
         -2   -1    0    0    0  501 -0.00000000000E+00  0.00000000000E+00  0.23936565593E+03  0.23936565595E+03  0.25500000000E-02 0.  1.
          1   -1    0    0  501    0  0.00000000000E+00 -0.00000000000E+00 -0.66364486480E+01  0.66364505618E+01  0.50400000000E-02 0. -1.
        -24    2    1    2    0    0 -0.35527136788E-14  0.35527136788E-14  0.23272920729E+03  0.24600210651E+03  0.79712937990E+02 0.  0.
         66    2    3    3    0    0 -0.17962804370E+02  0.19999894368E+02  0.20714353892E+03  0.20889017170E+03  0.20000000843E+01 0.  0.
         13    1    3    3    0    0  0.17962804370E+02 -0.19999894368E+02  0.25585668361E+02  0.37111934806E+02  0.10566000000E+00 0. -1.
         13    1    4    4    0    0 -0.14098767401E+02  0.14732947592E+02  0.15414317032E+03  0.15548621517E+03  0.10566000000E+00 0. -1.
        -13    1    4    4    0    0 -0.21573400795E+01  0.25604022505E+01  0.26216553607E+02  0.26429692071E+02  0.10566000000E+00 0.  1.
         14    1    4    4    0    0 -0.17066968890E+01  0.27065445255E+01  0.26783814993E+02  0.26974264460E+02  0.00000000000E+00 0. -1.
<mgrwt>
<rscale>  0 0.79712938E+02</rscale>
<asrwt>0</asrwt>
<pdfrwt beam="1">  1        1 0.10209923E-02 0.79712938E+02</pdfrwt>
<pdfrwt beam="2">  1       -2 0.36825483E-01 0.79712938E+02</pdfrwt>
<totfact> 0.79438478E+04</totfact>
</mgrwt>
</event>
<event>
 8    1  0.8577104E-014  0.8073202E+02  0.7818608E-02  0.1326987E+00
          1   -1    0    0  501    0  0.00000000000E+00  0.00000000000E+00  0.25010862832E+02  0.25010863340E+02  0.50400000000E-02 0. -1.
         -2   -1    0    0    0  501 -0.00000000000E+00 -0.00000000000E+00 -0.65148278499E+02  0.65148278549E+02  0.25500000000E-02 0.  1.
        -24    2    1    2    0    0  0.00000000000E+00 -0.88817841970E-15 -0.40137415667E+02  0.90159141888E+02  0.80732017995E+02 0.  0.
         66    2    3    3    0    0  0.25210789739E+02  0.63311685833E+01 -0.54533716752E+02  0.60444965745E+02  0.20000015495E+01 0.  0.
         13    1    3    3    0    0 -0.25210789739E+02 -0.63311685833E+01  0.14396301085E+02  0.29714176143E+02  0.10566000000E+00 0. -1.
         13    1    4    4    0    0  0.60490707464E+01  0.20788306699E+01 -0.12944739858E+02  0.14439191386E+02  0.10566000000E+00 0. -1.
        -13    1    4    4    0    0  0.11962558606E+02  0.32178238000E+01 -0.26838526344E+02  0.29559682995E+02  0.10566000000E+00 0.  1.
         14    1    4    4    0    0  0.71991603867E+01  0.10345141134E+01 -0.14750450551E+02  0.16446091364E+02  0.00000000000E+00 0. -1.
<mgrwt>
<rscale>  0 0.80732018E+02</rscale>
<asrwt>0</asrwt>
<pdfrwt beam="1">  1        1 0.38478251E-02 0.80732018E+02</pdfrwt>
<pdfrwt beam="2">  1       -2 0.10022812E-01 0.80732018E+02</pdfrwt>
<totfact> 0.11389043E+05</totfact>
</mgrwt>
</event>
<event>
 8    1  0.8577104E-014  0.7532955E+02  0.7818608E-02  0.1342854E+00
          1   -1    0    0  501    0  0.00000000000E+00  0.00000000000E+00  0.13508782042E+02  0.13508782982E+02  0.50400000000E-02 0. -1.
         -2   -1    0    0    0  501 -0.00000000000E+00 -0.00000000000E+00 -0.10501577770E+03  0.10501577773E+03  0.25500000000E-02 0.  1.
        -24    2    1    2    0    0  0.35527136788E-14  0.00000000000E+00 -0.91506995655E+02  0.11852456071E+03  0.75329550893E+02 0.  0.
         66    2    3    3    0    0 -0.29601683006E+02  0.30304308680E+01 -0.95224025024E+01  0.31306857080E+02  0.20000006976E+01 0.  0.
         13    1    3    3    0    0  0.29601683006E+02 -0.30304308680E+01 -0.81984593152E+02  0.87217703630E+02  0.10566000000E+00 0. -1.
         13    1    4    4    0    0 -0.72337837540E+00  0.69519602976E-02 -0.11710614720E+00  0.74040697529E+00  0.10566000000E+00 0. -1.
        -13    1    4    4    0    0 -0.97639364027E+01  0.14452695202E+01 -0.38905772765E+01  0.10609948805E+02  0.10566000000E+00 0.  1.
        -14    1    4    4    0    0 -0.19114368228E+02  0.15782093876E+01 -0.55147190787E+01  0.19956501300E+02  0.00000000000E+00 0.  1.
<mgrwt>
<rscale>  0 0.75329551E+02</rscale>
<asrwt>0</asrwt>
<pdfrwt beam="1">  1        1 0.20782743E-02 0.75329551E+02</pdfrwt>
<pdfrwt beam="2">  1       -2 0.16156273E-01 0.75329551E+02</pdfrwt>
<totfact> 0.12226424E+05</totfact>
</mgrwt>
</event>
<event>
 8    1  0.8577104E-014  0.8013744E+02  0.7818608E-02  0.1328662E+00
         -2   -1    0    0    0  501 -0.00000000000E+00  0.00000000000E+00  0.30759848460E+01  0.30759859029E+01  0.25500000000E-02 0.  1.
          1   -1    0    0  501    0  0.00000000000E+00 -0.00000000000E+00 -0.52194735480E+03  0.52194735483E+03  0.50400000000E-02 0. -1.
        -24    2    1    2    0    0  0.35527136788E-14  0.35527136788E-14 -0.51887136996E+03  0.52502334073E+03  0.80137442875E+02 0.  0.
         66    2    3    3    0    0  0.16539241786E+02  0.22180412839E+02 -0.44924995819E+03  0.45010559001E+03  0.19999979159E+01 0.  0.
         13    1    3    3    0    0 -0.16539241786E+02 -0.22180412839E+02 -0.69621411768E+02  0.74917750722E+02  0.10566000000E+00 0. -1.
         13    1    4    4    0    0  0.36805961515E+01  0.41286566724E+01 -0.93333498941E+02  0.93497303611E+02  0.10566000000E+00 0. -1.
        -13    1    4    4    0    0  0.84536666090E+01  0.12491860832E+02 -0.24984034079E+03  0.25029526187E+03  0.10566000000E+00 0.  1.
         14    1    4    4    0    0  0.44049790257E+01  0.55598953349E+01 -0.10607611846E+03  0.10631302452E+03  0.00000000000E+00 0. -1.
<mgrwt>
<rscale>  0 0.80137443E+02</rscale>
<asrwt>0</asrwt>
<pdfrwt beam="1">  1        1 0.80299523E-01 0.80137443E+02</pdfrwt>
<pdfrwt beam="2">  1       -2 0.47322893E-03 0.80137443E+02</pdfrwt>
<totfact> 0.19614816E+05</totfact>
</mgrwt>
</event>
<event>
 8    1  0.8577104E-014  0.7796824E+02  0.7818608E-02  0.1334918E+00
          1   -1    0    0  501    0  0.00000000000E+00  0.00000000000E+00  0.62953893444E+01  0.62953913619E+01  0.50400000000E-02 0. -1.
         -2   -1    0    0    0  501 -0.00000000000E+00 -0.00000000000E+00 -0.24140865856E+03  0.24140865857E+03  0.25500000000E-02 0.  1.
        -24    2    1    2    0    0 -0.35527136788E-14  0.00000000000E+00 -0.23511326921E+03  0.24770404993E+03  0.77968243491E+02 0.  0.
         66    2    3    3    0    0 -0.17364639144E+02 -0.21991172110E+02 -0.20362479169E+03  0.20555339485E+03  0.19999997716E+01 0.  0.
         13    1    3    3    0    0  0.17364639144E+02  0.21991172110E+02 -0.31488477522E+02  0.42150655085E+02  0.10566000000E+00 0. -1.
         13    1    4    4    0    0 -0.23173321478E+00 -0.87706410861E-01 -0.14459856073E+01  0.14708606696E+01  0.10566000000E+00 0. -1.
        -13    1    4    4    0    0 -0.46176576249E+01 -0.60982121627E+01 -0.55632876597E+02  0.56156380546E+02  0.10566000000E+00 0.  1.
         14    1    4    4    0    0 -0.12515248305E+02 -0.15805253536E+02 -0.14654592949E+03  0.14792615363E+03  0.00000000000E+00 0. -1.
<mgrwt>
<rscale>  0 0.77968243E+02</rscale>
<asrwt>0</asrwt>
<pdfrwt beam="1">  1        1 0.96852178E-03 0.77968243E+02</pdfrwt>
<pdfrwt beam="2">  1       -2 0.37139787E-01 0.77968243E+02</pdfrwt>
<totfact> 0.83774731E+04</totfact>
</mgrwt>
</event>
<event>
 8    1  0.8577104E-014  0.7713565E+02  0.7818608E-02  0.1337382E+00
          1   -1    0    0  501    0  0.00000000000E+00  0.00000000000E+00  0.88756301819E+02  0.88756301962E+02  0.50400000000E-02 0. -1.
         -2   -1    0    0    0  501 -0.00000000000E+00 -0.00000000000E+00 -0.16759113424E+02  0.16759113618E+02  0.25500000000E-02 0.  1.
        -24    2    1    2    0    0  0.00000000000E+00  0.00000000000E+00  0.71997188395E+02  0.10551541558E+03  0.77135645380E+02 0.  0.
         66    2    3    3    0    0 -0.29701043586E+02  0.28881996423E+01  0.26561722557E+01  0.30025804570E+02  0.20000004402E+01 0.  0.
         13    1    3    3    0    0  0.29701043586E+02 -0.28881996423E+01  0.69341016139E+02  0.75489611010E+02  0.10566000000E+00 0. -1.
         13    1    4    4    0    0 -0.61731944210E+01  0.48767470524E+00  0.53610029755E+00  0.62164880392E+01  0.10566000000E+00 0. -1.
        -13    1    4    4    0    0 -0.16100615551E+02  0.18354570243E+01  0.65874334637E+00  0.16218626034E+02  0.10566000000E+00 0.  1.
        -14    1    4    4    0    0 -0.74272336135E+01  0.56506791285E+00  0.14613286118E+01  0.75906904961E+01  0.00000000000E+00 0.  1.
<mgrwt>
<rscale>  0 0.77135645E+02</rscale>
<asrwt>0</asrwt>
<pdfrwt beam="1">  1        1 0.13654816E-01 0.77135645E+02</pdfrwt>
<pdfrwt beam="2">  1       -2 0.25783252E-02 0.77135645E+02</pdfrwt>
<totfact> 0.15905380E+05</totfact>
</mgrwt>
</event>
<event>
 8    1  0.8577104E-014  0.7902273E+02  0.7818608E-02  0.1331848E+00
          1   -1    0    0  501    0  0.00000000000E+00  0.00000000000E+00  0.75955600031E+01  0.75955616753E+01  0.50400000000E-02 0. -1.
         -2   -1    0    0    0  501 -0.00000000000E+00 -0.00000000000E+00 -0.20553424881E+03  0.20553424883E+03  0.25500000000E-02 0.  1.
        -24    2    1    2    0    0 -0.11796119637E-15  0.00000000000E+00 -0.19793868881E+03  0.21312981051E+03  0.79022728362E+02 0.  0.
         66    2    3    3    0    0  0.34450051783E-02  0.36689105041E+02 -0.13839985205E+03  0.14319430674E+03  0.19999983573E+01 0.  0.
         13    1    3    3    0    0 -0.34450051783E-02 -0.36689105041E+02 -0.59538836757E+02  0.69935503766E+02  0.10566000000E+00 0. -1.
         13    1    4    4    0    0 -0.48849412363E+00  0.92936612898E+01 -0.33482011105E+02  0.34751503541E+02  0.10566000000E+00 0. -1.
        -13    1    4    4    0    0 -0.36950214622E+00  0.69518877910E+01 -0.26702981008E+02  0.27595753920E+02  0.10566000000E+00 0.  1.
         14    1    4    4    0    0  0.86144127503E+00  0.20443555960E+02 -0.78214859942E+02  0.80847049279E+02  0.00000000000E+00 0. -1.
<mgrwt>
<rscale>  0 0.79022728E+02</rscale>
<asrwt>0</asrwt>
<pdfrwt beam="1">  1        1 0.11685480E-02 0.79022728E+02</pdfrwt>
<pdfrwt beam="2">  1       -2 0.31620650E-01 0.79022728E+02</pdfrwt>
<totfact> 0.86839539E+04</totfact>
</mgrwt>
</event>
<event>
 8    1  0.8577104E-014  0.7835264E+02  0.7818608E-02  0.1333792E+00
         -2   -1    0    0    0  501 -0.00000000000E+00  0.00000000000E+00  0.21335217095E+02  0.21335217248E+02  0.25500000000E-02 0.  1.
          1   -1    0    0  501    0  0.00000000000E+00 -0.00000000000E+00 -0.71936657970E+02  0.71936658146E+02  0.50400000000E-02 0. -1.
        -24    2    1    2    0    0  0.35527136788E-14  0.17763568394E-14 -0.50601440874E+02  0.93271875394E+02  0.78352644632E+02 0.  0.
         66    2    3    3    0    0 -0.22759585175E+02 -0.11945858241E+02  0.98368187802E+01  0.27594659858E+02  0.20000006176E+01 0.  0.
         13    1    3    3    0    0  0.22759585175E+02  0.11945858241E+02 -0.60438259655E+02  0.65677215536E+02  0.10566000000E+00 0. -1.
         13    1    4    4    0    0 -0.10172894297E+02 -0.47844484690E+01  0.35444355763E+01  0.11787829025E+02  0.10566000000E+00 0. -1.
        -13    1    4    4    0    0 -0.82627674041E+01 -0.45340186977E+01  0.37472888860E+01  0.10143174491E+02  0.10566000000E+00 0.  1.
        -14    1    4    4    0    0 -0.43239234744E+01 -0.26273910746E+01  0.25450943179E+01  0.56636563418E+01  0.00000000000E+00 0.  1.
<mgrwt>
<rscale>  0 0.78352645E+02</rscale>
<asrwt>0</asrwt>
<pdfrwt beam="1">  1        1 0.11067178E-01 0.78352645E+02</pdfrwt>
<pdfrwt beam="2">  1       -2 0.32823411E-02 0.78352645E+02</pdfrwt>
<totfact> 0.14745239E+05</totfact>
</mgrwt>
</event>
<event>
 8    1  0.8577104E-014  0.7847684E+02  0.7818608E-02  0.1333430E+00
          1   -1    0    0  501    0  0.00000000000E+00  0.00000000000E+00  0.18117035048E+03  0.18117035055E+03  0.50400000000E-02 0. -1.
         -2   -1    0    0    0  501 -0.00000000000E+00 -0.00000000000E+00 -0.84983754876E+01  0.84983758701E+01  0.25500000000E-02 0.  1.
        -24    2    1    2    0    0  0.00000000000E+00  0.00000000000E+00  0.17267197499E+03  0.18966872642E+03  0.78476842661E+02 0.  0.
         66    2    3    3    0    0  0.14177828031E+02  0.36322752690E+02  0.76340609970E+02  0.85745215019E+02  0.19999993693E+01 0.  0.
         13    1    3    3    0    0 -0.14177828031E+02 -0.36322752690E+02  0.96331365021E+02  0.10392351140E+03  0.10566000000E+00 0. -1.
         13    1    4    4    0    0  0.95888301418E+00  0.17877487092E+01  0.43766743629E+01  0.48251367438E+01  0.10566000000E+00 0. -1.
        -13    1    4    4    0    0  0.86279216334E+01  0.21188201454E+02  0.43530057921E+02  0.49175786920E+02  0.10566000000E+00 0.  1.
         14    1    4    4    0    0  0.45910233837E+01  0.13346802528E+02  0.28433877686E+02  0.31744291355E+02  0.00000000000E+00 0. -1.
<mgrwt>
<rscale>  0 0.78476843E+02</rscale>
<asrwt>0</asrwt>
<pdfrwt beam="1">  1        1 0.27872361E-01 0.78476843E+02</pdfrwt>
<pdfrwt beam="2">  1       -2 0.13074424E-02 0.78476843E+02</pdfrwt>
<totfact> 0.17216113E+05</totfact>
</mgrwt>
</event>
<event>
 8    1  0.8577104E-014  0.8500996E+02  0.7818608E-02  0.1315406E+00
          1   -1    0    0  501    0  0.00000000000E+00  0.00000000000E+00  0.36516067381E+03  0.36516067385E+03  0.50400000000E-02 0. -1.
         -2   -1    0    0    0  501 -0.00000000000E+00 -0.00000000000E+00 -0.49476117998E+01  0.49476124569E+01  0.25500000000E-02 0.  1.
        -24    2    1    2    0    0 -0.88817841970E-15  0.71054273576E-14  0.36021306201E+03  0.37010828630E+03  0.85009961455E+02 0.  0.
         66    2    3    3    0    0 -0.59339034633E+01 -0.41958227608E+02  0.16717077216E+03  0.17246962382E+03  0.20000001422E+01 0.  0.
         13    1    3    3    0    0  0.59339034633E+01  0.41958227608E+02  0.19304228985E+03  0.19763866248E+03  0.10566000000E+00 0. -1.
         13    1    4    4    0    0 -0.42187324012E+00 -0.49578059326E+01  0.21929603978E+02  0.22487252197E+02  0.10566000000E+00 0. -1.
        -13    1    4    4    0    0 -0.45557521293E+01 -0.29125089586E+02  0.11461849961E+03  0.11834879525E+03  0.10566000000E+00 0.  1.
         14    1    4    4    0    0 -0.95627809384E+00 -0.78753320896E+01  0.30622668579E+02  0.31633576374E+02  0.00000000000E+00 0. -1.
<mgrwt>
<rscale>  0 0.85009961E+02</rscale>
<asrwt>0</asrwt>
<pdfrwt beam="1">  1        1 0.56178585E-01 0.85009961E+02</pdfrwt>
<pdfrwt beam="2">  1       -2 0.76117084E-03 0.85009961E+02</pdfrwt>
<totfact> 0.15933890E+05</totfact>
</mgrwt>
</event>
<event>
 8    1  0.8577104E-014  0.8039487E+02  0.7818608E-02  0.1327935E+00
          1   -1    0    0  501    0  0.00000000000E+00  0.00000000000E+00  0.34544227795E+01  0.34544264562E+01  0.50400000000E-02 0. -1.
         -2   -1    0    0    0  501 -0.00000000000E+00 -0.00000000000E+00 -0.46775774813E+03  0.46775774814E+03  0.25500000000E-02 0.  1.
        -24    2    1    2    0    0 -0.17763568394E-14  0.00000000000E+00 -0.46430332535E+03  0.47121217459E+03  0.80394872680E+02 0.  0.
         66    2    3    3    0    0 -0.14237379941E+02  0.71193564086E+01 -0.44848113016E+03  0.44876799388E+03  0.19999995548E+01 0.  0.
         13    1    3    3    0    0  0.14237379941E+02 -0.71193564086E+01 -0.15822195194E+02  0.22444180716E+02  0.10566000000E+00 0. -1.
         13    1    4    4    0    0 -0.54115561861E+01  0.27578283422E+01 -0.15895899873E+03  0.15907502947E+03  0.10566000000E+00 0. -1.
        -13    1    4    4    0    0 -0.21676956762E+01  0.10805190188E+01 -0.55017154762E+02  0.55070544831E+02  0.10566000000E+00 0.  1.
        -14    1    4    4    0    0 -0.66581280782E+01  0.32810090476E+01 -0.23450497666E+03  0.23462241958E+03  0.00000000000E+00 0.  1.
<mgrwt>
<rscale>  0 0.80394873E+02</rscale>
<asrwt>0</asrwt>
<pdfrwt beam="1">  1        1 0.53145031E-03 0.80394873E+02</pdfrwt>
<pdfrwt beam="2">  1       -2 0.71962680E-01 0.80394873E+02</pdfrwt>
<totfact> 0.52304790E+04</totfact>
</mgrwt>
</event>
<event>
 8    1  0.8577104E-014  0.7809008E+02  0.7818608E-02  0.1334561E+00
          1   -1    0    0  501    0  0.00000000000E+00  0.00000000000E+00  0.50220900585E+01  0.50220925875E+01  0.50400000000E-02 0. -1.
         -2   -1    0    0    0  501 -0.00000000000E+00 -0.00000000000E+00 -0.30356178590E+03  0.30356178591E+03  0.25500000000E-02 0.  1.
        -24    2    1    2    0    0 -0.35527136788E-14  0.00000000000E+00 -0.29853969584E+03  0.30858387850E+03  0.78090076679E+02 0.  0.
         66    2    3    3    0    0 -0.23282737236E+02  0.82157980936E+01 -0.26876489863E+03  0.26990397539E+03  0.20000006648E+01 0.  0.
         13    1    3    3    0    0  0.23282737236E+02 -0.82157980936E+01 -0.29774797205E+02  0.38679903104E+02  0.10566000000E+00 0. -1.
         13    1    4    4    0    0 -0.48966694131E+01  0.12216697154E+01 -0.58567941339E+02  0.58785072638E+02  0.10566000000E+00 0. -1.
        -13    1    4    4    0    0 -0.20488856161E+01  0.10457690791E+01 -0.27762905994E+02  0.27858242560E+02  0.10566000000E+00 0.  1.
        -14    1    4    4    0    0 -0.16337182207E+02  0.59483592991E+01 -0.18243405130E+03  0.18326066019E+03  0.00000000000E+00 0.  1.
<mgrwt>
<rscale>  0 0.78090077E+02</rscale>
<asrwt>0</asrwt>
<pdfrwt beam="1">  1        1 0.77262967E-03 0.78090077E+02</pdfrwt>
<pdfrwt beam="2">  1       -2 0.46701799E-01 0.78090077E+02</pdfrwt>
<totfact> 0.74312026E+04</totfact>
</mgrwt>
</event>
<event>
 8    1  0.8577104E-014  0.7879181E+02  0.7818608E-02  0.1332515E+00
         -2   -1    0    0    0  501 -0.00000000000E+00  0.00000000000E+00  0.48260950354E+02  0.48260950421E+02  0.25500000000E-02 0.  1.
          1   -1    0    0  501    0  0.00000000000E+00 -0.00000000000E+00 -0.32159274428E+02  0.32159274823E+02  0.50400000000E-02 0. -1.
        -24    2    1    2    0    0  0.00000000000E+00  0.00000000000E+00  0.16101675926E+02  0.80420225245E+02  0.78791805797E+02 0.  0.
         66    2    3    3    0    0  0.36942678368E+02  0.98656275354E+01 -0.15154400111E+01  0.38319559815E+02  0.20000035683E+01 0.  0.
         13    1    3    3    0    0 -0.36942678368E+02 -0.98656275354E+01  0.17617115937E+02  0.42100665430E+02  0.10566000000E+00 0. -1.
         13    1    4    4    0    0  0.15292686243E+01  0.40421885671E+00  0.63425327072E-01  0.15865819289E+01  0.10566000000E+00 0.  1.
        -13    1    4    4    0    0  0.34976427305E+02  0.93553057131E+01 -0.13570009665E+01  0.36231544650E+02  0.10566000000E+00 0.  1.
        -14    1    4    4    0    0  0.43698243845E+00  0.10610296563E+00 -0.22186437166E+00  0.50143323608E+00  0.00000000000E+00 0.  1.
<mgrwt>
<rscale>  0 0.78791806E+02</rscale>
<asrwt>0</asrwt>
<pdfrwt beam="1">  1        1 0.49475807E-02 0.78791806E+02</pdfrwt>
<pdfrwt beam="2">  1       -2 0.74247616E-02 0.78791806E+02</pdfrwt>
<totfact> 0.12786262E+05</totfact>
</mgrwt>
</event>
<event>
 8    1  0.8577104E-014  0.8145401E+02  0.7818608E-02  0.1324975E+00
         -2   -1    0    0    0  501 -0.00000000000E+00  0.00000000000E+00  0.34056308453E+03  0.34056308454E+03  0.25500000000E-02 0.  1.
          1   -1    0    0  501    0  0.00000000000E+00 -0.00000000000E+00 -0.48704290534E+01  0.48704316612E+01  0.50400000000E-02 0. -1.
        -24    2    1    2    0    0  0.00000000000E+00  0.17763568394E-14  0.33569265548E+03  0.34543351620E+03  0.81454006494E+02 0.  0.
         66    2    3    3    0    0 -0.34221496637E+01  0.10312435302E+02  0.33429563045E+03  0.33447813975E+03  0.20000017667E+01 0.  0.
         13    1    3    3    0    0  0.34221496637E+01 -0.10312435302E+02  0.13970250323E+01  0.10955376450E+02  0.10566000000E+00 0. -1.
         13    1    4    4    0    0 -0.79038204957E+00  0.92645450958E+00  0.36271926882E+02  0.36292518038E+02  0.10566000000E+00 0. -1.
        -13    1    4    4    0    0 -0.19069925993E+01  0.75957835485E+01  0.22459745921E+03  0.22473398140E+03  0.10566000000E+00 0.  1.
        -14    1    4    4    0    0 -0.72477501482E+00  0.17901972438E+01  0.73426244355E+02  0.73451640315E+02  0.00000000000E+00 0.  1.
<mgrwt>
<rscale>  0 0.81454006E+02</rscale>
<asrwt>0</asrwt>
<pdfrwt beam="1">  1        1 0.74929665E-03 0.81454006E+02</pdfrwt>
<pdfrwt beam="2">  1       -2 0.52394344E-01 0.81454006E+02</pdfrwt>
<totfact> 0.62403117E+04</totfact>
</mgrwt>
</event>
<event>
 8    1  0.8577104E-014  0.8203538E+02  0.7818608E-02  0.1323373E+00
          1   -1    0    0  501    0  0.00000000000E+00  0.00000000000E+00  0.14190226379E+03  0.14190226388E+03  0.50400000000E-02 0. -1.
         -2   -1    0    0    0  501 -0.00000000000E+00 -0.00000000000E+00 -0.11856407463E+02  0.11856407737E+02  0.25500000000E-02 0.  1.
        -24    2    1    2    0    0  0.00000000000E+00 -0.71054273576E-14  0.13004585633E+03  0.15375867162E+03  0.82035384741E+02 0.  0.
         66    2    3    3    0    0 -0.20239200318E+02 -0.31247227953E+02  0.97222547634E+02  0.10412606901E+03  0.19999985247E+01 0.  0.
         13    1    3    3    0    0  0.20239200318E+02  0.31247227953E+02  0.32823308691E+02  0.49632602609E+02  0.10566000000E+00 0. -1.
         13    1    4    4    0    0 -0.62237371917E+01 -0.83332304426E+01  0.26676231716E+02  0.28632326781E+02  0.10566000000E+00 0. -1.
        -13    1    4    4    0    0 -0.37895270429E+01 -0.59391453305E+01  0.17350532979E+02  0.18726615315E+02  0.10566000000E+00 0.  1.
        -14    1    4    4    0    0 -0.10225936083E+02 -0.16974852180E+02  0.53195782939E+02  0.56767126911E+02  0.00000000000E+00 0.  1.
<mgrwt>
<rscale>  0 0.82035385E+02</rscale>
<asrwt>0</asrwt>
<pdfrwt beam="1">  1        1 0.21831118E-01 0.82035385E+02</pdfrwt>
<pdfrwt beam="2">  1       -2 0.18240627E-02 0.82035385E+02</pdfrwt>
<totfact> 0.14610938E+05</totfact>
</mgrwt>
</event>
<event>
 8    1  0.8577104E-014  0.7955018E+02  0.7818608E-02  0.1330333E+00
          1   -1    0    0  501    0  0.00000000000E+00  0.00000000000E+00  0.54846868031E+01  0.54846891188E+01  0.50400000000E-02 0. -1.
         -2   -1    0    0    0  501 -0.00000000000E+00 -0.00000000000E+00 -0.28844992277E+03  0.28844992278E+03  0.25500000000E-02 0.  1.
        -24    2    1    2    0    0  0.35527136788E-14 -0.35527136788E-14 -0.28296523597E+03  0.29393461190E+03  0.79550181063E+02 0.  0.
         66    2    3    3    0    0  0.27380062711E+02 -0.22654064642E+02 -0.75766424953E+02  0.83710367512E+02  0.19999999897E+01 0.  0.
         13    1    3    3    0    0 -0.27380062711E+02  0.22654064642E+02 -0.20719881101E+03  0.21022424439E+03  0.10566000000E+00 0. -1.
         13    1    4    4    0    0  0.14878701286E+02 -0.13360211943E+02 -0.42676761294E+02  0.47129482637E+02  0.10566000000E+00 0. -1.
        -13    1    4    4    0    0  0.31313704973E+01 -0.26306330069E+01 -0.91841948156E+01  0.10054168770E+02  0.10566000000E+00 0.  1.
         14    1    4    4    0    0  0.93699909281E+01 -0.66632196922E+01 -0.23905468844E+02  0.26526716105E+02  0.00000000000E+00 0. -1.
<mgrwt>
<rscale>  0 0.79550181E+02</rscale>
<asrwt>0</asrwt>
<pdfrwt beam="1">  1        1 0.84379837E-03 0.79550181E+02</pdfrwt>
<pdfrwt beam="2">  1       -2 0.44376900E-01 0.79550181E+02</pdfrwt>
<totfact> 0.72817952E+04</totfact>
</mgrwt>
</event>
<event>
 8    1  0.8577104E-014  0.8471015E+02  0.7818608E-02  0.1316192E+00
          1   -1    0    0  501    0  0.00000000000E+00  0.00000000000E+00  0.33461730104E+02  0.33461730483E+02  0.50400000000E-02 0. -1.
         -2   -1    0    0    0  501 -0.00000000000E+00 -0.00000000000E+00 -0.53612058806E+02  0.53612058867E+02  0.25500000000E-02 0.  1.
        -24    2    1    2    0    0  0.00000000000E+00 -0.35527136788E-14 -0.20150328702E+02  0.87073789350E+02  0.84710147237E+02 0.  0.
         66    2    3    3    0    0 -0.33292575256E+02  0.25902706787E+02 -0.64318629228E+01  0.42716678833E+02  0.20000009386E+01 0.  0.
         13    1    3    3    0    0  0.33292575256E+02 -0.25902706787E+02 -0.13718465779E+02  0.44357110517E+02  0.10566000000E+00 0. -1.
         13    1    4    4    0    0 -0.18946701656E+02  0.15378059564E+02 -0.29367696339E+01  0.24578405146E+02  0.10566000000E+00 0. -1.
        -13    1    4    4    0    0 -0.89317719985E+01  0.66105480499E+01 -0.19721086171E+01  0.11286109737E+02  0.10566000000E+00 0.  1.
         14    1    4    4    0    0 -0.54141016010E+01  0.39140991730E+01 -0.15229846719E+01  0.68521639497E+01  0.00000000000E+00 0. -1.
<mgrwt>
<rscale>  0 0.84710147E+02</rscale>
<asrwt>0</asrwt>
<pdfrwt beam="1">  1        1 0.51479585E-02 0.84710147E+02</pdfrwt>
<pdfrwt beam="2">  1       -2 0.82480090E-02 0.84710147E+02</pdfrwt>
<totfact> 0.10460883E+05</totfact>
</mgrwt>
</event>
<event>
 8    1  0.8577104E-014  0.8000452E+02  0.7818608E-02  0.1329039E+00
         -2   -1    0    0    0  501 -0.00000000000E+00  0.00000000000E+00  0.43802542930E+01  0.43802550353E+01  0.25500000000E-02 0.  1.
          1   -1    0    0  501    0  0.00000000000E+00 -0.00000000000E+00 -0.36531679935E+03  0.36531679938E+03  0.50400000000E-02 0. -1.
        -24    2    1    2    0    0  0.00000000000E+00  0.00000000000E+00 -0.36093654505E+03  0.36969705442E+03  0.80004515429E+02 0.  0.
         66    2    3    3    0    0 -0.39763813536E+02  0.32908906267E+01 -0.19207273376E+03  0.19618339859E+03  0.20000005338E+01 0.  0.
         13    1    3    3    0    0  0.39763813536E+02 -0.32908906267E+01 -0.16886381130E+03  0.17351365582E+03  0.10566000000E+00 0. -1.
         13    1    4    4    0    0 -0.29627358097E+01  0.31230673595E-01 -0.15665583195E+02  0.15943664564E+02  0.10566000000E+00 0. -1.
        -13    1    4    4    0    0 -0.11125801064E+02  0.14255818072E+01 -0.55795416196E+02  0.56911820963E+02  0.10566000000E+00 0.  1.
        -14    1    4    4    0    0 -0.25675276662E+02  0.18340781460E+01 -0.12061173437E+03  0.12332791307E+03  0.00000000000E+00 0.  1.
<mgrwt>
<rscale>  0 0.80004515E+02</rscale>
<asrwt>0</asrwt>
<pdfrwt beam="1">  1        1 0.56202561E-01 0.80004515E+02</pdfrwt>
<pdfrwt beam="2">  1       -2 0.67388562E-03 0.80004515E+02</pdfrwt>
<totfact> 0.18701101E+05</totfact>
</mgrwt>
</event>
<event>
 8    1  0.8577104E-014  0.7990859E+02  0.7818608E-02  0.1329311E+00
         -2   -1    0    0    0  501 -0.00000000000E+00  0.00000000000E+00  0.15240828550E+02  0.15240828763E+02  0.25500000000E-02 0.  1.
          1   -1    0    0  501    0  0.00000000000E+00 -0.00000000000E+00 -0.10474138513E+03  0.10474138525E+03  0.50400000000E-02 0. -1.
        -24    2    1    2    0    0  0.35527136788E-14 -0.35527136788E-14 -0.89500556583E+02  0.11998221402E+03  0.79908585595E+02 0.  0.
         66    2    3    3    0    0  0.20923761513E+02 -0.19629756071E+02 -0.30807735172E+01  0.28924423639E+02  0.19999995309E+01 0.  0.
         13    1    3    3    0    0 -0.20923761513E+02  0.19629756071E+02 -0.86419783066E+02  0.91057790378E+02  0.10566000000E+00 0. -1.
         13    1    4    4    0    0  0.48745143868E+01 -0.52439525731E+01 -0.77919613053E+00  0.72026550480E+01  0.10566000000E+00 0. -1.
        -13    1    4    4    0    0  0.13027245914E+02 -0.11617427686E+02 -0.24171928306E+01  0.17621797506E+02  0.10566000000E+00 0.  1.
         14    1    4    4    0    0  0.30220012127E+01 -0.27683758122E+01  0.11561544388E+00  0.40999710850E+01  0.00000000000E+00 0. -1.
<mgrwt>
<rscale>  0 0.79908586E+02</rscale>
<asrwt>0</asrwt>
<pdfrwt beam="1">  1        1 0.16114059E-01 0.79908586E+02</pdfrwt>
<pdfrwt beam="2">  1       -2 0.23447429E-02 0.79908586E+02</pdfrwt>
<totfact> 0.14860454E+05</totfact>
</mgrwt>
</event>
<event>
 8    1  0.8577104E-014  0.7801877E+02  0.7818608E-02  0.1334770E+00
         -2   -1    0    0    0  501 -0.00000000000E+00  0.00000000000E+00  0.99179409674E+02  0.99179409707E+02  0.25500000000E-02 0.  1.
          1   -1    0    0  501    0  0.00000000000E+00 -0.00000000000E+00 -0.15343224977E+02  0.15343225805E+02  0.50400000000E-02 0. -1.
        -24    2    1    2    0    0 -0.17763568394E-14  0.71054273576E-14  0.83836184696E+02  0.11452263551E+03  0.78018768128E+02 0.  0.
         66    2    3    3    0    0  0.15366784889E+02 -0.34497323856E+02  0.27749984471E+02  0.46906983102E+02  0.19999986316E+01 0.  0.
         13    1    3    3    0    0 -0.15366784889E+02  0.34497323856E+02  0.56086200226E+02  0.67615652410E+02  0.10566000000E+00 0. -1.
         13    1    4    4    0    0  0.71765468625E+00 -0.20436165081E+01  0.11539442654E+01  0.24564503016E+01  0.10566000000E+00 0. -1.
        -13    1    4    4    0    0  0.13899527174E+02 -0.31150529090E+02  0.25388068647E+02  0.42521965052E+02  0.10566000000E+00 0.  1.
        -14    1    4    4    0    0  0.74960302821E+00 -0.13031782587E+01  0.12079715582E+01  0.19285677481E+01  0.00000000000E+00 0.  1.
<mgrwt>
<rscale>  0 0.78018768E+02</rscale>
<asrwt>0</asrwt>
<pdfrwt beam="1">  1        1 0.23604962E-02 0.78018768E+02</pdfrwt>
<pdfrwt beam="2">  1       -2 0.15258371E-01 0.78018768E+02</pdfrwt>
<totfact> 0.11338947E+05</totfact>
</mgrwt>
</event>
<event>
 8    1  0.8577104E-014  0.8116198E+02  0.7818608E-02  0.1325786E+00
         -2   -1    0    0    0  501 -0.00000000000E+00  0.00000000000E+00  0.26601720182E+03  0.26601720183E+03  0.25500000000E-02 0.  1.
          1   -1    0    0  501    0  0.00000000000E+00 -0.00000000000E+00 -0.61906392013E+01  0.61906412529E+01  0.50400000000E-02 0. -1.
        -24    2    1    2    0    0  0.00000000000E+00 -0.88817841970E-15  0.25982656262E+03  0.27220784308E+03  0.81161981215E+02 0.  0.
         66    2    3    3    0    0 -0.37340287338E+02 -0.53860520017E+01  0.17990797011E+03  0.18383194588E+03  0.20000003306E+01 0.  0.
         13    1    3    3    0    0  0.37340287338E+02  0.53860520017E+01  0.79918592503E+02  0.88375897202E+02  0.10566000000E+00 0. -1.
         13    1    4    4    0    0 -0.37276270553E+01 -0.38957944693E+00  0.16336661619E+02  0.16761403655E+02  0.10566000000E+00 0. -1.
        -13    1    4    4    0    0 -0.21159489548E+02 -0.24335650680E+01  0.10174724850E+03  0.10395268144E+03  0.10566000000E+00 0.  1.
         14    1    4    4    0    0 -0.12453170734E+02 -0.25629074868E+01  0.61824059994E+02  0.63117860786E+02  0.00000000000E+00 0. -1.
<mgrwt>
<rscale>  0 0.81161981E+02</rscale>
<asrwt>0</asrwt>
<pdfrwt beam="1">  1        1 0.95240620E-03 0.81161981E+02</pdfrwt>
<pdfrwt beam="2">  1       -2 0.40925723E-01 0.81161981E+02</pdfrwt>
<totfact> 0.72077236E+04</totfact>
</mgrwt>
</event>
<event>
 8    1  0.8577104E-014  0.7711395E+02  0.7818608E-02  0.1337447E+00
         -2   -1    0    0    0  501 -0.00000000000E+00  0.00000000000E+00  0.48884382677E+01  0.48884389328E+01  0.25500000000E-02 0.  1.
          1   -1    0    0  501    0  0.00000000000E+00 -0.00000000000E+00 -0.30411349814E+03  0.30411349818E+03  0.50400000000E-02 0. -1.
        -24    2    1    2    0    0  0.00000000000E+00  0.00000000000E+00 -0.29922505987E+03  0.30900193711E+03  0.77113946112E+02 0.  0.
         66    2    3    3    0    0 -0.31540158055E+01 -0.22695656036E+02 -0.27384157973E+03  0.27480584309E+03  0.19999966178E+01 0.  0.
         13    1    3    3    0    0  0.31540158055E+01  0.22695656036E+02 -0.25383480141E+02  0.34196094027E+02  0.10566000000E+00 0. -1.
         13    1    4    4    0    0 -0.70440719333E+00 -0.10101637005E+02 -0.12722173353E+03  0.12762413528E+03  0.10566000000E+00 0. -1.
        -13    1    4    4    0    0 -0.76676416993E+00 -0.56702326919E+01 -0.65369709337E+02  0.65619734295E+02  0.10566000000E+00 0.  1.
         14    1    4    4    0    0 -0.16828444423E+01 -0.69237863390E+01 -0.81250136863E+02  0.81561973511E+02  0.00000000000E+00 0. -1.
<mgrwt>
<rscale>  0 0.77113946E+02</rscale>
<asrwt>0</asrwt>
<pdfrwt beam="1">  1        1 0.46786677E-01 0.77113946E+02</pdfrwt>
<pdfrwt beam="2">  1       -2 0.75206772E-03 0.77113946E+02</pdfrwt>
<totfact> 0.19924072E+05</totfact>
</mgrwt>
</event>
<event>
 8    1  0.8577104E-014  0.8149289E+02  0.7818608E-02  0.1324867E+00
          1   -1    0    0  501    0  0.00000000000E+00  0.00000000000E+00  0.74667000266E+02  0.74667000437E+02  0.50400000000E-02 0. -1.
         -2   -1    0    0    0  501 -0.00000000000E+00 -0.00000000000E+00 -0.22235696426E+02  0.22235696572E+02  0.25500000000E-02 0.  1.
        -24    2    1    2    0    0  0.35527136788E-14  0.00000000000E+00  0.52431303841E+02  0.96902697009E+02  0.81492889660E+02 0.  0.
         66    2    3    3    0    0  0.15803409343E+02 -0.72055056403E+01 -0.17565380991E+02  0.24783253653E+02  0.19999984684E+01 0.  0.
         13    1    3    3    0    0 -0.15803409343E+02  0.72055056403E+01  0.69996684832E+02  0.72119443355E+02  0.10566000000E+00 0. -1.
         13    1    4    4    0    0  0.24064103489E+01 -0.16449698982E+01 -0.23976525841E+01  0.37757964303E+01  0.10566000000E+00 0. -1.
        -13    1    4    4    0    0  0.96565471806E+01 -0.40119067949E+01 -0.10327323626E+02  0.14697247256E+02  0.10566000000E+00 0.  1.
         14    1    4    4    0    0  0.37404518136E+01 -0.15486289472E+01 -0.48404047808E+01  0.63102099671E+01  0.00000000000E+00 0. -1.
<mgrwt>
<rscale>  0 0.81492890E+02</rscale>
<asrwt>0</asrwt>
<pdfrwt beam="1">  1        1 0.11487231E-01 0.81492890E+02</pdfrwt>
<pdfrwt beam="2">  1       -2 0.34208763E-02 0.81492890E+02</pdfrwt>
<totfact> 0.13322628E+05</totfact>
</mgrwt>
</event>
<event>
 8    1  0.8577104E-014  0.7855537E+02  0.7818608E-02  0.1333202E+00
          1   -1    0    0  501    0  0.00000000000E+00  0.00000000000E+00  0.18256154323E+03  0.18256154330E+03  0.50400000000E-02 0. -1.
         -2   -1    0    0    0  501 -0.00000000000E+00 -0.00000000000E+00 -0.84504999331E+01  0.84505003179E+01  0.25500000000E-02 0.  1.
        -24    2    1    2    0    0  0.44408920985E-15 -0.71054273576E-14  0.17411104330E+03  0.19101204362E+03  0.78555365246E+02 0.  0.
         66    2    3    3    0    0  0.25458275531E+01 -0.39168900516E+02  0.87641235332E+02  0.96050352083E+02  0.19999998172E+01 0.  0.
         13    1    3    3    0    0 -0.25458275531E+01  0.39168900516E+02  0.86469807966E+02  0.94961691535E+02  0.10566000000E+00 0. -1.
         13    1    4    4    0    0  0.96120199595E+00 -0.92368379864E+01  0.22432693720E+02  0.24279209147E+02  0.10566000000E+00 0. -1.
        -13    1    4    4    0    0  0.13021211695E+00 -0.79587448039E+01  0.17136741812E+02  0.18895440138E+02  0.10566000000E+00 0.  1.
        -14    1    4    4    0    0  0.14544134402E+01 -0.21973317725E+02  0.48071799800E+02  0.52875702797E+02  0.00000000000E+00 0.  1.
<mgrwt>
<rscale>  0 0.78555365E+02</rscale>
<asrwt>0</asrwt>
<pdfrwt beam="1">  1        1 0.28086389E-01 0.78555365E+02</pdfrwt>
<pdfrwt beam="2">  1       -2 0.13000770E-02 0.78555365E+02</pdfrwt>
<totfact> 0.17195556E+05</totfact>
</mgrwt>
</event>
<event>
 8    1  0.8577104E-014  0.8037913E+02  0.7818608E-02  0.1327979E+00
         -2   -1    0    0    0  501 -0.00000000000E+00  0.00000000000E+00  0.28532756246E+01  0.28532767641E+01  0.25500000000E-02 0.  1.
          1   -1    0    0  501    0  0.00000000000E+00 -0.00000000000E+00 -0.56608653419E+03  0.56608653422E+03  0.50400000000E-02 0. -1.
        -24    2    1    2    0    0  0.00000000000E+00  0.00000000000E+00 -0.56323325857E+03  0.56893981098E+03  0.80379132615E+02 0.  0.
         66    2    3    3    0    0  0.35629769840E+02 -0.15932309532E+02 -0.34889443326E+03  0.35107640840E+03  0.19999969673E+01 0.  0.
         13    1    3    3    0    0 -0.35629769840E+02  0.15932309532E+02 -0.21433882531E+03  0.21786340258E+03  0.10566000000E+00 0. -1.
         13    1    4    4    0    0  0.34887684923E+01 -0.14263610010E+01 -0.37319361045E+02  0.37509357288E+02  0.10566000000E+00 0. -1.
        -13    1    4    4    0    0  0.27872936290E+02 -0.13038599520E+02 -0.27309256998E+03  0.27482079360E+03  0.10566000000E+00 0.  1.
        -14    1    4    4    0    0  0.42680650579E+01 -0.14673490109E+01 -0.38482502236E+02  0.38746257507E+02  0.00000000000E+00 0.  1.
<mgrwt>
<rscale>  0 0.80379133E+02</rscale>
<asrwt>0</asrwt>
<pdfrwt beam="1">  1        1 0.87090147E-01 0.80379133E+02</pdfrwt>
<pdfrwt beam="2">  1       -2 0.43896602E-03 0.80379133E+02</pdfrwt>
<totfact> 0.19609758E+05</totfact>
</mgrwt>
</event>
<event>
 8    1  0.8577104E-014  0.8087059E+02  0.7818608E-02  0.1326599E+00
          1   -1    0    0  501    0  0.00000000000E+00  0.00000000000E+00  0.10883897067E+02  0.10883898234E+02  0.50400000000E-02 0. -1.
         -2   -1    0    0    0  501 -0.00000000000E+00 -0.00000000000E+00 -0.15022312737E+03  0.15022312739E+03  0.25500000000E-02 0.  1.
        -24    2    1    2    0    0  0.88817841970E-15 -0.71054273576E-14 -0.13933923031E+03  0.16110702563E+03  0.80870591716E+02 0.  0.
         66    2    3    3    0    0 -0.79330522322E+01  0.39621411070E+02 -0.68780639362E+02  0.79797029607E+02  0.20000125395E+01 0.  0.
         13    1    3    3    0    0  0.79330522322E+01 -0.39621411070E+02 -0.70558590944E+02  0.81309996021E+02  0.10566000000E+00 0. -1.
         13    1    4    4    0    0 -0.11993299171E+00  0.82248771398E+00 -0.13710971142E+01  0.16068420253E+01  0.10566000000E+00 0.  1.
        -13    1    4    4    0    0 -0.65986504918E+01  0.31097171239E+02 -0.52844037707E+02  0.61669114900E+02  0.10566000000E+00 0.  1.
        -14    1    4    4    0    0 -0.12144687486E+01  0.77017521173E+01 -0.14565504541E+02  0.16521072681E+02  0.00000000000E+00 0.  1.
<mgrwt>
<rscale>  0 0.80870592E+02</rscale>
<asrwt>0</asrwt>
<pdfrwt beam="1">  1        1 0.16744459E-02 0.80870592E+02</pdfrwt>
<pdfrwt beam="2">  1       -2 0.23111249E-01 0.80870592E+02</pdfrwt>
<totfact> 0.91868253E+04</totfact>
</mgrwt>
</event>
<event>
 8    1  0.8577104E-014  0.7960500E+02  0.7818608E-02  0.1330176E+00
          1   -1    0    0  501    0  0.00000000000E+00  0.00000000000E+00  0.10033603753E+02  0.10033605019E+02  0.50400000000E-02 0. -1.
         -2   -1    0    0    0  501 -0.00000000000E+00 -0.00000000000E+00 -0.15789330177E+03  0.15789330180E+03  0.25500000000E-02 0.  1.
        -24    2    1    2    0    0  0.22204460493E-15 -0.71054273576E-14 -0.14785969802E+03  0.16792690681E+03  0.79604998167E+02 0.  0.
         66    2    3    3    0    0 -0.14655897161E+01  0.32881701997E+02 -0.12109341043E+03  0.12550286180E+03  0.19999981772E+01 0.  0.
         13    1    3    3    0    0  0.14655897161E+01 -0.32881701997E+02 -0.26766287594E+02  0.42424045010E+02  0.10566000000E+00 0. -1.
         13    1    4    4    0    0 -0.16705568014E+01  0.27438449643E+02 -0.10293590980E+03  0.10654328683E+03  0.10566000000E+00 0. -1.
        -13    1    4    4    0    0 -0.50907318078E-01  0.14018844818E+01 -0.46949236406E+01  0.49011573819E+01  0.10566000000E+00 0.  1.
         14    1    4    4    0    0  0.25587440334E+00  0.40413678719E+01 -0.13462576989E+02  0.14058417591E+02  0.00000000000E+00 0. -1.
<mgrwt>
<rscale>  0 0.79604998E+02</rscale>
<asrwt>0</asrwt>
<pdfrwt beam="1">  1        1 0.15436316E-02 0.79604998E+02</pdfrwt>
<pdfrwt beam="2">  1       -2 0.24291276E-01 0.79604998E+02</pdfrwt>
<totfact> 0.94093465E+04</totfact>
</mgrwt>
</event>
<event>
 8    1  0.8577104E-014  0.7733266E+02  0.7818608E-02  0.1336796E+00
          1   -1    0    0  501    0  0.00000000000E+00  0.00000000000E+00  0.88180095514E+02  0.88180095658E+02  0.50400000000E-02 0. -1.
         -2   -1    0    0    0  501 -0.00000000000E+00 -0.00000000000E+00 -0.16954902633E+02  0.16954902825E+02  0.25500000000E-02 0.  1.
        -24    2    1    2    0    0 -0.88817841970E-15  0.35527136788E-14  0.71225192880E+02  0.10513499848E+03  0.77332656783E+02 0.  0.
         66    2    3    3    0    0 -0.43883731292E+01  0.17652656117E+02 -0.10711109228E+02  0.21203819211E+02  0.20000003877E+01 0.  0.
         13    1    3    3    0    0  0.43883731292E+01 -0.17652656117E+02  0.81936302108E+02  0.83931179272E+02  0.10566000000E+00 0. -1.
         13    1    4    4    0    0 -0.12848378524E+01  0.33230171286E+01 -0.14175768893E+01  0.38358753130E+01  0.10566000000E+00 0. -1.
        -13    1    4    4    0    0 -0.13977259019E+00  0.11619460227E+01 -0.72846780538E+00  0.13825643984E+01  0.10566000000E+00 0.  1.
        -14    1    4    4    0    0 -0.29637626866E+01  0.13167692966E+02 -0.85650645333E+01  0.15985379500E+02  0.00000000000E+00 0.  1.
<mgrwt>
<rscale>  0 0.77332657E+02</rscale>
<asrwt>0</asrwt>
<pdfrwt beam="1">  1        1 0.13566169E-01 0.77332657E+02</pdfrwt>
<pdfrwt beam="2">  1       -2 0.26084466E-02 0.77332657E+02</pdfrwt>
<totfact> 0.15779650E+05</totfact>
</mgrwt>
</event>
<event>
 8    1  0.8577104E-014  0.8774257E+02  0.7818608E-02  0.1308412E+00
         -2   -1    0    0    0  501 -0.00000000000E+00  0.00000000000E+00  0.37106583243E+01  0.37106592005E+01  0.25500000000E-02 0.  1.
          1   -1    0    0  501    0  0.00000000000E+00 -0.00000000000E+00 -0.51869222352E+03  0.51869222354E+03  0.50400000000E-02 0. -1.
        -24    2    1    2    0    0  0.00000000000E+00  0.00000000000E+00 -0.51498156519E+03  0.52240288274E+03  0.87742574665E+02 0.  0.
         66    2    3    3    0    0 -0.34932461566E+02 -0.17808437903E+02 -0.37448700937E+03  0.37653942361E+03  0.20000025235E+01 0.  0.
         13    1    3    3    0    0  0.34932461566E+02  0.17808437903E+02 -0.14049455582E+03  0.14586345913E+03  0.10566000000E+00 0. -1.
         13    1    4    4    0    0 -0.11009145190E+02 -0.53430551761E+01 -0.12232777117E+03  0.12293837595E+03  0.10566000000E+00 0. -1.
        -13    1    4    4    0    0 -0.23504528545E+02 -0.12305846337E+02 -0.24635225835E+03  0.24777680092E+03  0.10566000000E+00 0.  1.
        -14    1    4    4    0    0 -0.41878783100E+00 -0.15953639002E+00 -0.58069798455E+01  0.58242467352E+01  0.00000000000E+00 0.  1.
<mgrwt>
<rscale>  0 0.87742575E+02</rscale>
<asrwt>0</asrwt>
<pdfrwt beam="1">  1        1 0.79798747E-01 0.87742575E+02</pdfrwt>
<pdfrwt beam="2">  1       -2 0.57087099E-03 0.87742575E+02</pdfrwt>
<totfact> 0.15440470E+05</totfact>
</mgrwt>
</event>
<event>
 8    1  0.8577104E-014  0.7767874E+02  0.7818608E-02  0.1335771E+00
         -2   -1    0    0    0  501 -0.00000000000E+00  0.00000000000E+00  0.33189449477E+02  0.33189449575E+02  0.25500000000E-02 0.  1.
          1   -1    0    0  501    0  0.00000000000E+00 -0.00000000000E+00 -0.45451084512E+02  0.45451084791E+02  0.50400000000E-02 0. -1.
        -24    2    1    2    0    0  0.00000000000E+00  0.00000000000E+00 -0.12261635035E+02  0.78640534366E+02  0.77678735518E+02 0.  0.
         66    2    3    3    0    0  0.22350803930E+02 -0.17082271799E+02  0.20938139342E+02  0.35125035646E+02  0.20000009670E+01 0.  0.
         13    1    3    3    0    0 -0.22350803930E+02  0.17082271799E+02 -0.33199774378E+02  0.43515498720E+02  0.10566000000E+00 0. -1.
         13    1    4    4    0    0  0.47375584415E+01 -0.35206233458E+01  0.51692849298E+01  0.78467776476E+01  0.10566000000E+00 0. -1.
        -13    1    4    4    0    0  0.13491033510E+02 -0.10338354841E+02  0.12634409616E+02  0.21178504111E+02  0.10566000000E+00 0.  1.
         14    1    4    4    0    0  0.41222119787E+01 -0.32232936114E+01  0.31344447966E+01  0.60997538873E+01  0.00000000000E+00 0. -1.
<mgrwt>
<rscale>  0 0.77678736E+02</rscale>
<asrwt>0</asrwt>
<pdfrwt beam="1">  1        1 0.69924746E-02 0.77678736E+02</pdfrwt>
<pdfrwt beam="2">  1       -2 0.51060692E-02 0.77678736E+02</pdfrwt>
<totfact> 0.14069542E+05</totfact>
</mgrwt>
</event>
<event>
 8    1  0.8577104E-014  0.8011689E+02  0.7818608E-02  0.1328720E+00
          1   -1    0    0  501    0  0.00000000000E+00  0.00000000000E+00  0.17596430205E+03  0.17596430213E+03  0.50400000000E-02 0. -1.
         -2   -1    0    0    0  501 -0.00000000000E+00 -0.00000000000E+00 -0.91193447264E+01  0.91193450829E+01  0.25500000000E-02 0.  1.
        -24    2    1    2    0    0  0.00000000000E+00  0.35527136788E-14  0.16684495733E+03  0.18508364721E+03  0.80116893840E+02 0.  0.
         66    2    3    3    0    0  0.28546022209E+02 -0.27394852211E+02  0.69361290451E+02  0.79877041982E+02  0.19999777984E+01 0.  0.
         13    1    3    3    0    0 -0.28546022209E+02  0.27394852211E+02  0.97483666877E+02  0.10520660523E+03  0.10566000000E+00 0. -1.
         13    1    4    4    0    0  0.19504465422E+01 -0.24818598724E+01  0.56432392649E+01  0.64669299963E+01  0.10566000000E+00 0. -1.
        -13    1    4    4    0    0  0.17040756848E+02 -0.15285870505E+02  0.39911101128E+02  0.46010350883E+02  0.10566000000E+00 0.  1.
        -14    1    4    4    0    0  0.95548188178E+01 -0.96271218336E+01  0.23806950058E+02  0.27399761103E+02  0.00000000000E+00 0.  1.
<mgrwt>
<rscale>  0 0.80116894E+02</rscale>
<asrwt>0</asrwt>
<pdfrwt beam="1">  1        1 0.27071431E-01 0.80116894E+02</pdfrwt>
<pdfrwt beam="2">  1       -2 0.14029761E-02 0.80116894E+02</pdfrwt>
<totfact> 0.16204626E+05</totfact>
</mgrwt>
</event>
<event>
 8    1  0.8577104E-014  0.7877430E+02  0.7818608E-02  0.1332566E+00
         -2   -1    0    0    0  501 -0.00000000000E+00  0.00000000000E+00  0.22996837712E+02  0.22996837853E+02  0.25500000000E-02 0.  1.
          1   -1    0    0  501    0  0.00000000000E+00 -0.00000000000E+00 -0.67459170072E+02  0.67459170260E+02  0.50400000000E-02 0. -1.
        -24    2    1    2    0    0  0.00000000000E+00  0.00000000000E+00 -0.44462332360E+02  0.90456008113E+02  0.78774300409E+02 0.  0.
         66    2    3    3    0    0  0.35830151415E+02  0.45758441093E+01 -0.42863345801E+01  0.36429532554E+02  0.20000195555E+01 0.  0.
         13    1    3    3    0    0 -0.35830151415E+02 -0.45758441093E+01 -0.40175997780E+02  0.54026475560E+02  0.10566000000E+00 0. -1.
         13    1    4    4    0    0  0.32738457271E+01  0.14334759568E-01 -0.37544753199E+00  0.32970283916E+01  0.10566000000E+00 0. -1.
        -13    1    4    4    0    0  0.24791389413E+02  0.29820638538E+01 -0.32529249183E+01  0.25181310102E+02  0.10566000000E+00 0.  1.
        -14    1    4    4    0    0  0.77649162743E+01  0.15794454959E+01 -0.65796212988E+00  0.79511940603E+01  0.00000000000E+00 0.  1.
<mgrwt>
<rscale>  0 0.78774300E+02</rscale>
<asrwt>0</asrwt>
<pdfrwt beam="1">  1        1 0.10378334E-01 0.78774300E+02</pdfrwt>
<pdfrwt beam="2">  1       -2 0.35379751E-02 0.78774300E+02</pdfrwt>
<totfact> 0.14385553E+05</totfact>
</mgrwt>
</event>
<event>
 8    1  0.8577104E-014  0.7983740E+02  0.7818608E-02  0.1329514E+00
         -2   -1    0    0    0  501 -0.00000000000E+00  0.00000000000E+00  0.19232349208E+02  0.19232349377E+02  0.25500000000E-02 0.  1.
          1   -1    0    0  501    0  0.00000000000E+00 -0.00000000000E+00 -0.82855321566E+02  0.82855321719E+02  0.50400000000E-02 0. -1.
        -24    2    1    2    0    0  0.00000000000E+00 -0.17763568394E-14 -0.63622972358E+02  0.10208767110E+03  0.79837397115E+02 0.  0.
         66    2    3    3    0    0 -0.10764400235E+02 -0.14986066186E+02  0.13396155353E+02  0.22889112463E+02  0.19999997421E+01 0.  0.
         13    1    3    3    0    0  0.10764400235E+02  0.14986066186E+02 -0.77019127711E+02  0.79198558633E+02  0.10566000000E+00 0. -1.
         13    1    4    4    0    0 -0.49837165429E+01 -0.68695412414E+01  0.49581017300E+01  0.98296472087E+01  0.10566000000E+00 0. -1.
        -13    1    4    4    0    0 -0.51456836489E+01 -0.73112021552E+01  0.75204917038E+01  0.11683351260E+02  0.10566000000E+00 0.  1.
         14    1    4    4    0    0 -0.63500004300E+00 -0.80532278958E+00  0.91756191881E+00  0.13761139941E+01  0.00000000000E+00 0. -1.
<mgrwt>
<rscale>  0 0.79837397E+02</rscale>
<asrwt>0</asrwt>
<pdfrwt beam="1">  1        1 0.12746972E-01 0.79837397E+02</pdfrwt>
<pdfrwt beam="2">  1       -2 0.29588230E-02 0.79837397E+02</pdfrwt>
<totfact> 0.14328996E+05</totfact>
</mgrwt>
</event>
<event>
 8    1  0.8577104E-014  0.8065123E+02  0.7818608E-02  0.1327213E+00
          1   -1    0    0  501    0  0.00000000000E+00  0.00000000000E+00  0.55070578938E+02  0.55070579169E+02  0.50400000000E-02 0. -1.
         -2   -1    0    0    0  501 -0.00000000000E+00 -0.00000000000E+00 -0.29528566821E+02  0.29528566931E+02  0.25500000000E-02 0.  1.
        -24    2    1    2    0    0 -0.71054273576E-14  0.00000000000E+00  0.25542012117E+02  0.84599146100E+02  0.80651231471E+02 0.  0.
         66    2    3    3    0    0 -0.34481884370E+02  0.42886552215E+01  0.34192780355E+02  0.48790769029E+02  0.20000001941E+01 0.  0.
         13    1    3    3    0    0  0.34481884370E+02 -0.42886552215E+01 -0.86507682371E+01  0.35808377071E+02  0.10566000000E+00 0. -1.
         13    1    4    4    0    0 -0.15676123435E+02  0.14501064006E+01  0.14352723955E+02  0.21303884704E+02  0.10566000000E+00 0. -1.
        -13    1    4    4    0    0 -0.14909200206E+02  0.23970783704E+01  0.15626225378E+02  0.21730630895E+02  0.10566000000E+00 0.  1.
        -14    1    4    4    0    0 -0.38965607292E+01  0.44147045044E+00  0.42138310217E+01  0.57562534304E+01  0.00000000000E+00 0.  1.
<mgrwt>
<rscale>  0 0.80651231E+02</rscale>
<asrwt>0</asrwt>
<pdfrwt beam="1">  1        1 0.84723968E-02 0.80651231E+02</pdfrwt>
<pdfrwt beam="2">  1       -2 0.45428564E-02 0.80651231E+02</pdfrwt>
<totfact> 0.13061347E+05</totfact>
</mgrwt>
</event>
<event>
 8    1  0.8577104E-014  0.7913454E+02  0.7818608E-02  0.1331526E+00
          1   -1    0    0  501    0  0.00000000000E+00  0.00000000000E+00  0.10634273891E+02  0.10634275085E+02  0.50400000000E-02 0. -1.
         -2   -1    0    0    0  501 -0.00000000000E+00 -0.00000000000E+00 -0.14721916332E+03  0.14721916334E+03  0.25500000000E-02 0.  1.
        -24    2    1    2    0    0  0.71054273576E-14  0.00000000000E+00 -0.13658488943E+03  0.15785343843E+03  0.79134543677E+02 0.  0.
         66    2    3    3    0    0  0.35878507644E+02  0.16296399483E+02 -0.74868280699E+02  0.84629187635E+02  0.19999995440E+01 0.  0.
         13    1    3    3    0    0 -0.35878507644E+02 -0.16296399483E+02 -0.61716608729E+02  0.73224250791E+02  0.10566000000E+00 0. -1.
         13    1    4    4    0    0  0.90141360513E+01  0.33027762218E+01 -0.18526880155E+02  0.20866706301E+02  0.10566000000E+00 0. -1.
        -13    1    4    4    0    0  0.18918540698E+02  0.89551468256E+01 -0.38744467540E+02  0.44036925027E+02  0.10566000000E+00 0.  1.
        -14    1    4    4    0    0  0.79458308948E+01  0.40384764355E+01 -0.17596933004E+02  0.19725556308E+02  0.00000000000E+00 0.  1.
<mgrwt>
<rscale>  0 0.79134544E+02</rscale>
<asrwt>0</asrwt>
<pdfrwt beam="1">  1        1 0.16360423E-02 0.79134544E+02</pdfrwt>
<pdfrwt beam="2">  1       -2 0.22649101E-01 0.79134544E+02</pdfrwt>
<totfact> 0.97787489E+04</totfact>
</mgrwt>
</event>
<event>
 8    1  0.8577104E-014  0.8124413E+02  0.7818608E-02  0.1325557E+00
          1   -1    0    0  501    0  0.00000000000E+00  0.00000000000E+00  0.17333545687E+03  0.17333545694E+03  0.50400000000E-02 0. -1.
         -2   -1    0    0    0  501 -0.00000000000E+00 -0.00000000000E+00 -0.95199919637E+01  0.95199923053E+01  0.25500000000E-02 0.  1.
        -24    2    1    2    0    0  0.00000000000E+00  0.00000000000E+00  0.16381546490E+03  0.18285544924E+03  0.81244130725E+02 0.  0.
         66    2    3    3    0    0  0.10047196282E+02 -0.36169753500E+02  0.47166028890E+02  0.60314438528E+02  0.19999980849E+01 0.  0.
         13    1    3    3    0    0 -0.10047196282E+02  0.36169753500E+02  0.11664943601E+03  0.12254101072E+03  0.10566000000E+00 0. -1.
         13    1    4    4    0    0  0.56275522697E+01 -0.22618033758E+02  0.29980384541E+02  0.37974720761E+02  0.10566000000E+00 0. -1.
        -13    1    4    4    0    0  0.14492237565E+01 -0.39832309932E+01  0.46650113687E+01  0.63039569912E+01  0.10566000000E+00 0.  1.
        -14    1    4    4    0    0  0.29704202556E+01 -0.95684887485E+01  0.12520632981E+02  0.16035760776E+02  0.00000000000E+00 0.  1.
<mgrwt>
<rscale>  0 0.81244131E+02</rscale>
<asrwt>0</asrwt>
<pdfrwt beam="1">  1        1 0.26666993E-01 0.81244131E+02</pdfrwt>
<pdfrwt beam="2">  1       -2 0.14646142E-02 0.81244131E+02</pdfrwt>
<totfact> 0.15567629E+05</totfact>
</mgrwt>
</event>
<event>
 8    1  0.8577104E-014  0.8233740E+02  0.7818608E-02  0.1322546E+00
          1   -1    0    0  501    0  0.00000000000E+00  0.00000000000E+00  0.14043160700E+02  0.14043161604E+02  0.50400000000E-02 0. -1.
         -2   -1    0    0    0  501 -0.00000000000E+00 -0.00000000000E+00 -0.12068947641E+03  0.12068947644E+03  0.25500000000E-02 0.  1.
        -24    2    1    2    0    0  0.00000000000E+00  0.00000000000E+00 -0.10664631571E+03  0.13473263804E+03  0.82337397937E+02 0.  0.
         66    2    3    3    0    0 -0.75002684920E+01  0.22644878689E+02 -0.10821033141E+03  0.11082653281E+03  0.19999979265E+01 0.  0.
         13    1    3    3    0    0  0.75002684920E+01 -0.22644878689E+02  0.15640157006E+01  0.23906105234E+02  0.10566000000E+00 0. -1.
         13    1    4    4    0    0 -0.52025950874E+01  0.13368629645E+02 -0.67078008642E+02  0.68594880725E+02  0.10566000000E+00 0. -1.
        -13    1    4    4    0    0 -0.16031935283E+01  0.57782688195E+01 -0.24880428193E+02  0.25593075063E+02  0.10566000000E+00 0.  1.
         14    1    4    4    0    0 -0.69447987628E+00  0.34979802249E+01 -0.16251894579E+02  0.16638577024E+02  0.00000000000E+00 0. -1.
<mgrwt>
<rscale>  0 0.82337398E+02</rscale>
<asrwt>0</asrwt>
<pdfrwt beam="1">  1        1 0.21604864E-02 0.82337398E+02</pdfrwt>
<pdfrwt beam="2">  1       -2 0.18567611E-01 0.82337398E+02</pdfrwt>
<totfact> 0.93781977E+04</totfact>
</mgrwt>
</event>
<event>
 8    1  0.8577104E-014  0.8529933E+02  0.7818608E-02  0.1314652E+00
          1   -1    0    0  501    0  0.00000000000E+00  0.00000000000E+00  0.35042844479E+02  0.35042844841E+02  0.50400000000E-02 0. -1.
         -2   -1    0    0    0  501 -0.00000000000E+00 -0.00000000000E+00 -0.51907713066E+02  0.51907713129E+02  0.25500000000E-02 0.  1.
        -24    2    1    2    0    0  0.00000000000E+00  0.17763568394E-14 -0.16864868587E+02  0.86950557970E+02  0.85299330237E+02 0.  0.
         66    2    3    3    0    0  0.24385442929E+02  0.15940394705E+02 -0.40156014207E+02  0.49651300089E+02  0.20000283529E+01 0.  0.
         13    1    3    3    0    0 -0.24385442929E+02 -0.15940394705E+02  0.23291145619E+02  0.37299257881E+02  0.10566000000E+00 0. -1.
         13    1    4    4    0    0  0.61613096324E+01  0.36890955884E+01 -0.95805480291E+01  0.11973688956E+02  0.10566000000E+00 0. -1.
        -13    1    4    4    0    0  0.13754943783E+02  0.91949626732E+01 -0.21828452968E+02  0.27390479003E+02  0.10566000000E+00 0.  1.
        -14    1    4    4    0    0  0.44691895134E+01  0.30563364433E+01 -0.87470132098E+01  0.10287132130E+02  0.00000000000E+00 0.  1.
<mgrwt>
<rscale>  0 0.85299330E+02</rscale>
<asrwt>0</asrwt>
<pdfrwt beam="1">  1        1 0.53912069E-02 0.85299330E+02</pdfrwt>
<pdfrwt beam="2">  1       -2 0.79858021E-02 0.85299330E+02</pdfrwt>
<totfact> 0.10340357E+05</totfact>
</mgrwt>
</event>
<event>
 8    1  0.8577104E-014  0.8078869E+02  0.7818608E-02  0.1326828E+00
         -2   -1    0    0    0  501 -0.00000000000E+00  0.00000000000E+00  0.44408806706E+01  0.44408814027E+01  0.25500000000E-02 0.  1.
          1   -1    0    0  501    0  0.00000000000E+00 -0.00000000000E+00 -0.36742778611E+03  0.36742778615E+03  0.50400000000E-02 0. -1.
        -24    2    1    2    0    0 -0.88817841970E-15 -0.14210854715E-13 -0.36298690544E+03  0.37186866755E+03  0.80788689697E+02 0.  0.
         66    2    3    3    0    0  0.43783481334E+01  0.38155094668E+02 -0.23885865195E+03  0.24193477798E+03  0.20000000228E+01 0.  0.
         13    1    3    3    0    0 -0.43783481334E+01 -0.38155094668E+02 -0.12412825349E+03  0.12993388957E+03  0.10566000000E+00 0. -1.
         13    1    4    4    0    0  0.47638372887E-02  0.15381914586E+00 -0.10484343531E+01  0.10649233081E+01  0.10566000000E+00 0.  1.
        -13    1    4    4    0    0  0.35919624927E-01  0.81183067073E+00 -0.43921839887E+01  0.44679753226E+01  0.10566000000E+00 0.  1.
        -14    1    4    4    0    0  0.43376646712E+01  0.37189444851E+02 -0.23341803361E+03  0.23640187934E+03  0.00000000000E+00 0.  1.
<mgrwt>
<rscale>  0 0.80788690E+02</rscale>
<asrwt>0</asrwt>
<pdfrwt beam="1">  1        1 0.56527328E-01 0.80788690E+02</pdfrwt>
<pdfrwt beam="2">  1       -2 0.68321276E-03 0.80788690E+02</pdfrwt>
<totfact> 0.18245611E+05</totfact>
</mgrwt>
</event>
<event>
 8    1  0.8577104E-014  0.8405694E+02  0.7818608E-02  0.1317917E+00
          1   -1    0    0  501    0  0.00000000000E+00  0.00000000000E+00  0.14135703297E+03  0.14135703306E+03  0.50400000000E-02 0. -1.
         -2   -1    0    0    0  501 -0.00000000000E+00 -0.00000000000E+00 -0.12495961947E+02  0.12495962207E+02  0.25500000000E-02 0.  1.
        -24    2    1    2    0    0 -0.35527136788E-14  0.00000000000E+00  0.12886107102E+03  0.15385299526E+03  0.84056936222E+02 0.  0.
         66    2    3    3    0    0 -0.17247640183E+02  0.36975499295E+02  0.82744553391E+02  0.92278544375E+02  0.19999990345E+01 0.  0.
         13    1    3    3    0    0  0.17247640183E+02 -0.36975499295E+02  0.46116517630E+02  0.61574450889E+02  0.10566000000E+00 0. -1.
         13    1    4    4    0    0 -0.10237927270E+02  0.23324120904E+02  0.53266042916E+02  0.59043308365E+02  0.10566000000E+00 0. -1.
        -13    1    4    4    0    0 -0.63456385377E+01  0.12531498018E+02  0.26920127386E+02  0.30364617461E+02  0.10566000000E+00 0.  1.
         14    1    4    4    0    0 -0.66407437508E+00  0.11198803725E+01  0.25583830884E+01  0.28706185485E+01  0.00000000000E+00 0. -1.
<mgrwt>
<rscale>  0 0.84056936E+02</rscale>
<asrwt>0</asrwt>
<pdfrwt beam="1">  1        1 0.21747236E-01 0.84056936E+02</pdfrwt>
<pdfrwt beam="2">  1       -2 0.19224557E-02 0.84056936E+02</pdfrwt>
<totfact> 0.13675773E+05</totfact>
</mgrwt>
</event>
<event>
 8    1  0.8577104E-014  0.7988752E+02  0.7818608E-02  0.1329371E+00
         -2   -1    0    0    0  501 -0.00000000000E+00  0.00000000000E+00  0.95142552875E+01  0.95142556293E+01  0.25500000000E-02 0.  1.
          1   -1    0    0  501    0  0.00000000000E+00 -0.00000000000E+00 -0.16769616059E+03  0.16769616066E+03  0.50400000000E-02 0. -1.
        -24    2    1    2    0    0 -0.11102230246E-15  0.71054273576E-14 -0.15818190530E+03  0.17721041629E+03  0.79887523921E+02 0.  0.
         66    2    3    3    0    0  0.62228463850E+00 -0.27679637147E+02 -0.14292997512E+03  0.14560057465E+03  0.19999994475E+01 0.  0.
         13    1    3    3    0    0 -0.62228463850E+00  0.27679637147E+02 -0.15251930176E+02  0.31609841646E+02  0.10566000000E+00 0. -1.
         13    1    4    4    0    0  0.21699306758E+00 -0.88646669440E+01 -0.42874537665E+02  0.43782034558E+02  0.10566000000E+00 0.  1.
        -13    1    4    4    0    0  0.59195190492E+00 -0.10753201495E+02 -0.54256608495E+02  0.55315210194E+02  0.10566000000E+00 0. -1.
         14    1    4    4    0    0 -0.18666033400E+00 -0.80617687072E+01 -0.45798828964E+02  0.46503329894E+02  0.00000000000E+00 0. -1.
<mgrwt>
<rscale>  0 0.79887524E+02</rscale>
<asrwt>0</asrwt>
<pdfrwt beam="1">  1        1 0.25799407E-01 0.79887524E+02</pdfrwt>
<pdfrwt beam="2">  1       -2 0.14637317E-02 0.79887524E+02</pdfrwt>
<totfact> 0.16180842E+05</totfact>
</mgrwt>
</event>
<event>
 8    1  0.8577104E-014  0.8447925E+02  0.7818608E-02  0.1316800E+00
         -2   -1    0    0    0  501 -0.00000000000E+00  0.00000000000E+00  0.25985426472E+03  0.25985426473E+03  0.25500000000E-02 0.  1.
          1   -1    0    0  501    0  0.00000000000E+00 -0.00000000000E+00 -0.68661019427E+01  0.68661037925E+01  0.50400000000E-02 0. -1.
        -24    2    1    2    0    0  0.00000000000E+00  0.00000000000E+00  0.25298816278E+03  0.26672036853E+03  0.84479254736E+02 0.  0.
         66    2    3    3    0    0 -0.36792936515E+02 -0.19823818326E+02  0.10775947272E+03  0.11559761203E+03  0.19999990195E+01 0.  0.
         13    1    3    3    0    0  0.36792936515E+02  0.19823818326E+02  0.14522869006E+03  0.15112275649E+03  0.10566000000E+00 0. -1.
         13    1    4    4    0    0 -0.58001265095E+01 -0.27724711931E+01  0.15116145635E+02  0.16426718690E+02  0.10566000000E+00 0. -1.
        -13    1    4    4    0    0 -0.29884184274E+02 -0.16518272430E+02  0.88991733292E+02  0.95317666526E+02  0.10566000000E+00 0.  1.
         14    1    4    4    0    0 -0.11086257317E+01 -0.53307470306E+00  0.36515937942E+01  0.38532268152E+01  0.00000000000E+00 0. -1.
<mgrwt>
<rscale>  0 0.84479255E+02</rscale>
<asrwt>0</asrwt>
<pdfrwt beam="1">  1        1 0.10563234E-02 0.84479255E+02</pdfrwt>
<pdfrwt beam="2">  1       -2 0.39977585E-01 0.84479255E+02</pdfrwt>
<totfact> 0.65735125E+04</totfact>
</mgrwt>
</event>
<event>
 8    1  0.8577104E-014  0.7842529E+02  0.7818608E-02  0.1333581E+00
          1   -1    0    0  501    0  0.00000000000E+00  0.00000000000E+00  0.73852588515E+02  0.73852588687E+02  0.50400000000E-02 0. -1.
         -2   -1    0    0    0  501 -0.00000000000E+00 -0.00000000000E+00 -0.20820277120E+02  0.20820277276E+02  0.25500000000E-02 0.  1.
        -24    2    1    2    0    0  0.17763568394E-14  0.00000000000E+00  0.53032311395E+02  0.94672865962E+02  0.78425286086E+02 0.  0.
         66    2    3    3    0    0  0.13875153887E+02 -0.36634165445E+02  0.27767072147E+02  0.48058217497E+02  0.20000000434E+01 0.  0.
         13    1    3    3    0    0 -0.13875153887E+02  0.36634165445E+02  0.25265239248E+02  0.46614648465E+02  0.10566000000E+00 0. -1.
         13    1    4    4    0    0  0.99656151716E+01 -0.24196425440E+02  0.18489150810E+02  0.32041228933E+02  0.10566000000E+00 0. -1.
        -13    1    4    4    0    0  0.11202704132E+01 -0.44629849829E+01  0.34861499225E+01  0.57738761741E+01  0.10566000000E+00 0.  1.
         14    1    4    4    0    0  0.27892683019E+01 -0.79747550221E+01  0.57917714150E+01  0.10243112391E+02  0.00000000000E+00 0. -1.
<mgrwt>
<rscale>  0 0.78425286E+02</rscale>
<asrwt>0</asrwt>
<pdfrwt beam="1">  1        1 0.11361937E-01 0.78425286E+02</pdfrwt>
<pdfrwt beam="2">  1       -2 0.32031195E-02 0.78425286E+02</pdfrwt>
<totfact> 0.14768799E+05</totfact>
</mgrwt>
</event>
<event>
 8    1  0.8577104E-014  0.7754381E+02  0.7818608E-02  0.1336170E+00
          1   -1    0    0  501    0  0.00000000000E+00  0.00000000000E+00  0.11501183310E+03  0.11501183321E+03  0.50400000000E-02 0. -1.
         -2   -1    0    0    0  501 -0.00000000000E+00 -0.00000000000E+00 -0.13070485675E+02  0.13070485923E+02  0.25500000000E-02 0.  1.
        -24    2    1    2    0    0  0.22204460493E-15 -0.71054273576E-14  0.10194134742E+03  0.12808231913E+03  0.77543808003E+02 0.  0.
         66    2    3    3    0    0  0.18998844597E+01 -0.37766539141E+02  0.37053910451E+02  0.52980310633E+02  0.19999988608E+01 0.  0.
         13    1    3    3    0    0 -0.18998844597E+01  0.37766539141E+02  0.64887436972E+02  0.75102008498E+02  0.10566000000E+00 0. -1.
         13    1    4    4    0    0 -0.15800135753E+00 -0.42635950724E+01  0.42571656354E+01  0.60280868153E+01  0.10566000000E+00 0. -1.
        -13    1    4    4    0    0  0.19846118141E+01 -0.23196193936E+02  0.22182273988E+02  0.32156905020E+02  0.10566000000E+00 0.  1.
        -14    1    4    4    0    0  0.73274003139E-01 -0.10306750133E+02  0.10614470828E+02  0.14795318798E+02  0.00000000000E+00 0.  1.
<mgrwt>
<rscale>  0 0.77543808E+02</rscale>
<asrwt>0</asrwt>
<pdfrwt beam="1">  1        1 0.17694128E-01 0.77543808E+02</pdfrwt>
<pdfrwt beam="2">  1       -2 0.20108441E-02 0.77543808E+02</pdfrwt>
<totfact> 0.16369746E+05</totfact>
</mgrwt>
</event>
<event>
 8    1  0.8577104E-014  0.7943058E+02  0.7818608E-02  0.1330675E+00
          1   -1    0    0  501    0  0.00000000000E+00  0.00000000000E+00  0.64770845531E+01  0.64770865140E+01  0.50400000000E-02 0. -1.
         -2   -1    0    0    0  501 -0.00000000000E+00 -0.00000000000E+00 -0.24352067757E+03  0.24352067758E+03  0.25500000000E-02 0.  1.
        -24    2    1    2    0    0 -0.17763568394E-14  0.00000000000E+00 -0.23704359301E+03  0.24999776409E+03  0.79430580152E+02 0.  0.
         66    2    3    3    0    0  0.15873889543E+02 -0.36366344508E+02 -0.11576770106E+03  0.12239547370E+03  0.19999974988E+01 0.  0.
         13    1    3    3    0    0 -0.15873889543E+02  0.36366344508E+02 -0.12127589195E+03  0.12760229040E+03  0.10566000000E+00 0. -1.
         13    1    4    4    0    0  0.45423837017E+00 -0.74473326074E+00 -0.20839753059E+01  0.22616536511E+01  0.10566000000E+00 0.  1.
        -13    1    4    4    0    0  0.13009123883E+02 -0.30822793575E+02 -0.98823302391E+02  0.10433282402E+03  0.10566000000E+00 0.  1.
         14    1    4    4    0    0  0.24105272896E+01 -0.47988176729E+01 -0.14860423366E+02  0.15800996028E+02  0.00000000000E+00 0. -1.
<mgrwt>
<rscale>  0 0.79430580E+02</rscale>
<asrwt>0</asrwt>
<pdfrwt beam="1">  1        1 0.99647489E-03 0.79430580E+02</pdfrwt>
<pdfrwt beam="2">  1       -2 0.37464713E-01 0.79430580E+02</pdfrwt>
<totfact> 0.79530637E+04</totfact>
</mgrwt>
</event>
<event>
 8    1  0.8577104E-014  0.8047416E+02  0.7818608E-02  0.1327711E+00
          1   -1    0    0  501    0  0.00000000000E+00  0.00000000000E+00  0.14150273908E+03  0.14150273917E+03  0.50400000000E-02 0. -1.
         -2   -1    0    0    0  501 -0.00000000000E+00 -0.00000000000E+00 -0.11441635220E+02  0.11441635504E+02  0.25500000000E-02 0.  1.
        -24    2    1    2    0    0  0.00000000000E+00  0.00000000000E+00  0.13006110386E+03  0.15294437467E+03  0.80474163600E+02 0.  0.
         66    2    3    3    0    0  0.39490011155E+02 -0.64208590672E+01  0.72750615409E+02  0.83050228548E+02  0.20000018165E+01 0.  0.
         13    1    3    3    0    0 -0.39490011155E+02  0.64208590672E+01  0.57310488451E+02  0.69894146127E+02  0.10566000000E+00 0. -1.
         13    1    4    4    0    0  0.31419352076E+02 -0.51044258716E+01  0.56776933360E+02  0.65091183536E+02  0.10566000000E+00 0. -1.
        -13    1    4    4    0    0  0.52728561111E+01 -0.11541577015E+01  0.10169153178E+02  0.11513380562E+02  0.10566000000E+00 0.  1.
         14    1    4    4    0    0  0.27978029678E+01 -0.16227549414E+00  0.58045288708E+01  0.64456644495E+01  0.00000000000E+00 0. -1.
<mgrwt>
<rscale>  0 0.80474164E+02</rscale>
<asrwt>0</asrwt>
<pdfrwt beam="1">  1        1 0.21769651E-01 0.80474164E+02</pdfrwt>
<pdfrwt beam="2">  1       -2 0.17602517E-02 0.80474164E+02</pdfrwt>
<totfact> 0.15375314E+05</totfact>
</mgrwt>
</event>
<event>
 8    1  0.8577104E-014  0.7883581E+02  0.7818608E-02  0.1332388E+00
          1   -1    0    0  501    0  0.00000000000E+00  0.00000000000E+00  0.45178649527E+03  0.45178649530E+03  0.50400000000E-02 0. -1.
         -2   -1    0    0    0  501 -0.00000000000E+00 -0.00000000000E+00 -0.34391712855E+01  0.34391722308E+01  0.25500000000E-02 0.  1.
        -24    2    1    2    0    0  0.00000000000E+00  0.00000000000E+00  0.44834732398E+03  0.45522566753E+03  0.78835813265E+02 0.  0.
         66    2    3    3    0    0  0.13001719694E+02 -0.37160327418E+02  0.23213271381E+03  0.23545600751E+03  0.20000004674E+01 0.  0.
         13    1    3    3    0    0 -0.13001719694E+02  0.37160327418E+02  0.21621461017E+03  0.21976966002E+03  0.10566000000E+00 0. -1.
         13    1    4    4    0    0  0.83337340969E+00 -0.17568167662E+01  0.11525577210E+02  0.11688926831E+02  0.10566000000E+00 0. -1.
        -13    1    4    4    0    0  0.72616782219E+01 -0.23045692787E+02  0.13941373880E+03  0.14149218232E+03  0.10566000000E+00 0.  1.
        -14    1    4    4    0    0  0.49066680624E+01 -0.12357817865E+02  0.81193397800E+02  0.82274898360E+02  0.00000000000E+00 0.  1.
<mgrwt>
<rscale>  0 0.78835813E+02</rscale>
<asrwt>0</asrwt>
<pdfrwt beam="1">  1        1 0.69505663E-01 0.78835813E+02</pdfrwt>
<pdfrwt beam="2">  1       -2 0.52910298E-03 0.78835813E+02</pdfrwt>
<totfact> 0.20109028E+05</totfact>
</mgrwt>
</event>
<event>
 8    1  0.8577104E-014  0.8046859E+02  0.7818608E-02  0.1327727E+00
          1   -1    0    0  501    0  0.00000000000E+00  0.00000000000E+00  0.71196765408E+01  0.71196783247E+01  0.50400000000E-02 0. -1.
         -2   -1    0    0    0  501 -0.00000000000E+00 -0.00000000000E+00 -0.22736965034E+03  0.22736965035E+03  0.25500000000E-02 0.  1.
        -24    2    1    2    0    0  0.00000000000E+00  0.35527136788E-14 -0.22024997380E+03  0.23448932868E+03  0.80468592045E+02 0.  0.
         66    2    3    3    0    0 -0.24659960650E+02  0.27946209955E+02 -0.15416399177E+03  0.15861790788E+03  0.20000074324E+01 0.  0.
         13    1    3    3    0    0  0.24659960650E+02 -0.27946209955E+02 -0.66085982024E+02  0.75871420800E+02  0.10566000000E+00 0. -1.
         13    1    4    4    0    0 -0.10961925257E+02  0.12212245017E+02 -0.66017687747E+02  0.68026825541E+02  0.10566000000E+00 0. -1.
        -13    1    4    4    0    0 -0.13209005187E+02  0.14934500584E+02 -0.83091531131E+02  0.85450165801E+02  0.10566000000E+00 0.  1.
         14    1    4    4    0    0 -0.48903020647E+00  0.79946435310E+00 -0.50547728948E+01  0.51409165343E+01  0.00000000000E+00 0. -1.
<mgrwt>
<rscale>  0 0.80468592E+02</rscale>
<asrwt>0</asrwt>
<pdfrwt beam="1">  1        1 0.10953352E-02 0.80468592E+02</pdfrwt>
<pdfrwt beam="2">  1       -2 0.34979941E-01 0.80468592E+02</pdfrwt>
<totfact> 0.79355864E+04</totfact>
</mgrwt>
</event>
<event>
 8    1  0.8577104E-014  0.8036072E+02  0.7818608E-02  0.1328031E+00
         -2   -1    0    0    0  501 -0.00000000000E+00  0.00000000000E+00  0.38123889549E+02  0.38123889635E+02  0.25500000000E-02 0.  1.
          1   -1    0    0  501    0  0.00000000000E+00 -0.00000000000E+00 -0.42347762617E+02  0.42347762917E+02  0.50400000000E-02 0. -1.
        -24    2    1    2    0    0  0.00000000000E+00  0.00000000000E+00 -0.42238730682E+01  0.80471652552E+02  0.80360722749E+02 0.  0.
         66    2    3    3    0    0 -0.17921604401E+02  0.25367494197E+02  0.23373076600E+02  0.38922928611E+02  0.19999989507E+01 0.  0.
         13    1    3    3    0    0  0.17921604401E+02 -0.25367494197E+02 -0.27596949668E+02  0.41548723941E+02  0.10566000000E+00 0. -1.
         13    1    4    4    0    0 -0.54971222265E+01  0.75647777972E+01  0.60932222055E+01  0.11161663710E+02  0.10566000000E+00 0. -1.
        -13    1    4    4    0    0 -0.67560447812E+01  0.10378177372E+02  0.10068918361E+02  0.15960732679E+02  0.10566000000E+00 0.  1.
        -14    1    4    4    0    0 -0.56684373930E+01  0.74245390274E+01  0.72109360338E+01  0.11800532222E+02  0.00000000000E+00 0.  1.
<mgrwt>
<rscale>  0 0.80360723E+02</rscale>
<asrwt>0</asrwt>
<pdfrwt beam="1">  1        1 0.65150404E-02 0.80360723E+02</pdfrwt>
<pdfrwt beam="2">  1       -2 0.58652138E-02 0.80360723E+02</pdfrwt>
<totfact> 0.12654052E+05</totfact>
</mgrwt>
</event>
<event>
 8    1  0.8577104E-014  0.7757223E+02  0.7818608E-02  0.1336086E+00
          1   -1    0    0  501    0  0.00000000000E+00  0.00000000000E+00  0.41708532206E+02  0.41708532511E+02  0.50400000000E-02 0. -1.
         -2   -1    0    0    0  501 -0.00000000000E+00 -0.00000000000E+00 -0.36068464315E+02  0.36068464405E+02  0.25500000000E-02 0.  1.
        -24    2    1    2    0    0  0.00000000000E+00  0.17763568394E-14  0.56400678909E+01  0.77776996916E+02  0.77572230105E+02 0.  0.
         66    2    3    3    0    0 -0.10802820256E+02 -0.14051016017E+02 -0.31739740252E+02  0.36408008562E+02  0.19999999114E+01 0.  0.
         13    1    3    3    0    0  0.10802820256E+02  0.14051016017E+02  0.37379808142E+02  0.41368988354E+02  0.10566000000E+00 0. -1.
         13    1    4    4    0    0 -0.67462703293E+01 -0.91025994561E+01 -0.19185377823E+02  0.22281368146E+02  0.10566000000E+00 0. -1.
        -13    1    4    4    0    0 -0.39522379134E+01 -0.49536798555E+01 -0.12483915155E+02  0.14000658208E+02  0.10566000000E+00 0.  1.
         14    1    4    4    0    0 -0.10431201334E+00  0.52632943467E-02 -0.70447273703E-01  0.12598220814E+00  0.00000000000E+00 0. -1.
<mgrwt>
<rscale>  0 0.77572230E+02</rscale>
<asrwt>0</asrwt>
<pdfrwt beam="1">  1        1 0.64166973E-02 0.77572230E+02</pdfrwt>
<pdfrwt beam="2">  1       -2 0.55489945E-02 0.77572230E+02</pdfrwt>
<totfact> 0.13936607E+05</totfact>
</mgrwt>
</event>
<event>
 8    1  0.8577104E-014  0.8356215E+02  0.7818608E-02  0.1319236E+00
         -2   -1    0    0    0  501 -0.00000000000E+00  0.00000000000E+00  0.21747907053E+02  0.21747907203E+02  0.25500000000E-02 0.  1.
          1   -1    0    0  501    0  0.00000000000E+00 -0.00000000000E+00 -0.80267865588E+02  0.80267865747E+02  0.50400000000E-02 0. -1.
        -24    2    1    2    0    0  0.00000000000E+00  0.00000000000E+00 -0.58519958535E+02  0.10201577295E+03  0.83562146834E+02 0.  0.
         66    2    3    3    0    0 -0.32657898595E+02  0.82674466667E+01  0.84519731175E+00  0.33758012162E+02  0.20000028934E+01 0.  0.
         13    1    3    3    0    0  0.32657898595E+02 -0.82674466667E+01 -0.59365155847E+02  0.68257760788E+02  0.10566000000E+00 0. -1.
         13    1    4    4    0    0 -0.13809071103E+01  0.64971203446E+00  0.14149428123E+00  0.15362990732E+01  0.10566000000E+00 0. -1.
        -13    1    4    4    0    0 -0.31098784956E+02  0.74767950270E+01  0.67093478299E+00  0.31992158526E+02  0.10566000000E+00 0.  1.
        -14    1    4    4    0    0 -0.17820652883E+00  0.14093960525E+00  0.32768247523E-01  0.22955456278E+00  0.00000000000E+00 0.  1.
<mgrwt>
<rscale>  0 0.83562147E+02</rscale>
<asrwt>0</asrwt>
<pdfrwt beam="1">  1        1 0.12348902E-01 0.83562147E+02</pdfrwt>
<pdfrwt beam="2">  1       -2 0.33458319E-02 0.83562147E+02</pdfrwt>
<totfact> 0.12586249E+05</totfact>
</mgrwt>
</event>
<event>
 8    1  0.8577104E-014  0.7929245E+02  0.7818608E-02  0.1331071E+00
          1   -1    0    0  501    0  0.00000000000E+00  0.00000000000E+00  0.23430415645E+03  0.23430415651E+03  0.50400000000E-02 0. -1.
         -2   -1    0    0    0  501 -0.00000000000E+00 -0.00000000000E+00 -0.67084724386E+01  0.67084729232E+01  0.25500000000E-02 0.  1.
        -24    2    1    2    0    0  0.00000000000E+00  0.71054273576E-14  0.22759568401E+03  0.24101262943E+03  0.79292447074E+02 0.  0.
         66    2    3    3    0    0 -0.11536298018E+02 -0.33936422380E+02  0.62552078532E+02  0.72121629639E+02  0.19999992822E+01 0.  0.
         13    1    3    3    0    0  0.11536298018E+02  0.33936422380E+02  0.16504360548E+03  0.16889099979E+03  0.10566000000E+00 0. -1.
         13    1    4    4    0    0 -0.34025021894E+01 -0.11474045955E+02  0.21746924615E+02  0.24822784815E+02  0.10566000000E+00 0. -1.
        -13    1    4    4    0    0 -0.49307474996E+01 -0.11895345550E+02  0.21955987773E+02  0.25453645707E+02  0.10566000000E+00 0.  1.
         14    1    4    4    0    0 -0.32030483293E+01 -0.10567030876E+02  0.18849166144E+02  0.21845199117E+02  0.00000000000E+00 0. -1.
<mgrwt>
<rscale>  0 0.79292447E+02</rscale>
<asrwt>0</asrwt>
<pdfrwt beam="1">  1        1 0.36046786E-01 0.79292447E+02</pdfrwt>
<pdfrwt beam="2">  1       -2 0.10320729E-02 0.79292447E+02</pdfrwt>
<totfact> 0.17605442E+05</totfact>
</mgrwt>
</event>
<event>
 8    1  0.8577104E-014  0.8160786E+02  0.7818608E-02  0.1324550E+00
         -2   -1    0    0    0  501 -0.00000000000E+00  0.00000000000E+00  0.89327238703E+01  0.89327242342E+01  0.25500000000E-02 0.  1.
          1   -1    0    0  501    0  0.00000000000E+00 -0.00000000000E+00 -0.18638891639E+03  0.18638891645E+03  0.50400000000E-02 0. -1.
        -24    2    1    2    0    0 -0.35527136788E-14  0.17763568394E-14 -0.17745619252E+03  0.19532164069E+03  0.81607861503E+02 0.  0.
         66    2    3    3    0    0 -0.25586989064E+02  0.14904043089E+02 -0.21674535929E+02  0.36750646485E+02  0.19999998914E+01 0.  0.
         13    1    3    3    0    0  0.25586989064E+02 -0.14904043089E+02 -0.15578165659E+03  0.15857099420E+03  0.10566000000E+00 0. -1.
         13    1    4    4    0    0 -0.92056294561E+00  0.25797663431E+00 -0.46382521597E+00  0.10678417239E+01  0.10566000000E+00 0. -1.
        -13    1    4    4    0    0 -0.24722022926E+01  0.15927738198E+01 -0.20111991027E+01  0.35643791160E+01  0.10566000000E+00 0.  1.
        -14    1    4    4    0    0 -0.22194223826E+02  0.13053292634E+02 -0.19199511610E+02  0.32118425645E+02  0.00000000000E+00 0.  1.
<mgrwt>
<rscale>  0 0.81607862E+02</rscale>
<asrwt>0</asrwt>
<pdfrwt beam="1">  1        1 0.28675215E-01 0.81607862E+02</pdfrwt>
<pdfrwt beam="2">  1       -2 0.13742654E-02 0.81607862E+02</pdfrwt>
<totfact> 0.15599691E+05</totfact>
</mgrwt>
</event>
<event>
 8    1  0.8577104E-014  0.8011146E+02  0.7818608E-02  0.1328735E+00
         -2   -1    0    0    0  501 -0.00000000000E+00  0.00000000000E+00  0.11392033372E+02  0.11392033657E+02  0.25500000000E-02 0.  1.
          1   -1    0    0  501    0  0.00000000000E+00 -0.00000000000E+00 -0.14084064932E+03  0.14084064941E+03  0.50400000000E-02 0. -1.
        -24    2    1    2    0    0  0.00000000000E+00  0.00000000000E+00 -0.12944861595E+03  0.15223268307E+03  0.80111457503E+02 0.  0.
         66    2    3    3    0    0 -0.24380045437E+02 -0.42183772114E+01 -0.49659102789E+01  0.25314849425E+02  0.20000036752E+01 0.  0.
         13    1    3    3    0    0  0.24380045437E+02  0.42183772114E+01 -0.12448270567E+03  0.12691783365E+03  0.10566000000E+00 0. -1.
         13    1    4    4    0    0 -0.61257514746E+01 -0.81089868392E+00 -0.51984440642E+00  0.62019182554E+01  0.10566000000E+00 0. -1.
        -13    1    4    4    0    0 -0.14976837680E+02 -0.26275209916E+01 -0.33548562320E+01  0.15571633114E+02  0.10566000000E+00 0.  1.
        -14    1    4    4    0    0 -0.32774562822E+01 -0.77995753580E+00 -0.10912096404E+01  0.35412980556E+01  0.00000000000E+00 0.  1.
<mgrwt>
<rscale>  0 0.80111458E+02</rscale>
<asrwt>0</asrwt>
<pdfrwt beam="1">  1        1 0.21667791E-01 0.80111458E+02</pdfrwt>
<pdfrwt beam="2">  1       -2 0.17526206E-02 0.80111458E+02</pdfrwt>
<totfact> 0.15549078E+05</totfact>
</mgrwt>
</event>
<event>
 8    1  0.8577104E-014  0.7857399E+02  0.7818608E-02  0.1333148E+00
         -2   -1    0    0    0  501 -0.00000000000E+00  0.00000000000E+00  0.20134046772E+03  0.20134046774E+03  0.25500000000E-02 0.  1.
          1   -1    0    0  501    0  0.00000000000E+00 -0.00000000000E+00 -0.76659596578E+01  0.76659613145E+01  0.50400000000E-02 0. -1.
        -24    2    1    2    0    0  0.00000000000E+00  0.35527136788E-14  0.19367450807E+03  0.20900642906E+03  0.78573992590E+02 0.  0.
         66    2    3    3    0    0 -0.27160051103E+02 -0.26494905852E+02  0.12374004260E+03  0.12944205866E+03  0.19999989478E+01 0.  0.
         13    1    3    3    0    0  0.27160051103E+02  0.26494905852E+02  0.69934465464E+02  0.79564370391E+02  0.10566000000E+00 0. -1.
         13    1    4    4    0    0 -0.12123666489E+02 -0.10490494331E+02  0.51988308957E+02  0.54404312262E+02  0.10566000000E+00 0. -1.
        -13    1    4    4    0    0 -0.12076734632E+02 -0.12939114670E+02  0.58214585760E+02  0.60845849218E+02  0.10566000000E+00 0.  1.
         14    1    4    4    0    0 -0.29596499819E+01 -0.30652968508E+01  0.13537147886E+02  0.14191897184E+02  0.00000000000E+00 0. -1.
<mgrwt>
<rscale>  0 0.78573993E+02</rscale>
<asrwt>0</asrwt>
<pdfrwt beam="1">  1        1 0.11793786E-02 0.78573993E+02</pdfrwt>
<pdfrwt beam="2">  1       -2 0.30975455E-01 0.78573993E+02</pdfrwt>
<totfact> 0.88872330E+04</totfact>
</mgrwt>
</event>
<event>
 8    1  0.8577104E-014  0.7319945E+02  0.7818608E-02  0.1349539E+00
          1   -1    0    0  501    0  0.00000000000E+00  0.00000000000E+00  0.54270432892E+02  0.54270433126E+02  0.50400000000E-02 0. -1.
         -2   -1    0    0    0  501 -0.00000000000E+00 -0.00000000000E+00 -0.24682685320E+02  0.24682685451E+02  0.25500000000E-02 0.  1.
        -24    2    1    2    0    0  0.00000000000E+00  0.00000000000E+00  0.29587747572E+02  0.78953118577E+02  0.73199454415E+02 0.  0.
         66    2    3    3    0    0 -0.10708318451E+02 -0.32222453273E+02  0.15094490362E+00  0.34014370326E+02  0.20000063389E+01 0.  0.
         13    1    3    3    0    0  0.10708318451E+02  0.32222453273E+02  0.29436802669E+02  0.44938748251E+02  0.10566000000E+00 0. -1.
         13    1    4    4    0    0 -0.13230804037E+01 -0.51483070455E+01 -0.54568257104E+00  0.53445804974E+01  0.10566000000E+00 0. -1.
        -13    1    4    4    0    0 -0.66112878089E+01 -0.19708510933E+02  0.33475919979E+00  0.20790809447E+02  0.10566000000E+00 0.  1.
         14    1    4    4    0    0 -0.27739502380E+01 -0.73656352942E+01  0.36186827487E+00  0.78789803819E+01  0.00000000000E+00 0. -1.
<mgrwt>
<rscale>  0 0.73199454E+02</rscale>
<asrwt>0</asrwt>
<pdfrwt beam="1">  1        1 0.83492974E-02 0.73199454E+02</pdfrwt>
<pdfrwt beam="2">  1       -2 0.37973362E-02 0.73199454E+02</pdfrwt>
<totfact> 0.17012185E+05</totfact>
</mgrwt>
</event>
<event>
 8    1  0.8577104E-014  0.7789530E+02  0.7818608E-02  0.1335133E+00
         -2   -1    0    0    0  501 -0.00000000000E+00  0.00000000000E+00  0.77008641952E+02  0.77008641995E+02  0.25500000000E-02 0.  1.
          1   -1    0    0  501    0  0.00000000000E+00 -0.00000000000E+00 -0.19698042706E+02  0.19698043351E+02  0.50400000000E-02 0. -1.
        -24    2    1    2    0    0  0.35527136788E-14  0.00000000000E+00  0.57310599246E+02  0.96706685346E+02  0.77895302840E+02 0.  0.
         66    2    3    3    0    0 -0.31891256720E+02 -0.18726003368E+02  0.43736666334E+02  0.57311529856E+02  0.20000037930E+01 0.  0.
         13    1    3    3    0    0  0.31891256720E+02  0.18726003368E+02  0.13573932912E+02  0.39395155489E+02  0.10566000000E+00 0. -1.
         13    1    4    4    0    0 -0.15341265386E+02 -0.81403111674E+01  0.20199442158E+02  0.26639213897E+02  0.10566000000E+00 0. -1.
        -13    1    4    4    0    0 -0.82602131427E+01 -0.47501785138E+01  0.11398584984E+02  0.14857126935E+02  0.10566000000E+00 0.  1.
         14    1    4    4    0    0 -0.82897781912E+01 -0.58355136865E+01  0.12138639193E+02  0.15815189025E+02  0.00000000000E+00 0. -1.
<mgrwt>
<rscale>  0 0.77895303E+02</rscale>
<asrwt>0</asrwt>
<pdfrwt beam="1">  1        1 0.30304682E-02 0.77895303E+02</pdfrwt>
<pdfrwt beam="2">  1       -2 0.11847483E-01 0.77895303E+02</pdfrwt>
<totfact> 0.12058510E+05</totfact>
</mgrwt>
</event>
<event>
 8    1  0.8577104E-014  0.7940943E+02  0.7818608E-02  0.1330736E+00
          1   -1    0    0  501    0  0.00000000000E+00  0.00000000000E+00  0.61168776814E+02  0.61168777022E+02  0.50400000000E-02 0. -1.
         -2   -1    0    0    0  501 -0.00000000000E+00 -0.00000000000E+00 -0.25772368778E+02  0.25772368904E+02  0.25500000000E-02 0.  1.
        -24    2    1    2    0    0 -0.35527136788E-14  0.71054273576E-14  0.35396408037E+02  0.86941145926E+02  0.79409427356E+02 0.  0.
         66    2    3    3    0    0  0.79759622702E+01 -0.23691193745E+02 -0.16028415526E+02  0.29762371213E+02  0.20000001801E+01 0.  0.
         13    1    3    3    0    0 -0.79759622702E+01  0.23691193745E+02  0.51424823563E+02  0.57178774713E+02  0.10566000000E+00 0. -1.
         13    1    4    4    0    0  0.13271025491E+01 -0.43439855840E+01 -0.32282709766E+01  0.55735365311E+01  0.10566000000E+00 0.  1.
        -13    1    4    4    0    0 -0.72894394937E-02 -0.48618466596E+00 -0.51514812706E+00  0.71621944525E+00  0.10566000000E+00 0. -1.
        -14    1    4    4    0    0  0.66561491606E+01 -0.18861023495E+02 -0.12284996423E+02  0.23472615236E+02  0.00000000000E+00 0.  1.
<mgrwt>
<rscale>  0 0.79409427E+02</rscale>
<asrwt>0</asrwt>
<pdfrwt beam="1">  1        1 0.94105810E-02 0.79409427E+02</pdfrwt>
<pdfrwt beam="2">  1       -2 0.39649799E-02 0.79409427E+02</pdfrwt>
<totfact> 0.13859203E+05</totfact>
</mgrwt>
</event>
<event>
 8    1  0.8577104E-014  0.7949588E+02  0.7818608E-02  0.1330488E+00
          1   -1    0    0  501    0  0.00000000000E+00  0.00000000000E+00  0.20425050065E+03  0.20425050071E+03  0.50400000000E-02 0. -1.
         -2   -1    0    0    0  501 -0.00000000000E+00 -0.00000000000E+00 -0.77351037341E+01  0.77351041545E+01  0.25500000000E-02 0.  1.
        -24    2    1    2    0    0  0.00000000000E+00  0.00000000000E+00  0.19651539692E+03  0.21198560487E+03  0.79495883200E+02 0.  0.
         66    2    3    3    0    0 -0.17512369392E+02  0.31259237913E+02  0.52591134926E+02  0.63668284941E+02  0.19999994704E+01 0.  0.
         13    1    3    3    0    0  0.17512369392E+02 -0.31259237913E+02  0.14392426199E+03  0.14831731993E+03  0.10566000000E+00 0. -1.
         13    1    4    4    0    0 -0.13312573365E+01  0.33840384358E+01  0.56621205787E+01  0.67301363816E+01  0.10566000000E+00 0. -1.
        -13    1    4    4    0    0 -0.63182525084E+01  0.10530633318E+02  0.18548714625E+02  0.22245910436E+02  0.10566000000E+00 0.  1.
        -14    1    4    4    0    0 -0.98628595472E+01  0.17344566159E+02  0.28380299722E+02  0.34692238123E+02  0.00000000000E+00 0.  1.
<mgrwt>
<rscale>  0 0.79495883E+02</rscale>
<asrwt>0</asrwt>
<pdfrwt beam="1">  1        1 0.31423156E-01 0.79495883E+02</pdfrwt>
<pdfrwt beam="2">  1       -2 0.11900159E-02 0.79495883E+02</pdfrwt>
<totfact> 0.17025316E+05</totfact>
</mgrwt>
</event>
<event>
 8    1  0.8577104E-014  0.8260149E+02  0.7818608E-02  0.1321827E+00
          1   -1    0    0  501    0  0.00000000000E+00  0.00000000000E+00  0.65897061120E+02  0.65897061313E+02  0.50400000000E-02 0. -1.
         -2   -1    0    0    0  501 -0.00000000000E+00 -0.00000000000E+00 -0.25885091763E+02  0.25885091889E+02  0.25500000000E-02 0.  1.
        -24    2    1    2    0    0  0.00000000000E+00  0.00000000000E+00  0.40011969357E+02  0.91782153201E+02  0.82601488815E+02 0.  0.
         66    2    3    3    0    0  0.89004307174E+01 -0.12629109528E+02 -0.22512211715E+02  0.27377211953E+02  0.19999958935E+01 0.  0.
         13    1    3    3    0    0 -0.89004307174E+01  0.12629109528E+02  0.62524181072E+02  0.64404941248E+02  0.10566000000E+00 0. -1.
         13    1    4    4    0    0  0.13865542195E+01 -0.22913049867E+01 -0.29868633441E+01  0.40131194622E+01  0.10566000000E+00 0. -1.
        -13    1    4    4    0    0  0.13892377116E+01 -0.12761543319E+01 -0.26593112249E+01  0.32621544299E+01  0.10566000000E+00 0. -1.
        -14    1    4    4    0    0  0.61246387862E+01 -0.90616502096E+01 -0.16866037146E+02  0.20101938061E+02  0.00000000000E+00 0.  1.
<mgrwt>
<rscale>  0 0.82601489E+02</rscale>
<asrwt>0</asrwt>
<pdfrwt beam="1">  1        1 0.10138009E-01 0.82601489E+02</pdfrwt>
<pdfrwt beam="2">  1       -2 0.39823219E-02 0.82601489E+02</pdfrwt>
<totfact> 0.12580950E+05</totfact>
</mgrwt>
</event>
<event>
 8    1  0.8577104E-014  0.7922412E+02  0.7818608E-02  0.1331268E+00
         -2   -1    0    0    0  501 -0.00000000000E+00  0.00000000000E+00  0.11343364459E+02  0.11343364745E+02  0.25500000000E-02 0.  1.
          1   -1    0    0  501    0  0.00000000000E+00 -0.00000000000E+00 -0.13832889565E+03  0.13832889574E+03  0.50400000000E-02 0. -1.
        -24    2    1    2    0    0  0.00000000000E+00  0.00000000000E+00 -0.12698553119E+03  0.14967226049E+03  0.79224115189E+02 0.  0.
         66    2    3    3    0    0 -0.24150697733E+02  0.22272017943E+02 -0.21806824679E+02  0.39482104612E+02  0.19999994256E+01 0.  0.
         13    1    3    3    0    0  0.24150697733E+02 -0.22272017943E+02 -0.10517870651E+03  0.11019015588E+03  0.10566000000E+00 0. -1.
         13    1    4    4    0    0 -0.70706862531E+01  0.69643013357E+01 -0.75185193590E+01  0.12451320997E+02  0.10566000000E+00 0. -1.
        -13    1    4    4    0    0 -0.13426178527E+02  0.11999350938E+02 -0.11534138862E+02  0.21384438643E+02  0.10566000000E+00 0.  1.
        -14    1    4    4    0    0 -0.36538329528E+01  0.33083656699E+01 -0.27541664584E+01  0.56463449712E+01  0.00000000000E+00 0.  1.
<mgrwt>
<rscale>  0 0.79224115E+02</rscale>
<asrwt>0</asrwt>
<pdfrwt beam="1">  1        1 0.21281367E-01 0.79224115E+02</pdfrwt>
<pdfrwt beam="2">  1       -2 0.17451331E-02 0.79224115E+02</pdfrwt>
<totfact> 0.15967180E+05</totfact>
</mgrwt>
</event>
<event>
 8    1  0.8577104E-014  0.7870759E+02  0.7818608E-02  0.1332760E+00
         -2   -1    0    0    0  501 -0.00000000000E+00  0.00000000000E+00  0.80866930384E+03  0.80866930384E+03  0.25500000000E-02 0.  1.
          1   -1    0    0  501    0  0.00000000000E+00 -0.00000000000E+00 -0.19151442773E+01  0.19151509090E+01  0.50400000000E-02 0. -1.
        -24    2    1    2    0    0  0.00000000000E+00  0.00000000000E+00  0.80675415956E+03  0.81058445475E+03  0.78707587407E+02 0.  0.
         66    2    3    3    0    0  0.22464483513E+02  0.36853575081E+01  0.73391497521E+03  0.73427067605E+03  0.19999957403E+01 0.  0.
         13    1    3    3    0    0 -0.22464483513E+02 -0.36853575081E+01  0.72839184352E+02  0.76313778707E+02  0.10566000000E+00 0. -1.
         13    1    4    4    0    0  0.51137767487E+01  0.14203825575E+01  0.16751764828E+03  0.16760173582E+03  0.10566000000E+00 0. -1.
        -13    1    4    4    0    0  0.33134615251E+01  0.77582184496E+00  0.12179985192E+03  0.12184742926E+03  0.10566000000E+00 0.  1.
        -14    1    4    4    0    0  0.14037245239E+02  0.14891531057E+01  0.44459747501E+03  0.44482151096E+03  0.00000000000E+00 0.  1.
<mgrwt>
<rscale>  0 0.78707587E+02</rscale>
<asrwt>0</asrwt>
<pdfrwt beam="1">  1        1 0.29463747E-03 0.78707587E+02</pdfrwt>
<pdfrwt beam="2">  1       -2 0.12441093E+00 0.78707587E+02</pdfrwt>
<totfact> 0.34273213E+04</totfact>
</mgrwt>
</event>
<event>
 8    1  0.8577104E-014  0.7958971E+02  0.7818608E-02  0.1330220E+00
          1   -1    0    0  501    0  0.00000000000E+00  0.00000000000E+00  0.22129721036E+02  0.22129721610E+02  0.50400000000E-02 0. -1.
         -2   -1    0    0    0  501 -0.00000000000E+00 -0.00000000000E+00 -0.71561245872E+02  0.71561245917E+02  0.25500000000E-02 0.  1.
        -24    2    1    2    0    0  0.00000000000E+00  0.35527136788E-14 -0.49431524835E+02  0.93690967528E+02  0.79589708812E+02 0.  0.
         66    2    3    3    0    0  0.17393191111E+02  0.21825295240E+02 -0.58084207774E+02  0.64472023409E+02  0.20000001001E+01 0.  0.
         13    1    3    3    0    0 -0.17393191111E+02 -0.21825295240E+02  0.86526829388E+01  0.29218944118E+02  0.10566000000E+00 0. -1.
         13    1    4    4    0    0  0.10956987220E+01  0.22563242885E+01 -0.54252227785E+01  0.59779395460E+01  0.10566000000E+00 0. -1.
        -13    1    4    4    0    0  0.10071153577E+02  0.12083329348E+02 -0.32376189304E+02  0.35995329981E+02  0.10566000000E+00 0.  1.
        -14    1    4    4    0    0  0.62263388114E+01  0.74856416037E+01 -0.20282795691E+02  0.22498753882E+02  0.00000000000E+00 0.  1.
<mgrwt>
<rscale>  0 0.79589709E+02</rscale>
<asrwt>0</asrwt>
<pdfrwt beam="1">  1        1 0.34045726E-02 0.79589709E+02</pdfrwt>
<pdfrwt beam="2">  1       -2 0.11009422E-01 0.79589709E+02</pdfrwt>
<totfact> 0.11590503E+05</totfact>
</mgrwt>
</event>
<event>
 8    1  0.8577104E-014  0.8382308E+02  0.7818608E-02  0.1318539E+00
         -2   -1    0    0    0  501 -0.00000000000E+00  0.00000000000E+00  0.14231544291E+02  0.14231544520E+02  0.25500000000E-02 0.  1.
          1   -1    0    0  501    0  0.00000000000E+00 -0.00000000000E+00 -0.12342843793E+03  0.12342843803E+03  0.50400000000E-02 0. -1.
        -24    2    1    2    0    0 -0.35527136788E-14  0.00000000000E+00 -0.10919689363E+03  0.13765998255E+03  0.83823082834E+02 0.  0.
         66    2    3    3    0    0 -0.19239155306E+02  0.29778307768E+02 -0.17992519505E+02  0.39807329366E+02  0.20000006858E+01 0.  0.
         13    1    3    3    0    0  0.19239155306E+02 -0.29778307768E+02 -0.91204374130E+02  0.97852653182E+02  0.10566000000E+00 0. -1.
         13    1    4    4    0    0 -0.79393523621E+01  0.11236482750E+02 -0.68220191003E+01  0.15357179727E+02  0.10566000000E+00 0.  1.
        -13    1    4    4    0    0 -0.45176614429E+01  0.78633927509E+01 -0.52972196846E+01  0.10503042935E+02  0.10566000000E+00 0. -1.
        -14    1    4    4    0    0 -0.67821415013E+01  0.10678432266E+02 -0.58732807204E+01  0.13947106705E+02  0.00000000000E+00 0.  1.
<mgrwt>
<rscale>  0 0.83823083E+02</rscale>
<asrwt>0</asrwt>
<pdfrwt beam="1">  1        1 0.18988990E-01 0.83823083E+02</pdfrwt>
<pdfrwt beam="2">  1       -2 0.21894684E-02 0.83823083E+02</pdfrwt>
<totfact> 0.13440825E+05</totfact>
</mgrwt>
</event>
<event>
 8    1  0.8577104E-014  0.6976100E+02  0.7818608E-02  0.1360908E+00
         -2   -1    0    0    0  501 -0.00000000000E+00  0.00000000000E+00  0.42553939196E+03  0.42553939197E+03  0.25500000000E-02 0.  1.
          1   -1    0    0  501    0  0.00000000000E+00 -0.00000000000E+00 -0.28590734822E+01  0.28590779245E+01  0.50400000000E-02 0. -1.
        -24    2    1    2    0    0  0.00000000000E+00 -0.35527136788E-14  0.42268031848E+03  0.42839846990E+03  0.69761001838E+02 0.  0.
         66    2    3    3    0    0  0.94171197948E+01 -0.21587093934E+02  0.36927230930E+03  0.37002800323E+03  0.19999977496E+01 0.  0.
         13    1    3    3    0    0 -0.94171197948E+01  0.21587093934E+02  0.53408009185E+02  0.58370466667E+02  0.10566000000E+00 0. -1.
         13    1    4    4    0    0  0.56722143385E+00 -0.23466030671E+01  0.40186541031E+02  0.40259129775E+02  0.10566000000E+00 0. -1.
        -13    1    4    4    0    0  0.70233272287E+01 -0.16302913652E+02  0.27303372764E+03  0.27361019665E+03  0.10566000000E+00 0.  1.
        -14    1    4    4    0    0  0.18265711322E+01 -0.29375772149E+01  0.56052040625E+02  0.56158676803E+02  0.00000000000E+00 0.  1.
<mgrwt>
<rscale>  0 0.69761002E+02</rscale>
<asrwt>0</asrwt>
<pdfrwt beam="1">  1        1 0.43985819E-03 0.69761002E+02</pdfrwt>
<pdfrwt beam="2">  1       -2 0.65467542E-01 0.69761002E+02</pdfrwt>
<totfact> 0.80552324E+04</totfact>
</mgrwt>
</event>
<event>
 8    1  0.8577104E-014  0.8302393E+02  0.7818608E-02  0.1320683E+00
         -2   -1    0    0    0  501 -0.00000000000E+00  0.00000000000E+00  0.79183302324E+02  0.79183302365E+02  0.25500000000E-02 0.  1.
          1   -1    0    0  501    0  0.00000000000E+00 -0.00000000000E+00 -0.21762710223E+02  0.21762710806E+02  0.50400000000E-02 0. -1.
        -24    2    1    2    0    0  0.00000000000E+00 -0.35527136788E-14  0.57420592101E+02  0.10094601317E+03  0.83023931357E+02 0.  0.
         66    2    3    3    0    0 -0.32472908918E+02 -0.25136494384E+02  0.21543503688E+02  0.46416114945E+02  0.20000029880E+01 0.  0.
         13    1    3    3    0    0  0.32472908918E+02  0.25136494384E+02  0.35877088413E+02  0.54529898226E+02  0.10566000000E+00 0. -1.
         13    1    4    4    0    0 -0.96128379328E+01 -0.68308169608E+01  0.53416745068E+01  0.12946480759E+02  0.10566000000E+00 0. -1.
        -13    1    4    4    0    0 -0.13339225305E+02 -0.10764885352E+02  0.94848059317E+01  0.19590569057E+02  0.10566000000E+00 0.  1.
         14    1    4    4    0    0 -0.95208456800E+01 -0.75407920708E+01  0.67170232496E+01  0.13879065129E+02  0.00000000000E+00 0. -1.
<mgrwt>
<rscale>  0 0.83023931E+02</rscale>
<asrwt>0</asrwt>
<pdfrwt beam="1">  1        1 0.33481093E-02 0.83023931E+02</pdfrwt>
<pdfrwt beam="2">  1       -2 0.12182047E-01 0.83023931E+02</pdfrwt>
<totfact> 0.10189977E+05</totfact>
</mgrwt>
</event>
<event>
 8    1  0.8577104E-014  0.8068290E+02  0.7818608E-02  0.1327125E+00
         -2   -1    0    0    0  501 -0.00000000000E+00  0.00000000000E+00  0.20136454228E+02  0.20136454389E+02  0.25500000000E-02 0.  1.
          1   -1    0    0  501    0  0.00000000000E+00 -0.00000000000E+00 -0.80820216794E+02  0.80820216951E+02  0.50400000000E-02 0. -1.
        -24    2    1    2    0    0  0.17763568394E-14  0.00000000000E+00 -0.60683762566E+02  0.10095667134E+03  0.80682900598E+02 0.  0.
         66    2    3    3    0    0  0.15519344668E+02 -0.31669892782E+02 -0.59174384814E+01  0.35816871021E+02  0.20000009604E+01 0.  0.
         13    1    3    3    0    0 -0.15519344668E+02  0.31669892782E+02 -0.54766324085E+02  0.65139800318E+02  0.10566000000E+00 0. -1.
         13    1    4    4    0    0  0.10670557514E+01 -0.16923132631E+01 -0.30031302305E+00  0.20258045573E+01  0.10566000000E+00 0. -1.
        -13    1    4    4    0    0  0.34566781188E+01 -0.86352433570E+01 -0.11866689921E+01  0.93773876311E+01  0.10566000000E+00 0.  1.
        -14    1    4    4    0    0  0.10995610798E+02 -0.21342336162E+02 -0.44304564663E+01  0.24413678833E+02  0.00000000000E+00 0.  1.
<mgrwt>
<rscale>  0 0.80682901E+02</rscale>
<asrwt>0</asrwt>
<pdfrwt beam="1">  1        1 0.12433879E-01 0.80682901E+02</pdfrwt>
<pdfrwt beam="2">  1       -2 0.30979161E-02 0.80682901E+02</pdfrwt>
<totfact> 0.13867826E+05</totfact>
</mgrwt>
</event>
<event>
 8    1  0.8577104E-014  0.7912632E+02  0.7818608E-02  0.1331549E+00
          1   -1    0    0  501    0  0.00000000000E+00  0.00000000000E+00  0.45831573474E+03  0.45831573477E+03  0.50400000000E-02 0. -1.
         -2   -1    0    0    0  501 -0.00000000000E+00 -0.00000000000E+00 -0.34152078758E+01  0.34152088278E+01  0.25500000000E-02 0.  1.
        -24    2    1    2    0    0 -0.17763568394E-14  0.00000000000E+00  0.45490052687E+03  0.46173094360E+03  0.79126322626E+02 0.  0.
         66    2    3    3    0    0  0.94638509271E+01 -0.35387622133E+02  0.31442071407E+03  0.31655368215E+03  0.19999926829E+01 0.  0.
         13    1    3    3    0    0 -0.94638509271E+01  0.35387622133E+02  0.14047981280E+03  0.14517726145E+03  0.10566000000E+00 0. -1.
         13    1    4    4    0    0  0.32627522917E+01 -0.13857129395E+02  0.11813446551E+03  0.11898919570E+03  0.10566000000E+00 0. -1.
        -13    1    4    4    0    0  0.12036397855E+01 -0.31486416616E+01  0.32269916725E+02  0.32445668162E+02  0.10566000000E+00 0.  1.
        -14    1    4    4    0    0  0.49974588498E+01 -0.18381851077E+02  0.16401633184E+03  0.16511881829E+03  0.00000000000E+00 0.  1.
<mgrwt>
<rscale>  0 0.79126323E+02</rscale>
<asrwt>0</asrwt>
<pdfrwt beam="1">  1        1 0.70510133E-01 0.79126323E+02</pdfrwt>
<pdfrwt beam="2">  1       -2 0.52541653E-03 0.79126323E+02</pdfrwt>
<totfact> 0.19956244E+05</totfact>
</mgrwt>
</event>
<event>
 8    1  0.8577104E-014  0.8426542E+02  0.7818608E-02  0.1317365E+00
         -2   -1    0    0    0  501 -0.00000000000E+00  0.00000000000E+00  0.43995179892E+02  0.43995179966E+02  0.25500000000E-02 0.  1.
          1   -1    0    0  501    0  0.00000000000E+00 -0.00000000000E+00 -0.40349087798E+02  0.40349088113E+02  0.50400000000E-02 0. -1.
        -24    2    1    2    0    0  0.00000000000E+00  0.00000000000E+00  0.36460920942E+01  0.84344268078E+02  0.84265423337E+02 0.  0.
         66    2    3    3    0    0  0.23162671244E+02  0.28460622707E+02  0.22498758902E+02  0.43089564179E+02  0.20000012376E+01 0.  0.
         13    1    3    3    0    0 -0.23162671244E+02 -0.28460622707E+02 -0.18852666808E+02  0.41254703900E+02  0.10566000000E+00 0. -1.
         13    1    4    4    0    0  0.82320191385E+01  0.11020871424E+02  0.90775840788E+01  0.16481487882E+02  0.10566000000E+00 0. -1.
        -13    1    4    4    0    0  0.14935143885E+02  0.17442030842E+02  0.13427022509E+02  0.26600358273E+02  0.10566000000E+00 0.  1.
         14    1    4    4    0    0 -0.44917793850E-02 -0.22795593976E-02 -0.58476854847E-02  0.77180242691E-02  0.00000000000E+00 0. -1.
<mgrwt>
<rscale>  0 0.84265423E+02</rscale>
<asrwt>0</asrwt>
<pdfrwt beam="1">  1        1 0.62075520E-02 0.84265423E+02</pdfrwt>
<pdfrwt beam="2">  1       -2 0.67684892E-02 0.84265423E+02</pdfrwt>
<totfact> 0.10976971E+05</totfact>
</mgrwt>
</event>
<event>
 8    1  0.8577104E-014  0.7608214E+02  0.7818608E-02  0.1340552E+00
         -2   -1    0    0    0  501 -0.00000000000E+00  0.00000000000E+00  0.81636450838E+03  0.81636450839E+03  0.25500000000E-02 0.  1.
          1   -1    0    0  501    0  0.00000000000E+00 -0.00000000000E+00 -0.17726394409E+01  0.17726466058E+01  0.50400000000E-02 0. -1.
        -24    2    1    2    0    0 -0.71054273576E-14  0.00000000000E+00  0.81459186894E+03  0.81813715499E+03  0.76082136098E+02 0.  0.
         66    2    3    3    0    0 -0.22038680571E+02  0.17942512125E+02  0.67908106027E+03  0.67967839719E+03  0.19999999707E+01 0.  0.
         13    1    3    3    0    0  0.22038680571E+02 -0.17942512125E+02  0.13551080867E+03  0.13845875780E+03  0.10566000000E+00 0. -1.
         13    1    4    4    0    0 -0.24523047807E+01  0.22044405398E+01  0.82765676995E+02  0.82831405936E+02  0.10566000000E+00 0. -1.
        -13    1    4    4    0    0 -0.66933805268E+01  0.47924511576E+01  0.17983217871E+03  0.18002053381E+03  0.10566000000E+00 0.  1.
        -14    1    4    4    0    0 -0.12892995263E+02  0.10945620428E+02  0.41648320457E+03  0.41682645744E+03  0.00000000000E+00 0.  1.
<mgrwt>
<rscale>  0 0.76082136E+02</rscale>
<asrwt>0</asrwt>
<pdfrwt beam="1">  1        1 0.27271458E-03 0.76082136E+02</pdfrwt>
<pdfrwt beam="2">  1       -2 0.12559442E+00 0.76082136E+02</pdfrwt>
<totfact> 0.37037498E+04</totfact>
</mgrwt>
</event>
<event>
 8    1  0.8577104E-014  0.7929980E+02  0.7818608E-02  0.1331050E+00
          1   -1    0    0  501    0  0.00000000000E+00  0.00000000000E+00  0.13445904329E+03  0.13445904338E+03  0.50400000000E-02 0. -1.
         -2   -1    0    0    0  501 -0.00000000000E+00 -0.00000000000E+00 -0.11692144447E+02  0.11692144725E+02  0.25500000000E-02 0.  1.
        -24    2    1    2    0    0  0.00000000000E+00  0.00000000000E+00  0.12276689884E+03  0.14615118811E+03  0.79299800341E+02 0.  0.
         66    2    3    3    0    0 -0.90734685146E+01 -0.29177544999E+02  0.14926629654E+02  0.34065543240E+02  0.20000000845E+01 0.  0.
         13    1    3    3    0    0  0.90734685146E+01  0.29177544999E+02  0.10784026918E+03  0.11208564487E+03  0.10566000000E+00 0. -1.
         13    1    4    4    0    0 -0.19818591400E+01 -0.49385728618E+01  0.29118294661E+01  0.60668923212E+01  0.10566000000E+00 0. -1.
        -13    1    4    4    0    0 -0.50704093335E+01 -0.19159147981E+02  0.92235376763E+01  0.21860164991E+02  0.10566000000E+00 0.  1.
        -14    1    4    4    0    0 -0.20212000412E+01 -0.50798241565E+01  0.27912625118E+01  0.61384859271E+01  0.00000000000E+00 0.  1.
<mgrwt>
<rscale>  0 0.79299800E+02</rscale>
<asrwt>0</asrwt>
<pdfrwt beam="1">  1        1 0.20686006E-01 0.79299800E+02</pdfrwt>
<pdfrwt beam="2">  1       -2 0.17987915E-02 0.79299800E+02</pdfrwt>
<totfact> 0.15845209E+05</totfact>
</mgrwt>
</event>
<event>
 8    1  0.8577104E-014  0.8148192E+02  0.7818608E-02  0.1324898E+00
         -2   -1    0    0    0  501 -0.00000000000E+00  0.00000000000E+00  0.20442817527E+02  0.20442817686E+02  0.25500000000E-02 0.  1.
          1   -1    0    0  501    0  0.00000000000E+00 -0.00000000000E+00 -0.81193590378E+02  0.81193590534E+02  0.50400000000E-02 0. -1.
        -24    2    1    2    0    0 -0.10658141036E-13  0.35527136788E-14 -0.60750772851E+02  0.10163640822E+03  0.81481918694E+02 0.  0.
         66    2    3    3    0    0 -0.26498614453E+02  0.19736863551E+02 -0.60071647674E+02  0.68588068992E+02  0.20000007499E+01 0.  0.
         13    1    3    3    0    0  0.26498614453E+02 -0.19736863551E+02 -0.67912517645E+00  0.33048339229E+02  0.10566000000E+00 0. -1.
         13    1    4    4    0    0 -0.17524923644E+01  0.14503922838E+01 -0.52190742367E+01  0.56942749484E+01  0.10566000000E+00 0. -1.
        -13    1    4    4    0    0 -0.17893199896E+02  0.13107428990E+02 -0.39568168662E+02  0.45361023275E+02  0.10566000000E+00 0.  1.
         14    1    4    4    0    0 -0.68529221922E+01  0.51790422773E+01 -0.15284404776E+02  0.17532770769E+02  0.00000000000E+00 0. -1.
<mgrwt>
<rscale>  0 0.81481919E+02</rscale>
<asrwt>0</asrwt>
<pdfrwt beam="1">  1        1 0.12491322E-01 0.81481919E+02</pdfrwt>
<pdfrwt beam="2">  1       -2 0.31450489E-02 0.81481919E+02</pdfrwt>
<totfact> 0.13510145E+05</totfact>
</mgrwt>
</event>
<event>
 8    1  0.8577104E-014  0.7984838E+02  0.7818608E-02  0.1329482E+00
          1   -1    0    0  501    0  0.00000000000E+00  0.00000000000E+00  0.18458008956E+03  0.18458008963E+03  0.50400000000E-02 0. -1.
         -2   -1    0    0    0  501 -0.00000000000E+00 -0.00000000000E+00 -0.86354972021E+01  0.86354975786E+01  0.25500000000E-02 0.  1.
        -24    2    1    2    0    0  0.00000000000E+00  0.00000000000E+00  0.17594459236E+03  0.19321558721E+03  0.79848378569E+02 0.  0.
         66    2    3    3    0    0  0.14444483136E+02  0.34203186219E+02  0.52675758995E+02  0.64476636291E+02  0.20000002682E+01 0.  0.
         13    1    3    3    0    0 -0.14444483136E+02 -0.34203186219E+02  0.12326883336E+03  0.12873895092E+03  0.10566000000E+00 0. -1.
         13    1    4    4    0    0  0.23030154024E+00  0.59956494346E+00  0.73438820200E+00  0.98132919435E+00  0.10566000000E+00 0.  1.
        -13    1    4    4    0    0  0.12603220560E+02  0.30112812794E+02  0.47248252236E+02  0.57428487410E+02  0.10566000000E+00 0.  1.
        -14    1    4    4    0    0  0.16109610352E+01  0.34908084810E+01  0.46931185575E+01  0.60668196860E+01  0.00000000000E+00 0.  1.
<mgrwt>
<rscale>  0 0.79848379E+02</rscale>
<asrwt>0</asrwt>
<pdfrwt beam="1">  1        1 0.28396936E-01 0.79848379E+02</pdfrwt>
<pdfrwt beam="2">  1       -2 0.13285381E-02 0.79848379E+02</pdfrwt>
<totfact> 0.16500421E+05</totfact>
</mgrwt>
</event>
<event>
 8    1  0.8577104E-014  0.8078878E+02  0.7818608E-02  0.1326828E+00
          1   -1    0    0  501    0  0.00000000000E+00  0.00000000000E+00  0.62160315179E+03  0.62160315181E+03  0.50400000000E-02 0. -1.
         -2   -1    0    0    0  501 -0.00000000000E+00 -0.00000000000E+00 -0.26249971701E+01  0.26249984086E+01  0.25500000000E-02 0.  1.
        -24    2    1    2    0    0  0.17763568394E-14 -0.71054273576E-14  0.61897815462E+03  0.62422815022E+03  0.80788784056E+02 0.  0.
         66    2    3    3    0    0 -0.12792515394E+02  0.35800380726E+02  0.41459779305E+03  0.41634198168E+03  0.19999993461E+01 0.  0.
         13    1    3    3    0    0  0.12792515394E+02 -0.35800380726E+02  0.20438036158E+03  0.20788616855E+03  0.10566000000E+00 0. -1.
         13    1    4    4    0    0 -0.49941843619E+01  0.11898759160E+02  0.14293440973E+03  0.14351577961E+03  0.10566000000E+00 0. -1.
        -13    1    4    4    0    0 -0.55134520075E+01  0.18154165347E+02  0.20272498696E+03  0.20361091173E+03  0.10566000000E+00 0.  1.
        -14    1    4    4    0    0 -0.22848790251E+01  0.57474562187E+01  0.68938396357E+02  0.69215290344E+02  0.00000000000E+00 0.  1.
<mgrwt>
<rscale>  0 0.80788784E+02</rscale>
<asrwt>0</asrwt>
<pdfrwt beam="1">  1        1 0.95631094E-01 0.80788784E+02</pdfrwt>
<pdfrwt beam="2">  1       -2 0.40384649E-03 0.80788784E+02</pdfrwt>
<totfact> 0.19466847E+05</totfact>
</mgrwt>
</event>
<event>
 8    1  0.8577104E-014  0.7719352E+02  0.7818608E-02  0.1337210E+00
          1   -1    0    0  501    0  0.00000000000E+00  0.00000000000E+00  0.10422199098E+02  0.10422200316E+02  0.50400000000E-02 0. -1.
         -2   -1    0    0    0  501 -0.00000000000E+00 -0.00000000000E+00 -0.14293624074E+03  0.14293624077E+03  0.25500000000E-02 0.  1.
        -24    2    1    2    0    0  0.71054273576E-14 -0.17763568394E-14 -0.13251404165E+03  0.15335844108E+03  0.77193524457E+02 0.  0.
         66    2    3    3    0    0 -0.36146464940E+02  0.13086164856E+02 -0.72549301137E+02  0.82129262324E+02  0.19999990401E+01 0.  0.
         13    1    3    3    0    0  0.36146464940E+02 -0.13086164856E+02 -0.59964740509E+02  0.71229178759E+02  0.10566000000E+00 0. -1.
         13    1    4    4    0    0 -0.50032255576E+01  0.17896701303E+01 -0.92673926705E+01  0.10683207201E+02  0.10566000000E+00 0. -1.
        -13    1    4    4    0    0 -0.21962684155E+02  0.74209858308E+01 -0.43180614564E+02  0.49010276108E+02  0.10566000000E+00 0.  1.
         14    1    4    4    0    0 -0.91805552274E+01  0.38755088945E+01 -0.20101293903E+02  0.22435779016E+02  0.00000000000E+00 0. -1.
<mgrwt>
<rscale>  0 0.77193524E+02</rscale>
<asrwt>0</asrwt>
<pdfrwt beam="1">  1        1 0.16034154E-02 0.77193524E+02</pdfrwt>
<pdfrwt beam="2">  1       -2 0.21990190E-01 0.77193524E+02</pdfrwt>
<totfact> 0.10522094E+05</totfact>
</mgrwt>
</event>
<event>
 8    1  0.8577104E-014  0.8173983E+02  0.7818608E-02  0.1324185E+00
          1   -1    0    0  501    0  0.00000000000E+00  0.00000000000E+00  0.66932846942E+02  0.66932847131E+02  0.50400000000E-02 0. -1.
         -2   -1    0    0    0  501 -0.00000000000E+00 -0.00000000000E+00 -0.24955609702E+02  0.24955609833E+02  0.25500000000E-02 0.  1.
        -24    2    1    2    0    0  0.17763568394E-14  0.00000000000E+00  0.41977237239E+02  0.91888456964E+02  0.81739831643E+02 0.  0.
         66    2    3    3    0    0 -0.10300848060E+02  0.12915279460E+02 -0.20992318142E+02  0.26787858017E+02  0.20000004706E+01 0.  0.
         13    1    3    3    0    0  0.10300848060E+02 -0.12915279460E+02  0.62969555381E+02  0.65100598947E+02  0.10566000000E+00 0. -1.
         13    1    4    4    0    0 -0.89475363662E+00  0.80683065594E+00 -0.18286264999E+01  0.21923956508E+01  0.10566000000E+00 0. -1.
        -13    1    4    4    0    0 -0.13303706687E+01  0.26959021985E+01 -0.40375760691E+01  0.50349736176E+01  0.10566000000E+00 0.  1.
        -14    1    4    4    0    0 -0.80757237547E+01  0.94125466059E+01 -0.15126115573E+02  0.19560488749E+02  0.00000000000E+00 0.  1.
<mgrwt>
<rscale>  0 0.81739832E+02</rscale>
<asrwt>0</asrwt>
<pdfrwt beam="1">  1        1 0.10297361E-01 0.81739832E+02</pdfrwt>
<pdfrwt beam="2">  1       -2 0.38393246E-02 0.81739832E+02</pdfrwt>
<totfact> 0.12982251E+05</totfact>
</mgrwt>
</event>
<event>
 8    1  0.8577104E-014  0.8012763E+02  0.7818608E-02  0.1328690E+00
         -2   -1    0    0    0  501 -0.00000000000E+00  0.00000000000E+00  0.49222089925E+02  0.49222089991E+02  0.25500000000E-02 0.  1.
          1   -1    0    0  501    0  0.00000000000E+00 -0.00000000000E+00 -0.32609528297E+02  0.32609528686E+02  0.50400000000E-02 0. -1.
        -24    2    1    2    0    0  0.35527136788E-14  0.00000000000E+00  0.16612561629E+02  0.81831618677E+02  0.80127627018E+02 0.  0.
         66    2    3    3    0    0 -0.16542521819E+02 -0.27127774088E+02  0.33192067544E+02  0.45992222260E+02  0.20000013597E+01 0.  0.
         13    1    3    3    0    0  0.16542521819E+02  0.27127774088E+02 -0.16579505916E+02  0.35839396417E+02  0.10566000000E+00 0. -1.
         13    1    4    4    0    0 -0.10270118006E+01 -0.16298599308E+01  0.14906431966E+01  0.24381094742E+01  0.10566000000E+00 0. -1.
        -13    1    4    4    0    0 -0.38466469292E+01 -0.71720492746E+01  0.84584538666E+01  0.11738466222E+02  0.10566000000E+00 0.  1.
        -14    1    4    4    0    0 -0.11668863089E+02 -0.18325864883E+02  0.23242970481E+02  0.31815646564E+02  0.00000000000E+00 0.  1.
<mgrwt>
<rscale>  0 0.80127627E+02</rscale>
<asrwt>0</asrwt>
<pdfrwt beam="1">  1        1 0.50168506E-02 0.80127627E+02</pdfrwt>
<pdfrwt beam="2">  1       -2 0.75726292E-02 0.80127627E+02</pdfrwt>
<totfact> 0.12216287E+05</totfact>
</mgrwt>
</event>
<event>
 8    1  0.8577104E-014  0.7871278E+02  0.7818608E-02  0.1332745E+00
          1   -1    0    0  501    0  0.00000000000E+00  0.00000000000E+00  0.82247844885E+02  0.82247845039E+02  0.50400000000E-02 0. -1.
         -2   -1    0    0    0  501 -0.00000000000E+00 -0.00000000000E+00 -0.18832412027E+02  0.18832412200E+02  0.25500000000E-02 0.  1.
        -24    2    1    2    0    0 -0.35527136788E-14  0.00000000000E+00  0.63415432857E+02  0.10108025724E+03  0.78712777102E+02 0.  0.
         66    2    3    3    0    0  0.28805604925E+02 -0.19358043465E+02  0.79650354677E+01  0.35664246534E+02  0.19999922236E+01 0.  0.
         13    1    3    3    0    0 -0.28805604925E+02  0.19358043465E+02  0.55450397390E+02  0.65416010706E+02  0.10566000000E+00 0. -1.
         13    1    4    4    0    0  0.23383734203E+01 -0.13860402926E+01  0.73370770515E+00  0.28175501730E+01  0.10566000000E+00 0. -1.
        -13    1    4    4    0    0  0.18457737647E+02 -0.11587460986E+02  0.46690529946E+01  0.22288305253E+02  0.10566000000E+00 0.  1.
         14    1    4    4    0    0  0.80094938579E+01 -0.63845421867E+01  0.25622747680E+01  0.10558391108E+02  0.00000000000E+00 0. -1.
<mgrwt>
<rscale>  0 0.78712777E+02</rscale>
<asrwt>0</asrwt>
<pdfrwt beam="1">  1        1 0.12653515E-01 0.78712777E+02</pdfrwt>
<pdfrwt beam="2">  1       -2 0.28972942E-02 0.78712777E+02</pdfrwt>
<totfact> 0.14874471E+05</totfact>
</mgrwt>
</event>
<event>
 8    1  0.8577104E-014  0.7945420E+02  0.7818608E-02  0.1330607E+00
         -2   -1    0    0    0  501 -0.00000000000E+00  0.00000000000E+00  0.13907079933E+03  0.13907079935E+03  0.25500000000E-02 0.  1.
          1   -1    0    0  501    0  0.00000000000E+00 -0.00000000000E+00 -0.11348482513E+02  0.11348483632E+02  0.50400000000E-02 0. -1.
        -24    2    1    2    0    0  0.00000000000E+00  0.35527136788E-14  0.12772231681E+03  0.15041928298E+03  0.79454203669E+02 0.  0.
         66    2    3    3    0    0 -0.20146097580E+02  0.18667333457E+02  0.11817614739E+03  0.12134222844E+03  0.20000013619E+01 0.  0.
         13    1    3    3    0    0  0.20146097580E+02 -0.18667333457E+02  0.95461694250E+01  0.29077054541E+02  0.10566000000E+00 0. -1.
         13    1    4    4    0    0 -0.97762225219E+01  0.89743358688E+01  0.54672860040E+02  0.56260519195E+02  0.10566000000E+00 0. -1.
        -13    1    4    4    0    0 -0.10261209978E+02  0.96332544552E+01  0.63279042977E+02  0.64825461554E+02  0.10566000000E+00 0.  1.
         14    1    4    4    0    0 -0.10866508016E+00  0.59743132657E-01  0.22424437003E+00  0.25624769079E+00  0.00000000000E+00 0. -1.
<mgrwt>
<rscale>  0 0.79454204E+02</rscale>
<asrwt>0</asrwt>
<pdfrwt beam="1">  1        1 0.17459205E-02 0.79454204E+02</pdfrwt>
<pdfrwt beam="2">  1       -2 0.21395508E-01 0.79454204E+02</pdfrwt>
<totfact> 0.98545161E+04</totfact>
</mgrwt>
</event>
<event>
 8    1  0.8577104E-014  0.8207838E+02  0.7818608E-02  0.1323255E+00
          1   -1    0    0  501    0  0.00000000000E+00  0.00000000000E+00  0.13007637183E+03  0.13007637193E+03  0.50400000000E-02 0. -1.
         -2   -1    0    0    0  501 -0.00000000000E+00 -0.00000000000E+00 -0.12947893216E+02  0.12947893467E+02  0.25500000000E-02 0.  1.
        -24    2    1    2    0    0  0.14210854715E-13 -0.22204460493E-15  0.11712847862E+03  0.14302426540E+03  0.82078377111E+02 0.  0.
         66    2    3    3    0    0  0.40517918764E+02 -0.14896051113E+01  0.47816404067E+02  0.62724231108E+02  0.20000014368E+01 0.  0.
         13    1    3    3    0    0 -0.40517918764E+02  0.14896051113E+01  0.69312074548E+02  0.80300034288E+02  0.10566000000E+00 0. -1.
         13    1    4    4    0    0  0.21705606349E+02 -0.14506240208E+00  0.26364095050E+02  0.34150125357E+02  0.10566000000E+00 0.  1.
        -13    1    4    4    0    0  0.18205792129E+01 -0.28021663154E+00  0.19021294485E+01  0.26499604724E+01  0.10566000000E+00 0. -1.
        -14    1    4    4    0    0  0.16991733202E+02 -0.10643260777E+01  0.19550179569E+02  0.25924145278E+02  0.00000000000E+00 0.  1.
<mgrwt>
<rscale>  0 0.82078377E+02</rscale>
<asrwt>0</asrwt>
<pdfrwt beam="1">  1        1 0.20011750E-01 0.82078377E+02</pdfrwt>
<pdfrwt beam="2">  1       -2 0.19919835E-02 0.82078377E+02</pdfrwt>
<totfact> 0.14360549E+05</totfact>
</mgrwt>
</event>
<event>
 8    1  0.8577104E-014  0.7839962E+02  0.7818608E-02  0.1333655E+00
          1   -1    0    0  501    0  0.00000000000E+00  0.00000000000E+00  0.12184186909E+03  0.12184186919E+03  0.50400000000E-02 0. -1.
         -2   -1    0    0    0  501 -0.00000000000E+00 -0.00000000000E+00 -0.12611634180E+02  0.12611634438E+02  0.25500000000E-02 0.  1.
        -24    2    1    2    0    0  0.00000000000E+00  0.00000000000E+00  0.10923023491E+03  0.13445350363E+03  0.78399620029E+02 0.  0.
         66    2    3    3    0    0 -0.32559008206E+02 -0.18409412099E+02  0.34678284730E+02  0.51044871532E+02  0.20000021970E+01 0.  0.
         13    1    3    3    0    0  0.32559008206E+02  0.18409412099E+02  0.74551950180E+02  0.83408632100E+02  0.10566000000E+00 0. -1.
         13    1    4    4    0    0 -0.15127119178E+01 -0.11257840383E+01  0.15065950543E+01  0.24159221304E+01  0.10566000000E+00 0. -1.
        -13    1    4    4    0    0 -0.28279314394E+02 -0.16114960257E+02  0.30616238740E+02  0.44685308607E+02  0.10566000000E+00 0.  1.
        -14    1    4    4    0    0 -0.27669818935E+01 -0.11686678040E+01  0.25554509360E+01  0.39436407951E+01  0.00000000000E+00 0.  1.
<mgrwt>
<rscale>  0 0.78399620E+02</rscale>
<asrwt>0</asrwt>
<pdfrwt beam="1">  1        1 0.18744902E-01 0.78399620E+02</pdfrwt>
<pdfrwt beam="2">  1       -2 0.19402515E-02 0.78399620E+02</pdfrwt>
<totfact> 0.16054291E+05</totfact>
</mgrwt>
</event>
<event>
 8    1  0.8577104E-014  0.7902485E+02  0.7818608E-02  0.1331842E+00
          1   -1    0    0  501    0  0.00000000000E+00  0.00000000000E+00  0.15981747481E+02  0.15981748276E+02  0.50400000000E-02 0. -1.
         -2   -1    0    0    0  501 -0.00000000000E+00 -0.00000000000E+00 -0.97688433020E+02  0.97688433053E+02  0.25500000000E-02 0.  1.
        -24    2    1    2    0    0  0.00000000000E+00  0.00000000000E+00 -0.81706685539E+02  0.11367018133E+03  0.79024854708E+02 0.  0.
         66    2    3    3    0    0  0.24085231332E+02 -0.20620907011E+02 -0.74732751445E+02  0.81205321941E+02  0.19999997136E+01 0.  0.
         13    1    3    3    0    0 -0.24085231332E+02  0.20620907011E+02 -0.69739340940E+01  0.32464859387E+02  0.10566000000E+00 0. -1.
         13    1    4    4    0    0  0.75691478781E+00 -0.34521641746E+00 -0.21569583185E+01  0.23142444975E+01  0.10566000000E+00 0. -1.
        -13    1    4    4    0    0  0.12781457685E+02 -0.11663527449E+02 -0.39707332804E+02  0.43313819683E+02  0.10566000000E+00 0.  1.
         14    1    4    4    0    0  0.10546858859E+02 -0.86121631442E+01 -0.32868460322E+02  0.35577257760E+02  0.00000000000E+00 0. -1.
<mgrwt>
<rscale>  0 0.79024855E+02</rscale>
<asrwt>0</asrwt>
<pdfrwt beam="1">  1        1 0.24587305E-02 0.79024855E+02</pdfrwt>
<pdfrwt beam="2">  1       -2 0.15028989E-01 0.79024855E+02</pdfrwt>
<totfact> 0.11014282E+05</totfact>
</mgrwt>
</event>
<event>
 8    1  0.8577104E-014  0.8018501E+02  0.7818608E-02  0.1328527E+00
         -2   -1    0    0    0  501 -0.00000000000E+00  0.00000000000E+00  0.77662466806E+01  0.77662470992E+01  0.25500000000E-02 0.  1.
          1   -1    0    0  501    0  0.00000000000E+00 -0.00000000000E+00 -0.20697371452E+03  0.20697371459E+03  0.50400000000E-02 0. -1.
        -24    2    1    2    0    0 -0.71054273576E-14  0.71054273576E-14 -0.19920746784E+03  0.21473996169E+03  0.80185010443E+02 0.  0.
         66    2    3    3    0    0 -0.33854604084E+02  0.20097675089E+02 -0.11959020056E+03  0.12592008117E+03  0.20000022989E+01 0.  0.
         13    1    3    3    0    0  0.33854604084E+02 -0.20097675089E+02 -0.79617267284E+02  0.88819880519E+02  0.10566000000E+00 0. -1.
         13    1    4    4    0    0 -0.40552083391E+01  0.17851959348E+01 -0.13316360553E+02  0.14034538169E+02  0.10566000000E+00 0. -1.
        -13    1    4    4    0    0 -0.29098708560E+02  0.17706915756E+02 -0.10339634694E+03  0.10886269072E+03  0.10566000000E+00 0.  1.
         14    1    4    4    0    0 -0.70068718483E+00  0.60556339828E+00 -0.28774930662E+01  0.30228522799E+01  0.00000000000E+00 0. -1.
<mgrwt>
<rscale>  0 0.80185010E+02</rscale>
<asrwt>0</asrwt>
<pdfrwt beam="1">  1        1 0.31842106E-01 0.80185010E+02</pdfrwt>
<pdfrwt beam="2">  1       -2 0.11948074E-02 0.80185010E+02</pdfrwt>
<totfact> 0.16682782E+05</totfact>
</mgrwt>
</event>
<event>
 8    1  0.8577104E-014  0.7936790E+02  0.7818608E-02  0.1330855E+00
         -2   -1    0    0    0  501 -0.00000000000E+00  0.00000000000E+00  0.27337616947E+03  0.27337616948E+03  0.25500000000E-02 0.  1.
          1   -1    0    0  501    0  0.00000000000E+00 -0.00000000000E+00 -0.57606173380E+01  0.57606195427E+01  0.50400000000E-02 0. -1.
        -24    2    1    2    0    0 -0.35527136788E-14  0.00000000000E+00  0.26761555213E+03  0.27913678902E+03  0.79367898070E+02 0.  0.
         66    2    3    3    0    0  0.20843314952E+02 -0.65863095639E+01  0.25027209052E+03  0.25123284528E+03  0.20000004454E+01 0.  0.
         13    1    3    3    0    0 -0.20843314952E+02  0.65863095639E+01  0.17343461613E+02  0.27903943747E+02  0.10566000000E+00 0. -1.
         13    1    4    4    0    0  0.14712358220E+01 -0.78387200669E+00  0.18311156401E+02  0.18387185835E+02  0.10566000000E+00 0.  1.
        -13    1    4    4    0    0  0.75370180993E+01 -0.14984517954E+01  0.88238569240E+02  0.88572615774E+02  0.10566000000E+00 0.  1.
        -14    1    4    4    0    0  0.11835061031E+02 -0.43039857618E+01  0.14372236488E+03  0.14427304367E+03  0.00000000000E+00 0.  1.
<mgrwt>
<rscale>  0 0.79367898E+02</rscale>
<asrwt>0</asrwt>
<pdfrwt beam="1">  1        1 0.88624897E-03 0.79367898E+02</pdfrwt>
<pdfrwt beam="2">  1       -2 0.42057873E-01 0.79367898E+02</pdfrwt>
<totfact> 0.75319023E+04</totfact>
</mgrwt>
</event>
<event>
 8    1  0.8577104E-014  0.8377488E+02  0.7818608E-02  0.1318668E+00
         -2   -1    0    0    0  501 -0.00000000000E+00  0.00000000000E+00  0.10287435000E+02  0.10287435316E+02  0.25500000000E-02 0.  1.
          1   -1    0    0  501    0  0.00000000000E+00 -0.00000000000E+00 -0.17055347110E+03  0.17055347117E+03  0.50400000000E-02 0. -1.
        -24    2    1    2    0    0  0.00000000000E+00 -0.35527136788E-14 -0.16026603610E+03  0.18084090649E+03  0.83774883665E+02 0.  0.
         66    2    3    3    0    0  0.69852070819E+01  0.28799332459E+02 -0.16348170013E+02  0.33903647733E+02  0.19999996877E+01 0.  0.
         13    1    3    3    0    0 -0.69852070819E+01 -0.28799332459E+02 -0.14391786609E+03  0.14693725876E+03  0.10566000000E+00 0. -1.
         13    1    4    4    0    0  0.24468272654E+01  0.77823531890E+01 -0.41025814069E+01  0.91320492257E+01  0.10566000000E+00 0. -1.
        -13    1    4    4    0    0  0.20725460135E+00  0.83230500757E+00 -0.26990098002E+00  0.90537101236E+00  0.10566000000E+00 0.  1.
        -14    1    4    4    0    0  0.43311252152E+01  0.20184674263E+02 -0.11975687626E+02  0.23866227495E+02  0.00000000000E+00 0.  1.
<mgrwt>
<rscale>  0 0.83774884E+02</rscale>
<asrwt>0</asrwt>
<pdfrwt beam="1">  1        1 0.26238994E-01 0.83774884E+02</pdfrwt>
<pdfrwt beam="2">  1       -2 0.15826825E-02 0.83774884E+02</pdfrwt>
<totfact> 0.14297780E+05</totfact>
</mgrwt>
</event>
<event>
 8    1  0.8577104E-014  0.8076795E+02  0.7818608E-02  0.1326886E+00
         -2   -1    0    0    0  501 -0.00000000000E+00  0.00000000000E+00  0.59972676722E+01  0.59972682143E+01  0.25500000000E-02 0.  1.
          1   -1    0    0  501    0  0.00000000000E+00 -0.00000000000E+00 -0.27193472352E+03  0.27193472357E+03  0.50400000000E-02 0. -1.
        -24    2    1    2    0    0 -0.71054273576E-14 -0.35527136788E-14 -0.26593745585E+03  0.27793199178E+03  0.80767949291E+02 0.  0.
         66    2    3    3    0    0  0.32145054861E+02  0.24045947536E+02 -0.14738272637E+03  0.15276511441E+03  0.20000010029E+01 0.  0.
         13    1    3    3    0    0 -0.32145054861E+02 -0.24045947536E+02 -0.11855472948E+03  0.12516687737E+03  0.10566000000E+00 0. -1.
         13    1    4    4    0    0  0.14257579415E+02  0.10122660050E+02 -0.66002990403E+02  0.68279958431E+02  0.10566000000E+00 0. -1.
        -13    1    4    4    0    0  0.85642458268E+01  0.72641653687E+01 -0.41380630842E+02  0.42877525325E+02  0.10566000000E+00 0.  1.
        -14    1    4    4    0    0  0.93232296193E+01  0.66591221166E+01 -0.39999105127E+02  0.41607630656E+02  0.00000000000E+00 0.  1.
<mgrwt>
<rscale>  0 0.80767949E+02</rscale>
<asrwt>0</asrwt>
<pdfrwt beam="1">  1        1 0.41836102E-01 0.80767949E+02</pdfrwt>
<pdfrwt beam="2">  1       -2 0.92265682E-03 0.80767949E+02</pdfrwt>
<totfact> 0.17262190E+05</totfact>
</mgrwt>
</event>
<event>
 8    1  0.8577104E-014  0.8057384E+02  0.7818608E-02  0.1327431E+00
          1   -1    0    0  501    0  0.00000000000E+00  0.00000000000E+00  0.25517893855E+03  0.25517893860E+03  0.50400000000E-02 0. -1.
         -2   -1    0    0    0  501 -0.00000000000E+00 -0.00000000000E+00 -0.63603835945E+01  0.63603841057E+01  0.25500000000E-02 0.  1.
        -24    2    1    2    0    0  0.00000000000E+00 -0.71054273576E-14  0.24881855496E+03  0.26153932271E+03  0.80573842103E+02 0.  0.
         66    2    3    3    0    0 -0.16969437580E+01  0.35852950709E+02  0.18369374937E+03  0.18717827673E+03  0.20000069382E+01 0.  0.
         13    1    3    3    0    0  0.16969437580E+01 -0.35852950709E+02  0.65124805588E+02  0.74361045982E+02  0.10566000000E+00 0. -1.
         13    1    4    4    0    0  0.45488459907E-02  0.27365977136E+01  0.15961109608E+02  0.16194356168E+02  0.10566000000E+00 0. -1.
        -13    1    4    4    0    0 -0.10103007654E+01  0.26541140490E+02  0.13619329331E+03  0.13875906151E+03  0.10566000000E+00 0.  1.
        -14    1    4    4    0    0 -0.69119183862E+00  0.65752125049E+01  0.31539346456E+02  0.32224859046E+02  0.00000000000E+00 0.  1.
<mgrwt>
<rscale>  0 0.80573842E+02</rscale>
<asrwt>0</asrwt>
<pdfrwt beam="1">  1        1 0.39258298E-01 0.80573842E+02</pdfrwt>
<pdfrwt beam="2">  1       -2 0.97852060E-03 0.80573842E+02</pdfrwt>
<totfact> 0.17157530E+05</totfact>
</mgrwt>
</event>
<event>
 8    1  0.1151439E-013  0.7676327E+02  0.7818608E-02  0.1338496E+00
          1   -1    0    0  501    0  0.00000000000E+00  0.00000000000E+00  0.66342967890E+02  0.66342968082E+02  0.50400000000E-02 0. -1.
         -2   -1    0    0    0  501 -0.00000000000E+00 -0.00000000000E+00 -0.22205062876E+02  0.22205063022E+02  0.25500000000E-02 0.  1.
        -24    2    1    2    0    0  0.00000000000E+00  0.35527136788E-14  0.44137905014E+02  0.88548031104E+02  0.76763266953E+02 0.  0.
         66    2    3    3    0    0  0.10653064743E+02  0.18448383199E+02 -0.14708076845E+02  0.25964555840E+02  0.20000010966E+01 0.  0.
         13    1    3    3    0    0 -0.10653064743E+02 -0.18448383199E+02  0.58845981860E+02  0.62583475264E+02  0.10566000000E+00 0. -1.
         13    1    4    4    0    0  0.55811395779E+01  0.86495321226E+01 -0.70481187790E+01  0.12476003658E+02  0.10566000000E+00 0. -1.
        -13    1    4    4    0    0  0.48512091560E+01  0.85394034381E+01 -0.68609111228E+01  0.11980772380E+02  0.10566000000E+00 0.  1.
         14    1    4    4    0    0  0.22071600897E+00  0.12594476385E+01 -0.79904694355E+00  0.15077798011E+01  0.00000000000E+00 0. -1.
<mgrwt>
<rscale>  0 0.76763267E+02</rscale>
<asrwt>0</asrwt>
<pdfrwt beam="1">  1        1 0.10206610E-01 0.76763267E+02</pdfrwt>
<pdfrwt beam="2">  1       -2 0.34161636E-02 0.76763267E+02</pdfrwt>
<totfact> 0.15398775E+05</totfact>
</mgrwt>
</event>
<event>
 8    1  0.8577104E-014  0.7923409E+02  0.7818608E-02  0.1331239E+00
          1   -1    0    0  501    0  0.00000000000E+00  0.00000000000E+00  0.11448410053E+03  0.11448410064E+03  0.50400000000E-02 0. -1.
         -2   -1    0    0    0  501 -0.00000000000E+00 -0.00000000000E+00 -0.13709414983E+02  0.13709415220E+02  0.25500000000E-02 0.  1.
        -24    2    1    2    0    0  0.00000000000E+00  0.00000000000E+00  0.10077468555E+03  0.12819351586E+03  0.79234085227E+02 0.  0.
         66    2    3    3    0    0  0.57929188691E+00 -0.25005007893E+02  0.76460524672E+00  0.25103199513E+02  0.20000014501E+01 0.  0.
         13    1    3    3    0    0 -0.57929188691E+00  0.25005007893E+02  0.10001008030E+03  0.10309031635E+03  0.10566000000E+00 0. -1.
         13    1    4    4    0    0  0.37708435947E+00 -0.82792703423E+01  0.97867738191E+00  0.83461058865E+01  0.10566000000E+00 0. -1.
        -13    1    4    4    0    0 -0.76092907721E-02 -0.30551961736E+01  0.32541029221E+00  0.30743027591E+01  0.10566000000E+00 0.  1.
         14    1    4    4    0    0  0.20981681821E+00 -0.13670541377E+02 -0.53948242740E+00  0.13682790868E+02  0.00000000000E+00 0. -1.
<mgrwt>
<rscale>  0 0.79234085E+02</rscale>
<asrwt>0</asrwt>
<pdfrwt beam="1">  1        1 0.17612939E-01 0.79234085E+02</pdfrwt>
<pdfrwt beam="2">  1       -2 0.21091408E-02 0.79234085E+02</pdfrwt>
<totfact> 0.15436865E+05</totfact>
</mgrwt>
</event>
<event>
 8    1  0.8577104E-014  0.8045091E+02  0.7818608E-02  0.1327777E+00
         -2   -1    0    0    0  501 -0.00000000000E+00  0.00000000000E+00  0.88830150926E+03  0.88830150926E+03  0.25500000000E-02 0.  1.
          1   -1    0    0  501    0  0.00000000000E+00 -0.00000000000E+00 -0.18215485363E+01  0.18215555088E+01  0.50400000000E-02 0. -1.
        -24    2    1    2    0    0  0.00000000000E+00  0.00000000000E+00  0.88647996072E+03  0.89012306477E+03  0.80450914694E+02 0.  0.
         66    2    3    3    0    0  0.18293737172E+02 -0.12644605682E+02  0.81404503785E+03  0.81435119606E+03  0.20000004434E+01 0.  0.
         13    1    3    3    0    0 -0.18293737172E+02  0.12644605682E+02  0.72434922872E+02  0.75771868712E+02  0.10566000000E+00 0. -1.
         13    1    4    4    0    0  0.11205870288E+02 -0.81683641174E+01  0.48181738896E+03  0.48201690963E+03  0.10566000000E+00 0. -1.
        -13    1    4    4    0    0  0.21836785433E+01 -0.11777627983E+01  0.11031480318E+03  0.11034275029E+03  0.10566000000E+00 0.  1.
        -14    1    4    4    0    0  0.49041883407E+01 -0.32984787664E+01  0.22191284571E+03  0.22199153613E+03  0.00000000000E+00 0.  1.
<mgrwt>
<rscale>  0 0.80450915E+02</rscale>
<asrwt>0</asrwt>
<pdfrwt beam="1">  1        1 0.28023951E-03 0.80450915E+02</pdfrwt>
<pdfrwt beam="2">  1       -2 0.13666141E+00 0.80450915E+02</pdfrwt>
<totfact> 0.29356920E+04</totfact>
</mgrwt>
</event>
<event>
 8    1  0.8577104E-014  0.8065910E+02  0.7818608E-02  0.1327191E+00
         -2   -1    0    0    0  501 -0.00000000000E+00  0.00000000000E+00  0.37133714504E+03  0.37133714504E+03  0.25500000000E-02 0.  1.
          1   -1    0    0  501    0  0.00000000000E+00 -0.00000000000E+00 -0.43800410500E+01  0.43800439497E+01  0.50400000000E-02 0. -1.
        -24    2    1    2    0    0  0.00000000000E+00  0.00000000000E+00  0.36695710399E+03  0.37571718899E+03  0.80659097070E+02 0.  0.
         66    2    3    3    0    0 -0.34973872536E+02  0.46381225801E+01  0.27436803818E+03  0.27663424287E+03  0.20000035309E+01 0.  0.
         13    1    3    3    0    0  0.34973872536E+02 -0.46381225801E+01  0.92589065807E+02  0.99082946123E+02  0.10566000000E+00 0. -1.
         13    1    4    4    0    0 -0.23055131590E+01  0.49377322667E+00  0.21498129620E+02  0.21627296274E+02  0.10566000000E+00 0. -1.
        -13    1    4    4    0    0 -0.25513533297E+02  0.28319054713E+01  0.19720910945E+03  0.19887283396E+03  0.10566000000E+00 0.  1.
         14    1    4    4    0    0 -0.71548260800E+01  0.13124438821E+01  0.55660799105E+02  0.56134112642E+02  0.00000000000E+00 0. -1.
<mgrwt>
<rscale>  0 0.80659097E+02</rscale>
<asrwt>0</asrwt>
<pdfrwt beam="1">  1        1 0.67385251E-03 0.80659097E+02</pdfrwt>
<pdfrwt beam="2">  1       -2 0.57128807E-01 0.80659097E+02</pdfrwt>
<totfact> 0.60701774E+04</totfact>
</mgrwt>
</event>
<event>
 8    1  0.8577104E-014  0.7870981E+02  0.7818608E-02  0.1332753E+00
          1   -1    0    0  501    0  0.00000000000E+00  0.00000000000E+00  0.87718513939E+01  0.87718528418E+01  0.50400000000E-02 0. -1.
         -2   -1    0    0    0  501 -0.00000000000E+00 -0.00000000000E+00 -0.17656573465E+03  0.17656573467E+03  0.25500000000E-02 0.  1.
        -24    2    1    2    0    0  0.00000000000E+00 -0.17763568394E-14 -0.16779388326E+03  0.18533758751E+03  0.78709809338E+02 0.  0.
         66    2    3    3    0    0  0.20627166971E+02  0.11539991633E+02 -0.15797052904E+03  0.15974147694E+03  0.19999963535E+01 0.  0.
         13    1    3    3    0    0 -0.20627166971E+02 -0.11539991633E+02 -0.98233542128E+01  0.25596110568E+02  0.10566000000E+00 0. -1.
         13    1    4    4    0    0  0.30548839121E+01  0.19056998286E+01 -0.22020944883E+02  0.22313609863E+02  0.10566000000E+00 0. -1.
        -13    1    4    4    0    0  0.57549665892E+01  0.31689654902E+01 -0.49782466523E+02  0.50214212330E+02  0.10566000000E+00 0.  1.
         14    1    4    4    0    0  0.11817316470E+02  0.64653263147E+01 -0.86167117638E+02  0.87213654750E+02  0.00000000000E+00 0. -1.
<mgrwt>
<rscale>  0 0.78709809E+02</rscale>
<asrwt>0</asrwt>
<pdfrwt beam="1">  1        1 0.13495158E-02 0.78709809E+02</pdfrwt>
<pdfrwt beam="2">  1       -2 0.27163957E-01 0.78709809E+02</pdfrwt>
<totfact> 0.93107995E+04</totfact>
</mgrwt>
</event>
<event>
 8    1  0.8577104E-014  0.7928086E+02  0.7818608E-02  0.1331105E+00
          1   -1    0    0  501    0  0.00000000000E+00  0.00000000000E+00  0.97393052157E+02  0.97393052288E+02  0.50400000000E-02 0. -1.
         -2   -1    0    0    0  501 -0.00000000000E+00 -0.00000000000E+00 -0.16134248345E+02  0.16134248546E+02  0.25500000000E-02 0.  1.
        -24    2    1    2    0    0  0.00000000000E+00 -0.17763568394E-14  0.81258803812E+02  0.11352730083E+03  0.79280860475E+02 0.  0.
         66    2    3    3    0    0 -0.33834329128E+02  0.96300927786E+01  0.66741232374E+02  0.75471137615E+02  0.19999999067E+01 0.  0.
         13    1    3    3    0    0  0.33834329128E+02 -0.96300927786E+01  0.14517571438E+02  0.38056163219E+02  0.10566000000E+00 0. -1.
         13    1    4    4    0    0 -0.18825941389E+02  0.58377637559E+01  0.37039175817E+02  0.41957207535E+02  0.10566000000E+00 0. -1.
        -13    1    4    4    0    0 -0.15006228344E+02  0.38280887943E+01  0.29642348169E+02  0.33444298795E+02  0.10566000000E+00 0.  1.
         14    1    4    4    0    0 -0.21593955997E-02 -0.35759771645E-01  0.59708388226E-01  0.69631285225E-01  0.00000000000E+00 0. -1.
<mgrwt>
<rscale>  0 0.79280860E+02</rscale>
<asrwt>0</asrwt>
<pdfrwt beam="1">  1        1 0.14983546E-01 0.79280860E+02</pdfrwt>
<pdfrwt beam="2">  1       -2 0.24821921E-02 0.79280860E+02</pdfrwt>
<totfact> 0.14995762E+05</totfact>
</mgrwt>
</event>
<event>
 8    1  0.8577104E-014  0.8104132E+02  0.7818608E-02  0.1326122E+00
          1   -1    0    0  501    0  0.00000000000E+00  0.00000000000E+00  0.15453395016E+03  0.15453395024E+03  0.50400000000E-02 0. -1.
         -2   -1    0    0    0  501 -0.00000000000E+00 -0.00000000000E+00 -0.10625003423E+02  0.10625003729E+02  0.25500000000E-02 0.  1.
        -24    2    1    2    0    0  0.00000000000E+00 -0.88817841970E-15  0.14390894673E+03  0.16515895397E+03  0.81041317398E+02 0.  0.
         66    2    3    3    0    0  0.36681795074E+02  0.58965505060E+01  0.39162636415E+02  0.54018843804E+02  0.19999993084E+01 0.  0.
         13    1    3    3    0    0 -0.36681795074E+02 -0.58965505060E+01  0.10474631032E+03  0.11114011016E+03  0.10566000000E+00 0. -1.
         13    1    4    4    0    0  0.24721275737E+01  0.62107985773E+00  0.30807096032E+01  0.39998863265E+01  0.10566000000E+00 0. -1.
        -13    1    4    4    0    0  0.23368247397E+02  0.40345266068E+01  0.24033938682E+02  0.33763793684E+02  0.10566000000E+00 0.  1.
        -14    1    4    4    0    0  0.10841420103E+02  0.12409440414E+01  0.12047988129E+02  0.16255163793E+02  0.00000000000E+00 0.  1.
<mgrwt>
<rscale>  0 0.81041317E+02</rscale>
<asrwt>0</asrwt>
<pdfrwt beam="1">  1        1 0.23774452E-01 0.81041317E+02</pdfrwt>
<pdfrwt beam="2">  1       -2 0.16346161E-02 0.81041317E+02</pdfrwt>
<totfact> 0.15336431E+05</totfact>
</mgrwt>
</event>
<event>
 8    1  0.8577104E-014  0.7576670E+02  0.7818608E-02  0.1341513E+00
         -2   -1    0    0    0  501 -0.00000000000E+00  0.00000000000E+00  0.11742946756E+02  0.11742947033E+02  0.25500000000E-02 0.  1.
          1   -1    0    0  501    0  0.00000000000E+00 -0.00000000000E+00 -0.12221362904E+03  0.12221362914E+03  0.50400000000E-02 0. -1.
        -24    2    1    2    0    0  0.17763568394E-14  0.00000000000E+00 -0.11047068228E+03  0.13395657618E+03  0.75766698864E+02 0.  0.
         66    2    3    3    0    0  0.92109105520E+01 -0.29663928108E+02 -0.17011279271E+02  0.35470736182E+02  0.19999997070E+01 0.  0.
         13    1    3    3    0    0 -0.92109105520E+01  0.29663928108E+02 -0.93459403012E+02  0.98485839994E+02  0.10566000000E+00 0. -1.
         13    1    4    4    0    0  0.51191156554E+01 -0.16793027964E+02 -0.95923344344E+01  0.20005878566E+02  0.10566000000E+00 0. -1.
        -13    1    4    4    0    0  0.29596808847E+01 -0.86661556815E+01 -0.43585301156E+01  0.10142480665E+02  0.10566000000E+00 0.  1.
         14    1    4    4    0    0  0.11321140120E+01 -0.42047444633E+01 -0.30604147209E+01  0.53223769503E+01  0.00000000000E+00 0. -1.
<mgrwt>
<rscale>  0 0.75766699E+02</rscale>
<asrwt>0</asrwt>
<pdfrwt beam="1">  1        1 0.18802096E-01 0.75766699E+02</pdfrwt>
<pdfrwt beam="2">  1       -2 0.18066073E-02 0.75766699E+02</pdfrwt>
<totfact> 0.17599110E+05</totfact>
</mgrwt>
</event>
<event>
 8    1  0.8577104E-014  0.7952752E+02  0.7818608E-02  0.1330398E+00
          1   -1    0    0  501    0  0.00000000000E+00  0.00000000000E+00  0.73394322299E+01  0.73394339604E+01  0.50400000000E-02 0. -1.
         -2   -1    0    0    0  501 -0.00000000000E+00 -0.00000000000E+00 -0.21543306759E+03  0.21543306760E+03  0.25500000000E-02 0.  1.
        -24    2    1    2    0    0  0.00000000000E+00  0.00000000000E+00 -0.20809363536E+03  0.22277250156E+03  0.79527519616E+02 0.  0.
         66    2    3    3    0    0 -0.88283858557E+01  0.65754125359E+01 -0.21107190075E+03  0.21136821835E+03  0.19999986741E+01 0.  0.
         13    1    3    3    0    0  0.88283858557E+01 -0.65754125359E+01  0.29782653932E+01  0.11404283214E+02  0.10566000000E+00 0. -1.
         13    1    4    4    0    0 -0.69980481281E+01  0.58005354698E+01 -0.17899525802E+03  0.17922592571E+03  0.10566000000E+00 0. -1.
        -13    1    4    4    0    0 -0.26224637489E+00  0.18138841574E+00 -0.81856279144E+01  0.81925175195E+01  0.10566000000E+00 0.  1.
         14    1    4    4    0    0 -0.15680913527E+01  0.59348865033E+00 -0.23891014815E+02  0.23949775117E+02  0.00000000000E+00 0. -1.
<mgrwt>
<rscale>  0 0.79527520E+02</rscale>
<asrwt>0</asrwt>
<pdfrwt beam="1">  1        1 0.11291437E-02 0.79527520E+02</pdfrwt>
<pdfrwt beam="2">  1       -2 0.33143544E-01 0.79527520E+02</pdfrwt>
<totfact> 0.83751091E+04</totfact>
</mgrwt>
</event>
<event>
 8    1  0.8577104E-014  0.7922798E+02  0.7818608E-02  0.1331257E+00
          1   -1    0    0  501    0  0.00000000000E+00  0.00000000000E+00  0.29879841949E+01  0.29879884455E+01  0.50400000000E-02 0. -1.
         -2   -1    0    0    0  501 -0.00000000000E+00 -0.00000000000E+00 -0.52519256752E+03  0.52519256753E+03  0.25500000000E-02 0.  1.
        -24    2    1    2    0    0  0.00000000000E+00  0.44408920985E-15 -0.52220458333E+03  0.52818055597E+03  0.79227980290E+02 0.  0.
         66    2    3    3    0    0  0.10443893332E+02  0.27147810330E+01 -0.51519606480E+03  0.51531294392E+03  0.20000112011E+01 0.  0.
         13    1    3    3    0    0 -0.10443893332E+02 -0.27147810330E+01 -0.70085185328E+01  0.12867612057E+02  0.10566000000E+00 0. -1.
         13    1    4    4    0    0  0.31089484526E+01  0.54178123367E+00 -0.17015050744E+03  0.17017980325E+03  0.10566000000E+00 0. -1.
        -13    1    4    4    0    0  0.65100191230E+01  0.14399006801E+01 -0.29932376079E+03  0.29939802705E+03  0.10566000000E+00 0.  1.
         14    1    4    4    0    0  0.82492575619E+00  0.73309911923E+00 -0.45721796565E+02  0.45735113621E+02  0.00000000000E+00 0. -1.
<mgrwt>
<rscale>  0 0.79227980E+02</rscale>
<asrwt>0</asrwt>
<pdfrwt beam="1">  1        1 0.45969062E-03 0.79227980E+02</pdfrwt>
<pdfrwt beam="2">  1       -2 0.80798783E-01 0.79227980E+02</pdfrwt>
<totfact> 0.49724597E+04</totfact>
</mgrwt>
</event>
<event>
 8    1  0.8577104E-014  0.7878273E+02  0.7818608E-02  0.1332542E+00
          1   -1    0    0  501    0  0.00000000000E+00  0.00000000000E+00  0.53749820880E+03  0.53749820882E+03  0.50400000000E-02 0. -1.
         -2   -1    0    0    0  501 -0.00000000000E+00 -0.00000000000E+00 -0.28868551474E+01  0.28868562736E+01  0.25500000000E-02 0.  1.
        -24    2    1    2    0    0  0.00000000000E+00  0.00000000000E+00  0.53461135365E+03  0.54038506509E+03  0.78782733678E+02 0.  0.
         66    2    3    3    0    0 -0.20919328069E+02  0.31356904446E+02  0.34532270623E+03  0.34737968447E+03  0.20000006032E+01 0.  0.
         13    1    3    3    0    0  0.20919328069E+02 -0.31356904446E+02  0.18928864742E+03  0.19300538063E+03  0.10566000000E+00 0. -1.
         13    1    4    4    0    0 -0.16151653146E+02  0.23413559799E+02  0.26007544711E+03  0.26162629844E+03  0.10566000000E+00 0. -1.
        -13    1    4    4    0    0 -0.44678977932E+01  0.73036824899E+01  0.80451621663E+02  0.80905997805E+02  0.10566000000E+00 0.  1.
         14    1    4    4    0    0 -0.29977712937E+00  0.63966215693E+00  0.47956374562E+01  0.48473882260E+01  0.00000000000E+00 0. -1.
<mgrwt>
<rscale>  0 0.78782734E+02</rscale>
<asrwt>0</asrwt>
<pdfrwt beam="1">  1        1 0.82691990E-01 0.78782734E+02</pdfrwt>
<pdfrwt beam="2">  1       -2 0.44413188E-03 0.78782734E+02</pdfrwt>
<totfact> 0.20571219E+05</totfact>
</mgrwt>
</event>
<event>
 8    1  0.8577104E-014  0.7964048E+02  0.7818608E-02  0.1330075E+00
          1   -1    0    0  501    0  0.00000000000E+00  0.00000000000E+00  0.31590295927E+02  0.31590296329E+02  0.50400000000E-02 0. -1.
         -2   -1    0    0    0  501 -0.00000000000E+00 -0.00000000000E+00 -0.50194258048E+02  0.50194258112E+02  0.25500000000E-02 0.  1.
        -24    2    1    2    0    0  0.71054273576E-14  0.00000000000E+00 -0.18603962121E+02  0.81784554441E+02  0.79640479271E+02 0.  0.
         66    2    3    3    0    0  0.27460219466E+02 -0.25536472240E+02 -0.22988322503E+02  0.44029967335E+02  0.19999961239E+01 0.  0.
         13    1    3    3    0    0 -0.27460219466E+02  0.25536472240E+02  0.43843603819E+01  0.37754587106E+02  0.10566000000E+00 0. -1.
         13    1    4    4    0    0  0.56658435413E+01 -0.48290303153E+01 -0.49627144805E+01  0.89476821508E+01  0.10566000000E+00 0. -1.
        -13    1    4    4    0    0  0.12469364839E+02 -0.10871598633E+02 -0.99626265101E+01  0.19311701306E+02  0.10566000000E+00 0.  1.
         14    1    4    4    0    0  0.93250110857E+01 -0.98358432912E+01 -0.80629815122E+01  0.15770583878E+02  0.00000000000E+00 0. -1.
<mgrwt>
<rscale>  0 0.79640479E+02</rscale>
<asrwt>0</asrwt>
<pdfrwt beam="1">  1        1 0.48600456E-02 0.79640479E+02</pdfrwt>
<pdfrwt beam="2">  1       -2 0.77221936E-02 0.79640479E+02</pdfrwt>
<totfact> 0.12363216E+05</totfact>
</mgrwt>
</event>
<event>
 8    1  0.8577104E-014  0.7983687E+02  0.7818608E-02  0.1329515E+00
         -2   -1    0    0    0  501 -0.00000000000E+00  0.00000000000E+00  0.63609173689E+01  0.63609178801E+01  0.25500000000E-02 0.  1.
          1   -1    0    0  501    0  0.00000000000E+00 -0.00000000000E+00 -0.25051127702E+03  0.25051127707E+03  0.50400000000E-02 0. -1.
        -24    2    1    2    0    0  0.00000000000E+00  0.00000000000E+00 -0.24415035965E+03  0.25687219495E+03  0.79836873819E+02 0.  0.
         66    2    3    3    0    0  0.39040696707E+02  0.40333777682E+01 -0.99166970014E+02  0.10667020239E+03  0.19999999548E+01 0.  0.
         13    1    3    3    0    0 -0.39040696707E+02 -0.40333777682E+01 -0.14498338964E+03  0.15020199257E+03  0.10566000000E+00 0. -1.
         13    1    4    4    0    0  0.45421952513E+01  0.66636917977E+00 -0.12994560015E+02  0.13782065868E+02  0.10566000000E+00 0. -1.
        -13    1    4    4    0    0  0.28866930961E+02  0.31116919660E+01 -0.72772791077E+02  0.78350957972E+02  0.10566000000E+00 0.  1.
         14    1    4    4    0    0  0.56315704947E+01  0.25531662248E+00 -0.13399618922E+02  0.14537178546E+02  0.00000000000E+00 0. -1.
<mgrwt>
<rscale>  0 0.79836874E+02</rscale>
<asrwt>0</asrwt>
<pdfrwt beam="1">  1        1 0.38540189E-01 0.79836874E+02</pdfrwt>
<pdfrwt beam="2">  1       -2 0.97860291E-03 0.79836874E+02</pdfrwt>
<totfact> 0.17516475E+05</totfact>
</mgrwt>
</event>
<event>
 8    1  0.8577104E-014  0.7269830E+02  0.7818608E-02  0.1351151E+00
         -2   -1    0    0    0  501 -0.00000000000E+00  0.00000000000E+00  0.10980714227E+02  0.10980714523E+02  0.25500000000E-02 0.  1.
          1   -1    0    0  501    0  0.00000000000E+00 -0.00000000000E+00 -0.12032556174E+03  0.12032556184E+03  0.50400000000E-02 0. -1.
        -24    2    1    2    0    0  0.71054273576E-14 -0.35527136788E-14 -0.10934484751E+03  0.13130627636E+03  0.72698298027E+02 0.  0.
         66    2    3    3    0    0  0.31201326098E+02 -0.18582656262E+02 -0.53546020931E+02  0.64730319177E+02  0.19999997870E+01 0.  0.
         13    1    3    3    0    0 -0.31201326098E+02  0.18582656262E+02 -0.55798826578E+02  0.66575957188E+02  0.10566000000E+00 0. -1.
         13    1    4    4    0    0  0.14851931568E+01 -0.72681514208E+00 -0.21836863180E+01  0.27411145425E+01  0.10566000000E+00 0. -1.
        -13    1    4    4    0    0  0.27017158096E+02 -0.16012476777E+02 -0.45696399326E+02  0.55448158846E+02  0.10566000000E+00 0.  1.
         14    1    4    4    0    0  0.26989748458E+01 -0.18433643428E+01 -0.56659352873E+01  0.65410457878E+01  0.00000000000E+00 0. -1.
<mgrwt>
<rscale>  0 0.72698298E+02</rscale>
<asrwt>0</asrwt>
<pdfrwt beam="1">  1        1 0.18511624E-01 0.72698298E+02</pdfrwt>
<pdfrwt beam="2">  1       -2 0.16893408E-02 0.72698298E+02</pdfrwt>
<totfact> 0.19590691E+05</totfact>
</mgrwt>
</event>
<event>
 8    1  0.8577104E-014  0.7961052E+02  0.7818608E-02  0.1330160E+00
          1   -1    0    0  501    0  0.00000000000E+00  0.00000000000E+00  0.46889719926E+02  0.46889720196E+02  0.50400000000E-02 0. -1.
         -2   -1    0    0    0  501 -0.00000000000E+00 -0.00000000000E+00 -0.33791177827E+02  0.33791177924E+02  0.25500000000E-02 0.  1.
        -24    2    1    2    0    0  0.35527136788E-14  0.00000000000E+00  0.13098542098E+02  0.80680898120E+02  0.79610523904E+02 0.  0.
         66    2    3    3    0    0  0.19397350894E+02  0.15051453399E+02 -0.25166799525E+02  0.35216065505E+02  0.20000000387E+01 0.  0.
         13    1    3    3    0    0 -0.19397350894E+02 -0.15051453399E+02  0.38265341624E+02  0.45464832615E+02  0.10566000000E+00 0. -1.
         13    1    4    4    0    0  0.29275321649E+01  0.25402627801E+01 -0.40151712288E+01  0.55817688595E+01  0.10566000000E+00 0. -1.
        -13    1    4    4    0    0  0.38556063882E+01  0.33995697941E+01 -0.61997617658E+01  0.80542526279E+01  0.10566000000E+00 0.  1.
        -14    1    4    4    0    0  0.12614212341E+02  0.91116208250E+01 -0.14951866531E+02  0.21580044017E+02  0.00000000000E+00 0.  1.
<mgrwt>
<rscale>  0 0.79610524E+02</rscale>
<asrwt>0</asrwt>
<pdfrwt beam="1">  1        1 0.72138031E-02 0.79610524E+02</pdfrwt>
<pdfrwt beam="2">  1       -2 0.51986428E-02 0.79610524E+02</pdfrwt>
<totfact> 0.13203102E+05</totfact>
</mgrwt>
</event>
<event>
 8    1  0.8577104E-014  0.8043651E+02  0.7818608E-02  0.1327817E+00
          1   -1    0    0  501    0  0.00000000000E+00  0.00000000000E+00  0.52498644362E+01  0.52498668555E+01  0.50400000000E-02 0. -1.
         -2   -1    0    0    0  501 -0.00000000000E+00 -0.00000000000E+00 -0.30810465341E+03  0.30810465342E+03  0.25500000000E-02 0.  1.
        -24    2    1    2    0    0  0.00000000000E+00  0.00000000000E+00 -0.30285478897E+03  0.31335452027E+03  0.80436510199E+02 0.  0.
         66    2    3    3    0    0  0.38992382276E+02  0.97154558141E+01 -0.14824486714E+03  0.15360773612E+03  0.20000006913E+01 0.  0.
         13    1    3    3    0    0 -0.38992382276E+02 -0.97154558141E+01 -0.15460992183E+03  0.15974678416E+03  0.10566000000E+00 0. -1.
         13    1    4    4    0    0  0.11971111440E+01  0.33671367589E+00 -0.37455688931E+01  0.39480250200E+01  0.10566000000E+00 0. -1.
        -13    1    4    4    0    0  0.14346653234E+02  0.30046189249E+01 -0.55340447928E+02  0.57248847454E+02  0.10566000000E+00 0.  1.
        -14    1    4    4    0    0  0.23448617898E+02  0.63741232134E+01 -0.89158850322E+02  0.92410863641E+02  0.00000000000E+00 0.  1.
<mgrwt>
<rscale>  0 0.80436510E+02</rscale>
<asrwt>0</asrwt>
<pdfrwt beam="1">  1        1 0.80767188E-03 0.80436510E+02</pdfrwt>
<pdfrwt beam="2">  1       -2 0.47400702E-01 0.80436510E+02</pdfrwt>
<totfact> 0.68281798E+04</totfact>
</mgrwt>
</event>
<event>
 8    1  0.8577104E-014  0.7937968E+02  0.7818608E-02  0.1330821E+00
          1   -1    0    0  501    0  0.00000000000E+00  0.00000000000E+00  0.52793212123E+03  0.52793212126E+03  0.50400000000E-02 0. -1.
         -2   -1    0    0    0  501 -0.00000000000E+00 -0.00000000000E+00 -0.29838742233E+01  0.29838753130E+01  0.25500000000E-02 0.  1.
        -24    2    1    2    0    0 -0.35527136788E-14  0.00000000000E+00  0.52494824701E+03  0.53091599657E+03  0.79379678605E+02 0.  0.
         66    2    3    3    0    0 -0.24932906454E+02  0.27938717619E+02  0.35011577680E+03  0.35211827408E+03  0.20000013512E+01 0.  0.
         13    1    3    3    0    0  0.24932906454E+02 -0.27938717619E+02  0.17483247020E+03  0.17879772249E+03  0.10566000000E+00 0. -1.
         13    1    4    4    0    0 -0.54572370502E+00  0.55318946678E+00  0.60078539415E+01  0.60588205095E+01  0.10566000000E+00 0. -1.
        -13    1    4    4    0    0 -0.20571942147E+02  0.22587456706E+02  0.28243328232E+03  0.28408091828E+03  0.10566000000E+00 0.  1.
        -14    1    4    4    0    0 -0.38152406020E+01  0.47980714463E+01  0.61674640540E+02  0.61978535286E+02  0.00000000000E+00 0.  1.
<mgrwt>
<rscale>  0 0.79379679E+02</rscale>
<asrwt>0</asrwt>
<pdfrwt beam="1">  1        1 0.81220306E-01 0.79379679E+02</pdfrwt>
<pdfrwt beam="2">  1       -2 0.45905777E-03 0.79379679E+02</pdfrwt>
<totfact> 0.20132861E+05</totfact>
</mgrwt>
</event>
<event>
 8    1  0.8577104E-014  0.7993584E+02  0.7818608E-02  0.1329234E+00
          1   -1    0    0  501    0  0.00000000000E+00  0.00000000000E+00  0.15432685890E+03  0.15432685898E+03  0.50400000000E-02 0. -1.
         -2   -1    0    0    0  501 -0.00000000000E+00 -0.00000000000E+00 -0.10350982086E+02  0.10350982400E+02  0.25500000000E-02 0.  1.
        -24    2    1    2    0    0  0.00000000000E+00 -0.35527136788E-14  0.14397587682E+03  0.16467784138E+03  0.79935838884E+02 0.  0.
         66    2    3    3    0    0  0.24776727300E+02  0.27792522141E+02  0.42241507266E+02  0.56344081113E+02  0.20000094295E+01 0.  0.
         13    1    3    3    0    0 -0.24776727300E+02 -0.27792522141E+02  0.10173436955E+03  0.10833376027E+03  0.10566000000E+00 0. -1.
         13    1    4    4    0    0  0.22732861598E+01  0.21587684934E+01  0.31016698205E+01  0.44113071853E+01  0.10566000000E+00 0. -1.
        -13    1    4    4    0    0  0.21532067473E+02  0.24183081709E+02  0.37370263636E+02  0.49446932552E+02  0.10566000000E+00 0.  1.
        -14    1    4    4    0    0  0.97137366786E+00  0.14506719391E+01  0.17695738093E+01  0.24858413755E+01  0.00000000000E+00 0.  1.
<mgrwt>
<rscale>  0 0.79935839E+02</rscale>
<asrwt>0</asrwt>
<pdfrwt beam="1">  1        1 0.23742594E-01 0.79935839E+02</pdfrwt>
<pdfrwt beam="2">  1       -2 0.15924588E-02 0.79935839E+02</pdfrwt>
<totfact> 0.15905785E+05</totfact>
</mgrwt>
</event>
<event>
 8    1  0.8577104E-014  0.8046507E+02  0.7818608E-02  0.1327737E+00
         -2   -1    0    0    0  501 -0.00000000000E+00  0.00000000000E+00  0.14842255519E+03  0.14842255521E+03  0.25500000000E-02 0.  1.
          1   -1    0    0  501    0  0.00000000000E+00 -0.00000000000E+00 -0.10905734371E+02  0.10905735535E+02  0.50400000000E-02 0. -1.
        -24    2    1    2    0    0  0.00000000000E+00  0.00000000000E+00  0.13751682082E+03  0.15932829074E+03  0.80465074561E+02 0.  0.
         66    2    3    3    0    0 -0.18344648630E+02 -0.23589021539E+02  0.12206798295E+03  0.12568834684E+03  0.19999996821E+01 0.  0.
         13    1    3    3    0    0  0.18344648630E+02  0.23589021539E+02  0.15448837864E+02  0.33639943905E+02  0.10566000000E+00 0. -1.
         13    1    4    4    0    0 -0.26539328734E+01 -0.32087232762E+01  0.14556553488E+02  0.15140795166E+02  0.10566000000E+00 0. -1.
        -13    1    4    4    0    0 -0.14643783337E+02 -0.19079595447E+02  0.10122224502E+03  0.10404049887E+03  0.10566000000E+00 0.  1.
        -14    1    4    4    0    0 -0.10469324189E+01 -0.13007028161E+01  0.62891844391E+01  0.65070528056E+01  0.00000000000E+00 0.  1.
<mgrwt>
<rscale>  0 0.80465075E+02</rscale>
<asrwt>0</asrwt>
<pdfrwt beam="1">  1        1 0.16778055E-02 0.80465075E+02</pdfrwt>
<pdfrwt beam="2">  1       -2 0.22834238E-01 0.80465075E+02</pdfrwt>
<totfact> 0.93433557E+04</totfact>
</mgrwt>
</event>
<event>
 8    1  0.8577104E-014  0.7610236E+02  0.7818608E-02  0.1340491E+00
          1   -1    0    0  501    0  0.00000000000E+00  0.00000000000E+00  0.21875355472E+01  0.21875413532E+01  0.50400000000E-02 0. -1.
         -2   -1    0    0    0  501 -0.00000000000E+00 -0.00000000000E+00 -0.66188196836E+03  0.66188196837E+03  0.25500000000E-02 0.  1.
        -24    2    1    2    0    0  0.35527136788E-14  0.00000000000E+00 -0.65969443282E+03  0.66406950972E+03  0.76102359051E+02 0.  0.
         66    2    3    3    0    0 -0.18645335203E+02  0.97814783519E+01 -0.60636806421E+03  0.60673680878E+03  0.20000002705E+01 0.  0.
         13    1    3    3    0    0  0.18645335203E+02 -0.97814783519E+01 -0.53326368609E+02  0.57332700936E+02  0.10566000000E+00 0. -1.
         13    1    4    4    0    0 -0.64615045117E+01  0.30406979260E+01 -0.22678610454E+03  0.22689853517E+03  0.10566000000E+00 0. -1.
        -13    1    4    4    0    0 -0.19611963591E+01  0.75232255443E+00 -0.58852912890E+02  0.58890481404E+02  0.10566000000E+00 0.  1.
        -14    1    4    4    0    0 -0.10222634332E+02  0.59884578715E+01 -0.32072904678E+03  0.32094779221E+03  0.00000000000E+00 0.  1.
<mgrwt>
<rscale>  0 0.76102359E+02</rscale>
<asrwt>0</asrwt>
<pdfrwt beam="1">  1        1 0.33654491E-03 0.76102359E+02</pdfrwt>
<pdfrwt beam="2">  1       -2 0.10182784E+00 0.76102359E+02</pdfrwt>
<totfact> 0.45332801E+04</totfact>
</mgrwt>
</event>
<event>
 8    1  0.8577104E-014  0.8119973E+02  0.7818608E-02  0.1325681E+00
         -2   -1    0    0    0  501 -0.00000000000E+00  0.00000000000E+00  0.52561154898E+02  0.52561154960E+02  0.25500000000E-02 0.  1.
          1   -1    0    0  501    0  0.00000000000E+00 -0.00000000000E+00 -0.31360597061E+02  0.31360597466E+02  0.50400000000E-02 0. -1.
        -24    2    1    2    0    0 -0.71054273576E-14  0.00000000000E+00  0.21200557837E+02  0.83921752426E+02  0.81199734468E+02 0.  0.
         66    2    3    3    0    0  0.29053247359E+02 -0.18685415975E+02  0.32606603519E+02  0.47543943334E+02  0.20000006080E+01 0.  0.
         13    1    3    3    0    0 -0.29053247359E+02  0.18685415975E+02 -0.11406045682E+02  0.36377809093E+02  0.10566000000E+00 0. -1.
         13    1    4    4    0    0  0.38622092885E+01 -0.27078991336E+01  0.47613083272E+01  0.67030291159E+01  0.10566000000E+00 0. -1.
        -13    1    4    4    0    0  0.14276430281E+02 -0.85389216178E+01  0.16468716341E+02  0.23408533186E+02  0.10566000000E+00 0.  1.
         14    1    4    4    0    0  0.10914607789E+02 -0.74385952237E+01  0.11376578851E+02  0.17432381032E+02  0.00000000000E+00 0. -1.
<mgrwt>
<rscale>  0 0.81199734E+02</rscale>
<asrwt>0</asrwt>
<pdfrwt beam="1">  1        1 0.48247072E-02 0.81199734E+02</pdfrwt>
<pdfrwt beam="2">  1       -2 0.80863316E-02 0.81199734E+02</pdfrwt>
<totfact> 0.11679770E+05</totfact>
</mgrwt>
</event>
<event>
 8    1  0.8577104E-014  0.7769332E+02  0.7818608E-02  0.1335728E+00
          1   -1    0    0  501    0  0.00000000000E+00  0.00000000000E+00  0.93922363103E+01  0.93922376626E+01  0.50400000000E-02 0. -1.
         -2   -1    0    0    0  501 -0.00000000000E+00 -0.00000000000E+00 -0.16067131437E+03  0.16067131439E+03  0.25500000000E-02 0.  1.
        -24    2    1    2    0    0  0.00000000000E+00  0.00000000000E+00 -0.15127907806E+03  0.17006355206E+03  0.77693321968E+02 0.  0.
         66    2    3    3    0    0 -0.17376484309E+02  0.34675409872E+02 -0.79307454063E+02  0.88306276649E+02  0.19999922402E+01 0.  0.
         13    1    3    3    0    0  0.17376484309E+02 -0.34675409872E+02 -0.71971624001E+02  0.81757275408E+02  0.10566000000E+00 0. -1.
         13    1    4    4    0    0 -0.34808335997E+01  0.70094892021E+01 -0.14616358748E+02  0.16580055745E+02  0.10566000000E+00 0. -1.
        -13    1    4    4    0    0 -0.42553554536E+01  0.95704445250E+01 -0.21525116968E+02  0.23938322476E+02  0.10566000000E+00 0.  1.
         14    1    4    4    0    0 -0.96402952556E+01  0.18095476145E+02 -0.43165978347E+02  0.47787898428E+02  0.00000000000E+00 0. -1.
<mgrwt>
<rscale>  0 0.77693322E+02</rscale>
<asrwt>0</asrwt>
<pdfrwt beam="1">  1        1 0.14449597E-02 0.77693322E+02</pdfrwt>
<pdfrwt beam="2">  1       -2 0.24718662E-01 0.77693322E+02</pdfrwt>
<totfact> 0.99568823E+04</totfact>
</mgrwt>
</event>
<event>
 8    1  0.8577104E-014  0.7911928E+02  0.7818608E-02  0.1331570E+00
         -2   -1    0    0    0  501 -0.00000000000E+00  0.00000000000E+00  0.42023096816E+03  0.42023096816E+03  0.25500000000E-02 0.  1.
          1   -1    0    0  501    0  0.00000000000E+00 -0.00000000000E+00 -0.37240574800E+01  0.37240608904E+01  0.50400000000E-02 0. -1.
        -24    2    1    2    0    0 -0.35527136788E-14 -0.17763568394E-14  0.41650691068E+03  0.42395502905E+03  0.79119277167E+02 0.  0.
         66    2    3    3    0    0 -0.18037668095E+02 -0.13851629221E+02  0.38166609791E+03  0.38234831685E+03  0.19999999886E+01 0.  0.
         13    1    3    3    0    0  0.18037668095E+02  0.13851629221E+02  0.34840812763E+02  0.41606712204E+02  0.10566000000E+00 0. -1.
         13    1    4    4    0    0 -0.60639369728E+01 -0.49828928205E+01  0.14398681993E+03  0.14420061037E+03  0.10566000000E+00 0. -1.
        -13    1    4    4    0    0 -0.44004939842E+00 -0.27938688579E+00  0.10853421448E+02  0.10866444757E+02  0.10566000000E+00 0.  1.
        -14    1    4    4    0    0 -0.11533681724E+02 -0.85893495146E+01  0.22682585653E+03  0.22728126172E+03  0.00000000000E+00 0.  1.
<mgrwt>
<rscale>  0 0.79119277E+02</rscale>
<asrwt>0</asrwt>
<pdfrwt beam="1">  1        1 0.57293223E-03 0.79119277E+02</pdfrwt>
<pdfrwt beam="2">  1       -2 0.64650913E-01 0.79119277E+02</pdfrwt>
<totfact> 0.58818979E+04</totfact>
</mgrwt>
</event>
<event>
 8    1  0.8577104E-014  0.7925729E+02  0.7818608E-02  0.1331172E+00
         -2   -1    0    0    0  501 -0.00000000000E+00  0.00000000000E+00  0.11226316779E+02  0.11226317068E+02  0.25500000000E-02 0.  1.
          1   -1    0    0  501    0  0.00000000000E+00 -0.00000000000E+00 -0.13988823509E+03  0.13988823518E+03  0.50400000000E-02 0. -1.
        -24    2    1    2    0    0 -0.44408920985E-15  0.00000000000E+00 -0.12866191831E+03  0.15111455225E+03  0.79257294163E+02 0.  0.
         66    2    3    3    0    0  0.33204295482E+01  0.35338857884E+02 -0.30879884818E+02  0.47089567909E+02  0.19999976260E+01 0.  0.
         13    1    3    3    0    0 -0.33204295482E+01 -0.35338857884E+02 -0.97782033494E+02  0.10402498434E+03  0.10566000000E+00 0. -1.
         13    1    4    4    0    0  0.18199813040E+00  0.11179437126E+02 -0.10040095809E+02  0.15027562200E+02  0.10566000000E+00 0. -1.
        -13    1    4    4    0    0  0.24907575344E+01  0.17941063672E+02 -0.15475826512E+02  0.23824315500E+02  0.10566000000E+00 0.  1.
        -14    1    4    4    0    0  0.64767388333E+00  0.62183570854E+01 -0.53639624973E+01  0.82376902087E+01  0.00000000000E+00 0.  1.
<mgrwt>
<rscale>  0 0.79257294E+02</rscale>
<asrwt>0</asrwt>
<pdfrwt beam="1">  1        1 0.21521266E-01 0.79257294E+02</pdfrwt>
<pdfrwt beam="2">  1       -2 0.17271258E-02 0.79257294E+02</pdfrwt>
<totfact> 0.15981704E+05</totfact>
</mgrwt>
</event>
<event>
 8    1  0.8577104E-014  0.7912711E+02  0.7818608E-02  0.1331547E+00
          1   -1    0    0  501    0  0.00000000000E+00  0.00000000000E+00  0.63565006904E+01  0.63565026885E+01  0.50400000000E-02 0. -1.
         -2   -1    0    0    0  501 -0.00000000000E+00 -0.00000000000E+00 -0.24624784069E+03  0.24624784071E+03  0.25500000000E-02 0.  1.
        -24    2    1    2    0    0  0.00000000000E+00  0.00000000000E+00 -0.23989134000E+03  0.25260434340E+03  0.79127108463E+02 0.  0.
         66    2    3    3    0    0 -0.22699184611E+02  0.18720630578E+02 -0.20433705880E+03  0.20645422890E+03  0.20000110733E+01 0.  0.
         13    1    3    3    0    0  0.22699184611E+02 -0.18720630578E+02 -0.35554281209E+02  0.46150114491E+02  0.10566000000E+00 0. -1.
         13    1    4    4    0    0 -0.11324661598E+02  0.88512043488E+01 -0.94178076067E+02  0.95268635734E+02  0.10566000000E+00 0. -1.
        -13    1    4    4    0    0 -0.95493150071E+01  0.80062943833E+01 -0.90090476610E+02  0.90948311181E+02  0.10566000000E+00 0.  1.
         14    1    4    4    0    0 -0.18252080060E+01  0.18631318462E+01 -0.20068506118E+02  0.20237281990E+02  0.00000000000E+00 0. -1.
<mgrwt>
<rscale>  0 0.79127108E+02</rscale>
<asrwt>0</asrwt>
<pdfrwt beam="1">  1        1 0.97792353E-03 0.79127108E+02</pdfrwt>
<pdfrwt beam="2">  1       -2 0.37884276E-01 0.79127108E+02</pdfrwt>
<totfact> 0.79901229E+04</totfact>
</mgrwt>
</event>
<event>
 8    1  0.8577104E-014  0.8015655E+02  0.7818608E-02  0.1328608E+00
          1   -1    0    0  501    0  0.00000000000E+00  0.00000000000E+00  0.15919331205E+02  0.15919332003E+02  0.50400000000E-02 0. -1.
         -2   -1    0    0    0  501 -0.00000000000E+00 -0.00000000000E+00 -0.10090048736E+03  0.10090048739E+03  0.25500000000E-02 0.  1.
        -24    2    1    2    0    0 -0.35527136788E-14 -0.17763568394E-14 -0.84981156152E+02  0.11681981939E+03  0.80156554954E+02 0.  0.
         66    2    3    3    0    0 -0.31910683450E+02  0.11104853796E+02 -0.73864650281E+02  0.81250206479E+02  0.19999989174E+01 0.  0.
         13    1    3    3    0    0  0.31910683450E+02 -0.11104853796E+02 -0.11116505871E+02  0.35569612914E+02  0.10566000000E+00 0. -1.
         13    1    4    4    0    0 -0.48963458749E+01  0.11634791236E+01 -0.11040137031E+02  0.12133576402E+02  0.10566000000E+00 0. -1.
        -13    1    4    4    0    0 -0.12272440418E+02  0.41622950347E+01 -0.27021324733E+02  0.29968327417E+02  0.10566000000E+00 0.  1.
         14    1    4    4    0    0 -0.14741897156E+02  0.57790796379E+01 -0.35803188517E+02  0.39148302660E+02  0.00000000000E+00 0. -1.
<mgrwt>
<rscale>  0 0.80156555E+02</rscale>
<asrwt>0</asrwt>
<pdfrwt beam="1">  1        1 0.24491280E-02 0.80156555E+02</pdfrwt>
<pdfrwt beam="2">  1       -2 0.15523152E-01 0.80156555E+02</pdfrwt>
<totfact> 0.10536249E+05</totfact>
</mgrwt>
</event>
<event>
 8    1  0.8577104E-014  0.7528701E+02  0.7818608E-02  0.1342985E+00
         -2   -1    0    0    0  501 -0.00000000000E+00  0.00000000000E+00  0.18415741566E+03  0.18415741568E+03  0.25500000000E-02 0.  1.
          1   -1    0    0  501    0  0.00000000000E+00 -0.00000000000E+00 -0.76946840889E+01  0.76946857395E+01  0.50400000000E-02 0. -1.
        -24    2    1    2    0    0 -0.35527136788E-14 -0.71054273576E-14  0.17646273157E+03  0.19185210142E+03  0.75287005417E+02 0.  0.
         66    2    3    3    0    0 -0.21550028563E+02 -0.30143361734E+02  0.71778260657E+02  0.80803123023E+02  0.19999999169E+01 0.  0.
         13    1    3    3    0    0  0.21550028563E+02  0.30143361734E+02  0.10468447091E+03  0.11104897839E+03  0.10566000000E+00 0. -1.
         13    1    4    4    0    0 -0.16263958997E+01 -0.24380080795E+01  0.61228506026E+01  0.67889255818E+01  0.10566000000E+00 0. -1.
        -13    1    4    4    0    0 -0.10784096279E+01 -0.94596072729E+00  0.28484309689E+01  0.31910079980E+01  0.10566000000E+00 0.  1.
        -14    1    4    4    0    0 -0.18845223036E+02 -0.26759392927E+02  0.62806979085E+02  0.70823189443E+02  0.00000000000E+00 0.  1.
<mgrwt>
<rscale>  0 0.75287005E+02</rscale>
<asrwt>0</asrwt>
<pdfrwt beam="1">  1        1 0.11837976E-02 0.75287005E+02</pdfrwt>
<pdfrwt beam="2">  1       -2 0.28331911E-01 0.75287005E+02</pdfrwt>
<totfact> 0.10274750E+05</totfact>
</mgrwt>
</event>
<event>
 8    1  0.8577104E-014  0.8082102E+02  0.7818608E-02  0.1326738E+00
          1   -1    0    0  501    0  0.00000000000E+00  0.00000000000E+00  0.10713558283E+03  0.10713558294E+03  0.50400000000E-02 0. -1.
         -2   -1    0    0    0  501 -0.00000000000E+00 -0.00000000000E+00 -0.15242453467E+02  0.15242453680E+02  0.25500000000E-02 0.  1.
        -24    2    1    2    0    0  0.71054273576E-14  0.00000000000E+00  0.91893129359E+02  0.12237803663E+03  0.80821015984E+02 0.  0.
         66    2    3    3    0    0 -0.33540933400E+02  0.13597746748E+02  0.18841052098E+02  0.40851905316E+02  0.19999984690E+01 0.  0.
         13    1    3    3    0    0  0.33540933400E+02 -0.13597746748E+02  0.73052077261E+02  0.81526131309E+02  0.10566000000E+00 0. -1.
         13    1    4    4    0    0 -0.99224983269E+01  0.49253130782E+01  0.60795079199E+01  0.12636702994E+02  0.10566000000E+00 0. -1.
        -13    1    4    4    0    0 -0.10967549631E+02  0.41804501297E+01  0.57834529894E+01  0.13085213056E+02  0.10566000000E+00 0.  1.
         14    1    4    4    0    0 -0.12650885441E+02  0.44919835402E+01  0.69780911888E+01  0.15129989267E+02  0.00000000000E+00 0. -1.
<mgrwt>
<rscale>  0 0.80821016E+02</rscale>
<asrwt>0</asrwt>
<pdfrwt beam="1">  1        1 0.16482398E-01 0.80821016E+02</pdfrwt>
<pdfrwt beam="2">  1       -2 0.23449928E-02 0.80821016E+02</pdfrwt>
<totfact> 0.14467629E+05</totfact>
</mgrwt>
</event>
<event>
 8    1  0.8577104E-014  0.8039610E+02  0.7818608E-02  0.1327931E+00
          1   -1    0    0  501    0  0.00000000000E+00  0.00000000000E+00  0.17159392493E+01  0.17159466510E+01  0.50400000000E-02 0. -1.
         -2   -1    0    0    0  501 -0.00000000000E+00 -0.00000000000E+00 -0.94168811736E+03  0.94168811737E+03  0.25500000000E-02 0.  1.
        -24    2    1    2    0    0  0.00000000000E+00 -0.44408920985E-15 -0.93997217811E+03  0.94340406402E+03  0.80396096776E+02 0.  0.
         66    2    3    3    0    0 -0.23268020550E+02  0.16435554987E+01 -0.85407988541E+03  0.85440069798E+03  0.20000005932E+01 0.  0.
         13    1    3    3    0    0  0.23268020550E+02 -0.16435554987E+01 -0.85892292708E+02  0.89003366036E+02  0.10566000000E+00 0. -1.
         13    1    4    4    0    0 -0.14929805821E+02  0.86669787269E+00 -0.52765249973E+03  0.52786439727E+03  0.10566000000E+00 0. -1.
        -13    1    4    4    0    0 -0.30497915674E+01  0.50778087166E+00 -0.10469668668E+03  0.10474238128E+03  0.10566000000E+00 0.  1.
         14    1    4    4    0    0 -0.52884231614E+01  0.26907675436E+00 -0.22173069899E+03  0.22179391943E+03  0.00000000000E+00 0. -1.
<mgrwt>
<rscale>  0 0.80396097E+02</rscale>
<asrwt>0</asrwt>
<pdfrwt beam="1">  1        1 0.26399198E-03 0.80396097E+02</pdfrwt>
<pdfrwt beam="2">  1       -2 0.14487468E+00 0.80396097E+02</pdfrwt>
<totfact> 0.27574883E+04</totfact>
</mgrwt>
</event>
<event>
 8    1  0.8577104E-014  0.7975435E+02  0.7818608E-02  0.1329750E+00
         -2   -1    0    0    0  501 -0.00000000000E+00  0.00000000000E+00  0.11177578802E+03  0.11177578805E+03  0.25500000000E-02 0.  1.
          1   -1    0    0  501    0  0.00000000000E+00 -0.00000000000E+00 -0.14226596747E+02  0.14226597639E+02  0.50400000000E-02 0. -1.
        -24    2    1    2    0    0  0.00000000000E+00  0.00000000000E+00  0.97549191274E+02  0.12600238569E+03  0.79754350860E+02 0.  0.
         66    2    3    3    0    0 -0.22189613995E+02 -0.15408938723E+02  0.95092455530E+02  0.98875626274E+02  0.20000026709E+01 0.  0.
         13    1    3    3    0    0  0.22189613995E+02  0.15408938723E+02  0.24567357449E+01  0.27126759415E+02  0.10566000000E+00 0. -1.
         13    1    4    4    0    0 -0.69936911932E+01 -0.44040941487E+01  0.30975658332E+02  0.32059481201E+02  0.10566000000E+00 0. -1.
        -13    1    4    4    0    0 -0.66670504839E+01 -0.41132158592E+01  0.26607547941E+02  0.27736994760E+02  0.10566000000E+00 0.  1.
        -14    1    4    4    0    0 -0.85288723178E+01 -0.68916287153E+01  0.37509249257E+02  0.39079150313E+02  0.00000000000E+00 0.  1.
<mgrwt>
<rscale>  0 0.79754351E+02</rscale>
<asrwt>0</asrwt>
<pdfrwt beam="1">  1        1 0.21887072E-02 0.79754351E+02</pdfrwt>
<pdfrwt beam="2">  1       -2 0.17196276E-01 0.79754351E+02</pdfrwt>
<totfact> 0.10394515E+05</totfact>
</mgrwt>
</event>
<event>
 8    1  0.8577104E-014  0.7601924E+02  0.7818608E-02  0.1340744E+00
         -2   -1    0    0    0  501 -0.00000000000E+00  0.00000000000E+00  0.27531639243E+01  0.27531651052E+01  0.25500000000E-02 0.  1.
          1   -1    0    0  501    0  0.00000000000E+00 -0.00000000000E+00 -0.52475288657E+03  0.52475288659E+03  0.50400000000E-02 0. -1.
        -24    2    1    2    0    0  0.43368086899E-17  0.00000000000E+00 -0.52199972264E+03  0.52750605170E+03  0.76019235311E+02 0.  0.
         66    2    3    3    0    0  0.43981627460E-02  0.37460134634E+02 -0.30477202224E+03  0.30707205547E+03  0.20000010367E+01 0.  0.
         13    1    3    3    0    0 -0.43981627460E-02 -0.37460134634E+02 -0.21722770040E+03  0.22043399622E+03  0.10566000000E+00 0. -1.
         13    1    4    4    0    0 -0.13203768609E+00  0.10150333228E+02 -0.79162674139E+02  0.79810944359E+02  0.10566000000E+00 0. -1.
        -13    1    4    4    0    0  0.32803397195E+00  0.16484705110E+02 -0.13049310810E+03  0.13153066386E+03  0.10566000000E+00 0.  1.
        -14    1    4    4    0    0 -0.19159812312E+00  0.10825096295E+02 -0.95116240004E+02  0.95730447258E+02  0.00000000000E+00 0.  1.
<mgrwt>
<rscale>  0 0.76019235E+02</rscale>
<asrwt>0</asrwt>
<pdfrwt beam="1">  1        1 0.80731134E-01 0.76019235E+02</pdfrwt>
<pdfrwt beam="2">  1       -2 0.42356419E-03 0.76019235E+02</pdfrwt>
<totfact> 0.22526230E+05</totfact>
</mgrwt>
</event>
<event>
 8    1  0.8577104E-014  0.8019411E+02  0.7818608E-02  0.1328501E+00
         -2   -1    0    0    0  501 -0.00000000000E+00  0.00000000000E+00  0.58772388140E+02  0.58772388195E+02  0.25500000000E-02 0.  1.
          1   -1    0    0  501    0  0.00000000000E+00 -0.00000000000E+00 -0.27355935897E+02  0.27355936361E+02  0.50400000000E-02 0. -1.
        -24    2    1    2    0    0  0.00000000000E+00 -0.71054273576E-14  0.31416452243E+02  0.86128324557E+02  0.80194107137E+02 0.  0.
         66    2    3    3    0    0  0.28955461541E+02 -0.27444225274E+02  0.19760040447E+02  0.44565271806E+02  0.19999996856E+01 0.  0.
         13    1    3    3    0    0 -0.28955461541E+02  0.27444225274E+02  0.11656411796E+02  0.41563052751E+02  0.10566000000E+00 0. -1.
         13    1    4    4    0    0  0.91934528930E+01 -0.88619109442E+01  0.69309979598E+01  0.14529381901E+02  0.10566000000E+00 0.  1.
        -13    1    4    4    0    0  0.17331214878E+02 -0.16856435634E+02  0.11385760385E+02  0.26723718585E+02  0.10566000000E+00 0. -1.
         14    1    4    4    0    0  0.24307937701E+01 -0.17258786953E+01  0.14432821016E+01  0.33121713193E+01  0.00000000000E+00 0. -1.
<mgrwt>
<rscale>  0 0.80194107E+02</rscale>
<asrwt>0</asrwt>
<pdfrwt beam="1">  1        1 0.42086056E-02 0.80194107E+02</pdfrwt>
<pdfrwt beam="2">  1       -2 0.90419058E-02 0.80194107E+02</pdfrwt>
<totfact> 0.11811896E+05</totfact>
</mgrwt>
</event>
<event>
 8    1  0.8577104E-014  0.7642341E+02  0.7818608E-02  0.1339519E+00
          1   -1    0    0  501    0  0.00000000000E+00  0.00000000000E+00  0.33237328864E+02  0.33237329246E+02  0.50400000000E-02 0. -1.
         -2   -1    0    0    0  501 -0.00000000000E+00 -0.00000000000E+00 -0.43930555153E+02  0.43930555227E+02  0.25500000000E-02 0.  1.
        -24    2    1    2    0    0 -0.17763568394E-14  0.00000000000E+00 -0.10693226290E+02  0.77167884473E+02  0.76423408100E+02 0.  0.
         66    2    3    3    0    0  0.15741044398E+02 -0.15020770734E+02 -0.37036289753E+02  0.43001055693E+02  0.19999999553E+01 0.  0.
         13    1    3    3    0    0 -0.15741044398E+02  0.15020770734E+02  0.26343063464E+02  0.34166828780E+02  0.10566000000E+00 0. -1.
         13    1    4    4    0    0  0.10585703157E+01 -0.16719390084E+01 -0.28930433535E+01  0.35066814857E+01  0.10566000000E+00 0.  1.
        -13    1    4    4    0    0  0.70143225748E+01 -0.66241086512E+01 -0.16251553574E+02  0.18899833180E+02  0.10566000000E+00 0.  1.
         14    1    4    4    0    0  0.76681515077E+01 -0.67247230748E+01 -0.17891692826E+02  0.20594541028E+02  0.00000000000E+00 0. -1.
<mgrwt>
<rscale>  0 0.76423408E+02</rscale>
<asrwt>0</asrwt>
<pdfrwt beam="1">  1        1 0.51134352E-02 0.76423408E+02</pdfrwt>
<pdfrwt beam="2">  1       -2 0.67585470E-02 0.76423408E+02</pdfrwt>
<totfact> 0.14019556E+05</totfact>
</mgrwt>
</event>
<event>
 8    1  0.8577104E-014  0.7913018E+02  0.7818608E-02  0.1331538E+00
          1   -1    0    0  501    0  0.00000000000E+00  0.00000000000E+00  0.79637668459E+01  0.79637684407E+01  0.50400000000E-02 0. -1.
         -2   -1    0    0    0  501 -0.00000000000E+00 -0.00000000000E+00 -0.19656477367E+03  0.19656477368E+03  0.25500000000E-02 0.  1.
        -24    2    1    2    0    0  0.00000000000E+00 -0.71054273576E-14 -0.18860100682E+03  0.20452854212E+03  0.79130176099E+02 0.  0.
         66    2    3    3    0    0  0.86890245300E+00  0.39482891528E+02 -0.89363633258E+02  0.97721607936E+02  0.19999984289E+01 0.  0.
         13    1    3    3    0    0 -0.86890245300E+00 -0.39482891528E+02 -0.99237373562E+02  0.10680693419E+03  0.10566000000E+00 0. -1.
         13    1    4    4    0    0  0.62696343436E+00  0.20835467003E+02 -0.47384370002E+02  0.51766779433E+02  0.10566000000E+00 0.  1.
        -13    1    4    4    0    0  0.53863734830E+00  0.58061138818E+01 -0.14123505210E+02  0.15280237304E+02  0.10566000000E+00 0. -1.
         14    1    4    4    0    0 -0.29669832967E+00  0.12841310643E+02 -0.27855758046E+02  0.30674591199E+02  0.00000000000E+00 0. -1.
<mgrwt>
<rscale>  0 0.79130176E+02</rscale>
<asrwt>0</asrwt>
<pdfrwt beam="1">  1        1 0.12251952E-02 0.79130176E+02</pdfrwt>
<pdfrwt beam="2">  1       -2 0.30240731E-01 0.79130176E+02</pdfrwt>
<totfact> 0.88121611E+04</totfact>
</mgrwt>
</event>
<event>
 8    1  0.8577104E-014  0.8675181E+02  0.7818608E-02  0.1310914E+00
         -2   -1    0    0    0  501 -0.00000000000E+00  0.00000000000E+00  0.85656304024E+01  0.85656307820E+01  0.25500000000E-02 0.  1.
          1   -1    0    0  501    0  0.00000000000E+00 -0.00000000000E+00 -0.21965329699E+03  0.21965329705E+03  0.50400000000E-02 0. -1.
        -24    2    1    2    0    0  0.00000000000E+00  0.35527136788E-14 -0.21108766659E+03  0.22821892783E+03  0.86751807096E+02 0.  0.
         66    2    3    3    0    0 -0.11789661506E+02 -0.30743660514E+02 -0.31411150926E+02  0.45550292797E+02  0.19999977930E+01 0.  0.
         13    1    3    3    0    0  0.11789661506E+02  0.30743660514E+02 -0.17967651566E+03  0.18266863503E+03  0.10566000000E+00 0. -1.
         13    1    4    4    0    0 -0.11028342985E+01 -0.27372159266E+01 -0.24618342025E+01  0.38445267842E+01  0.10566000000E+00 0. -1.
        -13    1    4    4    0    0 -0.62814447672E+01 -0.18428181650E+02 -0.18279338998E+02  0.26705801346E+02  0.10566000000E+00 0.  1.
        -14    1    4    4    0    0 -0.44053824406E+01 -0.95782629379E+01 -0.10669977726E+02  0.14999964667E+02  0.00000000000E+00 0.  1.
<mgrwt>
<rscale>  0 0.86751807E+02</rscale>
<asrwt>0</asrwt>
<pdfrwt beam="1">  1        1 0.33792811E-01 0.86751807E+02</pdfrwt>
<pdfrwt beam="2">  1       -2 0.13177895E-02 0.86751807E+02</pdfrwt>
<totfact> 0.13686413E+05</totfact>
</mgrwt>
</event>
<event>
 8    1  0.8577104E-014  0.7912850E+02  0.7818608E-02  0.1331543E+00
         -2   -1    0    0    0  501 -0.00000000000E+00  0.00000000000E+00  0.91014516546E+02  0.91014516581E+02  0.25500000000E-02 0.  1.
          1   -1    0    0  501    0  0.00000000000E+00 -0.00000000000E+00 -0.17198682576E+02  0.17198683314E+02  0.50400000000E-02 0. -1.
        -24    2    1    2    0    0  0.35527136788E-14  0.35527136788E-14  0.73815833970E+02  0.10821319990E+03  0.79128498577E+02 0.  0.
         66    2    3    3    0    0 -0.20481008029E+02 -0.22500839445E+02  0.71462471958E+02  0.77695845122E+02  0.19999963101E+01 0.  0.
         13    1    3    3    0    0  0.20481008029E+02  0.22500839445E+02  0.23533620116E+01  0.30517354774E+02  0.10566000000E+00 0. -1.
         13    1    4    4    0    0 -0.75672229049E+01 -0.77919522020E+01  0.27335398598E+02  0.29414495783E+02  0.10566000000E+00 0. -1.
        -13    1    4    4    0    0 -0.10628150052E+02 -0.12403015465E+02  0.37427672862E+02  0.40836677461E+02  0.10566000000E+00 0.  1.
         14    1    4    4    0    0 -0.22856350716E+01 -0.23058717784E+01  0.66994004975E+01  0.74446718776E+01  0.00000000000E+00 0. -1.
<mgrwt>
<rscale>  0 0.79128499E+02</rscale>
<asrwt>0</asrwt>
<pdfrwt beam="1">  1        1 0.26459512E-02 0.79128499E+02</pdfrwt>
<pdfrwt beam="2">  1       -2 0.14002234E-01 0.79128499E+02</pdfrwt>
<totfact> 0.11164484E+05</totfact>
</mgrwt>
</event>
<event>
 8    1  0.8577104E-014  0.7871237E+02  0.7818608E-02  0.1332746E+00
         -2   -1    0    0    0  501 -0.00000000000E+00  0.00000000000E+00  0.44452909434E+03  0.44452909434E+03  0.25500000000E-02 0.  1.
          1   -1    0    0  501    0  0.00000000000E+00 -0.00000000000E+00 -0.34843803640E+01  0.34843840091E+01  0.50400000000E-02 0. -1.
        -24    2    1    2    0    0  0.35527136788E-14 -0.35527136788E-14  0.44104471397E+03  0.44801347835E+03  0.78712369186E+02 0.  0.
         66    2    3    3    0    0 -0.28891694803E+02  0.25614251747E+02  0.26328980687E+03  0.26611340116E+03  0.19999880436E+01 0.  0.
         13    1    3    3    0    0  0.28891694803E+02 -0.25614251747E+02  0.17775490710E+03  0.18190007720E+03  0.10566000000E+00 0. -1.
         13    1    4    4    0    0 -0.13112607575E+02  0.12209047179E+02  0.11926664449E+03  0.12060491268E+03  0.10566000000E+00 0. -1.
        -13    1    4    4    0    0 -0.13866929087E+02  0.11280448249E+02  0.12502452793E+03  0.12629601729E+03  0.10566000000E+00 0.  1.
        -14    1    4    4    0    0 -0.19121581408E+01  0.21247563187E+01  0.18998634453E+02  0.19212471190E+02  0.00000000000E+00 0.  1.
<mgrwt>
<rscale>  0 0.78712369E+02</rscale>
<asrwt>0</asrwt>
<pdfrwt beam="1">  1        1 0.53605921E-03 0.78712369E+02</pdfrwt>
<pdfrwt beam="2">  1       -2 0.68389039E-01 0.78712369E+02</pdfrwt>
<totfact> 0.57313555E+04</totfact>
</mgrwt>
</event>
<event>
 8    1  0.8577104E-014  0.8074571E+02  0.7818608E-02  0.1326948E+00
          1   -1    0    0  501    0  0.00000000000E+00  0.00000000000E+00  0.21060454501E+03  0.21060454507E+03  0.50400000000E-02 0. -1.
         -2   -1    0    0    0  501 -0.00000000000E+00 -0.00000000000E+00 -0.77394689277E+01  0.77394693478E+01  0.25500000000E-02 0.  1.
        -24    2    1    2    0    0  0.00000000000E+00  0.00000000000E+00  0.20286507608E+03  0.21834401442E+03  0.80745709101E+02 0.  0.
         66    2    3    3    0    0  0.43699034633E+01  0.29041475696E+02  0.26680604087E+02  0.39728553992E+02  0.20000002417E+01 0.  0.
         13    1    3    3    0    0 -0.43699034633E+01 -0.29041475696E+02  0.17618447199E+03  0.17861546042E+03  0.10566000000E+00 0. -1.
         13    1    4    4    0    0  0.53784957616E-01  0.17206928344E+01  0.16561213176E+01  0.23911458563E+01  0.10566000000E+00 0. -1.
        -13    1    4    4    0    0  0.36849531735E+00  0.45113840597E+01  0.48003410266E+01  0.65986978216E+01  0.10566000000E+00 0.  1.
        -14    1    4    4    0    0  0.39476231883E+01  0.22809398802E+02  0.20224141743E+02  0.30738710314E+02  0.00000000000E+00 0.  1.
<mgrwt>
<rscale>  0 0.80745709E+02</rscale>
<asrwt>0</asrwt>
<pdfrwt beam="1">  1        1 0.32400700E-01 0.80745709E+02</pdfrwt>
<pdfrwt beam="2">  1       -2 0.11906875E-02 0.80745709E+02</pdfrwt>
<totfact> 0.16432665E+05</totfact>
</mgrwt>
</event>
<event>
 8    1  0.8577104E-014  0.8038008E+02  0.7818608E-02  0.1327976E+00
          1   -1    0    0  501    0  0.00000000000E+00  0.00000000000E+00  0.34145066425E+03  0.34145066429E+03  0.50400000000E-02 0. -1.
         -2   -1    0    0    0  501 -0.00000000000E+00 -0.00000000000E+00 -0.47305195050E+01  0.47305201923E+01  0.25500000000E-02 0.  1.
        -24    2    1    2    0    0  0.00000000000E+00  0.00000000000E+00  0.33672014475E+03  0.34618118448E+03  0.80380075956E+02 0.  0.
         66    2    3    3    0    0  0.20811073856E+02  0.31982841395E+02  0.11446019445E+03  0.12066954485E+03  0.20000005941E+01 0.  0.
         13    1    3    3    0    0 -0.20811073856E+02 -0.31982841395E+02  0.22225995030E+03  0.22551163963E+03  0.10566000000E+00 0. -1.
         13    1    4    4    0    0  0.23599459094E+01  0.31155862460E+01  0.11195945381E+02  0.11859029445E+02  0.10566000000E+00 0. -1.
        -13    1    4    4    0    0  0.84682420916E+01  0.14095016742E+02  0.47539537010E+02  0.50303075098E+02  0.10566000000E+00 0.  1.
         14    1    4    4    0    0  0.99828858552E+01  0.14772238406E+02  0.55724712061E+02  0.58507440311E+02  0.00000000000E+00 0. -1.
<mgrwt>
<rscale>  0 0.80380076E+02</rscale>
<asrwt>0</asrwt>
<pdfrwt beam="1">  1        1 0.52530876E-01 0.80380076E+02</pdfrwt>
<pdfrwt beam="2">  1       -2 0.72777223E-03 0.80380076E+02</pdfrwt>
<totfact> 0.18251951E+05</totfact>
</mgrwt>
</event>
<event>
 8    1  0.8577104E-014  0.7789996E+02  0.7818608E-02  0.1335119E+00
         -2   -1    0    0    0  501 -0.00000000000E+00  0.00000000000E+00  0.50419638557E+01  0.50419645005E+01  0.25500000000E-02 0.  1.
          1   -1    0    0  501    0  0.00000000000E+00 -0.00000000000E+00 -0.30089486280E+03  0.30089486284E+03  0.50400000000E-02 0. -1.
        -24    2    1    2    0    0  0.35527136788E-14  0.00000000000E+00 -0.29585289894E+03  0.30593682734E+03  0.77899964768E+02 0.  0.
         66    2    3    3    0    0  0.30052360302E+02  0.22214239177E+02 -0.10527566795E+03  0.11172995589E+03  0.19999997265E+01 0.  0.
         13    1    3    3    0    0 -0.30052360302E+02 -0.22214239177E+02 -0.19057723099E+03  0.19420687145E+03  0.10566000000E+00 0. -1.
         13    1    4    4    0    0  0.23921185494E+02  0.17176396035E+02 -0.82577688875E+02  0.87671760335E+02  0.10566000000E+00 0. -1.
        -13    1    4    4    0    0  0.58532641342E+01  0.45971908800E+01 -0.21492177132E+02  0.22744663263E+02  0.10566000000E+00 0.  1.
         14    1    4    4    0    0  0.27791067456E+00  0.44065226275E+00 -0.12058019427E+01  0.13135322930E+01  0.00000000000E+00 0. -1.
<mgrwt>
<rscale>  0 0.77899965E+02</rscale>
<asrwt>0</asrwt>
<pdfrwt beam="1">  1        1 0.46291504E-01 0.77899965E+02</pdfrwt>
<pdfrwt beam="2">  1       -2 0.77568703E-03 0.77899965E+02</pdfrwt>
<totfact> 0.19361310E+05</totfact>
</mgrwt>
</event>
<event>
 8    1  0.8577104E-014  0.7843189E+02  0.7818608E-02  0.1333561E+00
         -2   -1    0    0    0  501 -0.00000000000E+00  0.00000000000E+00  0.70973840635E+03  0.70973840635E+03  0.25500000000E-02 0.  1.
          1   -1    0    0  501    0  0.00000000000E+00 -0.00000000000E+00 -0.21668379816E+01  0.21668438431E+01  0.50400000000E-02 0. -1.
        -24    2    1    2    0    0 -0.88817841970E-15  0.00000000000E+00  0.70757156837E+03  0.71190525020E+03  0.78431886983E+02 0.  0.
         66    2    3    3    0    0  0.73005631998E+01  0.33628219987E+02  0.52424443107E+03  0.52537641640E+03  0.20000006353E+01 0.  0.
         13    1    3    3    0    0 -0.73005631998E+01 -0.33628219987E+02  0.18332713730E+03  0.18652883380E+03  0.10566000000E+00 0. -1.
         13    1    4    4    0    0  0.67015225421E+00  0.61179318186E+01  0.93699456231E+02  0.93901424142E+02  0.10566000000E+00 0. -1.
        -13    1    4    4    0    0  0.49696076828E+01  0.19135143120E+02  0.29666443100E+03  0.29732246213E+03  0.10566000000E+00 0.  1.
        -14    1    4    4    0    0  0.16608032627E+01  0.83751450483E+01  0.13388054384E+03  0.13415253013E+03  0.00000000000E+00 0.  1.
<mgrwt>
<rscale>  0 0.78431887E+02</rscale>
<asrwt>0</asrwt>
<pdfrwt beam="1">  1        1 0.33336010E-03 0.78431887E+02</pdfrwt>
<pdfrwt beam="2">  1       -2 0.10919054E+00 0.78431887E+02</pdfrwt>
<totfact> 0.39309450E+04</totfact>
</mgrwt>
</event>
<event>
 8    1  0.8577104E-014  0.7779546E+02  0.7818608E-02  0.1335427E+00
         -2   -1    0    0    0  501 -0.00000000000E+00  0.00000000000E+00  0.48353964232E+02  0.48353964299E+02  0.25500000000E-02 0.  1.
          1   -1    0    0  501    0  0.00000000000E+00 -0.00000000000E+00 -0.31290784950E+02  0.31290785355E+02  0.50400000000E-02 0. -1.
        -24    2    1    2    0    0  0.88817841970E-15 -0.17763568394E-14  0.17063179282E+02  0.79644749654E+02  0.77795462980E+02 0.  0.
         66    2    3    3    0    0  0.54934321760E+01  0.11097413144E+02  0.46260063353E+02  0.47930406227E+02  0.20000010146E+01 0.  0.
         13    1    3    3    0    0 -0.54934321760E+01 -0.11097413144E+02 -0.29196884071E+02  0.31714343428E+02  0.10566000000E+00 0. -1.
         13    1    4    4    0    0  0.13537933267E+00  0.45020976661E+00  0.10517781141E+01  0.11569000106E+01  0.10566000000E+00 0. -1.
        -13    1    4    4    0    0  0.10045184179E+01  0.33180036053E+01  0.13742203380E+02  0.14173126788E+02  0.10566000000E+00 0.  1.
         14    1    4    4    0    0  0.43535344255E+01  0.73291997725E+01  0.31466081859E+02  0.32600379428E+02  0.00000000000E+00 0. -1.
<mgrwt>
<rscale>  0 0.77795463E+02</rscale>
<asrwt>0</asrwt>
<pdfrwt beam="1">  1        1 0.48139670E-02 0.77795463E+02</pdfrwt>
<pdfrwt beam="2">  1       -2 0.74390714E-02 0.77795463E+02</pdfrwt>
<totfact> 0.13197157E+05</totfact>
</mgrwt>
</event>
<event>
 8    1  0.8577104E-014  0.7952015E+02  0.7818608E-02  0.1330419E+00
         -2   -1    0    0    0  501 -0.00000000000E+00  0.00000000000E+00  0.15631627596E+03  0.15631627598E+03  0.25500000000E-02 0.  1.
          1   -1    0    0  501    0  0.00000000000E+00 -0.00000000000E+00 -0.10113236722E+02  0.10113237977E+02  0.50400000000E-02 0. -1.
        -24    2    1    2    0    0  0.00000000000E+00 -0.71054273576E-14  0.14620303924E+03  0.16642951396E+03  0.79520151118E+02 0.  0.
         66    2    3    3    0    0  0.16397256715E+02 -0.36185753286E+02  0.71553871030E+02  0.81867180459E+02  0.20000020497E+01 0.  0.
         13    1    3    3    0    0 -0.16397256715E+02  0.36185753286E+02  0.74649168208E+02  0.84562333500E+02  0.10566000000E+00 0. -1.
         13    1    4    4    0    0  0.26741013255E+00 -0.59166031592E+00  0.13284841208E+01  0.14824318545E+01  0.10566000000E+00 0. -1.
        -13    1    4    4    0    0  0.58833603379E+01 -0.11109840668E+02  0.23019008785E+02  0.26228389543E+02  0.10566000000E+00 0.  1.
        -14    1    4    4    0    0  0.10246486244E+02 -0.24484252303E+02  0.47206378124E+02  0.54156359061E+02  0.00000000000E+00 0.  1.
<mgrwt>
<rscale>  0 0.79520151E+02</rscale>
<asrwt>0</asrwt>
<pdfrwt beam="1">  1        1 0.15558828E-02 0.79520151E+02</pdfrwt>
<pdfrwt beam="2">  1       -2 0.24048656E-01 0.79520151E+02</pdfrwt>
<totfact> 0.94674177E+04</totfact>
</mgrwt>
</event>
<event>
 8    1  0.8577104E-014  0.8134003E+02  0.7818608E-02  0.1325291E+00
          1   -1    0    0  501    0  0.00000000000E+00  0.00000000000E+00  0.89894485964E+01  0.89894500093E+01  0.50400000000E-02 0. -1.
         -2   -1    0    0    0  501 -0.00000000000E+00 -0.00000000000E+00 -0.18399906242E+03  0.18399906244E+03  0.25500000000E-02 0.  1.
        -24    2    1    2    0    0  0.00000000000E+00  0.00000000000E+00 -0.17500961383E+03  0.19298851245E+03  0.81340033230E+02 0.  0.
         66    2    3    3    0    0 -0.14882241163E+02 -0.15693958124E+02 -0.16920665256E+03  0.17059505476E+03  0.20000040953E+01 0.  0.
         13    1    3    3    0    0  0.14882241163E+02  0.15693958124E+02 -0.58029612699E+01  0.22393457687E+02  0.10566000000E+00 0. -1.
         13    1    4    4    0    0 -0.11419006217E+01 -0.15509506052E+01 -0.16389838711E+02  0.16502950095E+02  0.10566000000E+00 0. -1.
        -13    1    4    4    0    0 -0.49549152938E+01 -0.42765251567E+01 -0.54468849452E+02  0.54860792718E+02  0.10566000000E+00 0.  1.
        -14    1    4    4    0    0 -0.87854252480E+01 -0.98664823624E+01 -0.98347964394E+02  0.99231311950E+02  0.00000000000E+00 0.  1.
<mgrwt>
<rscale>  0 0.81340033E+02</rscale>
<asrwt>0</asrwt>
<pdfrwt beam="1">  1        1 0.13829923E-02 0.81340033E+02</pdfrwt>
<pdfrwt beam="2">  1       -2 0.28307545E-01 0.81340033E+02</pdfrwt>
<totfact> 0.84227541E+04</totfact>
</mgrwt>
</event>
<event>
 8    1  0.8577104E-014  0.7860341E+02  0.7818608E-02  0.1333062E+00
          1   -1    0    0  501    0  0.00000000000E+00  0.00000000000E+00  0.29625486783E+02  0.29625487212E+02  0.50400000000E-02 0. -1.
         -2   -1    0    0    0  501 -0.00000000000E+00 -0.00000000000E+00 -0.52138351867E+02  0.52138351929E+02  0.25500000000E-02 0.  1.
        -24    2    1    2    0    0  0.17763568394E-14  0.00000000000E+00 -0.22512865084E+02  0.81763839141E+02  0.78603411483E+02 0.  0.
         66    2    3    3    0    0  0.10132510357E+02 -0.35943383963E+02  0.13920159979E+01  0.37423686678E+02  0.19999997886E+01 0.  0.
         13    1    3    3    0    0 -0.10132510357E+02  0.35943383963E+02 -0.23904881082E+02  0.44340152463E+02  0.10566000000E+00 0. -1.
         13    1    4    4    0    0  0.33147967446E+01 -0.12831858889E+02  0.47537370261E+00  0.13262036956E+02  0.10566000000E+00 0.  1.
        -13    1    4    4    0    0  0.55525036375E+01 -0.17438637538E+02  0.12139358005E+01  0.18341787808E+02  0.10566000000E+00 0.  1.
        -14    1    4    4    0    0  0.12652099749E+01 -0.56728875356E+01 -0.29729350517E+00  0.58198619142E+01  0.00000000000E+00 0.  1.
<mgrwt>
<rscale>  0 0.78603411E+02</rscale>
<asrwt>0</asrwt>
<pdfrwt beam="1">  1        1 0.45577673E-02 0.78603411E+02</pdfrwt>
<pdfrwt beam="2">  1       -2 0.80212849E-02 0.78603411E+02</pdfrwt>
<totfact> 0.12693826E+05</totfact>
</mgrwt>
</event>
<event>
 8    1  0.8577104E-014  0.8006604E+02  0.7818608E-02  0.1328864E+00
         -2   -1    0    0    0  501 -0.00000000000E+00  0.00000000000E+00  0.16069801407E+02  0.16069801610E+02  0.25500000000E-02 0.  1.
          1   -1    0    0  501    0  0.00000000000E+00 -0.00000000000E+00 -0.99730081919E+02  0.99730082046E+02  0.50400000000E-02 0. -1.
        -24    2    1    2    0    0  0.00000000000E+00  0.35527136788E-14 -0.83660280512E+02  0.11579988366E+03  0.80066038490E+02 0.  0.
         66    2    3    3    0    0  0.29787250147E+02 -0.17819722359E+02 -0.13081796394E+02  0.37147761239E+02  0.19999979713E+01 0.  0.
         13    1    3    3    0    0 -0.29787250147E+02  0.17819722359E+02 -0.70578484118E+02  0.78652122417E+02  0.10566000000E+00 0. -1.
         13    1    4    4    0    0  0.17721316422E+02 -0.98697919634E+01 -0.72674552306E+01  0.21547271723E+02  0.10566000000E+00 0.  1.
        -13    1    4    4    0    0  0.12355122657E+01 -0.58317183688E+00 -0.70344847012E+00  0.15403193616E+01  0.10566000000E+00 0. -1.
         14    1    4    4    0    0  0.10830421459E+02 -0.73667585584E+01 -0.51108926929E+01  0.14060170154E+02  0.00000000000E+00 0. -1.
<mgrwt>
<rscale>  0 0.80066038E+02</rscale>
<asrwt>0</asrwt>
<pdfrwt beam="1">  1        1 0.15343089E-01 0.80066038E+02</pdfrwt>
<pdfrwt beam="2">  1       -2 0.24722772E-02 0.80066038E+02</pdfrwt>
<totfact> 0.14659708E+05</totfact>
</mgrwt>
</event>
<event>
 8    1  0.8577104E-014  0.8099631E+02  0.7818608E-02  0.1326248E+00
          1   -1    0    0  501    0  0.00000000000E+00  0.00000000000E+00  0.40941510785E+02  0.40941511095E+02  0.50400000000E-02 0. -1.
         -2   -1    0    0    0  501 -0.00000000000E+00 -0.00000000000E+00 -0.40059601775E+02  0.40059601856E+02  0.25500000000E-02 0.  1.
        -24    2    1    2    0    0  0.17763568394E-14  0.00000000000E+00  0.88190900979E+00  0.81001112951E+02  0.80996311866E+02 0.  0.
         66    2    3    3    0    0 -0.11250990946E+02 -0.98506787374E+01 -0.37170513517E+02  0.40115679200E+02  0.19999934276E+01 0.  0.
         13    1    3    3    0    0  0.11250990946E+02  0.98506787374E+01  0.38052422527E+02  0.40885433751E+02  0.10566000000E+00 0. -1.
         13    1    4    4    0    0 -0.38106648982E+01 -0.40350495351E+01 -0.12644648185E+02  0.13809456306E+02  0.10566000000E+00 0. -1.
        -13    1    4    4    0    0 -0.60257118009E+01 -0.45657317697E+01 -0.18298093572E+02  0.19798648987E+02  0.10566000000E+00 0.  1.
         14    1    4    4    0    0 -0.14146142469E+01 -0.12498974327E+01 -0.62277717592E+01  0.65075739062E+01  0.00000000000E+00 0. -1.
<mgrwt>
<rscale>  0 0.80996312E+02</rscale>
<asrwt>0</asrwt>
<pdfrwt beam="1">  1        1 0.62986940E-02 0.80996312E+02</pdfrwt>
<pdfrwt beam="2">  1       -2 0.61630157E-02 0.80996312E+02</pdfrwt>
<totfact> 0.12308834E+05</totfact>
</mgrwt>
</event>
<event>
 8    1  0.8577104E-014  0.8145844E+02  0.7818608E-02  0.1324963E+00
          1   -1    0    0  501    0  0.00000000000E+00  0.00000000000E+00  0.10682448204E+03  0.10682448216E+03  0.50400000000E-02 0. -1.
         -2   -1    0    0    0  501 -0.00000000000E+00 -0.00000000000E+00 -0.15528926361E+02  0.15528926571E+02  0.25500000000E-02 0.  1.
        -24    2    1    2    0    0 -0.35527136788E-14 -0.44408920985E-15  0.91295555684E+02  0.12235340873E+03  0.81458444261E+02 0.  0.
         66    2    3    3    0    0  0.18405817237E+02 -0.33768624189E+01 -0.86205258881E+01  0.20700018095E+02  0.19999936458E+01 0.  0.
         13    1    3    3    0    0 -0.18405817237E+02  0.33768624189E+01  0.99916081572E+02  0.10165339064E+03  0.10566000000E+00 0. -1.
         13    1    4    4    0    0  0.42876196475E+01 -0.15445467701E+00 -0.22225153776E+01  0.48330401538E+01  0.10566000000E+00 0. -1.
        -13    1    4    4    0    0  0.19677061584E+01 -0.48324689660E+00 -0.52152710654E+00  0.20948865476E+01  0.10566000000E+00 0.  1.
        -14    1    4    4    0    0  0.12150491431E+02 -0.27391608453E+01 -0.58764834039E+01  0.13772091393E+02  0.00000000000E+00 0.  1.
<mgrwt>
<rscale>  0 0.81458444E+02</rscale>
<asrwt>0</asrwt>
<pdfrwt beam="1">  1        1 0.16434537E-01 0.81458444E+02</pdfrwt>
<pdfrwt beam="2">  1       -2 0.23890655E-02 0.81458444E+02</pdfrwt>
<totfact> 0.14156694E+05</totfact>
</mgrwt>
</event>
<event>
 8    1  0.8577104E-014  0.8004454E+02  0.7818608E-02  0.1328925E+00
          1   -1    0    0  501    0  0.00000000000E+00  0.00000000000E+00  0.13194291342E+03  0.13194291351E+03  0.50400000000E-02 0. -1.
         -2   -1    0    0    0  501 -0.00000000000E+00 -0.00000000000E+00 -0.12139962310E+02  0.12139962578E+02  0.25500000000E-02 0.  1.
        -24    2    1    2    0    0 -0.71054273576E-14 -0.44408920985E-15  0.11980295111E+03  0.14408287609E+03  0.80044538158E+02 0.  0.
         66    2    3    3    0    0  0.33089620537E+02  0.38068523429E+01  0.20078607098E+02  0.38943106908E+02  0.20000001430E+01 0.  0.
         13    1    3    3    0    0 -0.33089620537E+02 -0.38068523429E+01  0.99724344007E+02  0.10513976918E+03  0.10566000000E+00 0. -1.
         13    1    4    4    0    0  0.99709642026E+00  0.83700326338E-01  0.37183451650E+00  0.10726751415E+01  0.10566000000E+00 0. -1.
        -13    1    4    4    0    0  0.26027722120E+02  0.35565222475E+01  0.16178572242E+02  0.30852042608E+02  0.10566000000E+00 0.  1.
         14    1    4    4    0    0  0.60648019971E+01  0.16662976903E+00  0.35282003398E+01  0.70183891586E+01  0.00000000000E+00 0. -1.
<mgrwt>
<rscale>  0 0.80044538E+02</rscale>
<asrwt>0</asrwt>
<pdfrwt beam="1">  1        1 0.20298910E-01 0.80044538E+02</pdfrwt>
<pdfrwt beam="2">  1       -2 0.18676865E-02 0.80044538E+02</pdfrwt>
<totfact> 0.15401037E+05</totfact>
</mgrwt>
</event>
<event>
 8    1  0.8577104E-014  0.7936442E+02  0.7818608E-02  0.1330865E+00
         -2   -1    0    0    0  501 -0.00000000000E+00  0.00000000000E+00  0.42871713592E+03  0.42871713593E+03  0.25500000000E-02 0.  1.
          1   -1    0    0  501    0  0.00000000000E+00 -0.00000000000E+00 -0.36729975513E+01  0.36730010092E+01  0.50400000000E-02 0. -1.
        -24    2    1    2    0    0  0.00000000000E+00  0.00000000000E+00  0.42504413837E+03  0.43239013694E+03  0.79364418719E+02 0.  0.
         66    2    3    3    0    0 -0.59557351047E+01  0.39169601414E+02  0.20330812080E+03  0.20714227101E+03  0.19999995738E+01 0.  0.
         13    1    3    3    0    0  0.59557351047E+01 -0.39169601414E+02  0.22173601757E+03  0.22524786593E+03  0.10566000000E+00 0. -1.
         13    1    4    4    0    0 -0.11665293124E+01  0.90124809194E+01  0.44060996765E+02  0.44988534127E+02  0.10566000000E+00 0. -1.
        -13    1    4    4    0    0 -0.19505838433E+01  0.15829138856E+02  0.81176699030E+02  0.82728677275E+02  0.10566000000E+00 0.  1.
         14    1    4    4    0    0 -0.28386219491E+01  0.14327981638E+02  0.78070425007E+02  0.79425059605E+02  0.00000000000E+00 0. -1.
<mgrwt>
<rscale>  0 0.79364419E+02</rscale>
<asrwt>0</asrwt>
<pdfrwt beam="1">  1        1 0.56507689E-03 0.79364419E+02</pdfrwt>
<pdfrwt beam="2">  1       -2 0.65956474E-01 0.79364419E+02</pdfrwt>
<totfact> 0.57551995E+04</totfact>
</mgrwt>
</event>
<event>
 8    1  0.8577104E-014  0.8141797E+02  0.7818608E-02  0.1325075E+00
         -2   -1    0    0    0  501 -0.00000000000E+00  0.00000000000E+00  0.20276807678E+02  0.20276807838E+02  0.25500000000E-02 0.  1.
          1   -1    0    0  501    0  0.00000000000E+00 -0.00000000000E+00 -0.81729900737E+02  0.81729900892E+02  0.50400000000E-02 0. -1.
        -24    2    1    2    0    0 -0.35527136788E-14  0.17763568394E-14 -0.61453093059E+02  0.10200670873E+03  0.81417970863E+02 0.  0.
         66    2    3    3    0    0 -0.28215625921E+02  0.13109511388E+02  0.20993623389E+01  0.31247210526E+02  0.20000021258E+01 0.  0.
         13    1    3    3    0    0  0.28215625921E+02 -0.13109511388E+02 -0.63552455398E+02  0.70759498204E+02  0.10566000000E+00 0. -1.
         13    1    4    4    0    0 -0.92692758231E+00  0.14875739346E+00 -0.44236489387E-01  0.94575071110E+00  0.10566000000E+00 0. -1.
        -13    1    4    4    0    0 -0.95987681313E+01  0.43462248182E+01  0.11574175235E+01  0.10600792384E+02  0.10566000000E+00 0.  1.
         14    1    4    4    0    0 -0.17689930207E+02  0.86145291765E+01  0.98618130473E+00  0.19700667431E+02  0.00000000000E+00 0. -1.
<mgrwt>
<rscale>  0 0.81417971E+02</rscale>
<asrwt>0</asrwt>
<pdfrwt beam="1">  1        1 0.12573831E-01 0.81417971E+02</pdfrwt>
<pdfrwt beam="2">  1       -2 0.31195089E-02 0.81417971E+02</pdfrwt>
<totfact> 0.13553697E+05</totfact>
</mgrwt>
</event>
<event>
 8    1  0.9219872E-014  0.8034647E+02  0.7818608E-02  0.1328071E+00
          1   -1    0    0  501    0  0.00000000000E+00  0.00000000000E+00  0.31456098109E+02  0.31456098513E+02  0.50400000000E-02 0. -1.
         -2   -1    0    0    0  501 -0.00000000000E+00 -0.00000000000E+00 -0.51306067358E+02  0.51306067422E+02  0.25500000000E-02 0.  1.
        -24    2    1    2    0    0  0.00000000000E+00  0.00000000000E+00 -0.19849969249E+02  0.82762165935E+02  0.80346467446E+02 0.  0.
         66    2    3    3    0    0  0.18996018372E+02 -0.96424563108E+01 -0.44984523763E+02  0.49813984311E+02  0.19999942622E+01 0.  0.
         13    1    3    3    0    0 -0.18996018372E+02  0.96424563108E+01  0.25134554513E+02  0.32948181624E+02  0.10566000000E+00 0. -1.
         13    1    4    4    0    0  0.98572840398E+01 -0.48556904200E+01 -0.22524739547E+02  0.25062299052E+02  0.10566000000E+00 0. -1.
        -13    1    4    4    0    0  0.84455852888E+01 -0.47728682268E+01 -0.21180174683E+02  0.23296333309E+02  0.10566000000E+00 0.  1.
         14    1    4    4    0    0  0.69314904381E+00 -0.13897664047E-01 -0.12796095322E+01  0.14553519495E+01  0.00000000000E+00 0. -1.
<mgrwt>
<rscale>  0 0.80346467E+02</rscale>
<asrwt>0</asrwt>
<pdfrwt beam="1">  1        1 0.48393998E-02 0.80346467E+02</pdfrwt>
<pdfrwt beam="2">  1       -2 0.78932411E-02 0.80346467E+02</pdfrwt>
<totfact> 0.12045772E+05</totfact>
</mgrwt>
</event>
<event>
 8    1  0.8577104E-014  0.8206967E+02  0.7818608E-02  0.1323279E+00
         -2   -1    0    0    0  501 -0.00000000000E+00  0.00000000000E+00  0.23648228924E+02  0.23648229062E+02  0.25500000000E-02 0.  1.
          1   -1    0    0  501    0  0.00000000000E+00 -0.00000000000E+00 -0.71204387939E+02  0.71204388117E+02  0.50400000000E-02 0. -1.
        -24    2    1    2    0    0  0.44408920985E-15  0.00000000000E+00 -0.47556159015E+02  0.94852617179E+02  0.82069669948E+02 0.  0.
         66    2    3    3    0    0  0.23876250607E+01  0.24097666606E+02  0.14460687462E+02  0.28275603877E+02  0.20000008625E+01 0.  0.
         13    1    3    3    0    0 -0.23876250607E+01 -0.24097666606E+02 -0.62016846477E+02  0.66577013302E+02  0.10566000000E+00 0. -1.
         13    1    4    4    0    0  0.15407160809E+01  0.18655714949E+02  0.11314716972E+02  0.21873351149E+02  0.10566000000E+00 0. -1.
        -13    1    4    4    0    0  0.29622782350E+00  0.10505631676E+01  0.99800296115E+00  0.14827703257E+01  0.10566000000E+00 0.  1.
         14    1    4    4    0    0  0.55068115621E+00  0.43913884891E+01  0.21479675284E+01  0.49194824018E+01  0.00000000000E+00 0. -1.
<mgrwt>
<rscale>  0 0.82069670E+02</rscale>
<asrwt>0</asrwt>
<pdfrwt beam="1">  1        1 0.10954521E-01 0.82069670E+02</pdfrwt>
<pdfrwt beam="2">  1       -2 0.36381891E-02 0.82069670E+02</pdfrwt>
<totfact> 0.12967620E+05</totfact>
</mgrwt>
</event>
<event>
 8    1  0.8577104E-014  0.8122752E+02  0.7818608E-02  0.1325604E+00
         -2   -1    0    0    0  501 -0.00000000000E+00  0.00000000000E+00  0.10343816683E+03  0.10343816687E+03  0.25500000000E-02 0.  1.
          1   -1    0    0  501    0  0.00000000000E+00 -0.00000000000E+00 -0.15946507151E+02  0.15946507947E+02  0.50400000000E-02 0. -1.
        -24    2    1    2    0    0  0.00000000000E+00  0.17763568394E-14  0.87491659684E+02  0.11938467481E+03  0.81227520374E+02 0.  0.
         66    2    3    3    0    0  0.10137371629E+02 -0.11265089540E+02  0.99114102647E+02  0.10028596045E+03  0.19999934113E+01 0.  0.
         13    1    3    3    0    0 -0.10137371629E+02  0.11265089540E+02 -0.11622442964E+02  0.19098714365E+02  0.10566000000E+00 0. -1.
         13    1    4    4    0    0  0.51022873470E+01 -0.49402576800E+01  0.45677051488E+02  0.46226006520E+02  0.10566000000E+00 0. -1.
        -13    1    4    4    0    0  0.23711592362E+01 -0.26405453232E+01  0.19622464761E+02  0.19941092324E+02  0.10566000000E+00 0.  1.
         14    1    4    4    0    0  0.26639250459E+01 -0.36842865373E+01  0.33814586399E+02  0.34118861605E+02  0.00000000000E+00 0. -1.
<mgrwt>
<rscale>  0 0.81227520E+02</rscale>
<asrwt>0</asrwt>
<pdfrwt beam="1">  1        1 0.24533090E-02 0.81227520E+02</pdfrwt>
<pdfrwt beam="2">  1       -2 0.15913564E-01 0.81227520E+02</pdfrwt>
<totfact> 0.10120508E+05</totfact>
</mgrwt>
</event>
<event>
 8    1  0.8577104E-014  0.8048637E+02  0.7818608E-02  0.1327677E+00
         -2   -1    0    0    0  501 -0.00000000000E+00  0.00000000000E+00  0.28091389601E+02  0.28091389717E+02  0.25500000000E-02 0.  1.
          1   -1    0    0  501    0  0.00000000000E+00 -0.00000000000E+00 -0.57651609849E+02  0.57651610069E+02  0.50400000000E-02 0. -1.
        -24    2    1    2    0    0  0.00000000000E+00 -0.35527136788E-14 -0.29560220248E+02  0.85742999786E+02  0.80486367735E+02 0.  0.
         66    2    3    3    0    0  0.11084461434E+01  0.27174063241E+02  0.16774396292E+02  0.32016226015E+02  0.19999978485E+01 0.  0.
         13    1    3    3    0    0 -0.11084461434E+01 -0.27174063241E+02 -0.46334616540E+02  0.53726773771E+02  0.10566000000E+00 0. -1.
         13    1    4    4    0    0  0.72632272173E+00  0.14875486539E+02  0.88451053022E+01  0.17322086950E+02  0.10566000000E+00 0. -1.
        -13    1    4    4    0    0  0.69375899079E+00  0.88847488776E+01  0.52545746294E+01  0.10346099880E+02  0.10566000000E+00 0.  1.
         14    1    4    4    0    0 -0.31163556909E+00  0.34138278245E+01  0.26747163605E+01  0.43480391847E+01  0.00000000000E+00 0. -1.
<mgrwt>
<rscale>  0 0.80486368E+02</rscale>
<asrwt>0</asrwt>
<pdfrwt beam="1">  1        1 0.88694785E-02 0.80486368E+02</pdfrwt>
<pdfrwt beam="2">  1       -2 0.43217523E-02 0.80486368E+02</pdfrwt>
<totfact> 0.13230661E+05</totfact>
</mgrwt>
</event>
<event>
 8    1  0.8577104E-014  0.8413125E+02  0.7818608E-02  0.1317720E+00
         -2   -1    0    0    0  501 -0.00000000000E+00  0.00000000000E+00  0.15872223157E+02  0.15872223362E+02  0.25500000000E-02 0.  1.
          1   -1    0    0  501    0  0.00000000000E+00 -0.00000000000E+00 -0.11148511242E+03  0.11148511254E+03  0.50400000000E-02 0. -1.
        -24    2    1    2    0    0  0.00000000000E+00 -0.35527136788E-14 -0.95612889266E+02  0.12735733590E+03  0.84131245167E+02 0.  0.
         66    2    3    3    0    0 -0.74977897088E+01  0.25567266616E+02  0.13965581508E+01  0.26755417304E+02  0.20000019291E+01 0.  0.
         13    1    3    3    0    0  0.74977897088E+01 -0.25567266616E+02 -0.97009447417E+02  0.10060191859E+03  0.10566000000E+00 0. -1.
         13    1    4    4    0    0 -0.19100055624E+01  0.95668342050E+01  0.18257659620E+00  0.97579165913E+01  0.10566000000E+00 0. -1.
        -13    1    4    4    0    0 -0.42918044024E+01  0.12746142666E+02  0.10553767765E+01  0.13491060821E+02  0.10566000000E+00 0.  1.
         14    1    4    4    0    0 -0.12959797441E+01  0.32542897449E+01  0.15860477806E+00  0.35064398921E+01  0.00000000000E+00 0. -1.
<mgrwt>
<rscale>  0 0.84131245E+02</rscale>
<asrwt>0</asrwt>
<pdfrwt beam="1">  1        1 0.17151555E-01 0.84131245E+02</pdfrwt>
<pdfrwt beam="2">  1       -2 0.24418806E-02 0.84131245E+02</pdfrwt>
<totfact> 0.13068758E+05</totfact>
</mgrwt>
</event>
<event>
 8    1  0.8577104E-014  0.7915318E+02  0.7818608E-02  0.1331472E+00
          1   -1    0    0  501    0  0.00000000000E+00  0.00000000000E+00  0.10850789911E+03  0.10850789923E+03  0.50400000000E-02 0. -1.
         -2   -1    0    0    0  501 -0.00000000000E+00 -0.00000000000E+00 -0.14434955098E+02  0.14434955323E+02  0.25500000000E-02 0.  1.
        -24    2    1    2    0    0  0.00000000000E+00  0.00000000000E+00  0.94072944014E+02  0.12294285455E+03  0.79153184964E+02 0.  0.
         66    2    3    3    0    0  0.73069017165E+01 -0.33294591838E+02  0.15909559620E+02  0.37670077640E+02  0.20000009476E+01 0.  0.
         13    1    3    3    0    0 -0.73069017165E+01  0.33294591838E+02  0.78163384394E+02  0.85272776912E+02  0.10566000000E+00 0. -1.
         13    1    4    4    0    0  0.20000600779E+01 -0.64589278056E+01  0.33360674074E+01  0.75404574460E+01  0.10566000000E+00 0. -1.
        -13    1    4    4    0    0  0.12634498630E+00 -0.19768288646E+01  0.10478689058E+01  0.22434368043E+01  0.10566000000E+00 0.  1.
         14    1    4    4    0    0  0.51804966522E+01 -0.24858835167E+02  0.11525623307E+02  0.27886183390E+02  0.00000000000E+00 0. -1.
<mgrwt>
<rscale>  0 0.79153185E+02</rscale>
<asrwt>0</asrwt>
<pdfrwt beam="1">  1        1 0.16693523E-01 0.79153185E+02</pdfrwt>
<pdfrwt beam="2">  1       -2 0.22207623E-02 0.79153185E+02</pdfrwt>
<totfact> 0.15337680E+05</totfact>
</mgrwt>
</event>
<event>
 8    1  0.8577104E-014  0.7941728E+02  0.7818608E-02  0.1330713E+00
         -2   -1    0    0    0  501 -0.00000000000E+00  0.00000000000E+00  0.71932382355E+01  0.71932386875E+01  0.25500000000E-02 0.  1.
          1   -1    0    0  501    0  0.00000000000E+00 -0.00000000000E+00 -0.21920254444E+03  0.21920254449E+03  0.50400000000E-02 0. -1.
        -24    2    1    2    0    0  0.00000000000E+00  0.00000000000E+00 -0.21200930620E+03  0.22639578318E+03  0.79417282292E+02 0.  0.
         66    2    3    3    0    0  0.32666040141E+02  0.21632661656E+02 -0.88103389867E+02  0.96442986000E+02  0.20000034207E+01 0.  0.
         13    1    3    3    0    0 -0.32666040141E+02 -0.21632661656E+02 -0.12390591633E+03  0.12995279718E+03  0.10566000000E+00 0. -1.
         13    1    4    4    0    0  0.21797633920E+01  0.19676130375E+01 -0.71157054725E+01  0.76985256977E+01  0.10566000000E+00 0. -1.
        -13    1    4    4    0    0  0.27986366364E+02  0.18246002372E+02 -0.74746973494E+02  0.81873527561E+02  0.10566000000E+00 0.  1.
        -14    1    4    4    0    0  0.24999103847E+01  0.14190462472E+01 -0.62407109007E+01  0.68709327408E+01  0.00000000000E+00 0.  1.
<mgrwt>
<rscale>  0 0.79417282E+02</rscale>
<asrwt>0</asrwt>
<pdfrwt beam="1">  1        1 0.33723464E-01 0.79417282E+02</pdfrwt>
<pdfrwt beam="2">  1       -2 0.11066522E-02 0.79417282E+02</pdfrwt>
<totfact> 0.17306171E+05</totfact>
</mgrwt>
</event>
<event>
 8    1  0.8577104E-014  0.7817818E+02  0.7818608E-02  0.1334302E+00
          1   -1    0    0  501    0  0.00000000000E+00  0.00000000000E+00  0.87621239693E+01  0.87621254188E+01  0.50400000000E-02 0. -1.
         -2   -1    0    0    0  501 -0.00000000000E+00 -0.00000000000E+00 -0.17438201097E+03  0.17438201099E+03  0.25500000000E-02 0.  1.
        -24    2    1    2    0    0  0.35527136788E-14  0.00000000000E+00 -0.16561988700E+03  0.18314413641E+03  0.78178179375E+02 0.  0.
         66    2    3    3    0    0  0.30049567462E+02 -0.94942813553E+01 -0.13693985434E+03  0.14053341803E+03  0.19999985459E+01 0.  0.
         13    1    3    3    0    0 -0.30049567462E+02  0.94942813553E+01 -0.28680032667E+02  0.42610718381E+02  0.10566000000E+00 0. -1.
         13    1    4    4    0    0  0.19845631601E+01 -0.79909284379E+00 -0.10550397601E+02  0.10765644147E+02  0.10566000000E+00 0. -1.
        -13    1    4    4    0    0  0.22576659221E+02 -0.74542122265E+01 -0.10378174039E+03  0.10647033213E+03  0.10566000000E+00 0.  1.
        -14    1    4    4    0    0  0.54883450815E+01 -0.12409762850E+01 -0.22607716346E+02  0.23297441754E+02  0.00000000000E+00 0.  1.
<mgrwt>
<rscale>  0 0.78178179E+02</rscale>
<asrwt>0</asrwt>
<pdfrwt beam="1">  1        1 0.13480193E-02 0.78178179E+02</pdfrwt>
<pdfrwt beam="2">  1       -2 0.26827999E-01 0.78178179E+02</pdfrwt>
<totfact> 0.95180825E+04</totfact>
</mgrwt>
</event>
<event>
 8    1  0.8577104E-014  0.8155959E+02  0.7818608E-02  0.1324683E+00
         -2   -1    0    0    0  501 -0.00000000000E+00  0.00000000000E+00  0.28575856310E+02  0.28575856424E+02  0.25500000000E-02 0.  1.
          1   -1    0    0  501    0  0.00000000000E+00 -0.00000000000E+00 -0.58195693190E+02  0.58195693408E+02  0.50400000000E-02 0. -1.
        -24    2    1    2    0    0  0.00000000000E+00  0.00000000000E+00 -0.29619836880E+02  0.86771549832E+02  0.81559592468E+02 0.  0.
         66    2    3    3    0    0 -0.13421744992E+02 -0.36021284931E+02 -0.29223229463E+02  0.48328804506E+02  0.19999994971E+01 0.  0.
         13    1    3    3    0    0  0.13421744992E+02  0.36021284931E+02 -0.39660741655E+00  0.38442745326E+02  0.10566000000E+00 0. -1.
         13    1    4    4    0    0 -0.29825322547E+01 -0.10216845831E+02 -0.78771114333E+01  0.13241581702E+02  0.10566000000E+00 0. -1.
        -13    1    4    4    0    0 -0.70641646973E+01 -0.18350950105E+02 -0.14934950752E+02  0.24692584122E+02  0.10566000000E+00 0.  1.
         14    1    4    4    0    0 -0.33750480401E+01 -0.74534889950E+01 -0.64111672784E+01  0.10394638683E+02  0.00000000000E+00 0. -1.
<mgrwt>
<rscale>  0 0.81559592E+02</rscale>
<asrwt>0</asrwt>
<pdfrwt beam="1">  1        1 0.89531836E-02 0.81559592E+02</pdfrwt>
<pdfrwt beam="2">  1       -2 0.43962856E-02 0.81559592E+02</pdfrwt>
<totfact> 0.12773479E+05</totfact>
</mgrwt>
</event>
<event>
 8    1  0.8577104E-014  0.7578869E+02  0.7818608E-02  0.1341446E+00
          1   -1    0    0  501    0  0.00000000000E+00  0.00000000000E+00  0.63544018532E+01  0.63544038519E+01  0.50400000000E-02 0. -1.
         -2   -1    0    0    0  501 -0.00000000000E+00 -0.00000000000E+00 -0.22598213034E+03  0.22598213035E+03  0.25500000000E-02 0.  1.
        -24    2    1    2    0    0  0.71054273576E-14 -0.44408920985E-15 -0.21962772848E+03  0.23233653420E+03  0.75788693132E+02 0.  0.
         66    2    3    3    0    0  0.35157205440E+02 -0.30069802348E+01 -0.67755849770E+02  0.76419409638E+02  0.19999917363E+01 0.  0.
         13    1    3    3    0    0 -0.35157205440E+02  0.30069802348E+01 -0.15187187871E+03  0.15591712456E+03  0.10566000000E+00 0. -1.
         13    1    4    4    0    0  0.97660355428E+01 -0.50571138901E+00 -0.20327281179E+02  0.22557498053E+02  0.10566000000E+00 0. -1.
        -13    1    4    4    0    0  0.18845680267E+02 -0.21484514383E+01 -0.35667458676E+02  0.40397453889E+02  0.10566000000E+00 0.  1.
         14    1    4    4    0    0  0.65454896298E+01 -0.35281740744E+00 -0.11761109915E+02  0.13464457696E+02  0.00000000000E+00 0. -1.
<mgrwt>
<rscale>  0 0.75788693E+02</rscale>
<asrwt>0</asrwt>
<pdfrwt beam="1">  1        1 0.97760062E-03 0.75788693E+02</pdfrwt>
<pdfrwt beam="2">  1       -2 0.34766475E-01 0.75788693E+02</pdfrwt>
<totfact> 0.92859037E+04</totfact>
</mgrwt>
</event>
<event>
 8    1  0.8577104E-014  0.7938321E+02  0.7818608E-02  0.1330811E+00
         -2   -1    0    0    0  501 -0.00000000000E+00  0.00000000000E+00  0.11451398632E+02  0.11451398916E+02  0.25500000000E-02 0.  1.
          1   -1    0    0  501    0  0.00000000000E+00 -0.00000000000E+00 -0.13757477906E+03  0.13757477915E+03  0.50400000000E-02 0. -1.
        -24    2    1    2    0    0  0.35527136788E-14  0.00000000000E+00 -0.12612338043E+03  0.14902617807E+03  0.79383213962E+02 0.  0.
         66    2    3    3    0    0 -0.31778533538E+02 -0.23726568759E+02 -0.61655408179E+02  0.73336311713E+02  0.19999997702E+01 0.  0.
         13    1    3    3    0    0  0.31778533538E+02  0.23726568759E+02 -0.64467972247E+02  0.75689866353E+02  0.10566000000E+00 0. -1.
         13    1    4    4    0    0 -0.10403026078E+02 -0.75080762461E+01 -0.20921378574E+02  0.24541992706E+02  0.10566000000E+00 0. -1.
        -13    1    4    4    0    0 -0.49403068518E+00 -0.34874215633E+00 -0.66789262744E+00  0.90715599921E+00  0.10566000000E+00 0.  1.
        -14    1    4    4    0    0 -0.20881476775E+02 -0.15869750356E+02 -0.40066136977E+02  0.47887163008E+02  0.00000000000E+00 0.  1.
<mgrwt>
<rscale>  0 0.79383214E+02</rscale>
<asrwt>0</asrwt>
<pdfrwt beam="1">  1        1 0.21165350E-01 0.79383214E+02</pdfrwt>
<pdfrwt beam="2">  1       -2 0.17617538E-02 0.79383214E+02</pdfrwt>
<totfact> 0.15866046E+05</totfact>
</mgrwt>
</event>
<event>
 8    1  0.8577104E-014  0.7958842E+02  0.7818608E-02  0.1330224E+00
         -2   -1    0    0    0  501 -0.00000000000E+00  0.00000000000E+00  0.24371208694E+03  0.24371208696E+03  0.25500000000E-02 0.  1.
          1   -1    0    0  501    0  0.00000000000E+00 -0.00000000000E+00 -0.64977443101E+01  0.64977462648E+01  0.50400000000E-02 0. -1.
        -24    2    1    2    0    0  0.00000000000E+00 -0.88817841970E-15  0.23721434263E+03  0.25020983322E+03  0.79588418063E+02 0.  0.
         66    2    3    3    0    0 -0.36956903426E+02 -0.71657408367E+01  0.15899283749E+03  0.16340098815E+03  0.20000002581E+01 0.  0.
         13    1    3    3    0    0  0.36956903426E+02  0.71657408367E+01  0.78221505140E+02  0.86808845073E+02  0.10566000000E+00 0. -1.
         13    1    4    4    0    0 -0.10580202963E+01 -0.50616421800E+00  0.45974746960E+01  0.47458978896E+01  0.10566000000E+00 0. -1.
        -13    1    4    4    0    0 -0.10484025194E+02 -0.16560810617E+01  0.44842811923E+02  0.46081952367E+02  0.10566000000E+00 0.  1.
         14    1    4    4    0    0 -0.25414857936E+02 -0.50034955571E+01  0.10955255088E+03  0.11257313789E+03  0.00000000000E+00 0. -1.
<mgrwt>
<rscale>  0 0.79588418E+02</rscale>
<asrwt>0</asrwt>
<pdfrwt beam="1">  1        1 0.99965309E-03 0.79588418E+02</pdfrwt>
<pdfrwt beam="2">  1       -2 0.37494169E-01 0.79588418E+02</pdfrwt>
<totfact> 0.79095075E+04</totfact>
</mgrwt>
</event>
<event>
 8    1  0.8577104E-014  0.7924997E+02  0.7818608E-02  0.1331193E+00
          1   -1    0    0  501    0  0.00000000000E+00  0.00000000000E+00  0.58627638492E+03  0.58627638494E+03  0.50400000000E-02 0. -1.
         -2   -1    0    0    0  501 -0.00000000000E+00 -0.00000000000E+00 -0.26781552394E+01  0.26781564534E+01  0.25500000000E-02 0.  1.
        -24    2    1    2    0    0  0.35527136788E-14  0.35527136788E-14  0.58359822968E+03  0.58895454139E+03  0.79249972514E+02 0.  0.
         66    2    3    3    0    0 -0.30365249581E+02 -0.22664759214E+02  0.37749470989E+03  0.37939688411E+03  0.19999963961E+01 0.  0.
         13    1    3    3    0    0  0.30365249581E+02  0.22664759214E+02  0.20610351979E+03  0.20955765729E+03  0.10566000000E+00 0. -1.
         13    1    4    4    0    0 -0.59158312120E+01 -0.48189018873E+01  0.73963456698E+02  0.74356055336E+02  0.10566000000E+00 0. -1.
        -13    1    4    4    0    0 -0.22818841611E+02 -0.16731929762E+02  0.27955542793E+03  0.28098381707E+03  0.10566000000E+00 0.  1.
        -14    1    4    4    0    0 -0.16305767582E+01 -0.11139275648E+01  0.23975825258E+02  0.24057011701E+02  0.00000000000E+00 0.  1.
<mgrwt>
<rscale>  0 0.79249973E+02</rscale>
<asrwt>0</asrwt>
<pdfrwt beam="1">  1        1 0.90196333E-01 0.79249973E+02</pdfrwt>
<pdfrwt beam="2">  1       -2 0.41202413E-03 0.79249973E+02</pdfrwt>
<totfact> 0.20402669E+05</totfact>
</mgrwt>
</event>
<event>
 8    1  0.8577104E-014  0.8132887E+02  0.7818608E-02  0.1325322E+00
          1   -1    0    0  501    0  0.00000000000E+00  0.00000000000E+00  0.12906888181E+03  0.12906888191E+03  0.50400000000E-02 0. -1.
         -2   -1    0    0    0  501 -0.00000000000E+00 -0.00000000000E+00 -0.12811733375E+02  0.12811733629E+02  0.25500000000E-02 0.  1.
        -24    2    1    2    0    0  0.00000000000E+00  0.00000000000E+00  0.11625714844E+03  0.14188061554E+03  0.81328866358E+02 0.  0.
         66    2    3    3    0    0  0.12382751119E+02  0.38216306109E+02  0.47441856188E+02  0.62197655069E+02  0.19999999063E+01 0.  0.
         13    1    3    3    0    0 -0.12382751119E+02 -0.38216306109E+02  0.68815292252E+02  0.79682960472E+02  0.10566000000E+00 0. -1.
         13    1    4    4    0    0  0.66706601030E+01  0.19692378028E+02  0.25535847194E+02  0.32929896971E+02  0.10566000000E+00 0. -1.
        -13    1    4    4    0    0  0.14577728957E+01  0.39640549517E+01  0.52711334802E+01  0.67553568135E+01  0.10566000000E+00 0.  1.
         14    1    4    4    0    0  0.42543181203E+01  0.14559873129E+02  0.16634875514E+02  0.22512401284E+02  0.00000000000E+00 0. -1.
<mgrwt>
<rscale>  0 0.81328866E+02</rscale>
<asrwt>0</asrwt>
<pdfrwt beam="1">  1        1 0.19856752E-01 0.81328866E+02</pdfrwt>
<pdfrwt beam="2">  1       -2 0.19710358E-02 0.81328866E+02</pdfrwt>
<totfact> 0.14698565E+05</totfact>
</mgrwt>
</event>
<event>
 8    1  0.8577104E-014  0.7661827E+02  0.7818608E-02  0.1338932E+00
          1   -1    0    0  501    0  0.00000000000E+00  0.00000000000E+00  0.10828617992E+03  0.10828618004E+03  0.50400000000E-02 0. -1.
         -2   -1    0    0    0  501 -0.00000000000E+00 -0.00000000000E+00 -0.13552882641E+02  0.13552882881E+02  0.25500000000E-02 0.  1.
        -24    2    1    2    0    0  0.00000000000E+00 -0.35527136788E-14  0.94733297280E+02  0.12183906292E+03  0.76618272230E+02 0.  0.
         66    2    3    3    0    0 -0.31874343828E+02  0.21166984077E+02  0.49391357587E+02  0.62510168875E+02  0.19999997813E+01 0.  0.
         13    1    3    3    0    0  0.31874343828E+02 -0.21166984077E+02  0.45341939693E+02  0.59328894044E+02  0.10566000000E+00 0. -1.
         13    1    4    4    0    0 -0.83014063732E+01  0.52151191006E+01  0.13105371873E+02  0.16366818597E+02  0.10566000000E+00 0. -1.
        -13    1    4    4    0    0 -0.20966076554E+02  0.13634848879E+02  0.32181578966E+02  0.40757216034E+02  0.10566000000E+00 0.  1.
         14    1    4    4    0    0 -0.26068608999E+01  0.23170160980E+01  0.41044067474E+01  0.53861342443E+01  0.00000000000E+00 0. -1.
<mgrwt>
<rscale>  0 0.76618272E+02</rscale>
<asrwt>0</asrwt>
<pdfrwt beam="1">  1        1 0.16659412E-01 0.76618272E+02</pdfrwt>
<pdfrwt beam="2">  1       -2 0.20850589E-02 0.76618272E+02</pdfrwt>
<totfact> 0.16733528E+05</totfact>
</mgrwt>
</event>
<event>
 8    1  0.8577104E-014  0.7964458E+02  0.7818608E-02  0.1330063E+00
         -2   -1    0    0    0  501 -0.00000000000E+00  0.00000000000E+00  0.20540833597E+03  0.20540833599E+03  0.25500000000E-02 0.  1.
          1   -1    0    0  501    0  0.00000000000E+00 -0.00000000000E+00 -0.77203021823E+01  0.77203038274E+01  0.50400000000E-02 0. -1.
        -24    2    1    2    0    0  0.00000000000E+00 -0.35527136788E-14  0.19768803379E+03  0.21312863982E+03  0.79644575496E+02 0.  0.
         66    2    3    3    0    0  0.31560532819E+02  0.22530408788E+02  0.12285942423E+03  0.12884923234E+03  0.20000000544E+01 0.  0.
         13    1    3    3    0    0 -0.31560532819E+02 -0.22530408788E+02  0.74828609564E+02  0.84279407480E+02  0.10566000000E+00 0. -1.
         13    1    4    4    0    0  0.19775472463E+01  0.15302852487E+01  0.79072262317E+01  0.82938445108E+01  0.10566000000E+00 0.  1.
        -13    1    4    4    0    0  0.60872662735E+01  0.48080646105E+01  0.26761182616E+02  0.27862956681E+02  0.10566000000E+00 0.  1.
         14    1    4    4    0    0  0.23495719299E+02  0.16192058928E+02  0.88191015379E+02  0.92692431143E+02  0.00000000000E+00 0. -1.
<mgrwt>
<rscale>  0 0.79644575E+02</rscale>
<asrwt>0</asrwt>
<pdfrwt beam="1">  1        1 0.11877391E-02 0.79644575E+02</pdfrwt>
<pdfrwt beam="2">  1       -2 0.31601279E-01 0.79644575E+02</pdfrwt>
<totfact> 0.85123511E+04</totfact>
</mgrwt>
</event>
<event>
 8    1  0.8577104E-014  0.7743180E+02  0.7818608E-02  0.1336502E+00
          1   -1    0    0  501    0  0.00000000000E+00  0.00000000000E+00  0.16046525434E+03  0.16046525442E+03  0.50400000000E-02 0. -1.
         -2   -1    0    0    0  501 -0.00000000000E+00 -0.00000000000E+00 -0.93410935319E+01  0.93410938800E+01  0.25500000000E-02 0.  1.
        -24    2    1    2    0    0 -0.35527136788E-14  0.00000000000E+00  0.15112416080E+03  0.16980634830E+03  0.77431801882E+02 0.  0.
         66    2    3    3    0    0  0.30241165912E+02  0.23902101440E+02  0.68313484539E+02  0.78463818023E+02  0.19999999872E+01 0.  0.
         13    1    3    3    0    0 -0.30241165912E+02 -0.23902101440E+02  0.82810676266E+02  0.91342530273E+02  0.10566000000E+00 0. -1.
         13    1    4    4    0    0  0.16494886735E+02  0.12864795625E+02  0.38155526195E+02  0.43513671393E+02  0.10566000000E+00 0. -1.
        -13    1    4    4    0    0  0.12047412553E+02  0.10056721952E+02  0.26451584651E+02  0.30756711466E+02  0.10566000000E+00 0.  1.
        -14    1    4    4    0    0  0.16988666244E+01  0.98058386402E+00  0.37063736933E+01  0.41934351642E+01  0.00000000000E+00 0.  1.
<mgrwt>
<rscale>  0 0.77431802E+02</rscale>
<asrwt>0</asrwt>
<pdfrwt beam="1">  1        1 0.24686962E-01 0.77431802E+02</pdfrwt>
<pdfrwt beam="2">  1       -2 0.14370914E-02 0.77431802E+02</pdfrwt>
<totfact> 0.17438662E+05</totfact>
</mgrwt>
</event>
<event>
 8    1  0.8577104E-014  0.7916102E+02  0.7818608E-02  0.1331449E+00
          1   -1    0    0  501    0  0.00000000000E+00  0.00000000000E+00  0.36908348853E+02  0.36908349197E+02  0.50400000000E-02 0. -1.
         -2   -1    0    0    0  501 -0.00000000000E+00 -0.00000000000E+00 -0.42446138455E+02  0.42446138532E+02  0.25500000000E-02 0.  1.
        -24    2    1    2    0    0  0.44408920985E-15 -0.35527136788E-14 -0.55377896024E+01  0.79354487729E+02  0.79161023294E+02 0.  0.
         66    2    3    3    0    0 -0.24311926104E+01  0.17066838640E+02 -0.38458566352E+02  0.42192997117E+02  0.20000002905E+01 0.  0.
         13    1    3    3    0    0  0.24311926104E+01 -0.17066838640E+02  0.32920776750E+02  0.37161490612E+02  0.10566000000E+00 0. -1.
         13    1    4    4    0    0 -0.26967179143E+00  0.14661579814E+01 -0.24021611754E+01  0.28291137216E+01  0.10566000000E+00 0. -1.
        -13    1    4    4    0    0 -0.85368887209E+00  0.44196526921E+01 -0.91649678444E+01  0.10211264086E+02  0.10566000000E+00 0.  1.
         14    1    4    4    0    0 -0.13078319469E+01  0.11181027967E+02 -0.26891437332E+02  0.29152619309E+02  0.00000000000E+00 0. -1.
<mgrwt>
<rscale>  0 0.79161023E+02</rscale>
<asrwt>0</asrwt>
<pdfrwt beam="1">  1        1 0.56782076E-02 0.79161023E+02</pdfrwt>
<pdfrwt beam="2">  1       -2 0.65301751E-02 0.79161023E+02</pdfrwt>
<totfact> 0.12910474E+05</totfact>
</mgrwt>
</event>
<event>
 8    1  0.8577104E-014  0.8123694E+02  0.7818608E-02  0.1325577E+00
         -2   -1    0    0    0  501 -0.00000000000E+00  0.00000000000E+00  0.46299853693E+02  0.46299853763E+02  0.25500000000E-02 0.  1.
          1   -1    0    0  501    0  0.00000000000E+00 -0.00000000000E+00 -0.35634237661E+02  0.35634238017E+02  0.50400000000E-02 0. -1.
        -24    2    1    2    0    0 -0.35527136788E-14  0.11102230246E-15  0.10665616032E+02  0.81934091780E+02  0.81236937599E+02 0.  0.
         66    2    3    3    0    0  0.30608747432E+02 -0.55084177893E+00  0.32222939819E+02  0.44491759869E+02  0.19999999149E+01 0.  0.
         13    1    3    3    0    0 -0.30608747432E+02  0.55084177893E+00 -0.21557323787E+02  0.37442331911E+02  0.10566000000E+00 0. -1.
         13    1    4    4    0    0  0.15654275140E+02  0.92979160126E-01  0.16775604189E+02  0.22945523206E+02  0.10566000000E+00 0.  1.
        -13    1    4    4    0    0  0.10824195477E+02 -0.31389172271E+00  0.10380246566E+02  0.15000747266E+02  0.10566000000E+00 0. -1.
        -14    1    4    4    0    0  0.41302768158E+01 -0.32992921635E+00  0.50670890645E+01  0.65454893973E+01  0.00000000000E+00 0.  1.
<mgrwt>
<rscale>  0 0.81236938E+02</rscale>
<asrwt>0</asrwt>
<pdfrwt beam="1">  1        1 0.54821905E-02 0.81236938E+02</pdfrwt>
<pdfrwt beam="2">  1       -2 0.71230544E-02 0.81236938E+02</pdfrwt>
<totfact> 0.11926172E+05</totfact>
</mgrwt>
</event>
<event>
 8    1  0.8577104E-014  0.7903604E+02  0.7818608E-02  0.1331809E+00
          1   -1    0    0  501    0  0.00000000000E+00  0.00000000000E+00  0.45215122873E+02  0.45215123154E+02  0.50400000000E-02 0. -1.
         -2   -1    0    0    0  501 -0.00000000000E+00 -0.00000000000E+00 -0.34538754610E+02  0.34538754704E+02  0.25500000000E-02 0.  1.
        -24    2    1    2    0    0  0.00000000000E+00  0.35527136788E-14  0.10676368263E+02  0.79753877858E+02  0.79036043639E+02 0.  0.
         66    2    3    3    0    0  0.17027344777E+02  0.16730333501E+02 -0.26405789778E+02  0.35652493092E+02  0.20000001615E+01 0.  0.
         13    1    3    3    0    0 -0.17027344777E+02 -0.16730333501E+02  0.37082158041E+02  0.44101384766E+02  0.10566000000E+00 0. -1.
         13    1    4    4    0    0  0.31300213643E+01  0.32532373942E+01 -0.40795774213E+01  0.60856144518E+01  0.10566000000E+00 0. -1.
        -13    1    4    4    0    0  0.46679609219E+01  0.42934408581E+01 -0.66771527580E+01  0.92097245648E+01  0.10566000000E+00 0.  1.
         14    1    4    4    0    0  0.92293624905E+01  0.91836552489E+01 -0.15649059599E+02  0.20357154075E+02  0.00000000000E+00 0. -1.
<mgrwt>
<rscale>  0 0.79036044E+02</rscale>
<asrwt>0</asrwt>
<pdfrwt beam="1">  1        1 0.69561728E-02 0.79036044E+02</pdfrwt>
<pdfrwt beam="2">  1       -2 0.53136545E-02 0.79036044E+02</pdfrwt>
<totfact> 0.13395780E+05</totfact>
</mgrwt>
</event>
<event>
 8    1  0.8577104E-014  0.7974958E+02  0.7818608E-02  0.1329764E+00
         -2   -1    0    0    0  501 -0.00000000000E+00  0.00000000000E+00  0.64265971043E+02  0.64265971094E+02  0.25500000000E-02 0.  1.
          1   -1    0    0  501    0  0.00000000000E+00 -0.00000000000E+00 -0.24740911346E+02  0.24740911859E+02  0.50400000000E-02 0. -1.
        -24    2    1    2    0    0 -0.71054273576E-14 -0.35527136788E-14  0.39525059697E+02  0.89006882953E+02  0.79749575979E+02 0.  0.
         66    2    3    3    0    0 -0.17767180903E+02 -0.12998757187E+02  0.56847479511E+02  0.60994068066E+02  0.20000017138E+01 0.  0.
         13    1    3    3    0    0  0.17767180903E+02  0.12998757187E+02 -0.17322419813E+02  0.28012814887E+02  0.10566000000E+00 0. -1.
         13    1    4    4    0    0 -0.42877262943E-01 -0.74316442629E-01  0.23892527089E+00  0.27497402422E+00  0.10566000000E+00 0.  1.
        -13    1    4    4    0    0 -0.66339490472E+01 -0.52826457198E+01  0.22844264724E+02  0.24367749600E+02  0.10566000000E+00 0.  1.
        -14    1    4    4    0    0 -0.11090354593E+02 -0.76417950244E+01  0.33764289516E+02  0.36351344442E+02  0.00000000000E+00 0.  1.
<mgrwt>
<rscale>  0 0.79749576E+02</rscale>
<asrwt>0</asrwt>
<pdfrwt beam="1">  1        1 0.38062942E-02 0.79749576E+02</pdfrwt>
<pdfrwt beam="2">  1       -2 0.98870723E-02 0.79749576E+02</pdfrwt>
<totfact> 0.11779080E+05</totfact>
</mgrwt>
</event>
<event>
 8    1  0.8577104E-014  0.7984429E+02  0.7818608E-02  0.1329494E+00
         -2   -1    0    0    0  501 -0.00000000000E+00  0.00000000000E+00  0.10888765681E+03  0.10888765684E+03  0.25500000000E-02 0.  1.
          1   -1    0    0  501    0  0.00000000000E+00 -0.00000000000E+00 -0.14636897855E+02  0.14636898723E+02  0.50400000000E-02 0. -1.
        -24    2    1    2    0    0  0.00000000000E+00  0.00000000000E+00  0.94250758959E+02  0.12352455557E+03  0.79844287608E+02 0.  0.
         66    2    3    3    0    0 -0.22884503954E+02  0.12990672405E+02  0.93549232084E+02  0.97200395661E+02  0.20000006203E+01 0.  0.
         13    1    3    3    0    0  0.22884503954E+02 -0.12990672405E+02  0.70152687505E+00  0.26324159906E+02  0.10566000000E+00 0. -1.
         13    1    4    4    0    0 -0.10440462088E+02  0.62889384605E+01  0.42688331812E+02  0.44394355863E+02  0.10566000000E+00 0. -1.
        -13    1    4    4    0    0 -0.76229708240E+01  0.33445258006E+01  0.29999543276E+02  0.31133250679E+02  0.10566000000E+00 0.  1.
         14    1    4    4    0    0 -0.48210710416E+01  0.33572081441E+01  0.20861356996E+02  0.21672789120E+02  0.00000000000E+00 0. -1.
<mgrwt>
<rscale>  0 0.79844288E+02</rscale>
<asrwt>0</asrwt>
<pdfrwt beam="1">  1        1 0.22518306E-02 0.79844288E+02</pdfrwt>
<pdfrwt beam="2">  1       -2 0.16751946E-01 0.79844288E+02</pdfrwt>
<totfact> 0.10436579E+05</totfact>
</mgrwt>
</event>
<event>
 8    1  0.8577104E-014  0.7934334E+02  0.7818608E-02  0.1330925E+00
          1   -1    0    0  501    0  0.00000000000E+00  0.00000000000E+00  0.36445042156E+01  0.36445077005E+01  0.50400000000E-02 0. -1.
         -2   -1    0    0    0  501 -0.00000000000E+00 -0.00000000000E+00 -0.43183946361E+03  0.43183946361E+03  0.25500000000E-02 0.  1.
        -24    2    1    2    0    0  0.35527136788E-14  0.00000000000E+00 -0.42819495939E+03  0.43548397131E+03  0.79343342657E+02 0.  0.
         66    2    3    3    0    0 -0.23785769390E+02 -0.41961949540E+01 -0.38679406744E+03  0.38755260480E+03  0.20000007173E+01 0.  0.
         13    1    3    3    0    0  0.23785769390E+02  0.41961949540E+01 -0.41400891951E+02  0.47931366515E+02  0.10566000000E+00 0. -1.
         13    1    4    4    0    0 -0.48311487577E+01 -0.63218478331E+00 -0.72036983480E+02  0.72201646857E+02  0.10566000000E+00 0. -1.
        -13    1    4    4    0    0 -0.42442952469E+01 -0.22600364384E+00 -0.73148810049E+02  0.73272264162E+02  0.10566000000E+00 0.  1.
        -14    1    4    4    0    0 -0.14710325386E+02 -0.33380065269E+01 -0.24160827391E+03  0.24207869378E+03  0.00000000000E+00 0.  1.
<mgrwt>
<rscale>  0 0.79343343E+02</rscale>
<asrwt>0</asrwt>
<pdfrwt beam="1">  1        1 0.56069357E-03 0.79343343E+02</pdfrwt>
<pdfrwt beam="2">  1       -2 0.66436800E-01 0.79343343E+02</pdfrwt>
<totfact> 0.57301398E+04</totfact>
</mgrwt>
</event>
<event>
 8    1  0.8577104E-014  0.8546872E+02  0.7818608E-02  0.1314211E+00
         -2   -1    0    0    0  501 -0.00000000000E+00  0.00000000000E+00  0.26945401561E+02  0.26945401681E+02  0.25500000000E-02 0.  1.
          1   -1    0    0  501    0  0.00000000000E+00 -0.00000000000E+00 -0.67775032182E+02  0.67775032370E+02  0.50400000000E-02 0. -1.
        -24    2    1    2    0    0 -0.35527136788E-14  0.00000000000E+00 -0.40829630622E+02  0.94720434051E+02  0.85468718781E+02 0.  0.
         66    2    3    3    0    0 -0.31827780383E+02  0.95413211538E+01  0.93150542141E+01  0.34566090943E+02  0.19999986422E+01 0.  0.
         13    1    3    3    0    0  0.31827780383E+02 -0.95413211538E+01 -0.50144684836E+02  0.60154343108E+02  0.10566000000E+00 0. -1.
         13    1    4    4    0    0 -0.22544131662E+02  0.61298733322E+01  0.67571519056E+01  0.24320433495E+02  0.10566000000E+00 0. -1.
        -13    1    4    4    0    0 -0.75206577067E+01  0.25813554347E+01  0.23136121156E+01  0.82817663139E+01  0.10566000000E+00 0.  1.
         14    1    4    4    0    0 -0.17629910143E+01  0.83009238689E+00  0.24429019293E+00  0.19638911338E+01  0.00000000000E+00 0. -1.
<mgrwt>
<rscale>  0 0.85468719E+02</rscale>
<asrwt>0</asrwt>
<pdfrwt beam="1">  1        1 0.10426928E-01 0.85468719E+02</pdfrwt>
<pdfrwt beam="2">  1       -2 0.41454464E-02 0.85468719E+02</pdfrwt>
<totfact> 0.11501233E+05</totfact>
</mgrwt>
</event>
<event>
 8    1  0.8577104E-014  0.8052510E+02  0.7818608E-02  0.1327568E+00
         -2   -1    0    0    0  501 -0.00000000000E+00  0.00000000000E+00  0.17829914089E+02  0.17829914271E+02  0.25500000000E-02 0.  1.
          1   -1    0    0  501    0  0.00000000000E+00 -0.00000000000E+00 -0.90918722335E+02  0.90918722474E+02  0.50400000000E-02 0. -1.
        -24    2    1    2    0    0  0.00000000000E+00  0.00000000000E+00 -0.73088808246E+02  0.10874863675E+03  0.80525102317E+02 0.  0.
         66    2    3    3    0    0 -0.19428226640E+02 -0.35126530184E+02 -0.32809951433E+02  0.51882771912E+02  0.19999987610E+01 0.  0.
         13    1    3    3    0    0  0.19428226640E+02  0.35126530184E+02 -0.40278856813E+02  0.56865864834E+02  0.10566000000E+00 0. -1.
         13    1    4    4    0    0 -0.99880396493E+01 -0.19384944463E+02 -0.17036149168E+02  0.27672704067E+02  0.10566000000E+00 0. -1.
        -13    1    4    4    0    0 -0.53331835261E+01 -0.93415233762E+01 -0.89793917017E+01  0.14012406820E+02  0.10566000000E+00 0.  1.
         14    1    4    4    0    0 -0.41070034642E+01 -0.64000623451E+01 -0.67944105640E+01  0.10197661025E+02  0.00000000000E+00 0. -1.
<mgrwt>
<rscale>  0 0.80525102E+02</rscale>
<asrwt>0</asrwt>
<pdfrwt beam="1">  1        1 0.13987496E-01 0.80525102E+02</pdfrwt>
<pdfrwt beam="2">  1       -2 0.27430638E-02 0.80525102E+02</pdfrwt>
<totfact> 0.14213455E+05</totfact>
</mgrwt>
</event>
<event>
 8    1  0.8577104E-014  0.7811248E+02  0.7818608E-02  0.1334495E+00
         -2   -1    0    0    0  501 -0.00000000000E+00  0.00000000000E+00  0.53329431046E+02  0.53329431107E+02  0.25500000000E-02 0.  1.
          1   -1    0    0  501    0  0.00000000000E+00 -0.00000000000E+00 -0.28603152267E+02  0.28603152711E+02  0.50400000000E-02 0. -1.
        -24    2    1    2    0    0  0.17763568394E-14  0.35527136788E-14  0.24726278779E+02  0.81932583819E+02  0.78112479342E+02 0.  0.
         66    2    3    3    0    0 -0.73746858284E+01 -0.27936775009E+02  0.39894452276E+02  0.49299256678E+02  0.19999994090E+01 0.  0.
         13    1    3    3    0    0  0.73746858284E+01  0.27936775009E+02 -0.15168173497E+02  0.32633327140E+02  0.10566000000E+00 0. -1.
         13    1    4    4    0    0 -0.32573045698E+00 -0.32722685640E+01  0.40711070470E+01  0.52343976262E+01  0.10566000000E+00 0. -1.
        -13    1    4    4    0    0 -0.59093747263E+01 -0.20141149247E+02  0.28999213837E+02  0.35798773301E+02  0.10566000000E+00 0.  1.
         14    1    4    4    0    0 -0.11395806451E+01 -0.45233571978E+01  0.68241313926E+01  0.82660857514E+01  0.00000000000E+00 0. -1.
<mgrwt>
<rscale>  0 0.78112479E+02</rscale>
<asrwt>0</asrwt>
<pdfrwt beam="1">  1        1 0.44004850E-02 0.78112479E+02</pdfrwt>
<pdfrwt beam="2">  1       -2 0.82045278E-02 0.78112479E+02</pdfrwt>
<totfact> 0.12844960E+05</totfact>
</mgrwt>
</event>
<event>
 8    1  0.8577104E-014  0.8135049E+02  0.7818608E-02  0.1325262E+00
         -2   -1    0    0    0  501 -0.00000000000E+00  0.00000000000E+00  0.10264713295E+04  0.10264713295E+04  0.25500000000E-02 0.  1.
          1   -1    0    0  501    0  0.00000000000E+00 -0.00000000000E+00 -0.16118049834E+01  0.16118128632E+01  0.50400000000E-02 0. -1.
        -24    2    1    2    0    0  0.00000000000E+00 -0.35527136788E-14  0.10248595246E+04  0.10280831424E+04  0.81350492474E+02 0.  0.
         66    2    3    3    0    0  0.68976288704E+01  0.28139226899E+02  0.87309645649E+03  0.87357931279E+03  0.20000042178E+01 0.  0.
         13    1    3    3    0    0 -0.68976288704E+01 -0.28139226899E+02  0.15176306807E+03  0.15450382962E+03  0.10566000000E+00 0. -1.
         13    1    4    4    0    0  0.54228050196E+01  0.20379625433E+02  0.65288287681E+03  0.65322339054E+03  0.10566000000E+00 0. -1.
        -13    1    4    4    0    0  0.49464391230E+00  0.19054439286E+01  0.49824004060E+02  0.49862991624E+02  0.10566000000E+00 0.  1.
        -14    1    4    4    0    0  0.98017993852E+00  0.58541575378E+01  0.17038957562E+03  0.17049293063E+03  0.00000000000E+00 0.  1.
<mgrwt>
<rscale>  0 0.81350492E+02</rscale>
<asrwt>0</asrwt>
<pdfrwt beam="1">  1        1 0.24797094E-03 0.81350492E+02</pdfrwt>
<pdfrwt beam="2">  1       -2 0.15791845E+00 0.81350492E+02</pdfrwt>
<totfact> 0.24217726E+04</totfact>
</mgrwt>
</event>
<event>
 8    1  0.8577104E-014  0.7629735E+02  0.7818608E-02  0.1339900E+00
          1   -1    0    0  501    0  0.00000000000E+00  0.00000000000E+00  0.26093613541E+01  0.26093662215E+01  0.50400000000E-02 0. -1.
         -2   -1    0    0    0  501 -0.00000000000E+00 -0.00000000000E+00 -0.55773035384E+03  0.55773035385E+03  0.25500000000E-02 0.  1.
        -24    2    1    2    0    0  0.17763568394E-14  0.00000000000E+00 -0.55512099249E+03  0.56033972007E+03  0.76297349801E+02 0.  0.
         66    2    3    3    0    0  0.14669934169E+02 -0.96476876763E+01 -0.52626459480E+03  0.52656121066E+03  0.19999977377E+01 0.  0.
         13    1    3    3    0    0 -0.14669934169E+02  0.96476876763E+01 -0.28856397689E+02  0.33778509406E+02  0.10566000000E+00 0. -1.
         13    1    4    4    0    0  0.19598431225E+01 -0.10326467564E+01 -0.79898010118E+02  0.79928784110E+02  0.10566000000E+00 0. -1.
        -13    1    4    4    0    0  0.67120988146E+01 -0.38322134851E+01 -0.23048721967E+03  0.23061679844E+03  0.10566000000E+00 0.  1.
        -14    1    4    4    0    0  0.59979922324E+01 -0.47828274348E+01 -0.21587936502E+03  0.21601562811E+03  0.00000000000E+00 0.  1.
<mgrwt>
<rscale>  0 0.76297350E+02</rscale>
<asrwt>0</asrwt>
<pdfrwt beam="1">  1        1 0.40144103E-03 0.76297350E+02</pdfrwt>
<pdfrwt beam="2">  1       -2 0.85804575E-01 0.76297350E+02</pdfrwt>
<totfact> 0.52209545E+04</totfact>
</mgrwt>
</event>
<event>
 8    1  0.8577104E-014  0.7876023E+02  0.7818608E-02  0.1332607E+00
          1   -1    0    0  501    0  0.00000000000E+00  0.00000000000E+00  0.73637983408E+02  0.73637983581E+02  0.50400000000E-02 0. -1.
         -2   -1    0    0    0  501 -0.00000000000E+00 -0.00000000000E+00 -0.21059694048E+02  0.21059694202E+02  0.25500000000E-02 0.  1.
        -24    2    1    2    0    0  0.00000000000E+00  0.17763568394E-14  0.52578289360E+02  0.94697677783E+02  0.78760228958E+02 0.  0.
         66    2    3    3    0    0  0.23417741703E+02 -0.85349655298E+01 -0.10312534238E+02  0.27047821021E+02  0.19999991294E+01 0.  0.
         13    1    3    3    0    0 -0.23417741703E+02  0.85349655298E+01  0.62890823598E+02  0.67649856762E+02  0.10566000000E+00 0. -1.
         13    1    4    4    0    0  0.34431241929E+01 -0.15482700750E+01 -0.10372802971E+01  0.39165493592E+01  0.10566000000E+00 0. -1.
        -13    1    4    4    0    0  0.47980084415E+01 -0.13803732663E+01 -0.25904353812E+01  0.56256408398E+01  0.10566000000E+00 0.  1.
         14    1    4    4    0    0  0.15176609069E+02 -0.56063221885E+01 -0.66848185594E+01  0.17505630822E+02  0.00000000000E+00 0. -1.
<mgrwt>
<rscale>  0 0.78760229E+02</rscale>
<asrwt>0</asrwt>
<pdfrwt beam="1">  1        1 0.11328920E-01 0.78760229E+02</pdfrwt>
<pdfrwt beam="2">  1       -2 0.32399530E-02 0.78760229E+02</pdfrwt>
<totfact> 0.14591576E+05</totfact>
</mgrwt>
</event>
<event>
 8    1  0.8577104E-014  0.7909830E+02  0.7818608E-02  0.1331630E+00
          1   -1    0    0  501    0  0.00000000000E+00  0.00000000000E+00  0.43848729789E+01  0.43848758754E+01  0.50400000000E-02 0. -1.
         -2   -1    0    0    0  501 -0.00000000000E+00 -0.00000000000E+00 -0.35671149009E+03  0.35671149010E+03  0.25500000000E-02 0.  1.
        -24    2    1    2    0    0  0.35527136788E-14  0.44408920985E-15 -0.35232661711E+03  0.36109636597E+03  0.79098295778E+02 0.  0.
         66    2    3    3    0    0 -0.17494097650E+02 -0.20187119916E+01 -0.33780820874E+03  0.33827282558E+03  0.19999944403E+01 0.  0.
         13    1    3    3    0    0  0.17494097650E+02  0.20187119916E+01 -0.14518408363E+02  0.22823540394E+02  0.10566000000E+00 0. -1.
         13    1    4    4    0    0 -0.15275746873E+01  0.25710529099E+00 -0.31297959590E+02  0.31336448843E+02  0.10566000000E+00 0. -1.
        -13    1    4    4    0    0 -0.15749693177E+02 -0.23764983535E+01 -0.30230431306E+03  0.30272365193E+03  0.10566000000E+00 0.  1.
        -14    1    4    4    0    0 -0.21682978564E+00  0.10068107083E+00 -0.42059360912E+01  0.42127247996E+01  0.00000000000E+00 0.  1.
<mgrwt>
<rscale>  0 0.79098296E+02</rscale>
<asrwt>0</asrwt>
<pdfrwt beam="1">  1        1 0.67459635E-03 0.79098296E+02</pdfrwt>
<pdfrwt beam="2">  1       -2 0.54878668E-01 0.79098296E+02</pdfrwt>
<totfact> 0.65462658E+04</totfact>
</mgrwt>
</event>
<event>
 8    1  0.8577104E-014  0.7843766E+02  0.7818608E-02  0.1333544E+00
          1   -1    0    0  501    0  0.00000000000E+00  0.00000000000E+00  0.22354979972E+03  0.22354979977E+03  0.50400000000E-02 0. -1.
         -2   -1    0    0    0  501 -0.00000000000E+00 -0.00000000000E+00 -0.68804210751E+01  0.68804215476E+01  0.25500000000E-02 0.  1.
        -24    2    1    2    0    0  0.00000000000E+00  0.35527136788E-14  0.21666937864E+03  0.23043022132E+03  0.78437664787E+02 0.  0.
         66    2    3    3    0    0  0.30649916464E+02 -0.22274072062E+02  0.78945256228E+02  0.87589412292E+02  0.19999998135E+01 0.  0.
         13    1    3    3    0    0 -0.30649916464E+02  0.22274072062E+02  0.13772412241E+03  0.14284080903E+03  0.10566000000E+00 0. -1.
         13    1    4    4    0    0  0.15319217857E+02 -0.10407455853E+02  0.38258330334E+02  0.42505347629E+02  0.10566000000E+00 0. -1.
        -13    1    4    4    0    0  0.74814676650E+01 -0.57283253131E+01  0.18471357536E+02  0.20736158819E+02  0.10566000000E+00 0.  1.
         14    1    4    4    0    0  0.78492309420E+01 -0.61382908953E+01  0.22215568358E+02  0.24347905843E+02  0.00000000000E+00 0. -1.
<mgrwt>
<rscale>  0 0.78437665E+02</rscale>
<asrwt>0</asrwt>
<pdfrwt beam="1">  1        1 0.34392276E-01 0.78437665E+02</pdfrwt>
<pdfrwt beam="2">  1       -2 0.10585264E-02 0.78437665E+02</pdfrwt>
<totfact> 0.17952417E+05</totfact>
</mgrwt>
</event>
<event>
 8    1  0.8577104E-014  0.8016256E+02  0.7818608E-02  0.1328591E+00
         -2   -1    0    0    0  501 -0.00000000000E+00  0.00000000000E+00  0.57019577060E+02  0.57019577117E+02  0.25500000000E-02 0.  1.
          1   -1    0    0  501    0  0.00000000000E+00 -0.00000000000E+00 -0.28174690560E+02  0.28174691011E+02  0.50400000000E-02 0. -1.
        -24    2    1    2    0    0 -0.35527136788E-14 -0.17763568394E-14  0.28844886499E+02  0.85194268127E+02  0.80162558870E+02 0.  0.
         66    2    3    3    0    0 -0.25476604629E+02  0.14733407944E+02  0.43310039746E+02  0.52401242718E+02  0.20000006343E+01 0.  0.
         13    1    3    3    0    0  0.25476604629E+02 -0.14733407944E+02 -0.14465153246E+02  0.32793025410E+02  0.10566000000E+00 0. -1.
         13    1    4    4    0    0 -0.55659059675E+01  0.33573232865E+01  0.10225225343E+02  0.12116819972E+02  0.10566000000E+00 0.  1.
        -13    1    4    4    0    0 -0.55738579557E+01  0.39703924611E+01  0.95848817828E+01  0.11777649665E+02  0.10566000000E+00 0.  1.
        -14    1    4    4    0    0 -0.14336840706E+02  0.74056921963E+01  0.23499932620E+02  0.28506773081E+02  0.00000000000E+00 0.  1.
<mgrwt>
<rscale>  0 0.80162559E+02</rscale>
<asrwt>0</asrwt>
<pdfrwt beam="1">  1        1 0.43345678E-02 0.80162559E+02</pdfrwt>
<pdfrwt beam="2">  1       -2 0.87722426E-02 0.80162559E+02</pdfrwt>
<totfact> 0.11889517E+05</totfact>
</mgrwt>
</event>
<event>
 8    1  0.8577104E-014  0.7977119E+02  0.7818608E-02  0.1329702E+00
         -2   -1    0    0    0  501 -0.00000000000E+00  0.00000000000E+00  0.40312072254E+01  0.40312080319E+01  0.25500000000E-02 0.  1.
          1   -1    0    0  501    0  0.00000000000E+00 -0.00000000000E+00 -0.39463622623E+03  0.39463622626E+03  0.50400000000E-02 0. -1.
        -24    2    1    2    0    0  0.35527136788E-14  0.00000000000E+00 -0.39060501900E+03  0.39866743429E+03  0.79771187123E+02 0.  0.
         66    2    3    3    0    0  0.20597810863E+02 -0.32775636231E+02 -0.24292706328E+03  0.24600014273E+03  0.20000015813E+01 0.  0.
         13    1    3    3    0    0 -0.20597810863E+02  0.32775636231E+02 -0.14767795572E+03  0.15266729156E+03  0.10566000000E+00 0. -1.
         13    1    4    4    0    0  0.32437310064E+00 -0.62573239575E+00 -0.38625388678E+01  0.39277384690E+01  0.10566000000E+00 0.  1.
        -13    1    4    4    0    0  0.70911782880E+00 -0.10878755767E+01 -0.66261329672E+01  0.67530084777E+01  0.10566000000E+00 0.  1.
         14    1    4    4    0    0  0.19564319933E+02 -0.31062028258E+02 -0.23243839144E+03  0.23531939578E+03  0.00000000000E+00 0. -1.
<mgrwt>
<rscale>  0 0.79771187E+02</rscale>
<asrwt>0</asrwt>
<pdfrwt beam="1">  1        1 0.60713236E-01 0.79771187E+02</pdfrwt>
<pdfrwt beam="2">  1       -2 0.62018610E-03 0.79771187E+02</pdfrwt>
<totfact> 0.19094458E+05</totfact>
</mgrwt>
</event>
<event>
 8    1  0.8577104E-014  0.7940279E+02  0.7818608E-02  0.1330755E+00
         -2   -1    0    0    0  501 -0.00000000000E+00  0.00000000000E+00  0.10720816703E+03  0.10720816706E+03  0.25500000000E-02 0.  1.
          1   -1    0    0  501    0  0.00000000000E+00 -0.00000000000E+00 -0.14702245195E+02  0.14702246059E+02  0.50400000000E-02 0. -1.
        -24    2    1    2    0    0  0.00000000000E+00  0.00000000000E+00  0.92505921834E+02  0.12191041312E+03  0.79402791212E+02 0.  0.
         66    2    3    3    0    0 -0.21439968686E+01 -0.23850550966E+02  0.94852201978E+02  0.97848790179E+02  0.20000038482E+01 0.  0.
         13    1    3    3    0    0  0.21439968686E+01  0.23850550966E+02 -0.23462801439E+01  0.24061622940E+02  0.10566000000E+00 0. -1.
         13    1    4    4    0    0 -0.10743558204E+01 -0.81310303989E+01  0.31233084674E+02  0.32292176113E+02  0.10566000000E+00 0. -1.
        -13    1    4    4    0    0 -0.12996138004E+00 -0.11305920362E+02  0.45240742839E+02  0.46632356812E+02  0.10566000000E+00 0.  1.
         14    1    4    4    0    0 -0.93967966820E+00 -0.44136002045E+01  0.18378374465E+02  0.18924257254E+02  0.00000000000E+00 0. -1.
<mgrwt>
<rscale>  0 0.79402791E+02</rscale>
<asrwt>0</asrwt>
<pdfrwt beam="1">  1        1 0.22618839E-02 0.79402791E+02</pdfrwt>
<pdfrwt beam="2">  1       -2 0.16493565E-01 0.79402791E+02</pdfrwt>
<totfact> 0.10628936E+05</totfact>
</mgrwt>
</event>
<event>
 8    1  0.8577104E-014  0.7988494E+02  0.7818608E-02  0.1329378E+00
         -2   -1    0    0    0  501 -0.00000000000E+00  0.00000000000E+00  0.48955402979E+02  0.48955403046E+02  0.25500000000E-02 0.  1.
          1   -1    0    0  501    0  0.00000000000E+00 -0.00000000000E+00 -0.32588865419E+02  0.32588865809E+02  0.50400000000E-02 0. -1.
        -24    2    1    2    0    0  0.00000000000E+00  0.00000000000E+00  0.16366537560E+02  0.81544268854E+02  0.79884943708E+02 0.  0.
         66    2    3    3    0    0  0.35677423768E+02 -0.87667752211E+01  0.24122268770E+02  0.43995667747E+02  0.20000038357E+01 0.  0.
         13    1    3    3    0    0 -0.35677423768E+02  0.87667752211E+01 -0.77557312103E+01  0.37548601108E+02  0.10566000000E+00 0. -1.
         13    1    4    4    0    0  0.20311597104E+01 -0.64046636416E+00  0.18326194544E+01  0.28116658822E+01  0.10566000000E+00 0. -1.
        -13    1    4    4    0    0  0.28189264110E+02 -0.71528687858E+01  0.18972634529E+02  0.34724201473E+02  0.10566000000E+00 0.  1.
        -14    1    4    4    0    0  0.54569999480E+01 -0.97344007118E+00  0.33170147865E+01  0.64598003915E+01  0.00000000000E+00 0.  1.
<mgrwt>
<rscale>  0 0.79884944E+02</rscale>
<asrwt>0</asrwt>
<pdfrwt beam="1">  1        1 0.50136717E-02 0.79884944E+02</pdfrwt>
<pdfrwt beam="2">  1       -2 0.75316005E-02 0.79884944E+02</pdfrwt>
<totfact> 0.12321256E+05</totfact>
</mgrwt>
</event>
<event>
 8    1  0.8577104E-014  0.8665797E+02  0.7818608E-02  0.1311153E+00
          1   -1    0    0  501    0  0.00000000000E+00  0.00000000000E+00  0.92545975087E+02  0.92545975224E+02  0.50400000000E-02 0. -1.
         -2   -1    0    0    0  501 -0.00000000000E+00 -0.00000000000E+00 -0.20286144059E+02  0.20286144220E+02  0.25500000000E-02 0.  1.
        -24    2    1    2    0    0  0.00000000000E+00 -0.17763568394E-14  0.72259831028E+02  0.11283211944E+03  0.86657971347E+02 0.  0.
         66    2    3    3    0    0  0.39302721756E+02 -0.11412064008E+02  0.17714467965E+02  0.44640133566E+02  0.20000017926E+01 0.  0.
         13    1    3    3    0    0 -0.39302721756E+02  0.11412064008E+02  0.54545363063E+02  0.68191985878E+02  0.10566000000E+00 0. -1.
         13    1    4    4    0    0  0.24342728089E+01 -0.79964099880E+00  0.89293585683E+00  0.27154388807E+01  0.10566000000E+00 0.  1.
        -13    1    4    4    0    0  0.19916885292E+02 -0.56605436516E+01  0.81716348225E+01  0.22260073088E+02  0.10566000000E+00 0.  1.
        -14    1    4    4    0    0  0.16951563655E+02 -0.49518793576E+01  0.86498972853E+01  0.19664621597E+02  0.00000000000E+00 0.  1.
<mgrwt>
<rscale>  0 0.86657971E+02</rscale>
<asrwt>0</asrwt>
<pdfrwt beam="1">  1        1 0.14237842E-01 0.86657971E+02</pdfrwt>
<pdfrwt beam="2">  1       -2 0.31209454E-02 0.86657971E+02</pdfrwt>
<totfact> 0.11670428E+05</totfact>
</mgrwt>
</event>
<event>
 8    1  0.8577104E-014  0.7799124E+02  0.7818608E-02  0.1334851E+00
         -2   -1    0    0    0  501 -0.00000000000E+00  0.00000000000E+00  0.38473649202E+02  0.38473649287E+02  0.25500000000E-02 0.  1.
          1   -1    0    0  501    0  0.00000000000E+00 -0.00000000000E+00 -0.39524674522E+02  0.39524674844E+02  0.50400000000E-02 0. -1.
        -24    2    1    2    0    0  0.00000000000E+00  0.00000000000E+00 -0.10510253199E+01  0.77998324130E+02  0.77991242540E+02 0.  0.
         66    2    3    3    0    0 -0.68315576482E+01  0.37640652642E+02 -0.79538222050E+01  0.39124828274E+02  0.19999971614E+01 0.  0.
         13    1    3    3    0    0  0.68315576482E+01 -0.37640652642E+02  0.69027968852E+01  0.38873495856E+02  0.10566000000E+00 0. -1.
         13    1    4    4    0    0 -0.13904547638E+01  0.57754569629E+01 -0.17552773340E+01  0.61952748232E+01  0.10566000000E+00 0. -1.
        -13    1    4    4    0    0 -0.40324891401E+00  0.36283665254E+01 -0.50119038946E+00  0.36864629622E+01  0.10566000000E+00 0.  1.
        -14    1    4    4    0    0 -0.50378539703E+01  0.28236829153E+02 -0.56973544816E+01  0.29243090489E+02  0.00000000000E+00 0.  1.
<mgrwt>
<rscale>  0 0.77991243E+02</rscale>
<asrwt>0</asrwt>
<pdfrwt beam="1">  1        1 0.60807192E-02 0.77991243E+02</pdfrwt>
<pdfrwt beam="2">  1       -2 0.59190230E-02 0.77991243E+02</pdfrwt>
<totfact> 0.13612527E+05</totfact>
</mgrwt>
</event>
<event>
 8    1  0.8577104E-014  0.8262290E+02  0.7818608E-02  0.1321769E+00
          1   -1    0    0  501    0  0.00000000000E+00  0.00000000000E+00  0.17733733084E+03  0.17733733091E+03  0.50400000000E-02 0. -1.
         -2   -1    0    0    0  501 -0.00000000000E+00 -0.00000000000E+00 -0.96236693062E+01  0.96236696441E+01  0.25500000000E-02 0.  1.
        -24    2    1    2    0    0 -0.35527136788E-14  0.00000000000E+00  0.16771366153E+03  0.18696100055E+03  0.82622899148E+02 0.  0.
         66    2    3    3    0    0 -0.26833726299E+02 -0.11882061500E+02  0.18190447682E+02  0.34585034940E+02  0.20000005951E+01 0.  0.
         13    1    3    3    0    0  0.26833726299E+02  0.11882061500E+02  0.14952321385E+03  0.15237596561E+03  0.10566000000E+00 0. -1.
         13    1    4    4    0    0 -0.49499435073E+01 -0.22258799692E+01  0.24910483001E+01  0.59726851609E+01  0.10566000000E+00 0. -1.
        -13    1    4    4    0    0 -0.82998481727E+01 -0.36343993711E+01  0.60321003946E+01  0.10885482887E+02  0.10566000000E+00 0.  1.
         14    1    4    4    0    0 -0.13583934619E+02 -0.60217821597E+01  0.96672989872E+01  0.17726866892E+02  0.00000000000E+00 0. -1.
<mgrwt>
<rscale>  0 0.82622899E+02</rscale>
<asrwt>0</asrwt>
<pdfrwt beam="1">  1        1 0.27282664E-01 0.82622899E+02</pdfrwt>
<pdfrwt beam="2">  1       -2 0.14805647E-02 0.82622899E+02</pdfrwt>
<totfact> 0.14948846E+05</totfact>
</mgrwt>
</event>
<event>
 8    1  0.8577104E-014  0.8342674E+02  0.7818608E-02  0.1319599E+00
         -2   -1    0    0    0  501 -0.00000000000E+00  0.00000000000E+00  0.50682426902E+02  0.50682426966E+02  0.25500000000E-02 0.  1.
          1   -1    0    0  501    0  0.00000000000E+00 -0.00000000000E+00 -0.34331526780E+02  0.34331527150E+02  0.50400000000E-02 0. -1.
        -24    2    1    2    0    0  0.00000000000E+00  0.00000000000E+00  0.16350900122E+02  0.85013954116E+02  0.83426737079E+02 0.  0.
         66    2    3    3    0    0 -0.39977165287E+02 -0.92012748936E+01  0.15748616475E+02  0.43986998176E+02  0.19999708948E+01 0.  0.
         13    1    3    3    0    0  0.39977165287E+02  0.92012748936E+01  0.60228364669E+00  0.41026955940E+02  0.10566000000E+00 0. -1.
         13    1    4    4    0    0 -0.26010554714E+01 -0.51484747490E+00  0.84977997811E+00  0.27863681621E+01  0.10566000000E+00 0. -1.
        -13    1    4    4    0    0 -0.32913919953E+02 -0.72938731990E+01  0.13567847328E+02  0.36340395678E+02  0.10566000000E+00 0.  1.
        -14    1    4    4    0    0 -0.44621898635E+01 -0.13925542197E+01  0.13309891685E+01  0.48602343359E+01  0.00000000000E+00 0.  1.
<mgrwt>
<rscale>  0 0.83426737E+02</rscale>
<asrwt>0</asrwt>
<pdfrwt beam="1">  1        1 0.52817734E-02 0.83426737E+02</pdfrwt>
<pdfrwt beam="2">  1       -2 0.77972964E-02 0.83426737E+02</pdfrwt>
<totfact> 0.10981441E+05</totfact>
</mgrwt>
</event>
<event>
 8    1  0.8577104E-014  0.8229885E+02  0.7818608E-02  0.1322651E+00
          1   -1    0    0  501    0  0.00000000000E+00  0.00000000000E+00  0.28263883814E+02  0.28263884264E+02  0.50400000000E-02 0. -1.
         -2   -1    0    0    0  501 -0.00000000000E+00 -0.00000000000E+00 -0.59909499328E+02  0.59909499383E+02  0.25500000000E-02 0.  1.
        -24    2    1    2    0    0 -0.35527136788E-14  0.00000000000E+00 -0.31645615514E+02  0.88173383646E+02  0.82298849338E+02 0.  0.
         66    2    3    3    0    0 -0.22264060133E+02  0.97981474436E+01 -0.51358982779E+02  0.56863320090E+02  0.19999981388E+01 0.  0.
         13    1    3    3    0    0  0.22264060133E+02 -0.97981474436E+01  0.19713367265E+02  0.31310063556E+02  0.10566000000E+00 0. -1.
         13    1    4    4    0    0 -0.96312362747E+01  0.36995996157E+01 -0.23307477908E+02  0.25489163187E+02  0.10566000000E+00 0. -1.
        -13    1    4    4    0    0 -0.43933584540E+01  0.23809172675E+01 -0.10672147146E+02  0.11784576967E+02  0.10566000000E+00 0.  1.
         14    1    4    4    0    0 -0.82394654045E+01  0.37176305604E+01 -0.17379357724E+02  0.19589579936E+02  0.00000000000E+00 0. -1.
<mgrwt>
<rscale>  0 0.82298849E+02</rscale>
<asrwt>0</asrwt>
<pdfrwt beam="1">  1        1 0.43482899E-02 0.82298849E+02</pdfrwt>
<pdfrwt beam="2">  1       -2 0.92168461E-02 0.82298849E+02</pdfrwt>
<totfact> 0.11023291E+05</totfact>
</mgrwt>
</event>
<event>
 8    1  0.8577104E-014  0.8051538E+02  0.7818608E-02  0.1327595E+00
         -2   -1    0    0    0  501 -0.00000000000E+00  0.00000000000E+00  0.19634971255E+02  0.19634971421E+02  0.25500000000E-02 0.  1.
          1   -1    0    0  501    0  0.00000000000E+00 -0.00000000000E+00 -0.82540560110E+02  0.82540560263E+02  0.50400000000E-02 0. -1.
        -24    2    1    2    0    0  0.00000000000E+00  0.00000000000E+00 -0.62905588855E+02  0.10217553168E+03  0.80515378443E+02 0.  0.
         66    2    3    3    0    0  0.17511394229E+02 -0.32345625298E+02 -0.52160975500E+02  0.63856524861E+02  0.19999995962E+01 0.  0.
         13    1    3    3    0    0 -0.17511394229E+02  0.32345625298E+02 -0.10744613354E+02  0.38319006823E+02  0.10566000000E+00 0. -1.
         13    1    4    4    0    0  0.90212505530E+00 -0.11722626734E+01 -0.21744268617E+01  0.26319813075E+01  0.10566000000E+00 0. -1.
        -13    1    4    4    0    0  0.57168462567E+01 -0.11849529000E+02 -0.19420933654E+02  0.23457994302E+02  0.10566000000E+00 0.  1.
        -14    1    4    4    0    0  0.10892422917E+02 -0.19323833625E+02 -0.30565614985E+02  0.37766549251E+02  0.00000000000E+00 0.  1.
<mgrwt>
<rscale>  0 0.80515378E+02</rscale>
<asrwt>0</asrwt>
<pdfrwt beam="1">  1        1 0.12698548E-01 0.80515378E+02</pdfrwt>
<pdfrwt beam="2">  1       -2 0.30207649E-02 0.80515378E+02</pdfrwt>
<totfact> 0.13994376E+05</totfact>
</mgrwt>
</event>
<event>
 8    1  0.8577104E-014  0.7825783E+02  0.7818608E-02  0.1334069E+00
         -2   -1    0    0    0  501 -0.00000000000E+00  0.00000000000E+00  0.16105882946E+03  0.16105882948E+03  0.25500000000E-02 0.  1.
          1   -1    0    0  501    0  0.00000000000E+00 -0.00000000000E+00 -0.95062891723E+01  0.95062905083E+01  0.50400000000E-02 0. -1.
        -24    2    1    2    0    0  0.00000000000E+00 -0.71054273576E-14  0.15155254029E+03  0.17056511999E+03  0.78257828294E+02 0.  0.
         66    2    3    3    0    0 -0.83582440771E+01 -0.37570472995E+02  0.90873257153E+02  0.98708406657E+02  0.19999984979E+01 0.  0.
         13    1    3    3    0    0  0.83582440771E+01  0.37570472995E+02  0.60679283139E+02  0.71856713336E+02  0.10566000000E+00 0. -1.
         13    1    4    4    0    0 -0.40055504944E+01 -0.15014614377E+02  0.35675264421E+02  0.38912963588E+02  0.10566000000E+00 0. -1.
        -13    1    4    4    0    0 -0.35530223266E+01 -0.16224697167E+02  0.39522460974E+02  0.42870745868E+02  0.10566000000E+00 0.  1.
         14    1    4    4    0    0 -0.79967125600E+00 -0.63311614514E+01  0.15675531758E+02  0.16924697201E+02  0.00000000000E+00 0. -1.
<mgrwt>
<rscale>  0 0.78257828E+02</rscale>
<asrwt>0</asrwt>
<pdfrwt beam="1">  1        1 0.14625062E-02 0.78257828E+02</pdfrwt>
<pdfrwt beam="2">  1       -2 0.24778280E-01 0.78257828E+02</pdfrwt>
<totfact> 0.97651105E+04</totfact>
</mgrwt>
</event>
<event>
 8    1  0.8577104E-014  0.7844354E+02  0.7818608E-02  0.1333527E+00
          1   -1    0    0  501    0  0.00000000000E+00  0.00000000000E+00  0.28618786572E+03  0.28618786576E+03  0.50400000000E-02 0. -1.
         -2   -1    0    0    0  501 -0.00000000000E+00 -0.00000000000E+00 -0.53753046088E+01  0.53753052137E+01  0.25500000000E-02 0.  1.
        -24    2    1    2    0    0  0.00000000000E+00  0.00000000000E+00  0.28081256111E+03  0.29156317098E+03  0.78443535061E+02 0.  0.
         66    2    3    3    0    0  0.34245370849E+02  0.19058700095E+02  0.14273556220E+03  0.14803182156E+03  0.20000008438E+01 0.  0.
         13    1    3    3    0    0 -0.34245370849E+02 -0.19058700095E+02  0.13807699891E+03  0.14353134942E+03  0.10566000000E+00 0. -1.
         13    1    4    4    0    0  0.32546375035E+01  0.22581187139E+01  0.15249174489E+02  0.15755641911E+02  0.10566000000E+00 0. -1.
        -13    1    4    4    0    0  0.37777044473E+01  0.19293503328E+01  0.16802931888E+02  0.17330410488E+02  0.10566000000E+00 0.  1.
        -14    1    4    4    0    0  0.27213028898E+02  0.14871231049E+02  0.11068345582E+03  0.11494576916E+03  0.00000000000E+00 0.  1.
<mgrwt>
<rscale>  0 0.78443535E+02</rscale>
<asrwt>0</asrwt>
<pdfrwt beam="1">  1        1 0.44028897E-01 0.78443535E+02</pdfrwt>
<pdfrwt beam="2">  1       -2 0.82697010E-03 0.78443535E+02</pdfrwt>
<totfact> 0.18829631E+05</totfact>
</mgrwt>
</event>
<event>
 8    1  0.8577104E-014  0.7959229E+02  0.7818608E-02  0.1330212E+00
         -2   -1    0    0    0  501 -0.00000000000E+00  0.00000000000E+00  0.15269786197E+03  0.15269786199E+03  0.25500000000E-02 0.  1.
          1   -1    0    0  501    0  0.00000000000E+00 -0.00000000000E+00 -0.10371677476E+02  0.10371678700E+02  0.50400000000E-02 0. -1.
        -24    2    1    2    0    0  0.11102230246E-15 -0.35527136788E-14  0.14232618449E+03  0.16306954069E+03  0.79592287996E+02 0.  0.
         66    2    3    3    0    0 -0.56026819196E+00  0.21834111604E+02  0.13930384435E+03  0.14101986872E+03  0.19999983903E+01 0.  0.
         13    1    3    3    0    0  0.56026819196E+00 -0.21834111604E+02  0.30223401440E+01  0.22049671970E+02  0.10566000000E+00 0. -1.
         13    1    4    4    0    0 -0.64274741004E-01  0.58791410174E+01  0.34845928322E+02  0.35338623559E+02  0.10566000000E+00 0. -1.
        -13    1    4    4    0    0 -0.77511749448E+00  0.72326567823E+01  0.44197808038E+02  0.44792516458E+02  0.10566000000E+00 0.  1.
        -14    1    4    4    0    0  0.27912404353E+00  0.87223138044E+01  0.60260107985E+02  0.60888728700E+02  0.00000000000E+00 0.  1.
<mgrwt>
<rscale>  0 0.79592288E+02</rscale>
<asrwt>0</asrwt>
<pdfrwt beam="1">  1        1 0.15956429E-02 0.79592288E+02</pdfrwt>
<pdfrwt beam="2">  1       -2 0.23491978E-01 0.79592288E+02</pdfrwt>
<totfact> 0.95198459E+04</totfact>
</mgrwt>
</event>
<event>
 8    1  0.8577104E-014  0.8016306E+02  0.7818608E-02  0.1328589E+00
          1   -1    0    0  501    0  0.00000000000E+00  0.00000000000E+00  0.19978475249E+03  0.19978475255E+03  0.50400000000E-02 0. -1.
         -2   -1    0    0    0  501 -0.00000000000E+00 -0.00000000000E+00 -0.80412992515E+01  0.80412996558E+01  0.25500000000E-02 0.  1.
        -24    2    1    2    0    0  0.00000000000E+00  0.71054273576E-14  0.19174345324E+03  0.20782605221E+03  0.80163059554E+02 0.  0.
         66    2    3    3    0    0 -0.73934337459E+01  0.35798449995E+02  0.53463209808E+02  0.64795884861E+02  0.20000018132E+01 0.  0.
         13    1    3    3    0    0  0.73934337459E+01 -0.35798449995E+02  0.13828024343E+03  0.14303016735E+03  0.10566000000E+00 0. -1.
         13    1    4    4    0    0 -0.21359310333E+01  0.12587057734E+02  0.19718685802E+02  0.23491146366E+02  0.10566000000E+00 0. -1.
        -13    1    4    4    0    0 -0.19099144422E+01  0.95861675144E+01  0.13155093925E+02  0.16389327045E+02  0.10566000000E+00 0.  1.
        -14    1    4    4    0    0 -0.33475882704E+01  0.13625224747E+02  0.20589430081E+02  0.24915411449E+02  0.00000000000E+00 0.  1.
<mgrwt>
<rscale>  0 0.80163060E+02</rscale>
<asrwt>0</asrwt>
<pdfrwt beam="1">  1        1 0.30736118E-01 0.80163060E+02</pdfrwt>
<pdfrwt beam="2">  1       -2 0.12371229E-02 0.80163060E+02</pdfrwt>
<totfact> 0.16580549E+05</totfact>
</mgrwt>
</event>
<event>
 8    1  0.8577104E-014  0.7824736E+02  0.7818608E-02  0.1334100E+00
         -2   -1    0    0    0  501 -0.00000000000E+00  0.00000000000E+00  0.32034198496E+01  0.32034208645E+01  0.25500000000E-02 0.  1.
          1   -1    0    0  501    0  0.00000000000E+00 -0.00000000000E+00 -0.47782127604E+03  0.47782127607E+03  0.50400000000E-02 0. -1.
        -24    2    1    2    0    0 -0.17763568394E-14  0.00000000000E+00 -0.47461785620E+03  0.48102469694E+03  0.78247361892E+02 0.  0.
         66    2    3    3    0    0 -0.94447165694E+01 -0.37931536017E+02 -0.24243245998E+03  0.24557178556E+03  0.20000288971E+01 0.  0.
         13    1    3    3    0    0  0.94447165694E+01  0.37931536017E+02 -0.23218539622E+03  0.23545291138E+03  0.10566000000E+00 0. -1.
         13    1    4    4    0    0 -0.28011442832E+01 -0.13436993544E+02 -0.80833964159E+02  0.81991097873E+02  0.10566000000E+00 0. -1.
        -13    1    4    4    0    0 -0.35388311697E+01 -0.12086856676E+02 -0.78839435611E+02  0.79839108223E+02  0.10566000000E+00 0.  1.
        -14    1    4    4    0    0 -0.31047411165E+01 -0.12407685796E+02 -0.82759060207E+02  0.83741579460E+02  0.00000000000E+00 0.  1.
<mgrwt>
<rscale>  0 0.78247362E+02</rscale>
<asrwt>0</asrwt>
<pdfrwt beam="1">  1        1 0.73510909E-01 0.78247362E+02</pdfrwt>
<pdfrwt beam="2">  1       -2 0.49283428E-03 0.78247362E+02</pdfrwt>
<totfact> 0.20663144E+05</totfact>
</mgrwt>
</event>
<event>
 8    1  0.8577104E-014  0.7939583E+02  0.7818608E-02  0.1330775E+00
          1   -1    0    0  501    0  0.00000000000E+00  0.00000000000E+00  0.17583144538E+02  0.17583145260E+02  0.50400000000E-02 0. -1.
         -2   -1    0    0    0  501 -0.00000000000E+00 -0.00000000000E+00 -0.89626994934E+02  0.89626994970E+02  0.25500000000E-02 0.  1.
        -24    2    1    2    0    0  0.00000000000E+00  0.00000000000E+00 -0.72043850396E+02  0.10721014023E+03  0.79395829792E+02 0.  0.
         66    2    3    3    0    0  0.68912489048E+01 -0.11956893210E+02 -0.86269948457E+02  0.87389705402E+02  0.19999991700E+01 0.  0.
         13    1    3    3    0    0 -0.68912489048E+01  0.11956893210E+02  0.14226098061E+02  0.19820434829E+02  0.10566000000E+00 0. -1.
         13    1    4    4    0    0  0.11206363895E+01 -0.26161995981E+01 -0.19928044132E+02  0.20130534846E+02  0.10566000000E+00 0. -1.
        -13    1    4    4    0    0  0.54231782177E+01 -0.83289529065E+01 -0.57494541939E+02  0.58347372137E+02  0.10566000000E+00 0.  1.
        -14    1    4    4    0    0  0.34743429755E+00 -0.10117407058E+01 -0.88473623863E+01  0.89117984179E+01  0.00000000000E+00 0.  1.
<mgrwt>
<rscale>  0 0.79395830E+02</rscale>
<asrwt>0</asrwt>
<pdfrwt beam="1">  1        1 0.27050993E-02 0.79395830E+02</pdfrwt>
<pdfrwt beam="2">  1       -2 0.13788768E-01 0.79395830E+02</pdfrwt>
<totfact> 0.11108342E+05</totfact>
</mgrwt>
</event>
<event>
 8    1  0.8577104E-014  0.7831523E+02  0.7818608E-02  0.1333902E+00
          1   -1    0    0  501    0  0.00000000000E+00  0.00000000000E+00  0.27980035516E+01  0.27980080908E+01  0.50400000000E-02 0. -1.
         -2   -1    0    0    0  501 -0.00000000000E+00 -0.00000000000E+00 -0.54800414512E+03  0.54800414513E+03  0.25500000000E-02 0.  1.
        -24    2    1    2    0    0  0.00000000000E+00  0.00000000000E+00 -0.54520614157E+03  0.55080215322E+03  0.78315229580E+02 0.  0.
         66    2    3    3    0    0  0.22336551865E+02  0.13159481947E+02 -0.47893906764E+03  0.47964437244E+03  0.19999962899E+01 0.  0.
         13    1    3    3    0    0 -0.22336551865E+02 -0.13159481947E+02 -0.66267073931E+02  0.71157780781E+02  0.10566000000E+00 0. -1.
         13    1    4    4    0    0  0.17102151826E+01  0.72166535111E+00 -0.33776361351E+02  0.33827494542E+02  0.10566000000E+00 0. -1.
        -13    1    4    4    0    0  0.93716517958E+01  0.51229829998E+01 -0.18485120412E+03  0.18515953025E+03  0.10566000000E+00 0.  1.
        -14    1    4    4    0    0  0.11254684886E+02  0.73148335963E+01 -0.26031150216E+03  0.26065734764E+03  0.00000000000E+00 0.  1.
<mgrwt>
<rscale>  0 0.78315230E+02</rscale>
<asrwt>0</asrwt>
<pdfrwt beam="1">  1        1 0.43046287E-03 0.78315230E+02</pdfrwt>
<pdfrwt beam="2">  1       -2 0.84308245E-01 0.78315230E+02</pdfrwt>
<totfact> 0.49519064E+04</totfact>
</mgrwt>
</event>
<event>
 8    1  0.8577104E-014  0.7914511E+02  0.7818608E-02  0.1331495E+00
          1   -1    0    0  501    0  0.00000000000E+00  0.00000000000E+00  0.19315849229E+02  0.19315849887E+02  0.50400000000E-02 0. -1.
         -2   -1    0    0    0  501 -0.00000000000E+00 -0.00000000000E+00 -0.81072651052E+02  0.81072651092E+02  0.25500000000E-02 0.  1.
        -24    2    1    2    0    0  0.00000000000E+00 -0.17763568394E-14 -0.61756801823E+02  0.10038850098E+03  0.79145110761E+02 0.  0.
         66    2    3    3    0    0  0.19183892784E+02  0.12811640366E+02 -0.71641939881E+02  0.75290951503E+02  0.19999892592E+01 0.  0.
         13    1    3    3    0    0 -0.19183892784E+02 -0.12811640366E+02  0.98851380584E+01  0.25097549476E+02  0.10566000000E+00 0. -1.
         13    1    4    4    0    0  0.10374493208E+01  0.74415026078E+00 -0.31761300757E+01  0.34247667070E+01  0.10566000000E+00 0. -1.
        -13    1    4    4    0    0  0.88969081721E+00  0.52766686407E+00 -0.24009941379E+01  0.26164707060E+01  0.10566000000E+00 0.  1.
        -14    1    4    4    0    0  0.17256752646E+02  0.11539823241E+02 -0.66064815668E+02  0.69249714090E+02  0.00000000000E+00 0.  1.
<mgrwt>
<rscale>  0 0.79145111E+02</rscale>
<asrwt>0</asrwt>
<pdfrwt beam="1">  1        1 0.29716692E-02 0.79145111E+02</pdfrwt>
<pdfrwt beam="2">  1       -2 0.12472715E-01 0.79145111E+02</pdfrwt>
<totfact> 0.11453140E+05</totfact>
</mgrwt>
</event>
<event>
 8    1  0.8577104E-014  0.8076603E+02  0.7818608E-02  0.1326892E+00
         -2   -1    0    0    0  501 -0.00000000000E+00  0.00000000000E+00  0.59062757189E+01  0.59062762693E+01  0.25500000000E-02 0.  1.
          1   -1    0    0  501    0  0.00000000000E+00 -0.00000000000E+00 -0.27611099641E+03  0.27611099645E+03  0.50400000000E-02 0. -1.
        -24    2    1    2    0    0  0.00000000000E+00  0.00000000000E+00 -0.27020472069E+03  0.28201727272E+03  0.80766026469E+02 0.  0.
         66    2    3    3    0    0 -0.29922112733E+02 -0.19825483889E+02 -0.70761838678E+02  0.79370148414E+02  0.20000010899E+01 0.  0.
         13    1    3    3    0    0  0.29922112733E+02  0.19825483889E+02 -0.19944288201E+03  0.20264712431E+03  0.10566000000E+00 0. -1.
         13    1    4    4    0    0 -0.98857134255E+01 -0.60731279977E+01 -0.21166714413E+02  0.24138168461E+02  0.10566000000E+00 0. -1.
        -13    1    4    4    0    0 -0.75730277358E+01 -0.54813653903E+01 -0.18826746605E+02  0.21020315588E+02  0.10566000000E+00 0.  1.
         14    1    4    4    0    0 -0.12463371572E+02 -0.82709905006E+01 -0.30768377660E+02  0.34211664365E+02  0.00000000000E+00 0. -1.
<mgrwt>
<rscale>  0 0.80766026E+02</rscale>
<asrwt>0</asrwt>
<pdfrwt beam="1">  1        1 0.42478605E-01 0.80766026E+02</pdfrwt>
<pdfrwt beam="2">  1       -2 0.90865806E-03 0.80766026E+02</pdfrwt>
<totfact> 0.17314589E+05</totfact>
</mgrwt>
</event>
<event>
 8    1  0.8577104E-014  0.7693100E+02  0.7818608E-02  0.1337994E+00
          1   -1    0    0  501    0  0.00000000000E+00  0.00000000000E+00  0.62997206890E+02  0.62997207091E+02  0.50400000000E-02 0. -1.
         -2   -1    0    0    0  501 -0.00000000000E+00 -0.00000000000E+00 -0.23486669868E+02  0.23486670007E+02  0.25500000000E-02 0.  1.
        -24    2    1    2    0    0  0.35527136788E-14  0.17763568394E-14  0.39510537021E+02  0.86483877098E+02  0.76930998058E+02 0.  0.
         66    2    3    3    0    0 -0.25749145439E+02  0.15325052359E+02 -0.72984511876E+01  0.30905389697E+02  0.20000004715E+01 0.  0.
         13    1    3    3    0    0  0.25749145439E+02 -0.15325052359E+02  0.46808988209E+02  0.55578487402E+02  0.10566000000E+00 0. -1.
         13    1    4    4    0    0 -0.88290773251E+01  0.57692986375E+01 -0.20452131929E+01  0.10743904049E+02  0.10566000000E+00 0. -1.
        -13    1    4    4    0    0 -0.81097905808E+01  0.43695828527E+01 -0.19407599775E+01  0.94148643589E+01  0.10566000000E+00 0.  1.
        -14    1    4    4    0    0 -0.88102775334E+01  0.51861708692E+01 -0.33124780171E+01  0.10746621288E+02  0.00000000000E+00 0.  1.
<mgrwt>
<rscale>  0 0.76930998E+02</rscale>
<asrwt>0</asrwt>
<pdfrwt beam="1">  1        1 0.96918779E-02 0.76930998E+02</pdfrwt>
<pdfrwt beam="2">  1       -2 0.36133339E-02 0.76930998E+02</pdfrwt>
<totfact> 0.15186943E+05</totfact>
</mgrwt>
</event>
<event>
 8    1  0.8577104E-014  0.7960123E+02  0.7818608E-02  0.1330187E+00
         -2   -1    0    0    0  501 -0.00000000000E+00  0.00000000000E+00  0.53648337602E+02  0.53648337662E+02  0.25500000000E-02 0.  1.
          1   -1    0    0  501    0  0.00000000000E+00 -0.00000000000E+00 -0.29527266977E+02  0.29527267408E+02  0.50400000000E-02 0. -1.
        -24    2    1    2    0    0  0.00000000000E+00  0.00000000000E+00  0.24121070624E+02  0.83175605070E+02  0.79601226314E+02 0.  0.
         66    2    3    3    0    0  0.36993586402E+02 -0.22257336046E+01  0.27159824198E+02  0.45990601207E+02  0.20000059775E+01 0.  0.
         13    1    3    3    0    0 -0.36993586402E+02  0.22257336046E+01 -0.30387535741E+01  0.37185003863E+02  0.10566000000E+00 0. -1.
         13    1    4    4    0    0  0.71424493689E+01 -0.16208810175E-01  0.56481380482E+01  0.91064522817E+01  0.10566000000E+00 0. -1.
        -13    1    4    4    0    0  0.11008934620E+02 -0.51599299340E+00  0.72452749337E+01  0.13189695339E+02  0.10566000000E+00 0.  1.
         14    1    4    4    0    0  0.18842202413E+02 -0.16935318010E+01  0.14266411216E+02  0.23694453586E+02  0.00000000000E+00 0. -1.
<mgrwt>
<rscale>  0 0.79601226E+02</rscale>
<asrwt>0</asrwt>
<pdfrwt beam="1">  1        1 0.45426565E-02 0.79601226E+02</pdfrwt>
<pdfrwt beam="2">  1       -2 0.82535904E-02 0.79601226E+02</pdfrwt>
<totfact> 0.12235322E+05</totfact>
</mgrwt>
</event>
<event>
 8    1  0.8577104E-014  0.7833185E+02  0.7818608E-02  0.1333853E+00
         -2   -1    0    0    0  501 -0.00000000000E+00  0.00000000000E+00  0.23833673697E+03  0.23833673698E+03  0.25500000000E-02 0.  1.
          1   -1    0    0  501    0  0.00000000000E+00 -0.00000000000E+00 -0.64361434418E+01  0.64361454152E+01  0.50400000000E-02 0. -1.
        -24    2    1    2    0    0 -0.44408920985E-15  0.00000000000E+00  0.23190059353E+03  0.24477288240E+03  0.78331849710E+02 0.  0.
         66    2    3    3    0    0 -0.26458983694E+01 -0.17623058782E+02  0.22491976810E+03  0.22563349718E+03  0.19999963402E+01 0.  0.
         13    1    3    3    0    0  0.26458983694E+01  0.17623058782E+02  0.69808254243E+01  0.19139385222E+02  0.10566000000E+00 0. -1.
         13    1    4    4    0    0  0.16414957417E+00 -0.39047270515E+00  0.53766750837E+01  0.53943686384E+01  0.10566000000E+00 0. -1.
        -13    1    4    4    0    0 -0.30220185129E+00 -0.49218223044E+01  0.61908044500E+02  0.62104209186E+02  0.10566000000E+00 0.  1.
        -14    1    4    4    0    0 -0.25078460922E+01 -0.12310763773E+02  0.15763504852E+03  0.15813491935E+03  0.00000000000E+00 0.  1.
<mgrwt>
<rscale>  0 0.78331850E+02</rscale>
<asrwt>0</asrwt>
<pdfrwt beam="1">  1        1 0.99017602E-03 0.78331850E+02</pdfrwt>
<pdfrwt beam="2">  1       -2 0.36667192E-01 0.78331850E+02</pdfrwt>
<totfact> 0.83267614E+04</totfact>
</mgrwt>
</event>
<event>
 8    1  0.8577104E-014  0.7627594E+02  0.7818608E-02  0.1339965E+00
          1   -1    0    0  501    0  0.00000000000E+00  0.00000000000E+00  0.82314282192E+02  0.82314282347E+02  0.50400000000E-02 0. -1.
         -2   -1    0    0    0  501 -0.00000000000E+00 -0.00000000000E+00 -0.17670136134E+02  0.17670136318E+02  0.25500000000E-02 0.  1.
        -24    2    1    2    0    0  0.00000000000E+00  0.00000000000E+00  0.64644146058E+02  0.99984418664E+02  0.76275935629E+02 0.  0.
         66    2    3    3    0    0 -0.44711972321E+01  0.32347800984E+02  0.65863392471E+01  0.33372918689E+02  0.20000010012E+01 0.  0.
         13    1    3    3    0    0  0.44711972321E+01 -0.32347800984E+02  0.58057806811E+02  0.66611499975E+02  0.10566000000E+00 0. -1.
         13    1    4    4    0    0  0.25591085338E-01  0.17054298438E+01  0.24472428693E+00  0.17263255394E+01  0.10566000000E+00 0. -1.
        -13    1    4    4    0    0 -0.19825462257E+01  0.17939106291E+02  0.33757886564E+01  0.18361621310E+02  0.10566000000E+00 0.  1.
        -14    1    4    4    0    0 -0.25142420917E+01  0.12703264849E+02  0.29658263037E+01  0.13284971840E+02  0.00000000000E+00 0.  1.
<mgrwt>
<rscale>  0 0.76275936E+02</rscale>
<asrwt>0</asrwt>
<pdfrwt beam="1">  1        1 0.12663736E-01 0.76275936E+02</pdfrwt>
<pdfrwt beam="2">  1       -2 0.27184825E-02 0.76275936E+02</pdfrwt>
<totfact> 0.16199024E+05</totfact>
</mgrwt>
</event>
<event>
 8    1  0.8577104E-014  0.8021688E+02  0.7818608E-02  0.1328437E+00
         -2   -1    0    0    0  501 -0.00000000000E+00  0.00000000000E+00  0.27015281936E+02  0.27015282056E+02  0.25500000000E-02 0.  1.
          1   -1    0    0  501    0  0.00000000000E+00 -0.00000000000E+00 -0.59547299623E+02  0.59547299836E+02  0.50400000000E-02 0. -1.
        -24    2    1    2    0    0  0.00000000000E+00  0.00000000000E+00 -0.32532017687E+02  0.86562581892E+02  0.80216883566E+02 0.  0.
         66    2    3    3    0    0 -0.11370206794E+02 -0.57325438267E+01  0.24737610127E+02  0.27894318791E+02  0.20000011940E+01 0.  0.
         13    1    3    3    0    0  0.11370206794E+02  0.57325438267E+01 -0.57269627814E+02  0.58668263101E+02  0.10566000000E+00 0. -1.
         13    1    4    4    0    0 -0.17411649070E+01 -0.11260745543E+01  0.28294522736E+01  0.35095104130E+01  0.10566000000E+00 0. -1.
        -13    1    4    4    0    0 -0.82356451313E+01 -0.42538994718E+01  0.19023284272E+02  0.21161711177E+02  0.10566000000E+00 0.  1.
        -14    1    4    4    0    0 -0.13933967557E+01 -0.35256980060E+00  0.28848735819E+01  0.32230972009E+01  0.00000000000E+00 0.  1.
<mgrwt>
<rscale>  0 0.80216884E+02</rscale>
<asrwt>0</asrwt>
<pdfrwt beam="1">  1        1 0.91611230E-02 0.80216884E+02</pdfrwt>
<pdfrwt beam="2">  1       -2 0.41561973E-02 0.80216884E+02</pdfrwt>
<totfact> 0.13421831E+05</totfact>
</mgrwt>
</event>
<event>
 8    1  0.8577104E-014  0.8169856E+02  0.7818608E-02  0.1324299E+00
         -2   -1    0    0    0  501 -0.00000000000E+00  0.00000000000E+00  0.52220310213E+02  0.52220310275E+02  0.25500000000E-02 0.  1.
          1   -1    0    0  501    0  0.00000000000E+00 -0.00000000000E+00 -0.31954305095E+02  0.31954305492E+02  0.50400000000E-02 0. -1.
        -24    2    1    2    0    0 -0.71054273576E-14  0.17763568394E-14  0.20266005118E+02  0.84174615767E+02  0.81698561652E+02 0.  0.
         66    2    3    3    0    0  0.29836826570E+02 -0.11998139263E+02  0.36050151146E+02  0.48350852768E+02  0.20000000451E+01 0.  0.
         13    1    3    3    0    0 -0.29836826570E+02  0.11998139263E+02 -0.15784146028E+02  0.35823762999E+02  0.10566000000E+00 0. -1.
         13    1    4    4    0    0  0.11362150352E+02 -0.43921246304E+01  0.12827140562E+02  0.17689994868E+02  0.10566000000E+00 0. -1.
        -13    1    4    4    0    0  0.64803564592E+01 -0.20410667089E+01  0.80923754073E+01  0.10566866939E+02  0.10566000000E+00 0.  1.
         14    1    4    4    0    0  0.11994319759E+02 -0.55649479235E+01  0.15130635177E+02  0.20093990961E+02  0.00000000000E+00 0. -1.
<mgrwt>
<rscale>  0 0.81698562E+02</rscale>
<asrwt>0</asrwt>
<pdfrwt beam="1">  1        1 0.49160470E-02 0.81698562E+02</pdfrwt>
<pdfrwt beam="2">  1       -2 0.80338938E-02 0.81698562E+02</pdfrwt>
<totfact> 0.11514274E+05</totfact>
</mgrwt>
</event>
<event>
 8    1  0.8577104E-014  0.8040450E+02  0.7818608E-02  0.1327907E+00
         -2   -1    0    0    0  501 -0.00000000000E+00  0.00000000000E+00  0.74487330857E+01  0.74487335222E+01  0.25500000000E-02 0.  1.
          1   -1    0    0  501    0  0.00000000000E+00 -0.00000000000E+00 -0.21697932097E+03  0.21697932102E+03  0.50400000000E-02 0. -1.
        -24    2    1    2    0    0  0.00000000000E+00  0.00000000000E+00 -0.20953058788E+03  0.22442805455E+03  0.80404504912E+02 0.  0.
         66    2    3    3    0    0  0.91841500811E+01 -0.39054385281E+02 -0.98828765903E+02  0.10668045085E+03  0.20000004943E+01 0.  0.
         13    1    3    3    0    0 -0.91841500811E+01  0.39054385281E+02 -0.11070182198E+03  0.11774760369E+03  0.10566000000E+00 0. -1.
         13    1    4    4    0    0  0.51284092640E+01 -0.18728142694E+02 -0.48736778842E+02  0.52462640862E+02  0.10566000000E+00 0. -1.
        -13    1    4    4    0    0  0.97450456119E+00 -0.69014755043E+01 -0.16631206159E+02  0.18032975506E+02  0.10566000000E+00 0. -1.
        -14    1    4    4    0    0  0.30812362560E+01 -0.13424767083E+02 -0.33460780903E+02  0.36184834485E+02  0.00000000000E+00 0.  1.
<mgrwt>
<rscale>  0 0.80404505E+02</rscale>
<asrwt>0</asrwt>
<pdfrwt beam="1">  1        1 0.33381429E-01 0.80404505E+02</pdfrwt>
<pdfrwt beam="2">  1       -2 0.11459591E-02 0.80404505E+02</pdfrwt>
<totfact> 0.16715436E+05</totfact>
</mgrwt>
</event>
<event>
 8    1  0.8577104E-014  0.8322001E+02  0.7818608E-02  0.1320154E+00
         -2   -1    0    0    0  501 -0.00000000000E+00  0.00000000000E+00  0.15933020969E+03  0.15933020971E+03  0.25500000000E-02 0.  1.
          1   -1    0    0  501    0  0.00000000000E+00 -0.00000000000E+00 -0.10866692190E+02  0.10866693358E+02  0.50400000000E-02 0. -1.
        -24    2    1    2    0    0  0.17763568394E-14  0.71054273576E-14  0.14846351750E+03  0.17019690307E+03  0.83220008326E+02 0.  0.
         66    2    3    3    0    0  0.97374555933E+01  0.39633948284E+02  0.90599777968E+02  0.99388065946E+02  0.19999966995E+01 0.  0.
         13    1    3    3    0    0 -0.97374555933E+01 -0.39633948284E+02  0.57863739537E+02  0.70808837127E+02  0.10566000000E+00 0. -1.
         13    1    4    4    0    0  0.57544434011E+01  0.26235451675E+02  0.58318970788E+02  0.64206900418E+02  0.10566000000E+00 0. -1.
        -13    1    4    4    0    0  0.11169206975E+01  0.38120967976E+01  0.97396347915E+01  0.10519089492E+02  0.10566000000E+00 0.  1.
        -14    1    4    4    0    0  0.28660914947E+01  0.95863998114E+01  0.22541172388E+02  0.24662076036E+02  0.00000000000E+00 0.  1.
<mgrwt>
<rscale>  0 0.83220008E+02</rscale>
<asrwt>0</asrwt>
<pdfrwt beam="1">  1        1 0.16717990E-02 0.83220008E+02</pdfrwt>
<pdfrwt beam="2">  1       -2 0.24512338E-01 0.83220008E+02</pdfrwt>
<totfact> 0.83656527E+04</totfact>
</mgrwt>
</event>
<event>
 8    1  0.8577104E-014  0.8286514E+02  0.7818608E-02  0.1321112E+00
          1   -1    0    0  501    0  0.00000000000E+00  0.00000000000E+00  0.12071837861E+03  0.12071837871E+03  0.50400000000E-02 0. -1.
         -2   -1    0    0    0  501 -0.00000000000E+00 -0.00000000000E+00 -0.14220351051E+02  0.14220351279E+02  0.25500000000E-02 0.  1.
        -24    2    1    2    0    0  0.00000000000E+00  0.00000000000E+00  0.10649802756E+03  0.13493872999E+03  0.82865137292E+02 0.  0.
         66    2    3    3    0    0 -0.73726799565E+01  0.20685126668E+02 -0.38869296267E+01  0.22390603346E+02  0.20000053185E+01 0.  0.
         13    1    3    3    0    0  0.73726799565E+01 -0.20685126668E+02  0.11038495718E+03  0.11254812665E+03  0.10566000000E+00 0. -1.
         13    1    4    4    0    0 -0.36151641452E+01  0.10822376773E+02 -0.11464215458E+01  0.11468160149E+02  0.10566000000E+00 0. -1.
        -13    1    4    4    0    0 -0.12184852718E+01  0.39355587624E+01 -0.12097886058E+01  0.42951230059E+01  0.10566000000E+00 0.  1.
         14    1    4    4    0    0 -0.25390305395E+01  0.59271911330E+01 -0.15307194751E+01  0.66273201914E+01  0.00000000000E+00 0. -1.
<mgrwt>
<rscale>  0 0.82865137E+02</rscale>
<asrwt>0</asrwt>
<pdfrwt beam="1">  1        1 0.18572058E-01 0.82865137E+02</pdfrwt>
<pdfrwt beam="2">  1       -2 0.21877464E-02 0.82865137E+02</pdfrwt>
<totfact> 0.13809448E+05</totfact>
</mgrwt>
</event>
<event>
 8    1  0.8577104E-014  0.7080437E+02  0.7818608E-02  0.1357379E+00
          1   -1    0    0  501    0  0.00000000000E+00  0.00000000000E+00  0.72559911513E+01  0.72559929017E+01  0.50400000000E-02 0. -1.
         -2   -1    0    0    0  501 -0.00000000000E+00 -0.00000000000E+00 -0.17272823136E+03  0.17272823138E+03  0.25500000000E-02 0.  1.
        -24    2    1    2    0    0  0.00000000000E+00  0.00000000000E+00 -0.16547224021E+03  0.17998422428E+03  0.70804369287E+02 0.  0.
         66    2    3    3    0    0 -0.20769530390E+02  0.15686257936E+02 -0.14369729501E+03  0.14604911734E+03  0.20000003374E+01 0.  0.
         13    1    3    3    0    0  0.20769530390E+02 -0.15686257936E+02 -0.21774945194E+02  0.33935106938E+02  0.10566000000E+00 0. -1.
         13    1    4    4    0    0 -0.12906184192E+01  0.13358765965E+01 -0.95325071129E+01  0.97123693339E+01  0.10566000000E+00 0. -1.
        -13    1    4    4    0    0 -0.38205824809E+01  0.31638694982E+01 -0.24720480237E+02  0.25213492973E+02  0.10566000000E+00 0.  1.
        -14    1    4    4    0    0 -0.15658329490E+02  0.11186511841E+02 -0.10944430766E+03  0.11112325504E+03  0.00000000000E+00 0.  1.
<mgrwt>
<rscale>  0 0.70804369E+02</rscale>
<asrwt>0</asrwt>
<pdfrwt beam="1">  1        1 0.11163066E-02 0.70804369E+02</pdfrwt>
<pdfrwt beam="2">  1       -2 0.26573571E-01 0.70804369E+02</pdfrwt>
<totfact> 0.12310965E+05</totfact>
</mgrwt>
</event>
<event>
 8    1  0.8577104E-014  0.7984955E+02  0.7818608E-02  0.1329479E+00
         -2   -1    0    0    0  501 -0.00000000000E+00  0.00000000000E+00  0.13400437431E+03  0.13400437434E+03  0.25500000000E-02 0.  1.
          1   -1    0    0  501    0  0.00000000000E+00 -0.00000000000E+00 -0.11895041846E+02  0.11895042914E+02  0.50400000000E-02 0. -1.
        -24    2    1    2    0    0  0.00000000000E+00  0.00000000000E+00  0.12210933247E+03  0.14589941725E+03  0.79849551526E+02 0.  0.
         66    2    3    3    0    0  0.19058738601E+02  0.23524348499E+02  0.10857674897E+03  0.11273659968E+03  0.20000001067E+01 0.  0.
         13    1    3    3    0    0 -0.19058738601E+02 -0.23524348499E+02  0.13532583497E+02  0.33162817575E+02  0.10566000000E+00 0. -1.
         13    1    4    4    0    0  0.43807761677E+01  0.57642331852E+01  0.28636726071E+02  0.29537955721E+02  0.10566000000E+00 0. -1.
        -13    1    4    4    0    0  0.92783337629E+01  0.10633836405E+02  0.48316383152E+02  0.50335375225E+02  0.10566000000E+00 0.  1.
         14    1    4    4    0    0  0.53996286707E+01  0.71262789089E+01  0.31623639747E+02  0.32863268731E+02  0.00000000000E+00 0. -1.
<mgrwt>
<rscale>  0 0.79849552E+02</rscale>
<asrwt>0</asrwt>
<pdfrwt beam="1">  1        1 0.18300064E-02 0.79849552E+02</pdfrwt>
<pdfrwt beam="2">  1       -2 0.20616059E-01 0.79849552E+02</pdfrwt>
<totfact> 0.98412077E+04</totfact>
</mgrwt>
</event>
<event>
 8    1  0.8577104E-014  0.8025252E+02  0.7818608E-02  0.1328336E+00
          1   -1    0    0  501    0  0.00000000000E+00  0.00000000000E+00  0.84699363451E+01  0.84699378446E+01  0.50400000000E-02 0. -1.
         -2   -1    0    0    0  501 -0.00000000000E+00 -0.00000000000E+00 -0.19009783198E+03  0.19009783200E+03  0.25500000000E-02 0.  1.
        -24    2    1    2    0    0  0.00000000000E+00  0.00000000000E+00 -0.18162789564E+03  0.19856776984E+03  0.80252518634E+02 0.  0.
         66    2    3    3    0    0  0.35854786489E+02  0.14918800600E+02 -0.11561001896E+03  0.12197464006E+03  0.20000018833E+01 0.  0.
         13    1    3    3    0    0 -0.35854786489E+02 -0.14918800600E+02 -0.66017876675E+02  0.76593129785E+02  0.10566000000E+00 0. -1.
         13    1    4    4    0    0  0.13290563604E+02  0.54893744149E+01 -0.45380950055E+02  0.47604769764E+02  0.10566000000E+00 0. -1.
        -13    1    4    4    0    0  0.10361473114E+02  0.42672479589E+01 -0.33413425543E+02  0.35242555253E+02  0.10566000000E+00 0.  1.
        -14    1    4    4    0    0  0.12202749771E+02  0.51621782266E+01 -0.36815643363E+02  0.39127315041E+02  0.00000000000E+00 0.  1.
<mgrwt>
<rscale>  0 0.80252519E+02</rscale>
<asrwt>0</asrwt>
<pdfrwt beam="1">  1        1 0.13030674E-02 0.80252519E+02</pdfrwt>
<pdfrwt beam="2">  1       -2 0.29245817E-01 0.80252519E+02</pdfrwt>
<totfact> 0.86111433E+04</totfact>
</mgrwt>
</event>
<event>
 8    1  0.8577104E-014  0.8077836E+02  0.7818608E-02  0.1326857E+00
          1   -1    0    0  501    0  0.00000000000E+00  0.00000000000E+00  0.46809673182E+02  0.46809673453E+02  0.50400000000E-02 0. -1.
         -2   -1    0    0    0  501 -0.00000000000E+00 -0.00000000000E+00 -0.34849332095E+02  0.34849332188E+02  0.25500000000E-02 0.  1.
        -24    2    1    2    0    0  0.71054273576E-14  0.17763568394E-14  0.11960341087E+02  0.81659005641E+02  0.80778359994E+02 0.  0.
         66    2    3    3    0    0  0.34666592294E+02  0.10672858258E+02 -0.11917942960E+02  0.38232445361E+02  0.19999973029E+01 0.  0.
         13    1    3    3    0    0 -0.34666592294E+02 -0.10672858258E+02  0.23878284046E+02  0.43426560280E+02  0.10566000000E+00 0. -1.
         13    1    4    4    0    0  0.87350106508E+01  0.22852953025E+01 -0.24530003942E+01  0.93568884069E+01  0.10566000000E+00 0. -1.
        -13    1    4    4    0    0  0.22551898335E+02  0.69366330248E+01 -0.84173223556E+01  0.25051296891E+02  0.10566000000E+00 0.  1.
        -14    1    4    4    0    0  0.33796833085E+01  0.14509299311E+01 -0.10476202097E+01  0.38242600637E+01  0.00000000000E+00 0.  1.
<mgrwt>
<rscale>  0 0.80778360E+02</rscale>
<asrwt>0</asrwt>
<pdfrwt beam="1">  1        1 0.72014882E-02 0.80778360E+02</pdfrwt>
<pdfrwt beam="2">  1       -2 0.53614357E-02 0.80778360E+02</pdfrwt>
<totfact> 0.12673510E+05</totfact>
</mgrwt>
</event>
<event>
 8    1  0.8577104E-014  0.7880953E+02  0.7818608E-02  0.1332464E+00
         -2   -1    0    0    0  501 -0.00000000000E+00  0.00000000000E+00  0.20464725830E+02  0.20464725989E+02  0.25500000000E-02 0.  1.
          1   -1    0    0  501    0  0.00000000000E+00 -0.00000000000E+00 -0.75873747773E+02  0.75873747940E+02  0.50400000000E-02 0. -1.
        -24    2    1    2    0    0  0.71054273576E-14 -0.17763568394E-14 -0.55409021943E+02  0.96338473929E+02  0.78809528905E+02 0.  0.
         66    2    3    3    0    0  0.38171399958E+02 -0.74315286657E+01 -0.35302020617E+02  0.52559642749E+02  0.19999982950E+01 0.  0.
         13    1    3    3    0    0 -0.38171399958E+02  0.74315286657E+01 -0.20107001326E+02  0.43778831180E+02  0.10566000000E+00 0. -1.
         13    1    4    4    0    0  0.99633420924E+01 -0.19918239396E+01 -0.10195027371E+02  0.14393932589E+02  0.10566000000E+00 0. -1.
        -13    1    4    4    0    0  0.15134759880E+02 -0.34084462733E+01 -0.13449448579E+02  0.20532347497E+02  0.10566000000E+00 0.  1.
        -14    1    4    4    0    0  0.13073297986E+02 -0.20312584529E+01 -0.11657544668E+02  0.17633362663E+02  0.00000000000E+00 0.  1.
<mgrwt>
<rscale>  0 0.78809529E+02</rscale>
<asrwt>0</asrwt>
<pdfrwt beam="1">  1        1 0.11672884E-01 0.78809529E+02</pdfrwt>
<pdfrwt beam="2">  1       -2 0.31484194E-02 0.78809529E+02</pdfrwt>
<totfact> 0.14635679E+05</totfact>
</mgrwt>
</event>
<event>
 8    1  0.8577104E-014  0.7711998E+02  0.7818608E-02  0.1337429E+00
          1   -1    0    0  501    0  0.00000000000E+00  0.00000000000E+00  0.18073276061E+03  0.18073276068E+03  0.50400000000E-02 0. -1.
         -2   -1    0    0    0  501 -0.00000000000E+00 -0.00000000000E+00 -0.82269144906E+01  0.82269148858E+01  0.25500000000E-02 0.  1.
        -24    2    1    2    0    0 -0.71054273576E-14  0.00000000000E+00  0.17250584612E+03  0.18895967556E+03  0.77119984729E+02 0.  0.
         66    2    3    3    0    0 -0.31399799307E+02 -0.10212121371E+02  0.37636544554E+02  0.50107327771E+02  0.19999977477E+01 0.  0.
         13    1    3    3    0    0  0.31399799307E+02  0.10212121371E+02  0.13486930156E+03  0.13885234779E+03  0.10566000000E+00 0. -1.
         13    1    4    4    0    0 -0.13179535813E+02 -0.41165446947E+01  0.16647016969E+02  0.21628232532E+02  0.10566000000E+00 0. -1.
        -13    1    4    4    0    0 -0.17639747436E+02 -0.59412126118E+01  0.20596637160E+02  0.27761327836E+02  0.10566000000E+00 0.  1.
         14    1    4    4    0    0 -0.58051605802E+00 -0.15436406425E+00  0.39289042498E+00  0.71776740243E+00  0.00000000000E+00 0. -1.
<mgrwt>
<rscale>  0 0.77119985E+02</rscale>
<asrwt>0</asrwt>
<pdfrwt beam="1">  1        1 0.27805039E-01 0.77119985E+02</pdfrwt>
<pdfrwt beam="2">  1       -2 0.12656792E-02 0.77119985E+02</pdfrwt>
<totfact> 0.18022854E+05</totfact>
</mgrwt>
</event>
<event>
 8    1  0.8577104E-014  0.8247586E+02  0.7818608E-02  0.1322169E+00
          1   -1    0    0  501    0  0.00000000000E+00  0.00000000000E+00  0.52497435455E+02  0.52497435697E+02  0.50400000000E-02 0. -1.
         -2   -1    0    0    0  501 -0.00000000000E+00 -0.00000000000E+00 -0.32393332181E+02  0.32393332281E+02  0.25500000000E-02 0.  1.
        -24    2    1    2    0    0 -0.44408920985E-15 -0.71054273576E-14  0.20104103274E+02  0.84890767978E+02  0.82475860222E+02 0.  0.
         66    2    3    3    0    0 -0.29528725855E+01 -0.40263816681E+02  0.15287284615E+01  0.40450357272E+02  0.20000006174E+01 0.  0.
         13    1    3    3    0    0  0.29528725855E+01  0.40263816681E+02  0.18575374813E+02  0.44440410706E+02  0.10566000000E+00 0. -1.
         13    1    4    4    0    0 -0.19213147939E+01 -0.15837047882E+02  0.12033652826E+01  0.15998837088E+02  0.10566000000E+00 0. -1.
        -13    1    4    4    0    0 -0.57902580924E+00 -0.13552500789E+02  0.11106437418E+00  0.13565730642E+02  0.10566000000E+00 0.  1.
         14    1    4    4    0    0 -0.45253198229E+00 -0.10874268010E+02  0.21429880466E+00  0.10885789541E+02  0.00000000000E+00 0. -1.
<mgrwt>
<rscale>  0 0.82475860E+02</rscale>
<asrwt>0</asrwt>
<pdfrwt beam="1">  1        1 0.80765286E-02 0.82475860E+02</pdfrwt>
<pdfrwt beam="2">  1       -2 0.49835896E-02 0.82475860E+02</pdfrwt>
<totfact> 0.12180407E+05</totfact>
</mgrwt>
</event>
<event>
 8    1  0.8577104E-014  0.7908790E+02  0.7818608E-02  0.1331660E+00
          1   -1    0    0  501    0  0.00000000000E+00  0.00000000000E+00  0.42350774808E+02  0.42350775108E+02  0.50400000000E-02 0. -1.
         -2   -1    0    0    0  501 -0.00000000000E+00 -0.00000000000E+00 -0.36923152237E+02  0.36923152325E+02  0.25500000000E-02 0.  1.
        -24    2    1    2    0    0  0.00000000000E+00  0.00000000000E+00  0.54276225706E+01  0.79273927433E+02  0.79087903524E+02 0.  0.
         66    2    3    3    0    0  0.15968839302E+02  0.99659278506E+01 -0.32113787355E+02  0.37277592237E+02  0.19999995359E+01 0.  0.
         13    1    3    3    0    0 -0.15968839302E+02 -0.99659278506E+01  0.37541409926E+02  0.41996335195E+02  0.10566000000E+00 0. -1.
         13    1    4    4    0    0  0.23795866559E+01  0.20186392479E+01 -0.55847922561E+01  0.63983127187E+01  0.10566000000E+00 0. -1.
        -13    1    4    4    0    0  0.78525457777E+01  0.53696966611E+01 -0.16094117074E+02  0.18695664895E+02  0.10566000000E+00 0.  1.
        -14    1    4    4    0    0  0.57367068683E+01  0.25775919417E+01 -0.10434878025E+02  0.12183614624E+02  0.00000000000E+00 0.  1.
<mgrwt>
<rscale>  0 0.79087904E+02</rscale>
<asrwt>0</asrwt>
<pdfrwt beam="1">  1        1 0.65155038E-02 0.79087904E+02</pdfrwt>
<pdfrwt beam="2">  1       -2 0.56804850E-02 0.79087904E+02</pdfrwt>
<totfact> 0.13233911E+05</totfact>
</mgrwt>
</event>
<event>
 8    1  0.8577104E-014  0.8041013E+02  0.7818608E-02  0.1327892E+00
          1   -1    0    0  501    0  0.00000000000E+00  0.00000000000E+00  0.32730754664E+02  0.32730755052E+02  0.50400000000E-02 0. -1.
         -2   -1    0    0    0  501 -0.00000000000E+00 -0.00000000000E+00 -0.49386183675E+02  0.49386183741E+02  0.25500000000E-02 0.  1.
        -24    2    1    2    0    0  0.35527136788E-14 -0.35527136788E-14 -0.16655429011E+02  0.82116938793E+02  0.80410125737E+02 0.  0.
         66    2    3    3    0    0 -0.26399426960E+02  0.22514105640E+02 -0.29026925247E+02  0.45281089682E+02  0.19999992254E+01 0.  0.
         13    1    3    3    0    0  0.26399426960E+02 -0.22514105640E+02  0.12371496236E+02  0.36835849111E+02  0.10566000000E+00 0. -1.
         13    1    4    4    0    0 -0.81195950980E+01  0.57949671379E+01 -0.80885285459E+01  0.12843088677E+02  0.10566000000E+00 0. -1.
        -13    1    4    4    0    0 -0.66939400937E+01  0.61406218516E+01 -0.78724744345E+01  0.12020943742E+02  0.10566000000E+00 0.  1.
         14    1    4    4    0    0 -0.11585891768E+02  0.10578516651E+02 -0.13065922266E+02  0.20417057263E+02  0.00000000000E+00 0. -1.
<mgrwt>
<rscale>  0 0.80410126E+02</rscale>
<asrwt>0</asrwt>
<pdfrwt beam="1">  1        1 0.50355008E-02 0.80410126E+02</pdfrwt>
<pdfrwt beam="2">  1       -2 0.75978744E-02 0.80410126E+02</pdfrwt>
<totfact> 0.12101765E+05</totfact>
</mgrwt>
</event>
<event>
 8    1  0.8577104E-014  0.7963348E+02  0.7818608E-02  0.1330095E+00
         -2   -1    0    0    0  501 -0.00000000000E+00  0.00000000000E+00  0.56807668853E+02  0.56807668910E+02  0.25500000000E-02 0.  1.
          1   -1    0    0  501    0  0.00000000000E+00 -0.00000000000E+00 -0.27907727521E+02  0.27907727976E+02  0.50400000000E-02 0. -1.
        -24    2    1    2    0    0  0.35527136788E-14  0.00000000000E+00  0.28899941332E+02  0.84715396887E+02  0.79633484544E+02 0.  0.
         66    2    3    3    0    0  0.27914141975E+02  0.28286936093E+02  0.12326660448E+02  0.41656891582E+02  0.19999956864E+01 0.  0.
         13    1    3    3    0    0 -0.27914141975E+02 -0.28286936093E+02  0.16573280884E+02  0.43058505304E+02  0.10566000000E+00 0. -1.
         13    1    4    4    0    0  0.18202318650E+02  0.17935013304E+02  0.77679706073E+01  0.26708456299E+02  0.10566000000E+00 0. -1.
        -13    1    4    4    0    0  0.68702316672E+01  0.69338711115E+01  0.26808171902E+01  0.10123072488E+02  0.10566000000E+00 0.  1.
         14    1    4    4    0    0  0.28415916581E+01  0.34180516773E+01  0.18778726503E+01  0.48253627958E+01  0.00000000000E+00 0. -1.
<mgrwt>
<rscale>  0 0.79633485E+02</rscale>
<asrwt>0</asrwt>
<pdfrwt beam="1">  1        1 0.42934966E-02 0.79633485E+02</pdfrwt>
<pdfrwt beam="2">  1       -2 0.87396413E-02 0.79633485E+02</pdfrwt>
<totfact> 0.12098184E+05</totfact>
</mgrwt>
</event>
<event>
 8    1  0.8577104E-014  0.8204742E+02  0.7818608E-02  0.1323340E+00
         -2   -1    0    0    0  501 -0.00000000000E+00  0.00000000000E+00  0.12691626503E+02  0.12691626759E+02  0.25500000000E-02 0.  1.
          1   -1    0    0  501    0  0.00000000000E+00 -0.00000000000E+00 -0.13260276906E+03  0.13260276916E+03  0.50400000000E-02 0. -1.
        -24    2    1    2    0    0 -0.17763568394E-14  0.17763568394E-14 -0.11991114256E+03  0.14529439592E+03  0.82047421500E+02 0.  0.
         66    2    3    3    0    0 -0.15312632883E+02  0.15338041377E+02  0.16390519744E+01  0.21827018872E+02  0.20000055878E+01 0.  0.
         13    1    3    3    0    0  0.15312632883E+02 -0.15338041377E+02 -0.12155019453E+03  0.12346737704E+03  0.10566000000E+00 0. -1.
         13    1    4    4    0    0 -0.62635668245E+01  0.62657205063E+01  0.60528676270E+00  0.88808253518E+01  0.10566000000E+00 0.  1.
        -13    1    4    4    0    0 -0.31228535656E+01  0.32494602772E+01 -0.35812293714E+00  0.45222364555E+01  0.10566000000E+00 0. -1.
         14    1    4    4    0    0 -0.59262124933E+01  0.58228605932E+01  0.13918881488E+01  0.84239570643E+01  0.00000000000E+00 0. -1.
<mgrwt>
<rscale>  0 0.82047422E+02</rscale>
<asrwt>0</asrwt>
<pdfrwt beam="1">  1        1 0.20400425E-01 0.82047422E+02</pdfrwt>
<pdfrwt beam="2">  1       -2 0.19525580E-02 0.82047422E+02</pdfrwt>
<totfact> 0.14425309E+05</totfact>
</mgrwt>
</event>
<event>
 8    1  0.8577104E-014  0.7998632E+02  0.7818608E-02  0.1329090E+00
          1   -1    0    0  501    0  0.00000000000E+00  0.00000000000E+00  0.25151758650E+02  0.25151759155E+02  0.50400000000E-02 0. -1.
         -2   -1    0    0    0  501 -0.00000000000E+00 -0.00000000000E+00 -0.63592090632E+02  0.63592090683E+02  0.25500000000E-02 0.  1.
        -24    2    1    2    0    0  0.00000000000E+00  0.88817841970E-15 -0.38440331982E+02  0.88743849838E+02  0.79986322338E+02 0.  0.
         66    2    3    3    0    0 -0.10480515707E+02  0.79195896263E+01 -0.61112733115E+02  0.62540604876E+02  0.20000000302E+01 0.  0.
         13    1    3    3    0    0  0.10480515707E+02 -0.79195896263E+01  0.22672401134E+02  0.26203244962E+02  0.10566000000E+00 0. -1.
         13    1    4    4    0    0 -0.39864428790E+01  0.25813422676E+01 -0.19637341192E+02  0.20203746876E+02  0.10566000000E+00 0. -1.
        -13    1    4    4    0    0 -0.19781077840E+01  0.16604608725E+01 -0.15727242425E+02  0.15938235757E+02  0.10566000000E+00 0.  1.
         14    1    4    4    0    0 -0.45159650437E+01  0.36777864863E+01 -0.25748149499E+02  0.26398622243E+02  0.00000000000E+00 0. -1.
<mgrwt>
<rscale>  0 0.79986322E+02</rscale>
<asrwt>0</asrwt>
<pdfrwt beam="1">  1        1 0.38695014E-02 0.79986322E+02</pdfrwt>
<pdfrwt beam="2">  1       -2 0.97833985E-02 0.79986322E+02</pdfrwt>
<totfact> 0.11714620E+05</totfact>
</mgrwt>
</event>
<event>
 8    1  0.8577104E-014  0.8726139E+02  0.7818608E-02  0.1309622E+00
          1   -1    0    0  501    0  0.00000000000E+00  0.00000000000E+00  0.11974153371E+02  0.11974154432E+02  0.50400000000E-02 0. -1.
         -2   -1    0    0    0  501 -0.00000000000E+00 -0.00000000000E+00 -0.15897888115E+03  0.15897888117E+03  0.25500000000E-02 0.  1.
        -24    2    1    2    0    0  0.35527136788E-14  0.35527136788E-14 -0.14700472778E+03  0.17095303560E+03  0.87261391189E+02 0.  0.
         66    2    3    3    0    0 -0.30403745560E+02 -0.26593781255E+02 -0.10573295282E+03  0.11320368480E+03  0.19999987958E+01 0.  0.
         13    1    3    3    0    0  0.30403745560E+02  0.26593781255E+02 -0.41271774958E+02  0.57749350799E+02  0.10566000000E+00 0. -1.
         13    1    4    4    0    0 -0.90481786367E+01 -0.78271070367E+01 -0.32631868692E+02  0.34756052128E+02  0.10566000000E+00 0. -1.
        -13    1    4    4    0    0 -0.18954326235E+02 -0.16151942706E+02 -0.64710413358E+02  0.69336862470E+02  0.10566000000E+00 0.  1.
         14    1    4    4    0    0 -0.24012406881E+01 -0.26147315119E+01 -0.83906707733E+01  0.91107702060E+01  0.00000000000E+00 0. -1.
<mgrwt>
<rscale>  0 0.87261391E+02</rscale>
<asrwt>0</asrwt>
<pdfrwt beam="1">  1        1 0.18421776E-02 0.87261391E+02</pdfrwt>
<pdfrwt beam="2">  1       -2 0.24458288E-01 0.87261391E+02</pdfrwt>
<totfact> 0.74066288E+04</totfact>
</mgrwt>
</event>
<event>
 8    1  0.8577104E-014  0.8026525E+02  0.7818608E-02  0.1328300E+00
         -2   -1    0    0    0  501 -0.00000000000E+00  0.00000000000E+00  0.18326867318E+03  0.18326867320E+03  0.25500000000E-02 0.  1.
          1   -1    0    0  501    0  0.00000000000E+00 -0.00000000000E+00 -0.87883406999E+01  0.87883421451E+01  0.50400000000E-02 0. -1.
        -24    2    1    2    0    0  0.00000000000E+00  0.00000000000E+00  0.17448033248E+03  0.19205701534E+03  0.80265252258E+02 0.  0.
         66    2    3    3    0    0  0.51401966829E+01  0.33100030203E+02  0.14007593048E+03  0.14403923049E+03  0.19999994943E+01 0.  0.
         13    1    3    3    0    0 -0.51401966829E+01 -0.33100030203E+02  0.34404401996E+02  0.48017784852E+02  0.10566000000E+00 0. -1.
         13    1    4    4    0    0  0.69534494508E+00  0.19518762800E+01  0.82739227858E+01  0.85300813540E+01  0.10566000000E+00 0. -1.
        -13    1    4    4    0    0  0.33484364251E+01  0.21117248881E+02  0.88147669954E+02  0.90703765683E+02  0.10566000000E+00 0.  1.
        -14    1    4    4    0    0  0.10964153127E+01  0.10030905042E+02  0.43654337742E+02  0.44805383452E+02  0.00000000000E+00 0.  1.
<mgrwt>
<rscale>  0 0.80265252E+02</rscale>
<asrwt>0</asrwt>
<pdfrwt beam="1">  1        1 0.13520526E-02 0.80265252E+02</pdfrwt>
<pdfrwt beam="2">  1       -2 0.28195180E-01 0.80265252E+02</pdfrwt>
<totfact> 0.87299985E+04</totfact>
</mgrwt>
</event>
<event>
 8    1  0.8577104E-014  0.7608781E+02  0.7818608E-02  0.1340535E+00
         -2   -1    0    0    0  501 -0.00000000000E+00  0.00000000000E+00  0.16197237448E+03  0.16197237450E+03  0.25500000000E-02 0.  1.
          1   -1    0    0  501    0  0.00000000000E+00 -0.00000000000E+00 -0.89357123240E+01  0.89357137453E+01  0.50400000000E-02 0. -1.
        -24    2    1    2    0    0 -0.88817841970E-15 -0.35527136788E-14  0.15303666215E+03  0.17090808824E+03  0.76087808903E+02 0.  0.
         66    2    3    3    0    0  0.63350607300E+01  0.27343417639E+02  0.13416913910E+03  0.13708812265E+03  0.20000002868E+01 0.  0.
         13    1    3    3    0    0 -0.63350607300E+01 -0.27343417639E+02  0.18867523050E+02  0.33819965593E+02  0.10566000000E+00 0. -1.
         13    1    4    4    0    0  0.42748167400E+01  0.20793445671E+02  0.98832952949E+02  0.10108711685E+03  0.10566000000E+00 0. -1.
        -13    1    4    4    0    0  0.19383278377E+01  0.55580704669E+01  0.30221808382E+02  0.30789903021E+02  0.10566000000E+00 0.  1.
        -14    1    4    4    0    0  0.12191615228E+00  0.99190150151E+00  0.51143777704E+01  0.52111027734E+01  0.00000000000E+00 0.  1.
<mgrwt>
<rscale>  0 0.76087809E+02</rscale>
<asrwt>0</asrwt>
<pdfrwt beam="1">  1        1 0.13747252E-02 0.76087809E+02</pdfrwt>
<pdfrwt beam="2">  1       -2 0.24918826E-01 0.76087809E+02</pdfrwt>
<totfact> 0.10476496E+05</totfact>
</mgrwt>
</event>
<event>
 8    1  0.8577104E-014  0.7950295E+02  0.7818608E-02  0.1330468E+00
          1   -1    0    0  501    0  0.00000000000E+00  0.00000000000E+00  0.21050788660E+03  0.21050788666E+03  0.50400000000E-02 0. -1.
         -2   -1    0    0    0  501 -0.00000000000E+00 -0.00000000000E+00 -0.75065108138E+01  0.75065112469E+01  0.25500000000E-02 0.  1.
        -24    2    1    2    0    0  0.35527136788E-14  0.00000000000E+00  0.20300137578E+03  0.21801439790E+03  0.79502950409E+02 0.  0.
         66    2    3    3    0    0  0.25798371399E+02 -0.29361080647E+02  0.12106069632E+03  0.12722940389E+03  0.19999991597E+01 0.  0.
         13    1    3    3    0    0 -0.25798371399E+02  0.29361080647E+02  0.81940679463E+02  0.90784994016E+02  0.10566000000E+00 0. -1.
         13    1    4    4    0    0  0.21793353613E+01 -0.29508678271E+01  0.10529849332E+02  0.11151054413E+02  0.10566000000E+00 0. -1.
        -13    1    4    4    0    0  0.12562495233E+02 -0.14329031372E+02  0.57378692297E+02  0.60460424414E+02  0.10566000000E+00 0.  1.
        -14    1    4    4    0    0  0.11056540804E+02 -0.12081181448E+02  0.53152154692E+02  0.55617925061E+02  0.00000000000E+00 0.  1.
<mgrwt>
<rscale>  0 0.79502950E+02</rscale>
<asrwt>0</asrwt>
<pdfrwt beam="1">  1        1 0.32385833E-01 0.79502950E+02</pdfrwt>
<pdfrwt beam="2">  1       -2 0.11548477E-02 0.79502950E+02</pdfrwt>
<totfact> 0.17121392E+05</totfact>
</mgrwt>
</event>
<event>
 8    1  0.8577104E-014  0.7909830E+02  0.7818608E-02  0.1331630E+00
         -2   -1    0    0    0  501 -0.00000000000E+00  0.00000000000E+00  0.62968476429E+03  0.62968476430E+03  0.25500000000E-02 0.  1.
          1   -1    0    0  501    0  0.00000000000E+00 -0.00000000000E+00 -0.24839948813E+01  0.24839999943E+01  0.50400000000E-02 0. -1.
        -24    2    1    2    0    0  0.00000000000E+00  0.00000000000E+00  0.62720076941E+03  0.63216876429E+03  0.79098302108E+02 0.  0.
         66    2    3    3    0    0 -0.15662515854E+02 -0.32127190302E+02  0.44864344865E+03  0.45006934441E+03  0.20000005805E+01 0.  0.
         13    1    3    3    0    0  0.15662515854E+02  0.32127190302E+02  0.17855732076E+03  0.18209941988E+03  0.10566000000E+00 0. -1.
         13    1    4    4    0    0 -0.94860779051E+01 -0.19616729634E+02  0.26727736446E+03  0.26816413346E+03  0.10566000000E+00 0. -1.
        -13    1    4    4    0    0 -0.46564799564E+01 -0.83310220634E+01  0.12202912728E+03  0.12240182925E+03  0.10566000000E+00 0.  1.
         14    1    4    4    0    0 -0.15199579927E+01 -0.41794386041E+01  0.59336956911E+02  0.59503381709E+02  0.00000000000E+00 0. -1.
<mgrwt>
<rscale>  0 0.79098302E+02</rscale>
<asrwt>0</asrwt>
<pdfrwt beam="1">  1        1 0.38215333E-03 0.79098302E+02</pdfrwt>
<pdfrwt beam="2">  1       -2 0.96874611E-01 0.79098302E+02</pdfrwt>
<totfact> 0.42920036E+04</totfact>
</mgrwt>
</event>
<event>
 8    1  0.8577104E-014  0.7323780E+02  0.7818608E-02  0.1349416E+00
         -2   -1    0    0    0  501 -0.00000000000E+00  0.00000000000E+00  0.22533627529E+02  0.22533627673E+02  0.25500000000E-02 0.  1.
          1   -1    0    0  501    0  0.00000000000E+00 -0.00000000000E+00 -0.59508561285E+02  0.59508561498E+02  0.50400000000E-02 0. -1.
        -24    2    1    2    0    0  0.00000000000E+00  0.17763568394E-14 -0.36974933756E+02  0.82042189171E+02  0.73237798149E+02 0.  0.
         66    2    3    3    0    0  0.22738937273E+02  0.15136127545E+02  0.87727161446E+01  0.28759731825E+02  0.20000001848E+01 0.  0.
         13    1    3    3    0    0 -0.22738937273E+02 -0.15136127545E+02 -0.45747649900E+02  0.53282457346E+02  0.10566000000E+00 0. -1.
         13    1    4    4    0    0  0.10363249302E+02  0.70279615506E+01  0.44230258956E+01  0.13280192083E+02  0.10566000000E+00 0. -1.
        -13    1    4    4    0    0  0.76996481818E+01  0.57459120525E+01  0.30732825315E+01  0.10087433618E+02  0.10566000000E+00 0.  1.
         14    1    4    4    0    0  0.46760397891E+01  0.23622539418E+01  0.12764077175E+01  0.53921061243E+01  0.00000000000E+00 0. -1.
<mgrwt>
<rscale>  0 0.73237798E+02</rscale>
<asrwt>0</asrwt>
<pdfrwt beam="1">  1        1 0.91551633E-02 0.73237798E+02</pdfrwt>
<pdfrwt beam="2">  1       -2 0.34667120E-02 0.73237798E+02</pdfrwt>
<totfact> 0.17217287E+05</totfact>
</mgrwt>
</event>
<event>
 8    1  0.8577104E-014  0.7644678E+02  0.7818608E-02  0.1339448E+00
         -2   -1    0    0    0  501 -0.00000000000E+00  0.00000000000E+00  0.15502844346E+04  0.15502844346E+04  0.25500000000E-02 0.  1.
          1   -1    0    0  501    0  0.00000000000E+00 -0.00000000000E+00 -0.94241883873E+00  0.94243231544E+00  0.50400000000E-02 0. -1.
        -24    2    1    2    0    0  0.00000000000E+00 -0.13877787808E-15  0.15493420158E+04  0.15512268670E+04  0.76446784391E+02 0.  0.
         66    2    3    3    0    0  0.10962012237E+02 -0.20536313035E+00  0.15176654052E+04  0.15177063253E+04  0.19999972280E+01 0.  0.
         13    1    3    3    0    0 -0.10962012237E+02  0.20536313035E+00  0.31676610612E+02  0.33520541616E+02  0.10566000000E+00 0. -1.
         13    1    4    4    0    0  0.44155478708E+01  0.60312484225E+00  0.54288034725E+03  0.54289864930E+03  0.10566000000E+00 0. -1.
        -13    1    4    4    0    0  0.43649936192E+01 -0.89227098797E+00  0.66176804560E+03  0.66178305105E+03  0.10566000000E+00 0.  1.
        -14    1    4    4    0    0  0.21814707466E+01  0.83783015374E-01  0.31301701235E+03  0.31302462499E+03  0.00000000000E+00 0.  1.
<mgrwt>
<rscale>  0 0.76446784E+02</rscale>
<asrwt>0</asrwt>
<pdfrwt beam="1">  1        1 0.14498991E-03 0.76446784E+02</pdfrwt>
<pdfrwt beam="2">  1       -2 0.23850306E+00 0.76446784E+02</pdfrwt>
<totfact> 0.15777031E+04</totfact>
</mgrwt>
</event>
<event>
 8    1  0.8577104E-014  0.8022445E+02  0.7818608E-02  0.1328416E+00
         -2   -1    0    0    0  501 -0.00000000000E+00  0.00000000000E+00  0.16907837970E+03  0.16907837972E+03  0.25500000000E-02 0.  1.
          1   -1    0    0  501    0  0.00000000000E+00 -0.00000000000E+00 -0.95162403657E+01  0.95162417003E+01  0.50400000000E-02 0. -1.
        -24    2    1    2    0    0  0.00000000000E+00  0.00000000000E+00  0.15956213934E+03  0.17859462142E+03  0.80224450707E+02 0.  0.
         66    2    3    3    0    0 -0.11105432318E+02  0.36452553486E+02  0.10753436999E+03  0.11410416298E+03  0.19999994648E+01 0.  0.
         13    1    3    3    0    0  0.11105432318E+02 -0.36452553486E+02  0.52027769344E+02  0.64490458439E+02  0.10566000000E+00 0. -1.
         13    1    4    4    0    0 -0.59405535083E+01  0.17352992159E+02  0.52026090121E+02  0.55164678284E+02  0.10566000000E+00 0. -1.
        -13    1    4    4    0    0 -0.42431831052E+01  0.14487745722E+02  0.41266487485E+02  0.43941250919E+02  0.10566000000E+00 0.  1.
         14    1    4    4    0    0 -0.92169570416E+00  0.46118156053E+01  0.14241792387E+02  0.14998233781E+02  0.00000000000E+00 0. -1.
<mgrwt>
<rscale>  0 0.80224451E+02</rscale>
<asrwt>0</asrwt>
<pdfrwt beam="1">  1        1 0.14640372E-02 0.80224451E+02</pdfrwt>
<pdfrwt beam="2">  1       -2 0.26012057E-01 0.80224451E+02</pdfrwt>
<totfact> 0.90054615E+04</totfact>
</mgrwt>
</event>
<event>
 8    1  0.8577104E-014  0.7516817E+02  0.7818608E-02  0.1343351E+00
         -2   -1    0    0    0  501 -0.00000000000E+00  0.00000000000E+00  0.14948751542E+03  0.14948751544E+03  0.25500000000E-02 0.  1.
          1   -1    0    0  501    0  0.00000000000E+00 -0.00000000000E+00 -0.94493733783E+01  0.94493747224E+01  0.50400000000E-02 0. -1.
        -24    2    1    2    0    0 -0.71054273576E-14  0.00000000000E+00  0.14003814204E+03  0.15893689016E+03  0.75168170316E+02 0.  0.
         66    2    3    3    0    0  0.33852891822E+02  0.16162524557E+02  0.66219854048E+02  0.76133530986E+02  0.19999963755E+01 0.  0.
         13    1    3    3    0    0 -0.33852891822E+02 -0.16162524557E+02  0.73818287994E+02  0.82803359178E+02  0.10566000000E+00 0. -1.
         13    1    4    4    0    0  0.14114552973E+02  0.69021179578E+01  0.29399522308E+02  0.33334710346E+02  0.10566000000E+00 0. -1.
        -13    1    4    4    0    0  0.11297983826E+02  0.56545503885E+01  0.20888115108E+02  0.24411941656E+02  0.10566000000E+00 0.  1.
         14    1    4    4    0    0  0.84403550240E+01  0.36058562106E+01  0.15932216632E+02  0.18386878984E+02  0.00000000000E+00 0. -1.
<mgrwt>
<rscale>  0 0.75168170E+02</rscale>
<asrwt>0</asrwt>
<pdfrwt beam="1">  1        1 0.14537498E-02 0.75168170E+02</pdfrwt>
<pdfrwt beam="2">  1       -2 0.22998081E-01 0.75168170E+02</pdfrwt>
<totfact> 0.11103699E+05</totfact>
</mgrwt>
</event>
<event>
 8    1  0.8577104E-014  0.7728333E+02  0.7818608E-02  0.1336943E+00
         -2   -1    0    0    0  501 -0.00000000000E+00  0.00000000000E+00  0.21884382461E+02  0.21884382609E+02  0.25500000000E-02 0.  1.
          1   -1    0    0  501    0  0.00000000000E+00 -0.00000000000E+00 -0.68230320409E+02  0.68230320595E+02  0.50400000000E-02 0. -1.
        -24    2    1    2    0    0 -0.44408920985E-15 -0.71054273576E-14 -0.46345937948E+02  0.90114703205E+02  0.77283334357E+02 0.  0.
         66    2    3    3    0    0  0.37103078953E+01  0.20644411772E+02  0.14617114114E+02  0.25644066455E+02  0.19999993114E+01 0.  0.
         13    1    3    3    0    0 -0.37103078953E+01 -0.20644411772E+02 -0.60963052063E+02  0.64470636750E+02  0.10566000000E+00 0. -1.
         13    1    4    4    0    0  0.12338252545E+01  0.60025516586E+01  0.37124905354E+01  0.71656612524E+01  0.10566000000E+00 0. -1.
        -13    1    4    4    0    0  0.12397299827E+01  0.42279309203E+01  0.27605113395E+01  0.52003766390E+01  0.10566000000E+00 0.  1.
         14    1    4    4    0    0  0.12367526581E+01  0.10413929193E+02  0.81441122394E+01  0.13278028564E+02  0.00000000000E+00 0. -1.
<mgrwt>
<rscale>  0 0.77283334E+02</rscale>
<asrwt>0</asrwt>
<pdfrwt beam="1">  1        1 0.10496972E-01 0.77283334E+02</pdfrwt>
<pdfrwt beam="2">  1       -2 0.33668281E-02 0.77283334E+02</pdfrwt>
<totfact> 0.15183022E+05</totfact>
</mgrwt>
</event>
<event>
 8    1  0.8577104E-014  0.7403041E+02  0.7818608E-02  0.1346900E+00
          1   -1    0    0  501    0  0.00000000000E+00  0.00000000000E+00  0.40474781452E+02  0.40474781765E+02  0.50400000000E-02 0. -1.
         -2   -1    0    0    0  501 -0.00000000000E+00 -0.00000000000E+00 -0.33851337798E+02  0.33851337894E+02  0.25500000000E-02 0.  1.
        -24    2    1    2    0    0  0.00000000000E+00  0.17763568394E-14  0.66234436534E+01  0.74326119660E+02  0.74030413060E+02 0.  0.
         66    2    3    3    0    0 -0.17986637960E+02  0.15086792752E+02 -0.25383080103E+02  0.34632805517E+02  0.20000004600E+01 0.  0.
         13    1    3    3    0    0  0.17986637960E+02 -0.15086792752E+02  0.32006523756E+02  0.39693314143E+02  0.10566000000E+00 0. -1.
         13    1    4    4    0    0 -0.10805905507E+02  0.83277446766E+01 -0.15481390596E+02  0.20635007731E+02  0.10566000000E+00 0. -1.
        -13    1    4    4    0    0 -0.21741083692E+01  0.18627995366E+01 -0.24216504924E+01  0.37513096990E+01  0.10566000000E+00 0.  1.
         14    1    4    4    0    0 -0.50066240837E+01  0.48962485391E+01 -0.74800390141E+01  0.10246488087E+02  0.00000000000E+00 0. -1.
<mgrwt>
<rscale>  0 0.74030413E+02</rscale>
<asrwt>0</asrwt>
<pdfrwt beam="1">  1        1 0.62268895E-02 0.74030413E+02</pdfrwt>
<pdfrwt beam="2">  1       -2 0.52078981E-02 0.74030413E+02</pdfrwt>
<totfact> 0.15799200E+05</totfact>
</mgrwt>
</event>
<event>
 8    1  0.8577104E-014  0.7953075E+02  0.7818608E-02  0.1330388E+00
         -2   -1    0    0    0  501 -0.00000000000E+00  0.00000000000E+00  0.86853017698E+02  0.86853017735E+02  0.25500000000E-02 0.  1.
          1   -1    0    0  501    0  0.00000000000E+00 -0.00000000000E+00 -0.18206450955E+02  0.18206451653E+02  0.50400000000E-02 0. -1.
        -24    2    1    2    0    0  0.00000000000E+00  0.00000000000E+00  0.68646566743E+02  0.10505946939E+03  0.79530754947E+02 0.  0.
         66    2    3    3    0    0 -0.33071299134E+02 -0.14413847802E+02  0.56362752564E+02  0.66949456404E+02  0.20000003288E+01 0.  0.
         13    1    3    3    0    0  0.33071299134E+02  0.14413847802E+02  0.12283814179E+02  0.38110012984E+02  0.10566000000E+00 0. -1.
         13    1    4    4    0    0 -0.77205855588E+01 -0.42076045750E+01  0.13387954542E+02  0.16017486334E+02  0.10566000000E+00 0. -1.
        -13    1    4    4    0    0 -0.16902457918E+02 -0.64895978092E+01  0.28392526124E+02  0.33674243379E+02  0.10566000000E+00 0.  1.
        -14    1    4    4    0    0 -0.84482556565E+01 -0.37166454176E+01  0.14582271898E+02  0.17257726690E+02  0.00000000000E+00 0.  1.
<mgrwt>
<rscale>  0 0.79530755E+02</rscale>
<asrwt>0</asrwt>
<pdfrwt beam="1">  1        1 0.28009925E-02 0.79530755E+02</pdfrwt>
<pdfrwt beam="2">  1       -2 0.13362003E-01 0.79530755E+02</pdfrwt>
<totfact> 0.11140331E+05</totfact>
</mgrwt>
</event>
<event>
 8    1  0.8577104E-014  0.7881238E+02  0.7818608E-02  0.1332456E+00
         -2   -1    0    0    0  501 -0.00000000000E+00  0.00000000000E+00  0.67033234395E+01  0.67033239245E+01  0.25500000000E-02 0.  1.
          1   -1    0    0  501    0  0.00000000000E+00 -0.00000000000E+00 -0.23165341538E+03  0.23165341543E+03  0.50400000000E-02 0. -1.
        -24    2    1    2    0    0  0.00000000000E+00  0.00000000000E+00 -0.22495009194E+03  0.23835673936E+03  0.78812380588E+02 0.  0.
         66    2    3    3    0    0 -0.22876669466E+02  0.31794263720E+02 -0.10021558275E+03  0.10761682136E+03  0.20000006144E+01 0.  0.
         13    1    3    3    0    0  0.22876669466E+02 -0.31794263720E+02 -0.12473450919E+03  0.13073991799E+03  0.10566000000E+00 0. -1.
         13    1    4    4    0    0 -0.92761890077E+01  0.14282600808E+02 -0.42149684157E+02  0.45460393827E+02  0.10566000000E+00 0. -1.
        -13    1    4    4    0    0 -0.37168082480E+01  0.48815083162E+01 -0.15707940405E+02  0.16863995458E+02  0.10566000000E+00 0.  1.
         14    1    4    4    0    0 -0.98836722100E+01  0.12630154596E+02 -0.42357958191E+02  0.45292432079E+02  0.00000000000E+00 0. -1.
<mgrwt>
<rscale>  0 0.78812381E+02</rscale>
<asrwt>0</asrwt>
<pdfrwt beam="1">  1        1 0.35638981E-01 0.78812381E+02</pdfrwt>
<pdfrwt beam="2">  1       -2 0.10312807E-02 0.78812381E+02</pdfrwt>
<totfact> 0.17850820E+05</totfact>
</mgrwt>
</event>
<event>
 8    1  0.8577104E-014  0.8085661E+02  0.7818608E-02  0.1326638E+00
          1   -1    0    0  501    0  0.00000000000E+00  0.00000000000E+00  0.13045395123E+03  0.13045395133E+03  0.50400000000E-02 0. -1.
         -2   -1    0    0    0  501 -0.00000000000E+00 -0.00000000000E+00 -0.12528924403E+02  0.12528924662E+02  0.25500000000E-02 0.  1.
        -24    2    1    2    0    0  0.17763568394E-14  0.00000000000E+00  0.11792502683E+03  0.14298287599E+03  0.80856606869E+02 0.  0.
         66    2    3    3    0    0 -0.12889428539E+02  0.37657925037E+02  0.71273705713E+02  0.81659033875E+02  0.20000002866E+01 0.  0.
         13    1    3    3    0    0  0.12889428539E+02 -0.37657925037E+02  0.46651321117E+02  0.61323842119E+02  0.10566000000E+00 0. -1.
         13    1    4    4    0    0 -0.59535686464E+00  0.16609848608E+01  0.38697682920E+01  0.42543614296E+01  0.10566000000E+00 0. -1.
        -13    1    4    4    0    0 -0.52591497290E+01  0.15294461835E+02  0.29782543376E+02  0.33890858246E+02  0.10566000000E+00 0.  1.
         14    1    4    4    0    0 -0.70349219457E+01  0.20702478341E+02  0.37621394046E+02  0.43513814199E+02  0.00000000000E+00 0. -1.
<mgrwt>
<rscale>  0 0.80856607E+02</rscale>
<asrwt>0</asrwt>
<pdfrwt beam="1">  1        1 0.20069838E-01 0.80856607E+02</pdfrwt>
<pdfrwt beam="2">  1       -2 0.19275269E-02 0.80856607E+02</pdfrwt>
<totfact> 0.14959010E+05</totfact>
</mgrwt>
</event>
<event>
 8    1  0.8577104E-014  0.7968121E+02  0.7818608E-02  0.1329959E+00
         -2   -1    0    0    0  501 -0.00000000000E+00  0.00000000000E+00  0.16732770622E+02  0.16732770816E+02  0.25500000000E-02 0.  1.
          1   -1    0    0  501    0  0.00000000000E+00 -0.00000000000E+00 -0.94860185588E+02  0.94860185722E+02  0.50400000000E-02 0. -1.
        -24    2    1    2    0    0  0.00000000000E+00  0.00000000000E+00 -0.78127414966E+02  0.11159295654E+03  0.79681208446E+02 0.  0.
         66    2    3    3    0    0 -0.22700565023E+02 -0.32237191593E+02 -0.46850140691E+02  0.61265715164E+02  0.19999993974E+01 0.  0.
         13    1    3    3    0    0  0.22700565023E+02  0.32237191593E+02 -0.31277274275E+02  0.50327241374E+02  0.10566000000E+00 0. -1.
         13    1    4    4    0    0 -0.64605358218E+01 -0.78894059164E+01 -0.12608587172E+02  0.16216315344E+02  0.10566000000E+00 0. -1.
        -13    1    4    4    0    0 -0.11880167694E+02 -0.17488510167E+02 -0.24396640464E+02  0.32283023438E+02  0.10566000000E+00 0.  1.
        -14    1    4    4    0    0 -0.43598615063E+01 -0.68592755094E+01 -0.98449130549E+01  0.12766376382E+02  0.00000000000E+00 0.  1.
<mgrwt>
<rscale>  0 0.79681208E+02</rscale>
<asrwt>0</asrwt>
<pdfrwt beam="1">  1        1 0.14593874E-01 0.79681208E+02</pdfrwt>
<pdfrwt beam="2">  1       -2 0.25742725E-02 0.79681208E+02</pdfrwt>
<totfact> 0.14728272E+05</totfact>
</mgrwt>
</event>
<event>
 8    1  0.8577104E-014  0.8085927E+02  0.7818608E-02  0.1326630E+00
          1   -1    0    0  501    0  0.00000000000E+00  0.00000000000E+00  0.15492827304E+03  0.15492827312E+03  0.50400000000E-02 0. -1.
         -2   -1    0    0    0  501 -0.00000000000E+00 -0.00000000000E+00 -0.10550401271E+02  0.10550401579E+02  0.25500000000E-02 0.  1.
        -24    2    1    2    0    0  0.35527136788E-14  0.00000000000E+00  0.14437787177E+03  0.16547867470E+03  0.80859272345E+02 0.  0.
         66    2    3    3    0    0  0.28045490474E+02 -0.92602554392E+01  0.15805577919E+02  0.33557684041E+02  0.19999995275E+01 0.  0.
         13    1    3    3    0    0 -0.28045490474E+02  0.92602554392E+01  0.12857229385E+03  0.13192099066E+03  0.10566000000E+00 0. -1.
         13    1    4    4    0    0  0.16751159200E+02 -0.59602122545E+01  0.93305349019E+01  0.20079728839E+02  0.10566000000E+00 0. -1.
        -13    1    4    4    0    0  0.19148487040E+01 -0.72262293991E+00  0.70009885908E+00  0.21656712402E+01  0.10566000000E+00 0.  1.
         14    1    4    4    0    0  0.93794825705E+01 -0.25774202448E+01  0.57749441583E+01  0.11312283962E+02  0.00000000000E+00 0. -1.
<mgrwt>
<rscale>  0 0.80859272E+02</rscale>
<asrwt>0</asrwt>
<pdfrwt beam="1">  1        1 0.23835119E-01 0.80859272E+02</pdfrwt>
<pdfrwt beam="2">  1       -2 0.16231387E-02 0.80859272E+02</pdfrwt>
<totfact> 0.15436258E+05</totfact>
</mgrwt>
</event>
<event>
 8    1  0.8577104E-014  0.8186406E+02  0.7818608E-02  0.1323843E+00
          1   -1    0    0  501    0  0.00000000000E+00  0.00000000000E+00  0.22796409656E+03  0.22796409662E+03  0.50400000000E-02 0. -1.
         -2   -1    0    0    0  501 -0.00000000000E+00 -0.00000000000E+00 -0.73495390678E+01  0.73495395102E+01  0.25500000000E-02 0.  1.
        -24    2    1    2    0    0  0.35527136788E-14 -0.35527136788E-14  0.22061455749E+03  0.23531363613E+03  0.81864060304E+02 0.  0.
         66    2    3    3    0    0 -0.25925886470E+02  0.25531413525E+02  0.56641479860E+02  0.67351777307E+02  0.19999999485E+01 0.  0.
         13    1    3    3    0    0  0.25925886470E+02 -0.25531413525E+02  0.16397307763E+03  0.16796185882E+03  0.10566000000E+00 0. -1.
         13    1    4    4    0    0 -0.49548386682E+01  0.42044457580E+01  0.96486896241E+01  0.11633407319E+02  0.10566000000E+00 0. -1.
        -13    1    4    4    0    0 -0.24032298726E+01  0.29144842321E+01  0.63870257527E+01  0.74212528701E+01  0.10566000000E+00 0.  1.
        -14    1    4    4    0    0 -0.18567817930E+02  0.18412483534E+02  0.40605764483E+02  0.48297117117E+02  0.00000000000E+00 0.  1.
<mgrwt>
<rscale>  0 0.81864060E+02</rscale>
<asrwt>0</asrwt>
<pdfrwt beam="1">  1        1 0.35071399E-01 0.81864060E+02</pdfrwt>
<pdfrwt beam="2">  1       -2 0.11306984E-02 0.81864060E+02</pdfrwt>
<totfact> 0.16091106E+05</totfact>
</mgrwt>
</event>
<event>
 8    1  0.8577104E-014  0.7971757E+02  0.7818608E-02  0.1329855E+00
          1   -1    0    0  501    0  0.00000000000E+00  0.00000000000E+00  0.47070904518E+01  0.47070931500E+01  0.50400000000E-02 0. -1.
         -2   -1    0    0    0  501 -0.00000000000E+00 -0.00000000000E+00 -0.33751684851E+03  0.33751684852E+03  0.25500000000E-02 0.  1.
        -24    2    1    2    0    0  0.00000000000E+00  0.00000000000E+00 -0.33280975806E+03  0.34222394167E+03  0.79717571420E+02 0.  0.
         66    2    3    3    0    0 -0.19393066840E+02 -0.19466889312E+02 -0.29031229987E+03  0.29161667008E+03  0.19999983235E+01 0.  0.
         13    1    3    3    0    0  0.19393066840E+02  0.19466889312E+02 -0.42497458187E+02  0.50607271586E+02  0.10566000000E+00 0. -1.
         13    1    4    4    0    0 -0.28018659819E+01 -0.29547209889E+01 -0.47306079844E+02  0.47481124495E+02  0.10566000000E+00 0. -1.
        -13    1    4    4    0    0 -0.14702199916E+02 -0.15085466726E+02 -0.22151661291E+03  0.22251594763E+03  0.10566000000E+00 0.  1.
        -14    1    4    4    0    0 -0.18890009427E+01 -0.14267015976E+01 -0.21489607116E+02  0.21619597961E+02  0.00000000000E+00 0.  1.
<mgrwt>
<rscale>  0 0.79717571E+02</rscale>
<asrwt>0</asrwt>
<pdfrwt beam="1">  1        1 0.72416824E-03 0.79717571E+02</pdfrwt>
<pdfrwt beam="2">  1       -2 0.51925650E-01 0.79717571E+02</pdfrwt>
<totfact> 0.66330862E+04</totfact>
</mgrwt>
</event>
<event>
 8    1  0.8577104E-014  0.8170932E+02  0.7818608E-02  0.1324269E+00
          1   -1    0    0  501    0  0.00000000000E+00  0.00000000000E+00  0.40673737704E+02  0.40673738016E+02  0.50400000000E-02 0. -1.
         -2   -1    0    0    0  501 -0.00000000000E+00 -0.00000000000E+00 -0.41036384857E+02  0.41036384937E+02  0.25500000000E-02 0.  1.
        -24    2    1    2    0    0  0.00000000000E+00  0.88817841970E-15 -0.36264715317E+00  0.81710122953E+02  0.81709318196E+02 0.  0.
         66    2    3    3    0    0 -0.39071336063E+02 -0.67223309968E+01 -0.99457047479E+01  0.40922806386E+02  0.20000009466E+01 0.  0.
         13    1    3    3    0    0  0.39071336063E+02  0.67223309968E+01  0.95830575948E+01  0.40787316567E+02  0.10566000000E+00 0. -1.
         13    1    4    4    0    0 -0.35726773648E+00  0.39361276379E-01 -0.18246567460E+00  0.41671009540E+00  0.10566000000E+00 0. -1.
        -13    1    4    4    0    0 -0.35535225235E+02 -0.59387894742E+01 -0.89362150493E+01  0.37119921287E+02  0.10566000000E+00 0.  1.
         14    1    4    4    0    0 -0.31788430921E+01 -0.82290279891E+00 -0.82702402408E+00  0.33861750039E+01  0.00000000000E+00 0. -1.
<mgrwt>
<rscale>  0 0.81709318E+02</rscale>
<asrwt>0</asrwt>
<pdfrwt beam="1">  1        1 0.62574981E-02 0.81709318E+02</pdfrwt>
<pdfrwt beam="2">  1       -2 0.63132900E-02 0.81709318E+02</pdfrwt>
<totfact> 0.11995019E+05</totfact>
</mgrwt>
</event>
<event>
 8    1  0.8577104E-014  0.8138040E+02  0.7818608E-02  0.1325179E+00
         -2   -1    0    0    0  501 -0.00000000000E+00  0.00000000000E+00  0.27029903974E+02  0.27029904094E+02  0.25500000000E-02 0.  1.
          1   -1    0    0  501    0  0.00000000000E+00 -0.00000000000E+00 -0.61254100601E+02  0.61254100809E+02  0.50400000000E-02 0. -1.
        -24    2    1    2    0    0  0.00000000000E+00  0.00000000000E+00 -0.34224196627E+02  0.88284004903E+02  0.81380402352E+02 0.  0.
         66    2    3    3    0    0  0.35409643817E+02 -0.15303114599E+02 -0.31596824022E+01  0.38755796781E+02  0.19999998831E+01 0.  0.
         13    1    3    3    0    0 -0.35409643817E+02  0.15303114599E+02 -0.31064514225E+02  0.49528208122E+02  0.10566000000E+00 0. -1.
         13    1    4    4    0    0  0.79925004900E+00 -0.15615354893E+00  0.15190741056E-01  0.82132780659E+00  0.10566000000E+00 0. -1.
        -13    1    4    4    0    0  0.24406145007E+02 -0.10679776631E+02 -0.28202379736E+01  0.26789595915E+02  0.10566000000E+00 0.  1.
         14    1    4    4    0    0  0.10204248761E+02 -0.44671844189E+01 -0.35463516965E+00  0.11144873059E+02  0.00000000000E+00 0. -1.
<mgrwt>
<rscale>  0 0.81380402E+02</rscale>
<asrwt>0</asrwt>
<pdfrwt beam="1">  1        1 0.94237078E-02 0.81380402E+02</pdfrwt>
<pdfrwt beam="2">  1       -2 0.41584468E-02 0.81380402E+02</pdfrwt>
<totfact> 0.12956514E+05</totfact>
</mgrwt>
</event>
<event>
 8    1  0.8577104E-014  0.7862764E+02  0.7818608E-02  0.1332992E+00
         -2   -1    0    0    0  501 -0.00000000000E+00  0.00000000000E+00  0.19359368614E+03  0.19359368616E+03  0.25500000000E-02 0.  1.
          1   -1    0    0  501    0  0.00000000000E+00 -0.00000000000E+00 -0.79836082726E+01  0.79836098635E+01  0.50400000000E-02 0. -1.
        -24    2    1    2    0    0  0.00000000000E+00  0.88817841970E-15  0.18561007787E+03  0.20157729602E+03  0.78627636775E+02 0.  0.
         66    2    3    3    0    0  0.91486780511E+01 -0.62685714737E+01  0.18949201727E+03  0.18982681024E+03  0.19999953863E+01 0.  0.
         13    1    3    3    0    0 -0.91486780511E+01  0.62685714737E+01 -0.38819393998E+01  0.11750485775E+02  0.10566000000E+00 0. -1.
         13    1    4    4    0    0  0.33476688432E+01 -0.28739076268E+01  0.78504490520E+02  0.78628445410E+02  0.10566000000E+00 0. -1.
        -13    1    4    4    0    0  0.18448782438E+01 -0.16856825479E+01  0.46214028147E+02  0.46281666596E+02  0.10566000000E+00 0.  1.
         14    1    4    4    0    0  0.39561309641E+01 -0.17089812990E+01  0.64773498601E+02  0.64916698239E+02  0.00000000000E+00 0. -1.
<mgrwt>
<rscale>  0 0.78627637E+02</rscale>
<asrwt>0</asrwt>
<pdfrwt beam="1">  1        1 0.12282477E-02 0.78627637E+02</pdfrwt>
<pdfrwt beam="2">  1       -2 0.29783640E-01 0.78627637E+02</pdfrwt>
<totfact> 0.90125100E+04</totfact>
</mgrwt>
</event>
<event>
 8    1  0.8577104E-014  0.7950297E+02  0.7818608E-02  0.1330468E+00
         -2   -1    0    0    0  501 -0.00000000000E+00  0.00000000000E+00  0.30863153041E+02  0.30863153146E+02  0.25500000000E-02 0.  1.
          1   -1    0    0  501    0  0.00000000000E+00 -0.00000000000E+00 -0.51199584655E+02  0.51199584903E+02  0.50400000000E-02 0. -1.
        -24    2    1    2    0    0  0.35527136788E-14  0.00000000000E+00 -0.20336431614E+02  0.82062738049E+02  0.79502971802E+02 0.  0.
         66    2    3    3    0    0 -0.21332650667E+02 -0.28642880321E+02  0.77831972701E+01  0.36607031364E+02  0.20000019928E+01 0.  0.
         13    1    3    3    0    0  0.21332650667E+02  0.28642880321E+02 -0.28119628884E+02  0.45455706685E+02  0.10566000000E+00 0. -1.
         13    1    4    4    0    0 -0.11382275451E+02 -0.14898680515E+02  0.42316959800E+01  0.19220959665E+02  0.10566000000E+00 0. -1.
        -13    1    4    4    0    0 -0.91430614648E+01 -0.12694659934E+02  0.36271106952E+01  0.16059796381E+02  0.10566000000E+00 0.  1.
         14    1    4    4    0    0 -0.80731375134E+00 -0.10495398729E+01 -0.75609405100E-01  0.13262753183E+01  0.00000000000E+00 0. -1.
<mgrwt>
<rscale>  0 0.79502972E+02</rscale>
<asrwt>0</asrwt>
<pdfrwt beam="1">  1        1 0.78768592E-02 0.79502972E+02</pdfrwt>
<pdfrwt beam="2">  1       -2 0.47481774E-02 0.79502972E+02</pdfrwt>
<totfact> 0.13436746E+05</totfact>
</mgrwt>
</event>
<event>
 8    1  0.8577104E-014  0.7468452E+02  0.7818608E-02  0.1344851E+00
          1   -1    0    0  501    0  0.00000000000E+00  0.00000000000E+00  0.27708456409E+02  0.27708456868E+02  0.50400000000E-02 0. -1.
         -2   -1    0    0    0  501 -0.00000000000E+00 -0.00000000000E+00 -0.50325591237E+02  0.50325591301E+02  0.25500000000E-02 0.  1.
        -24    2    1    2    0    0  0.44408920985E-15  0.00000000000E+00 -0.22617134827E+02  0.78034048169E+02  0.74684522398E+02 0.  0.
         66    2    3    3    0    0 -0.25829764156E+01 -0.21178559449E+02 -0.43303993721E+02  0.48316032717E+02  0.19999994439E+01 0.  0.
         13    1    3    3    0    0  0.25829764156E+01  0.21178559449E+02  0.20686858894E+02  0.29718015453E+02  0.10566000000E+00 0. -1.
         13    1    4    4    0    0 -0.11042450550E+01 -0.11704519944E+02 -0.21736608538E+02  0.24712475777E+02  0.10566000000E+00 0. -1.
        -13    1    4    4    0    0 -0.11876130162E+01 -0.72660202397E+01 -0.16518462982E+02  0.18085249739E+02  0.10566000000E+00 0.  1.
         14    1    4    4    0    0 -0.29111834440E+00 -0.22080192652E+01 -0.50489222007E+01  0.55183072001E+01  0.00000000000E+00 0. -1.
<mgrwt>
<rscale>  0 0.74684522E+02</rscale>
<asrwt>0</asrwt>
<pdfrwt beam="1">  1        1 0.42628395E-02 0.74684522E+02</pdfrwt>
<pdfrwt beam="2">  1       -2 0.77423986E-02 0.74684522E+02</pdfrwt>
<totfact> 0.14523263E+05</totfact>
</mgrwt>
</event>
<event>
 8    1  0.8577104E-014  0.8037373E+02  0.7818608E-02  0.1327994E+00
          1   -1    0    0  501    0  0.00000000000E+00  0.00000000000E+00  0.50447686448E+02  0.50447686700E+02  0.50400000000E-02 0. -1.
         -2   -1    0    0    0  501 -0.00000000000E+00 -0.00000000000E+00 -0.32013043602E+02  0.32013043704E+02  0.25500000000E-02 0.  1.
        -24    2    1    2    0    0  0.35527136788E-14  0.71054273576E-14  0.18434642845E+02  0.82460730404E+02  0.80373727062E+02 0.  0.
         66    2    3    3    0    0 -0.17417839597E+02 -0.36045374353E+02  0.12520323143E+02  0.41992959399E+02  0.19999997384E+01 0.  0.
         13    1    3    3    0    0  0.17417839597E+02  0.36045374353E+02  0.59143197021E+01  0.40467771005E+02  0.10566000000E+00 0. -1.
         13    1    4    4    0    0 -0.27133332684E+01 -0.46565836264E+01  0.22430709408E+01  0.58385340434E+01  0.10566000000E+00 0. -1.
        -13    1    4    4    0    0 -0.80330609126E+01 -0.17135635586E+02  0.56870756979E+01  0.19761428810E+02  0.10566000000E+00 0.  1.
         14    1    4    4    0    0 -0.66714454164E+01 -0.14253155141E+02  0.45901765046E+01  0.16392996546E+02  0.00000000000E+00 0. -1.
<mgrwt>
<rscale>  0 0.80373727E+02</rscale>
<asrwt>0</asrwt>
<pdfrwt beam="1">  1        1 0.77611826E-02 0.80373727E+02</pdfrwt>
<pdfrwt beam="2">  1       -2 0.49250836E-02 0.80373727E+02</pdfrwt>
<totfact> 0.13005864E+05</totfact>
</mgrwt>
</event>
<event>
 8    1  0.8577104E-014  0.8038665E+02  0.7818608E-02  0.1327958E+00
          1   -1    0    0  501    0  0.00000000000E+00  0.00000000000E+00  0.32515037416E+01  0.32515076478E+01  0.50400000000E-02 0. -1.
         -2   -1    0    0    0  501 -0.00000000000E+00 -0.00000000000E+00 -0.49684781282E+03  0.49684781283E+03  0.25500000000E-02 0.  1.
        -24    2    1    2    0    0 -0.17763568394E-14  0.35527136788E-14 -0.49359630908E+03  0.50009932048E+03  0.80386653140E+02 0.  0.
         66    2    3    3    0    0 -0.81210086858E+01  0.22643640945E+02 -0.44707640373E+03  0.44772759131E+03  0.19999993790E+01 0.  0.
         13    1    3    3    0    0  0.81210086858E+01 -0.22643640945E+02 -0.46519905356E+02  0.52371729164E+02  0.10566000000E+00 0. -1.
         13    1    4    4    0    0 -0.67317040014E+01  0.19188413002E+02 -0.37475396355E+03  0.37530528292E+03  0.10566000000E+00 0.  1.
        -13    1    4    4    0    0 -0.11007630063E+01  0.21575408083E+01 -0.51949614060E+02  0.52006155660E+02  0.10566000000E+00 0. -1.
         14    1    4    4    0    0 -0.28854167808E+00  0.12976871346E+01 -0.20372826120E+02  0.20416152731E+02  0.00000000000E+00 0. -1.
<mgrwt>
<rscale>  0 0.80386653E+02</rscale>
<asrwt>0</asrwt>
<pdfrwt beam="1">  1        1 0.50023204E-03 0.80386653E+02</pdfrwt>
<pdfrwt beam="2">  1       -2 0.76438065E-01 0.80386653E+02</pdfrwt>
<totfact> 0.50005599E+04</totfact>
</mgrwt>
</event>
<event>
 8    1  0.8577104E-014  0.8274939E+02  0.7818608E-02  0.1321425E+00
          1   -1    0    0  501    0  0.00000000000E+00  0.00000000000E+00  0.13543929187E+03  0.13543929196E+03  0.50400000000E-02 0. -1.
         -2   -1    0    0    0  501 -0.00000000000E+00 -0.00000000000E+00 -0.12639357013E+02  0.12639357270E+02  0.25500000000E-02 0.  1.
        -24    2    1    2    0    0 -0.71054273576E-14  0.35527136788E-14  0.12279993486E+03  0.14807864923E+03  0.82749394910E+02 0.  0.
         66    2    3    3    0    0 -0.34094326856E+02  0.22118926447E+02  0.47785067610E+02  0.62762112132E+02  0.20000004476E+01 0.  0.
         13    1    3    3    0    0  0.34094326856E+02 -0.22118926447E+02  0.75014867247E+02  0.85316537102E+02  0.10566000000E+00 0. -1.
         13    1    4    4    0    0 -0.65658823015E+01  0.39213748621E+01  0.95751779845E+01  0.12254925078E+02  0.10566000000E+00 0. -1.
        -13    1    4    4    0    0 -0.28876680097E+01  0.14950532235E+01  0.34326578105E+01  0.47294940908E+01  0.10566000000E+00 0.  1.
         14    1    4    4    0    0 -0.24640776545E+02  0.16702498361E+02  0.34777231815E+02  0.45777692963E+02  0.00000000000E+00 0. -1.
<mgrwt>
<rscale>  0 0.82749395E+02</rscale>
<asrwt>0</asrwt>
<pdfrwt beam="1">  1        1 0.20836814E-01 0.82749395E+02</pdfrwt>
<pdfrwt beam="2">  1       -2 0.19445165E-02 0.82749395E+02</pdfrwt>
<totfact> 0.14153059E+05</totfact>
</mgrwt>
</event>
<event>
 8    1  0.8577104E-014  0.8100949E+02  0.7818608E-02  0.1326211E+00
         -2   -1    0    0    0  501 -0.00000000000E+00  0.00000000000E+00  0.11194245601E+02  0.11194245891E+02  0.25500000000E-02 0.  1.
          1   -1    0    0  501    0  0.00000000000E+00 -0.00000000000E+00 -0.14656051977E+03  0.14656051986E+03  0.50400000000E-02 0. -1.
        -24    2    1    2    0    0  0.35527136788E-14  0.00000000000E+00 -0.13536627417E+03  0.15775476575E+03  0.81009492862E+02 0.  0.
         66    2    3    3    0    0 -0.31465775922E+02  0.15417130112E+02 -0.28252524078E+02  0.45055388741E+02  0.19999956294E+01 0.  0.
         13    1    3    3    0    0  0.31465775922E+02 -0.15417130112E+02 -0.10711375009E+03  0.11269937701E+03  0.10566000000E+00 0. -1.
         13    1    4    4    0    0 -0.71891825253E+00  0.54500997141E+00 -0.88989613733E+00  0.12715968282E+01  0.10566000000E+00 0.  1.
        -13    1    4    4    0    0 -0.15864000523E+02  0.84009329420E+01 -0.14452070483E+02  0.23045947413E+02  0.10566000000E+00 0.  1.
         14    1    4    4    0    0 -0.14882857146E+02  0.64711871983E+01 -0.12910557458E+02  0.20737844499E+02  0.00000000000E+00 0. -1.
<mgrwt>
<rscale>  0 0.81009493E+02</rscale>
<asrwt>0</asrwt>
<pdfrwt beam="1">  1        1 0.22547771E-01 0.81009493E+02</pdfrwt>
<pdfrwt beam="2">  1       -2 0.17221918E-02 0.81009493E+02</pdfrwt>
<totfact> 0.15202461E+05</totfact>
</mgrwt>
</event>
<event>
 8    1  0.8577104E-014  0.7986262E+02  0.7818608E-02  0.1329442E+00
         -2   -1    0    0    0  501 -0.00000000000E+00  0.00000000000E+00  0.16142158243E+02  0.16142158444E+02  0.25500000000E-02 0.  1.
          1   -1    0    0  501    0  0.00000000000E+00 -0.00000000000E+00 -0.98779212579E+02  0.98779212708E+02  0.50400000000E-02 0. -1.
        -24    2    1    2    0    0  0.35527136788E-14 -0.17763568394E-14 -0.82637054336E+02  0.11492137115E+03  0.79862624538E+02 0.  0.
         66    2    3    3    0    0  0.22170883429E+02 -0.15646498985E+02  0.76033080335E+00  0.27220196618E+02  0.19999996190E+01 0.  0.
         13    1    3    3    0    0 -0.22170883429E+02  0.15646498985E+02 -0.83397385140E+02  0.87701174534E+02  0.10566000000E+00 0. -1.
         13    1    4    4    0    0  0.60354129756E+01 -0.36370698420E+01 -0.44481065894E+00  0.70614097303E+01  0.10566000000E+00 0. -1.
        -13    1    4    4    0    0  0.92485807049E+01 -0.65559884443E+01  0.78311851966E+00  0.11364051575E+02  0.10566000000E+00 0.  1.
         14    1    4    4    0    0  0.68868897482E+01 -0.54534406988E+01  0.42202294263E+00  0.87947353129E+01  0.00000000000E+00 0. -1.
<mgrwt>
<rscale>  0 0.79862625E+02</rscale>
<asrwt>0</asrwt>
<pdfrwt beam="1">  1        1 0.15196802E-01 0.79862625E+02</pdfrwt>
<pdfrwt beam="2">  1       -2 0.24834090E-02 0.79862625E+02</pdfrwt>
<totfact> 0.14737137E+05</totfact>
</mgrwt>
</event>
<event>
 8    1  0.8577104E-014  0.7757106E+02  0.7818608E-02  0.1336089E+00
          1   -1    0    0  501    0  0.00000000000E+00  0.00000000000E+00  0.11228826278E+02  0.11228827409E+02  0.50400000000E-02 0. -1.
         -2   -1    0    0    0  501 -0.00000000000E+00 -0.00000000000E+00 -0.13396923276E+03  0.13396923278E+03  0.25500000000E-02 0.  1.
        -24    2    1    2    0    0  0.44408920985E-15 -0.71054273576E-14 -0.12274040648E+03  0.14519806019E+03  0.77571059683E+02 0.  0.
         66    2    3    3    0    0  0.25220517191E+01 -0.30263795334E+02 -0.10649208189E+03  0.11075568413E+03  0.20000021005E+01 0.  0.
         13    1    3    3    0    0 -0.25220517191E+01  0.30263795334E+02 -0.16248324591E+02  0.34442376064E+02  0.10566000000E+00 0. -1.
         13    1    4    4    0    0  0.11608489255E+01 -0.82766741239E+01 -0.27882200585E+02  0.29108060367E+02  0.10566000000E+00 0. -1.
        -13    1    4    4    0    0  0.41859462058E+00 -0.51578100391E+01 -0.20407828216E+02  0.21053950754E+02  0.10566000000E+00 0. -1.
        -14    1    4    4    0    0  0.94260817298E+00 -0.16829311171E+02 -0.58202053090E+02  0.60593673007E+02  0.00000000000E+00 0.  1.
<mgrwt>
<rscale>  0 0.77571060E+02</rscale>
<asrwt>0</asrwt>
<pdfrwt beam="1">  1        1 0.17275119E-02 0.77571060E+02</pdfrwt>
<pdfrwt beam="2">  1       -2 0.20610650E-01 0.77571060E+02</pdfrwt>
<totfact> 0.10601611E+05</totfact>
</mgrwt>
</event>
<event>
 8    1  0.8577104E-014  0.8125943E+02  0.7818608E-02  0.1325515E+00
          1   -1    0    0  501    0  0.00000000000E+00  0.00000000000E+00  0.98369591741E+02  0.98369591870E+02  0.50400000000E-02 0. -1.
         -2   -1    0    0    0  501 -0.00000000000E+00 -0.00000000000E+00 -0.16781340748E+02  0.16781340942E+02  0.25500000000E-02 0.  1.
        -24    2    1    2    0    0  0.71054273576E-14  0.00000000000E+00  0.81588250993E+02  0.11515093281E+03  0.81259427929E+02 0.  0.
         66    2    3    3    0    0 -0.37770314609E+02  0.14228275836E+02  0.47112920081E+02  0.62069861755E+02  0.20000002171E+01 0.  0.
         13    1    3    3    0    0  0.37770314609E+02 -0.14228275836E+02  0.34475330913E+02  0.53081071057E+02  0.10566000000E+00 0. -1.
         13    1    4    4    0    0 -0.14887836444E+02  0.52852122127E+01  0.19000456763E+02  0.24710517262E+02  0.10566000000E+00 0. -1.
        -13    1    4    4    0    0 -0.13286694704E+02  0.56990177797E+01  0.17231028301E+02  0.22492989134E+02  0.10566000000E+00 0.  1.
        -14    1    4    4    0    0 -0.95957834606E+01  0.32440458433E+01  0.10881435017E+02  0.14866355360E+02  0.00000000000E+00 0.  1.
<mgrwt>
<rscale>  0 0.81259428E+02</rscale>
<asrwt>0</asrwt>
<pdfrwt beam="1">  1        1 0.15133783E-01 0.81259428E+02</pdfrwt>
<pdfrwt beam="2">  1       -2 0.25817448E-02 0.81259428E+02</pdfrwt>
<totfact> 0.14051738E+05</totfact>
</mgrwt>
</event>
<event>
 8    1  0.8577104E-014  0.8021953E+02  0.7818608E-02  0.1328430E+00
         -2   -1    0    0    0  501 -0.00000000000E+00  0.00000000000E+00  0.12778656654E+02  0.12778656908E+02  0.25500000000E-02 0.  1.
          1   -1    0    0  501    0  0.00000000000E+00 -0.00000000000E+00 -0.12589688634E+03  0.12589688644E+03  0.50400000000E-02 0. -1.
        -24    2    1    2    0    0  0.00000000000E+00  0.00000000000E+00 -0.11311822968E+03  0.13867554335E+03  0.80219526524E+02 0.  0.
         66    2    3    3    0    0  0.23491856245E+02  0.57405384583E+00 -0.45553465803E+00  0.23588224922E+02  0.19999988703E+01 0.  0.
         13    1    3    3    0    0 -0.23491856245E+02 -0.57405384583E+00 -0.11266269503E+03  0.11508731842E+03  0.10566000000E+00 0. -1.
         13    1    4    4    0    0  0.44198376996E+00 -0.12333273432E+00  0.50226559097E-01  0.47354763129E+00  0.10566000000E+00 0.  1.
        -13    1    4    4    0    0  0.63540728906E+01 -0.46358725124E+00 -0.24427043598E+00  0.63765184482E+01  0.10566000000E+00 0.  1.
        -14    1    4    4    0    0  0.16695799585E+02  0.11609738314E+01 -0.26149078114E+00  0.16738158842E+02  0.00000000000E+00 0.  1.
<mgrwt>
<rscale>  0 0.80219527E+02</rscale>
<asrwt>0</asrwt>
<pdfrwt beam="1">  1        1 0.19368751E-01 0.80219527E+02</pdfrwt>
<pdfrwt beam="2">  1       -2 0.19659473E-02 0.80219527E+02</pdfrwt>
<totfact> 0.15183273E+05</totfact>
</mgrwt>
</event>
<event>
 8    1  0.8577104E-014  0.8088966E+02  0.7818608E-02  0.1326545E+00
         -2   -1    0    0    0  501 -0.00000000000E+00  0.00000000000E+00  0.15787868652E+03  0.15787868654E+03  0.25500000000E-02 0.  1.
          1   -1    0    0  501    0  0.00000000000E+00 -0.00000000000E+00 -0.10361020561E+02  0.10361021787E+02  0.50400000000E-02 0. -1.
        -24    2    1    2    0    0 -0.35527136788E-14  0.00000000000E+00  0.14751766596E+03  0.16823970833E+03  0.80889663669E+02 0.  0.
         66    2    3    3    0    0  0.29994099298E+02  0.22360036937E+02  0.10563066392E+03  0.11207789436E+03  0.19999998774E+01 0.  0.
         13    1    3    3    0    0 -0.29994099298E+02 -0.22360036937E+02  0.41887002045E+02  0.56161813974E+02  0.10566000000E+00 0. -1.
         13    1    4    4    0    0  0.61849569891E+01  0.40720475436E+01  0.20854985776E+02  0.22130902827E+02  0.10566000000E+00 0. -1.
        -13    1    4    4    0    0  0.11721263519E+02  0.94911511679E+01  0.44466242627E+02  0.46954529775E+02  0.10566000000E+00 0.  1.
         14    1    4    4    0    0  0.12087878790E+02  0.87968382252E+01  0.40309435513E+02  0.42992461755E+02  0.00000000000E+00 0. -1.
<mgrwt>
<rscale>  0 0.80889664E+02</rscale>
<asrwt>0</asrwt>
<pdfrwt beam="1">  1        1 0.15940034E-02 0.80889664E+02</pdfrwt>
<pdfrwt beam="2">  1       -2 0.24289027E-01 0.80889664E+02</pdfrwt>
<totfact> 0.90295777E+04</totfact>
</mgrwt>
</event>
<event>
 8    1  0.8577104E-014  0.7969543E+02  0.7818608E-02  0.1329918E+00
          1   -1    0    0  501    0  0.00000000000E+00  0.00000000000E+00  0.28618355257E+01  0.28618399636E+01  0.50400000000E-02 0. -1.
         -2   -1    0    0    0  501 -0.00000000000E+00 -0.00000000000E+00 -0.55483244695E+03  0.55483244696E+03  0.25500000000E-02 0.  1.
        -24    2    1    2    0    0  0.00000000000E+00  0.00000000000E+00 -0.55197061143E+03  0.55769428692E+03  0.79695431403E+02 0.  0.
         66    2    3    3    0    0  0.25031634368E+02  0.45524618963E+01 -0.49053966328E+03  0.49120308312E+03  0.19999974874E+01 0.  0.
         13    1    3    3    0    0 -0.25031634368E+02 -0.45524618963E+01 -0.61430948151E+02  0.66491203803E+02  0.10566000000E+00 0. -1.
         13    1    4    4    0    0  0.60912472828E+01  0.76237879869E+00 -0.11724675662E+03  0.11740740018E+03  0.10566000000E+00 0. -1.
        -13    1    4    4    0    0  0.57285688187E+01  0.97527784805E+00 -0.12631028697E+03  0.12644392997E+03  0.10566000000E+00 0.  1.
        -14    1    4    4    0    0  0.13211818267E+02  0.28148052495E+01 -0.24698261968E+03  0.24735175296E+03  0.00000000000E+00 0.  1.
<mgrwt>
<rscale>  0 0.79695431E+02</rscale>
<asrwt>0</asrwt>
<pdfrwt beam="1">  1        1 0.44028317E-03 0.79695431E+02</pdfrwt>
<pdfrwt beam="2">  1       -2 0.85358753E-01 0.79695431E+02</pdfrwt>
<totfact> 0.46862873E+04</totfact>
</mgrwt>
</event>
<event>
 8    1  0.8577104E-014  0.8008646E+02  0.7818608E-02  0.1328806E+00
         -2   -1    0    0    0  501 -0.00000000000E+00  0.00000000000E+00  0.11827863036E+03  0.11827863039E+03  0.25500000000E-02 0.  1.
          1   -1    0    0  501    0  0.00000000000E+00 -0.00000000000E+00 -0.13556635130E+02  0.13556636067E+02  0.50400000000E-02 0. -1.
        -24    2    1    2    0    0  0.00000000000E+00  0.55511151231E-16  0.10472199523E+03  0.13183526645E+03  0.80086460753E+02 0.  0.
         66    2    3    3    0    0 -0.28952109553E+02  0.18689085642E+00  0.97870421915E+02  0.10208270695E+03  0.19999993919E+01 0.  0.
         13    1    3    3    0    0  0.28952109553E+02 -0.18689085642E+00  0.68515733136E+01  0.29752559498E+02  0.10566000000E+00 0. -1.
         13    1    4    4    0    0 -0.90905419212E+01 -0.34569070700E+00  0.31484872463E+02  0.32772943300E+02  0.10566000000E+00 0. -1.
        -13    1    4    4    0    0 -0.14806843909E+02  0.28619226871E+00  0.51520302456E+02  0.53606690458E+02  0.10566000000E+00 0.  1.
        -14    1    4    4    0    0 -0.50547237225E+01  0.24638929470E+00  0.14865246996E+02  0.15703073198E+02  0.00000000000E+00 0.  1.
<mgrwt>
<rscale>  0 0.80086461E+02</rscale>
<asrwt>0</asrwt>
<pdfrwt beam="1">  1        1 0.20856362E-02 0.80086461E+02</pdfrwt>
<pdfrwt beam="2">  1       -2 0.18196713E-01 0.80086461E+02</pdfrwt>
<totfact> 0.10127247E+05</totfact>
</mgrwt>
</event>
<event>
 8    1  0.8577104E-014  0.7964704E+02  0.7818608E-02  0.1330056E+00
         -2   -1    0    0    0  501 -0.00000000000E+00  0.00000000000E+00  0.70747784753E+01  0.70747789348E+01  0.25500000000E-02 0.  1.
          1   -1    0    0  501    0  0.00000000000E+00 -0.00000000000E+00 -0.22416429971E+03  0.22416429977E+03  0.50400000000E-02 0. -1.
        -24    2    1    2    0    0  0.00000000000E+00  0.00000000000E+00 -0.21708952124E+03  0.23123907870E+03  0.79647041934E+02 0.  0.
         66    2    3    3    0    0 -0.26769238403E+02  0.24226797727E+02 -0.15722725899E+03  0.16133177252E+03  0.20000004085E+01 0.  0.
         13    1    3    3    0    0  0.26769238403E+02 -0.24226797727E+02 -0.59862262251E+02  0.69907306189E+02  0.10566000000E+00 0. -1.
         13    1    4    4    0    0 -0.40922038412E+01  0.36282386079E+01 -0.21106538498E+02  0.21803838632E+02  0.10566000000E+00 0. -1.
        -13    1    4    4    0    0 -0.11830136393E+02  0.10230739193E+02 -0.69936627766E+02  0.71664239470E+02  0.10566000000E+00 0.  1.
        -14    1    4    4    0    0 -0.10846898169E+02  0.10367819927E+02 -0.66184092723E+02  0.67863694414E+02  0.00000000000E+00 0.  1.
<mgrwt>
<rscale>  0 0.79647042E+02</rscale>
<asrwt>0</asrwt>
<pdfrwt beam="1">  1        1 0.34486810E-01 0.79647042E+02</pdfrwt>
<pdfrwt beam="2">  1       -2 0.10884277E-02 0.79647042E+02</pdfrwt>
<totfact> 0.17249373E+05</totfact>
</mgrwt>
</event>
<event>
 8    1  0.8577104E-014  0.7960535E+02  0.7818608E-02  0.1330175E+00
         -2   -1    0    0    0  501 -0.00000000000E+00  0.00000000000E+00  0.85425103430E+01  0.85425107236E+01  0.25500000000E-02 0.  1.
          1   -1    0    0  501    0  0.00000000000E+00 -0.00000000000E+00 -0.18545520182E+03  0.18545520189E+03  0.50400000000E-02 0. -1.
        -24    2    1    2    0    0  0.00000000000E+00  0.00000000000E+00 -0.17691269148E+03  0.19399771261E+03  0.79605352163E+02 0.  0.
         66    2    3    3    0    0  0.38636232923E+02 -0.71615439841E+01 -0.73449540457E+02  0.83323953347E+02  0.20000003362E+01 0.  0.
         13    1    3    3    0    0 -0.38636232923E+02  0.71615439841E+01 -0.10346315102E+03  0.11067375926E+03  0.10566000000E+00 0. -1.
         13    1    4    4    0    0  0.15666073950E+02 -0.32143098920E+01 -0.31382005875E+02  0.35222139598E+02  0.10566000000E+00 0. -1.
        -13    1    4    4    0    0  0.21421712098E+02 -0.37666886984E+01 -0.39681871739E+02  0.45251959093E+02  0.10566000000E+00 0.  1.
         14    1    4    4    0    0  0.15484468752E+01 -0.18054539373E+00 -0.23856628431E+01  0.28498546569E+01  0.00000000000E+00 0. -1.
<mgrwt>
<rscale>  0 0.79605352E+02</rscale>
<asrwt>0</asrwt>
<pdfrwt beam="1">  1        1 0.28531567E-01 0.79605352E+02</pdfrwt>
<pdfrwt beam="2">  1       -2 0.13142325E-02 0.79605352E+02</pdfrwt>
<totfact> 0.16649791E+05</totfact>
</mgrwt>
</event>
<event>
 8    1  0.8577104E-014  0.8165361E+02  0.7818608E-02  0.1324423E+00
         -2   -1    0    0    0  501 -0.00000000000E+00  0.00000000000E+00  0.24897170454E+03  0.24897170455E+03  0.25500000000E-02 0.  1.
          1   -1    0    0  501    0  0.00000000000E+00 -0.00000000000E+00 -0.66948476184E+01  0.66948495155E+01  0.50400000000E-02 0. -1.
        -24    2    1    2    0    0  0.35527136788E-14  0.00000000000E+00  0.24227685692E+03  0.25566655406E+03  0.81653606591E+02 0.  0.
         66    2    3    3    0    0 -0.22537529000E+02  0.25204962524E+02  0.19272048188E+03  0.19567425606E+03  0.19999995735E+01 0.  0.
         13    1    3    3    0    0  0.22537529000E+02 -0.25204962524E+02  0.49556375036E+02  0.59992298005E+02  0.10566000000E+00 0. -1.
         13    1    4    4    0    0 -0.33106445758E+01  0.41477733360E+01  0.34024708575E+02  0.34436265024E+02  0.10566000000E+00 0.  1.
        -13    1    4    4    0    0 -0.29500882146E+01  0.30082326059E+01  0.23270335583E+02  0.23648935834E+02  0.10566000000E+00 0. -1.
         14    1    4    4    0    0 -0.16276796209E+02  0.18048956582E+02  0.13542543772E+03  0.13758905520E+03  0.00000000000E+00 0. -1.
<mgrwt>
<rscale>  0 0.81653607E+02</rscale>
<asrwt>0</asrwt>
<pdfrwt beam="1">  1        1 0.10299767E-02 0.81653607E+02</pdfrwt>
<pdfrwt beam="2">  1       -2 0.38303340E-01 0.81653607E+02</pdfrwt>
<totfact> 0.73287522E+04</totfact>
</mgrwt>
</event>
<event>
 8    1  0.8577104E-014  0.7037631E+02  0.7818608E-02  0.1358818E+00
         -2   -1    0    0    0  501 -0.00000000000E+00  0.00000000000E+00  0.11174288252E+03  0.11174288255E+03  0.25500000000E-02 0.  1.
          1   -1    0    0  501    0  0.00000000000E+00 -0.00000000000E+00 -0.11080849863E+02  0.11080851009E+02  0.50400000000E-02 0. -1.
        -24    2    1    2    0    0  0.35527136788E-14  0.17763568394E-14  0.10066203266E+03  0.12282373356E+03  0.70376307851E+02 0.  0.
         66    2    3    3    0    0 -0.19268444515E+02 -0.10370788002E+02  0.98401415193E+02  0.10082492102E+03  0.19999972252E+01 0.  0.
         13    1    3    3    0    0  0.19268444515E+02  0.10370788002E+02  0.22606174657E+01  0.21998812540E+02  0.10566000000E+00 0. -1.
         13    1    4    4    0    0 -0.67805782631E+01 -0.37691317837E+01  0.35029403818E+02  0.35878306702E+02  0.10566000000E+00 0.  1.
        -13    1    4    4    0    0 -0.88018907621E+01 -0.51705849861E+01  0.43094768080E+02  0.44287452286E+02  0.10566000000E+00 0. -1.
         14    1    4    4    0    0 -0.36859754898E+01 -0.14310712325E+01  0.20277243295E+02  0.20659162031E+02  0.00000000000E+00 0. -1.
<mgrwt>
<rscale>  0 0.70376308E+02</rscale>
<asrwt>0</asrwt>
<pdfrwt beam="1">  1        1 0.17047461E-02 0.70376308E+02</pdfrwt>
<pdfrwt beam="2">  1       -2 0.17191214E-01 0.70376308E+02</pdfrwt>
<totfact> 0.14306320E+05</totfact>
</mgrwt>
</event>
<event>
 8    1  0.8577104E-014  0.8024500E+02  0.7818608E-02  0.1328358E+00
          1   -1    0    0  501    0  0.00000000000E+00  0.00000000000E+00  0.13020529082E+03  0.13020529092E+03  0.50400000000E-02 0. -1.
         -2   -1    0    0    0  501 -0.00000000000E+00 -0.00000000000E+00 -0.12363666609E+02  0.12363666872E+02  0.25500000000E-02 0.  1.
        -24    2    1    2    0    0  0.00000000000E+00 -0.35527136788E-14  0.11784162421E+03  0.14256895779E+03  0.80244995661E+02 0.  0.
         66    2    3    3    0    0  0.24734046525E+02  0.19430405519E+02  0.14772243933E+02  0.34807081270E+02  0.19999999119E+01 0.  0.
         13    1    3    3    0    0 -0.24734046525E+02 -0.19430405519E+02  0.10306938028E+03  0.10776187652E+03  0.10566000000E+00 0. -1.
         13    1    4    4    0    0  0.61308547271E+01  0.45667566155E+01  0.43175153528E+01  0.87803615260E+01  0.10566000000E+00 0. -1.
        -13    1    4    4    0    0  0.39498466583E+01  0.36925042837E+01  0.24514687289E+01  0.59377385825E+01  0.10566000000E+00 0.  1.
         14    1    4    4    0    0  0.14653345139E+02  0.11171144619E+02  0.80032598513E+01  0.20088981162E+02  0.00000000000E+00 0. -1.
<mgrwt>
<rscale>  0 0.80244996E+02</rscale>
<asrwt>0</asrwt>
<pdfrwt beam="1">  1        1 0.20031583E-01 0.80244996E+02</pdfrwt>
<pdfrwt beam="2">  1       -2 0.19021026E-02 0.80244996E+02</pdfrwt>
<totfact> 0.15261742E+05</totfact>
</mgrwt>
</event>
<event>
 8    1  0.8577104E-014  0.7940720E+02  0.7818608E-02  0.1330742E+00
         -2   -1    0    0    0  501 -0.00000000000E+00  0.00000000000E+00  0.17509486588E+02  0.17509486773E+02  0.25500000000E-02 0.  1.
          1   -1    0    0  501    0  0.00000000000E+00 -0.00000000000E+00 -0.90029820672E+02  0.90029820813E+02  0.50400000000E-02 0. -1.
        -24    2    1    2    0    0  0.00000000000E+00  0.00000000000E+00 -0.72520334084E+02  0.10753930759E+03  0.79407202573E+02 0.  0.
         66    2    3    3    0    0  0.11344527443E+02  0.38020531154E+02 -0.35830053672E+02  0.53498147968E+02  0.19999994350E+01 0.  0.
         13    1    3    3    0    0 -0.11344527443E+02 -0.38020531154E+02 -0.36690280413E+02  0.54041159619E+02  0.10566000000E+00 0. -1.
         13    1    4    4    0    0  0.30923379269E+01  0.12930735709E+02 -0.11621757515E+02  0.17659073917E+02  0.10566000000E+00 0.  1.
        -13    1    4    4    0    0  0.29626239245E+01  0.92762374830E+01 -0.83657839082E+01  0.12838349847E+02  0.10566000000E+00 0.  1.
         14    1    4    4    0    0  0.52895655916E+01  0.15813557962E+02 -0.15842512248E+02  0.23000724204E+02  0.00000000000E+00 0. -1.
<mgrwt>
<rscale>  0 0.79407203E+02</rscale>
<asrwt>0</asrwt>
<pdfrwt beam="1">  1        1 0.13850741E-01 0.79407203E+02</pdfrwt>
<pdfrwt beam="2">  1       -2 0.26937672E-02 0.79407203E+02</pdfrwt>
<totfact> 0.14738678E+05</totfact>
</mgrwt>
</event>
<event>
 8    1  0.8577104E-014  0.7954292E+02  0.7818608E-02  0.1330354E+00
         -2   -1    0    0    0  501 -0.00000000000E+00  0.00000000000E+00  0.37042063390E+01  0.37042072167E+01  0.25500000000E-02 0.  1.
          1   -1    0    0  501    0  0.00000000000E+00 -0.00000000000E+00 -0.42701958865E+03  0.42701958868E+03  0.50400000000E-02 0. -1.
        -24    2    1    2    0    0  0.00000000000E+00  0.00000000000E+00 -0.42331538231E+03  0.43072379590E+03  0.79542915777E+02 0.  0.
         66    2    3    3    0    0  0.13003139210E+02  0.37432050221E+02 -0.22850221466E+03  0.23192132743E+03  0.20000001541E+01 0.  0.
         13    1    3    3    0    0 -0.13003139210E+02 -0.37432050221E+02 -0.19481316765E+03  0.19880246847E+03  0.10566000000E+00 0. -1.
         13    1    4    4    0    0  0.51972406125E+01  0.13456789266E+02 -0.85889012834E+02  0.87092078727E+02  0.10566000000E+00 0. -1.
        -13    1    4    4    0    0  0.60905905467E+01  0.18333753300E+02 -0.10658793449E+03  0.10832460822E+03  0.10566000000E+00 0.  1.
         14    1    4    4    0    0  0.17153080504E+01  0.56415076544E+01 -0.36025267339E+02  0.36504640488E+02  0.00000000000E+00 0. -1.
<mgrwt>
<rscale>  0 0.79542916E+02</rscale>
<asrwt>0</asrwt>
<pdfrwt beam="1">  1        1 0.65695283E-01 0.79542916E+02</pdfrwt>
<pdfrwt beam="2">  1       -2 0.56987830E-03 0.79542916E+02</pdfrwt>
<totfact> 0.19481673E+05</totfact>
</mgrwt>
</event>
<event>
 8    1  0.8577104E-014  0.7952589E+02  0.7818608E-02  0.1330402E+00
         -2   -1    0    0    0  501 -0.00000000000E+00  0.00000000000E+00  0.65480509479E+02  0.65480509529E+02  0.25500000000E-02 0.  1.
          1   -1    0    0  501    0  0.00000000000E+00 -0.00000000000E+00 -0.24145990578E+02  0.24145991104E+02  0.50400000000E-02 0. -1.
        -24    2    1    2    0    0  0.00000000000E+00  0.00000000000E+00  0.41334518901E+02  0.89626500633E+02  0.79525889891E+02 0.  0.
         66    2    3    3    0    0  0.74072306446E+00  0.34008505931E+02 -0.24703660478E+01  0.34164745741E+02  0.19999992137E+01 0.  0.
         13    1    3    3    0    0 -0.74072306446E+00 -0.34008505931E+02  0.43804884949E+02  0.55461754892E+02  0.10566000000E+00 0. -1.
         13    1    4    4    0    0  0.17869419752E+00  0.44557443302E+01 -0.27670972935E+00  0.44691522084E+01  0.10566000000E+00 0.  1.
        -13    1    4    4    0    0 -0.13631839199E+00  0.21017269396E+02 -0.21882114764E+01  0.21131578954E+02  0.10566000000E+00 0.  1.
        -14    1    4    4    0    0  0.69834725893E+00  0.85354922041E+01 -0.54448420349E-02  0.85640145789E+01  0.00000000000E+00 0.  1.
<mgrwt>
<rscale>  0 0.79525890E+02</rscale>
<asrwt>0</asrwt>
<pdfrwt beam="1">  1        1 0.37147679E-02 0.79525890E+02</pdfrwt>
<pdfrwt beam="2">  1       -2 0.10073925E-01 0.79525890E+02</pdfrwt>
<totfact> 0.11820432E+05</totfact>
</mgrwt>
</event>
<event>
 8    1  0.8577104E-014  0.7993829E+02  0.7818608E-02  0.1329227E+00
         -2   -1    0    0    0  501 -0.00000000000E+00  0.00000000000E+00  0.80059556068E+02  0.80059556109E+02  0.25500000000E-02 0.  1.
          1   -1    0    0  501    0  0.00000000000E+00 -0.00000000000E+00 -0.19954300261E+02  0.19954300898E+02  0.50400000000E-02 0. -1.
        -24    2    1    2    0    0 -0.88817841970E-15  0.00000000000E+00  0.60105255807E+02  0.10001385701E+03  0.79938287558E+02 0.  0.
         66    2    3    3    0    0 -0.69969590787E+01 -0.77017274513E+01  0.78321444047E+02  0.79034945688E+02  0.20000000709E+01 0.  0.
         13    1    3    3    0    0  0.69969590787E+01  0.77017274513E+01 -0.18216188240E+02  0.20978911319E+02  0.10566000000E+00 0. -1.
         13    1    4    4    0    0 -0.56507390573E+00 -0.94905818292E+00  0.59603774690E+01  0.60627785348E+01  0.10566000000E+00 0. -1.
        -13    1    4    4    0    0 -0.49229596634E+01 -0.52404117116E+01  0.50981539814E+02  0.51486173023E+02  0.10566000000E+00 0.  1.
         14    1    4    4    0    0 -0.15089255097E+01 -0.15122575567E+01  0.21379526764E+02  0.21485994130E+02  0.00000000000E+00 0. -1.
<mgrwt>
<rscale>  0 0.79938288E+02</rscale>
<asrwt>0</asrwt>
<pdfrwt beam="1">  1        1 0.30698924E-02 0.79938288E+02</pdfrwt>
<pdfrwt beam="2">  1       -2 0.12316855E-01 0.79938288E+02</pdfrwt>
<totfact> 0.11196214E+05</totfact>
</mgrwt>
</event>
<event>
 8    1  0.8577104E-014  0.8014468E+02  0.7818608E-02  0.1328641E+00
          1   -1    0    0  501    0  0.00000000000E+00  0.00000000000E+00  0.47472962406E+02  0.47472962673E+02  0.50400000000E-02 0. -1.
         -2   -1    0    0    0  501 -0.00000000000E+00 -0.00000000000E+00 -0.33825413299E+02  0.33825413395E+02  0.25500000000E-02 0.  1.
        -24    2    1    2    0    0  0.00000000000E+00 -0.17763568394E-14  0.13647549107E+02  0.81298376068E+02  0.80144683883E+02 0.  0.
         66    2    3    3    0    0  0.24653094351E+02 -0.10083234873E+02 -0.23508015112E+02  0.35581926042E+02  0.19999999445E+01 0.  0.
         13    1    3    3    0    0 -0.24653094351E+02  0.10083234873E+02  0.37155564219E+02  0.45716450027E+02  0.10566000000E+00 0. -1.
         13    1    4    4    0    0  0.16270074142E+01 -0.10523943736E+01 -0.15124727401E+01  0.24603708803E+01  0.10566000000E+00 0. -1.
        -13    1    4    4    0    0  0.89847672008E+01 -0.30331912839E+01 -0.89184199209E+01  0.13018282104E+02  0.10566000000E+00 0.  1.
        -14    1    4    4    0    0  0.14041319736E+02 -0.59976492151E+01 -0.13077122451E+02  0.20103273058E+02  0.00000000000E+00 0.  1.
<mgrwt>
<rscale>  0 0.80144684E+02</rscale>
<asrwt>0</asrwt>
<pdfrwt beam="1">  1        1 0.73035327E-02 0.80144684E+02</pdfrwt>
<pdfrwt beam="2">  1       -2 0.52039098E-02 0.80144684E+02</pdfrwt>
<totfact> 0.12984401E+05</totfact>
</mgrwt>
</event>
<event>
 8    1  0.8577104E-014  0.8081180E+02  0.7818608E-02  0.1326763E+00
         -2   -1    0    0    0  501 -0.00000000000E+00  0.00000000000E+00  0.14057116302E+02  0.14057116533E+02  0.25500000000E-02 0.  1.
          1   -1    0    0  501    0  0.00000000000E+00 -0.00000000000E+00 -0.11614308122E+03  0.11614308133E+03  0.50400000000E-02 0. -1.
        -24    2    1    2    0    0  0.00000000000E+00  0.00000000000E+00 -0.10208596492E+03  0.13020019786E+03  0.80811801676E+02 0.  0.
         66    2    3    3    0    0 -0.24488750034E+02  0.25303983277E+02 -0.19230278441E+02  0.40172055632E+02  0.19999992089E+01 0.  0.
         13    1    3    3    0    0  0.24488750034E+02 -0.25303983277E+02 -0.82855686477E+02  0.90028142230E+02  0.10566000000E+00 0. -1.
         13    1    4    4    0    0 -0.10458384011E+02  0.10571647068E+02 -0.78226402710E+01  0.16803046828E+02  0.10566000000E+00 0. -1.
        -13    1    4    4    0    0 -0.12276825553E+02  0.12443555247E+02 -0.10233410310E+02  0.20255773583E+02  0.10566000000E+00 0.  1.
        -14    1    4    4    0    0 -0.17535404695E+01  0.22887809615E+01 -0.11742278603E+01  0.31132352201E+01  0.00000000000E+00 0.  1.
<mgrwt>
<rscale>  0 0.80811802E+02</rscale>
<asrwt>0</asrwt>
<pdfrwt beam="1">  1        1 0.17868166E-01 0.80811802E+02</pdfrwt>
<pdfrwt beam="2">  1       -2 0.21626334E-02 0.80811802E+02</pdfrwt>
<totfact> 0.14675777E+05</totfact>
</mgrwt>
</event>
<event>
 8    1  0.8577104E-014  0.8017043E+02  0.7818608E-02  0.1328568E+00
         -2   -1    0    0    0  501 -0.00000000000E+00  0.00000000000E+00  0.22597632475E+03  0.22597632476E+03  0.25500000000E-02 0.  1.
          1   -1    0    0  501    0  0.00000000000E+00 -0.00000000000E+00 -0.71105861523E+01  0.71105879385E+01  0.50400000000E-02 0. -1.
        -24    2    1    2    0    0  0.00000000000E+00 -0.35527136788E-14  0.21886573859E+03  0.23308691270E+03  0.80170426850E+02 0.  0.
         66    2    3    3    0    0  0.26728738758E+01  0.25093776684E+02  0.19995656413E+03  0.20155264680E+03  0.20000025126E+01 0.  0.
         13    1    3    3    0    0 -0.26728738758E+01 -0.25093776684E+02  0.18909174469E+02  0.31534265905E+02  0.10566000000E+00 0. -1.
         13    1    4    4    0    0  0.10331658896E+01  0.35293615286E+01  0.29215484331E+02  0.29446213904E+02  0.10566000000E+00 0. -1.
        -13    1    4    4    0    0  0.30405320875E+00  0.72731918405E+01  0.56361344644E+02  0.56829605858E+02  0.10566000000E+00 0.  1.
         14    1    4    4    0    0  0.13356547774E+01  0.14291223315E+02  0.11437973515E+03  0.11527682703E+03  0.00000000000E+00 0. -1.
<mgrwt>
<rscale>  0 0.80170427E+02</rscale>
<asrwt>0</asrwt>
<pdfrwt beam="1">  1        1 0.10939366E-02 0.80170427E+02</pdfrwt>
<pdfrwt beam="2">  1       -2 0.34765584E-01 0.80170427E+02</pdfrwt>
<totfact> 0.80339239E+04</totfact>
</mgrwt>
</event>
<event>
 8    1  0.8577104E-014  0.7931081E+02  0.7818608E-02  0.1331019E+00
          1   -1    0    0  501    0  0.00000000000E+00  0.00000000000E+00  0.21785762434E+01  0.21785820732E+01  0.50400000000E-02 0. -1.
         -2   -1    0    0    0  501 -0.00000000000E+00 -0.00000000000E+00 -0.72182415465E+03  0.72182415465E+03  0.25500000000E-02 0.  1.
        -24    2    1    2    0    0  0.17763568394E-14  0.00000000000E+00 -0.71964557840E+03  0.72400273672E+03  0.79310808021E+02 0.  0.
         66    2    3    3    0    0  0.11331414556E+02  0.10556615961E+02 -0.69305416365E+03  0.69323006055E+03  0.20000001120E+01 0.  0.
         13    1    3    3    0    0 -0.11331414556E+02 -0.10556615961E+02 -0.26591414758E+02  0.30772676180E+02  0.10566000000E+00 0. -1.
         13    1    4    4    0    0  0.16268470539E+01  0.19453100573E+01 -0.12062975047E+03  0.12065644916E+03  0.10566000000E+00 0. -1.
        -13    1    4    4    0    0  0.65960654191E+01  0.64759662534E+01 -0.38180496749E+03  0.38191686344E+03  0.10566000000E+00 0.  1.
        -14    1    4    4    0    0  0.31085020826E+01  0.21353396507E+01 -0.19061944568E+03  0.19065674794E+03  0.00000000000E+00 0.  1.
<mgrwt>
<rscale>  0 0.79310808E+02</rscale>
<asrwt>0</asrwt>
<pdfrwt beam="1">  1        1 0.33516660E-03 0.79310808E+02</pdfrwt>
<pdfrwt beam="2">  1       -2 0.11104968E+00 0.79310808E+02</pdfrwt>
<totfact> 0.37588769E+04</totfact>
</mgrwt>
</event>
<event>
 8    1  0.8577104E-014  0.8296760E+02  0.7818608E-02  0.1320835E+00
          1   -1    0    0  501    0  0.00000000000E+00  0.00000000000E+00  0.10286272357E+02  0.10286273592E+02  0.50400000000E-02 0. -1.
         -2   -1    0    0    0  501 -0.00000000000E+00 -0.00000000000E+00 -0.16730118785E+03  0.16730118787E+03  0.25500000000E-02 0.  1.
        -24    2    1    2    0    0  0.00000000000E+00  0.00000000000E+00 -0.15701491550E+03  0.17758746147E+03  0.82967600791E+02 0.  0.
         66    2    3    3    0    0  0.26828966262E+02 -0.31443290623E+02 -0.71641360675E+02  0.82734264455E+02  0.19999999267E+01 0.  0.
         13    1    3    3    0    0 -0.26828966262E+02  0.31443290623E+02 -0.85373554823E+02  0.94853197010E+02  0.10566000000E+00 0. -1.
         13    1    4    4    0    0  0.14947564418E+02 -0.17773857753E+02 -0.38994119851E+02  0.45386035831E+02  0.10566000000E+00 0. -1.
        -13    1    4    4    0    0  0.20347216350E+01 -0.29374391745E+01 -0.64505839319E+01  0.73749466529E+01  0.10566000000E+00 0.  1.
        -14    1    4    4    0    0  0.98466802087E+01 -0.10731993696E+02 -0.26196656892E+02  0.29973281971E+02  0.00000000000E+00 0.  1.
<mgrwt>
<rscale>  0 0.82967601E+02</rscale>
<asrwt>0</asrwt>
<pdfrwt beam="1">  1        1 0.15825037E-02 0.82967601E+02</pdfrwt>
<pdfrwt beam="2">  1       -2 0.25738642E-01 0.82967601E+02</pdfrwt>
<totfact> 0.82886317E+04</totfact>
</mgrwt>
</event>
<event>
 8    1  0.8577104E-014  0.8610667E+02  0.7818608E-02  0.1312564E+00
          1   -1    0    0  501    0  0.00000000000E+00  0.00000000000E+00  0.94836185972E+02  0.94836186106E+02  0.50400000000E-02 0. -1.
         -2   -1    0    0    0  501 -0.00000000000E+00 -0.00000000000E+00 -0.19545171808E+02  0.19545171974E+02  0.25500000000E-02 0.  1.
        -24    2    1    2    0    0 -0.71054273576E-14  0.00000000000E+00  0.75291014164E+02  0.11438135808E+03  0.86106667932E+02 0.  0.
         66    2    3    3    0    0 -0.40110813937E+02 -0.10145644848E+02  0.53370476612E+02  0.67559006209E+02  0.20000105189E+01 0.  0.
         13    1    3    3    0    0  0.40110813937E+02  0.10145644848E+02  0.21920537551E+02  0.46822351870E+02  0.10566000000E+00 0. -1.
         13    1    4    4    0    0 -0.14208592926E+02 -0.29395157924E+01  0.19182959601E+02  0.24052483637E+02  0.10566000000E+00 0. -1.
        -13    1    4    4    0    0 -0.15208510530E+02 -0.43833487780E+01  0.20943475901E+02  0.26251721580E+02  0.10566000000E+00 0.  1.
        -14    1    4    4    0    0 -0.10693710481E+02 -0.28227802777E+01  0.13244041110E+02  0.17254800992E+02  0.00000000000E+00 0.  1.
<mgrwt>
<rscale>  0 0.86106668E+02</rscale>
<asrwt>0</asrwt>
<pdfrwt beam="1">  1        1 0.14590183E-01 0.86106668E+02</pdfrwt>
<pdfrwt beam="2">  1       -2 0.30069495E-02 0.86106668E+02</pdfrwt>
<totfact> 0.11926575E+05</totfact>
</mgrwt>
</event>
<event>
 8    1  0.8577104E-014  0.7996531E+02  0.7818608E-02  0.1329150E+00
          1   -1    0    0  501    0  0.00000000000E+00  0.00000000000E+00  0.15085502025E+02  0.15085502867E+02  0.50400000000E-02 0. -1.
         -2   -1    0    0    0  501 -0.00000000000E+00 -0.00000000000E+00 -0.10597012044E+03  0.10597012047E+03  0.25500000000E-02 0.  1.
        -24    2    1    2    0    0  0.00000000000E+00 -0.35527136788E-14 -0.90884618411E+02  0.12105562333E+03  0.79965305458E+02 0.  0.
         66    2    3    3    0    0 -0.17307601783E+02  0.31747539823E+02 -0.19728577450E+02  0.41239254752E+02  0.20000000103E+01 0.  0.
         13    1    3    3    0    0  0.17307601783E+02 -0.31747539823E+02 -0.71156040961E+02  0.79816368582E+02  0.10566000000E+00 0. -1.
         13    1    4    4    0    0 -0.88978264991E+00  0.10917162269E+01 -0.67790286322E+00  0.15666122085E+01  0.10566000000E+00 0. -1.
        -13    1    4    4    0    0 -0.15324296900E+02  0.28359209636E+02 -0.18004482409E+02  0.36922234460E+02  0.10566000000E+00 0.  1.
        -14    1    4    4    0    0 -0.10935222331E+01  0.22966139598E+01 -0.10461921775E+01  0.27504080837E+01  0.00000000000E+00 0.  1.
<mgrwt>
<rscale>  0 0.79965305E+02</rscale>
<asrwt>0</asrwt>
<pdfrwt beam="1">  1        1 0.23208466E-02 0.79965305E+02</pdfrwt>
<pdfrwt beam="2">  1       -2 0.16303095E-01 0.79965305E+02</pdfrwt>
<totfact> 0.10469843E+05</totfact>
</mgrwt>
</event>
<event>
 8    1  0.8577104E-014  0.8054515E+02  0.7818608E-02  0.1327511E+00
         -2   -1    0    0    0  501 -0.00000000000E+00  0.00000000000E+00  0.91371729512E+02  0.91371729547E+02  0.25500000000E-02 0.  1.
          1   -1    0    0  501    0  0.00000000000E+00 -0.00000000000E+00 -0.17750350145E+02  0.17750350861E+02  0.50400000000E-02 0. -1.
        -24    2    1    2    0    0  0.35527136788E-14  0.22204460493E-15  0.73621379366E+02  0.10912208041E+03  0.80545148413E+02 0.  0.
         66    2    3    3    0    0 -0.23985369104E+02 -0.18402117769E+01  0.80549124167E+02  0.84088320753E+02  0.19999931448E+01 0.  0.
         13    1    3    3    0    0  0.23985369104E+02  0.18402117769E+01 -0.69277448007E+01  0.25033759655E+02  0.10566000000E+00 0. -1.
         13    1    4    4    0    0 -0.38959605505E+01 -0.73357792536E-01  0.14818474968E+02  0.15322605992E+02  0.10566000000E+00 0.  1.
        -13    1    4    4    0    0 -0.23599604804E+01 -0.26915345000E+00  0.65455549812E+01  0.69640010839E+01  0.10566000000E+00 0. -1.
        -14    1    4    4    0    0 -0.17729448073E+02 -0.14977005344E+01  0.59185094218E+02  0.61801713678E+02  0.00000000000E+00 0.  1.
<mgrwt>
<rscale>  0 0.80545148E+02</rscale>
<asrwt>0</asrwt>
<pdfrwt beam="1">  1        1 0.27308232E-02 0.80545148E+02</pdfrwt>
<pdfrwt beam="2">  1       -2 0.14057189E-01 0.80545148E+02</pdfrwt>
<totfact> 0.10659844E+05</totfact>
</mgrwt>
</event>
<event>
 8    1  0.8577104E-014  0.8343588E+02  0.7818608E-02  0.1319574E+00
          1   -1    0    0  501    0  0.00000000000E+00  0.00000000000E+00  0.18844691127E+02  0.18844691801E+02  0.50400000000E-02 0. -1.
         -2   -1    0    0    0  501 -0.00000000000E+00 -0.00000000000E+00 -0.92354202522E+02  0.92354202557E+02  0.25500000000E-02 0.  1.
        -24    2    1    2    0    0  0.00000000000E+00  0.00000000000E+00 -0.73509511395E+02  0.11119889436E+03  0.83435878620E+02 0.  0.
         66    2    3    3    0    0  0.39715526667E+01 -0.16140799179E+02 -0.87736307509E+02  0.89319417207E+02  0.20000015267E+01 0.  0.
         13    1    3    3    0    0 -0.39715526667E+01  0.16140799179E+02  0.14226796114E+02  0.21879477152E+02  0.10566000000E+00 0. -1.
         13    1    4    4    0    0  0.19099264459E-01 -0.36859025584E+00 -0.14417856571E+01  0.14920232824E+01  0.10566000000E+00 0.  1.
        -13    1    4    4    0    0  0.84889132619E-01 -0.18251394099E+01 -0.80388615022E+01  0.82445617420E+01  0.10566000000E+00 0.  1.
        -14    1    4    4    0    0  0.38675642697E+01 -0.13947069514E+02 -0.78255660350E+02  0.79582832182E+02  0.00000000000E+00 0.  1.
<mgrwt>
<rscale>  0 0.83435879E+02</rscale>
<asrwt>0</asrwt>
<pdfrwt beam="1">  1        1 0.28991834E-02 0.83435879E+02</pdfrwt>
<pdfrwt beam="2">  1       -2 0.14208339E-01 0.83435879E+02</pdfrwt>
<totfact> 0.97159753E+04</totfact>
</mgrwt>
</event>
<event>
 8    1  0.8577104E-014  0.8032158E+02  0.7818608E-02  0.1328141E+00
          1   -1    0    0  501    0  0.00000000000E+00  0.00000000000E+00  0.74262318058E+01  0.74262335160E+01  0.50400000000E-02 0. -1.
         -2   -1    0    0    0  501 -0.00000000000E+00 -0.00000000000E+00 -0.21718806312E+03  0.21718806313E+03  0.25500000000E-02 0.  1.
        -24    2    1    2    0    0  0.00000000000E+00  0.00000000000E+00 -0.20976183131E+03  0.22461429665E+03  0.80321581058E+02 0.  0.
         66    2    3    3    0    0  0.11918414938E+01 -0.36479196001E+02 -0.15163303161E+03  0.15597669219E+03  0.20000010531E+01 0.  0.
         13    1    3    3    0    0 -0.11918414938E+01  0.36479196001E+02 -0.58128799702E+02  0.68637604459E+02  0.10566000000E+00 0. -1.
         13    1    4    4    0    0 -0.30480235734E+00 -0.13475652711E+01 -0.57302473922E+01  0.58953995495E+01  0.10566000000E+00 0. -1.
        -13    1    4    4    0    0  0.38159743337E+00 -0.13190370588E+02 -0.55504946437E+02  0.57052096683E+02  0.10566000000E+00 0.  1.
        -14    1    4    4    0    0  0.11150464177E+01 -0.21941260142E+02 -0.90397837779E+02  0.93029195956E+02  0.00000000000E+00 0.  1.
<mgrwt>
<rscale>  0 0.80321581E+02</rscale>
<asrwt>0</asrwt>
<pdfrwt beam="1">  1        1 0.11424975E-02 0.80321581E+02</pdfrwt>
<pdfrwt beam="2">  1       -2 0.33413543E-01 0.80321581E+02</pdfrwt>
<totfact> 0.81347242E+04</totfact>
</mgrwt>
</event>
<event>
 8    1  0.8577104E-014  0.8113080E+02  0.7818608E-02  0.1325873E+00
          1   -1    0    0  501    0  0.00000000000E+00  0.00000000000E+00  0.19579277841E+02  0.19579278490E+02  0.50400000000E-02 0. -1.
         -2   -1    0    0    0  501 -0.00000000000E+00 -0.00000000000E+00 -0.84045571940E+02  0.84045571979E+02  0.25500000000E-02 0.  1.
        -24    2    1    2    0    0  0.00000000000E+00  0.00000000000E+00 -0.64466294099E+02  0.10362485047E+03  0.81130799083E+02 0.  0.
         66    2    3    3    0    0 -0.20657637857E+02  0.36340723761E+01 -0.76564506349E+02  0.79410755657E+02  0.19999994255E+01 0.  0.
         13    1    3    3    0    0  0.20657637857E+02 -0.36340723761E+01  0.12098212250E+02  0.24214094812E+02  0.10566000000E+00 0. -1.
         13    1    4    4    0    0 -0.21633728040E+01  0.65550376731E+00 -0.66055101348E+01  0.69823918004E+01  0.10566000000E+00 0. -1.
        -13    1    4    4    0    0 -0.15345912293E+02  0.27402284640E+01 -0.57549901509E+02  0.59623889540E+02  0.10566000000E+00 0.  1.
         14    1    4    4    0    0 -0.31483527605E+01  0.23834014476E+00 -0.12409094705E+02  0.12804474317E+02  0.00000000000E+00 0. -1.
<mgrwt>
<rscale>  0 0.81130799E+02</rscale>
<asrwt>0</asrwt>
<pdfrwt beam="1">  1        1 0.30121967E-02 0.81130799E+02</pdfrwt>
<pdfrwt beam="2">  1       -2 0.12930088E-01 0.81130799E+02</pdfrwt>
<totfact> 0.10666875E+05</totfact>
</mgrwt>
</event>
<event>
 8    1  0.8577104E-014  0.7877136E+02  0.7818608E-02  0.1332575E+00
          1   -1    0    0  501    0  0.00000000000E+00  0.00000000000E+00  0.30320090450E+01  0.30320132339E+01  0.50400000000E-02 0. -1.
         -2   -1    0    0    0  501 -0.00000000000E+00 -0.00000000000E+00 -0.51161809933E+03  0.51161809934E+03  0.25500000000E-02 0.  1.
        -24    2    1    2    0    0  0.35527136788E-14  0.00000000000E+00 -0.50858609029E+03  0.51465011257E+03  0.78771359879E+02 0.  0.
         66    2    3    3    0    0 -0.28379710689E+02 -0.17299453189E+01 -0.43228522904E+03  0.43322386815E+03  0.19999998374E+01 0.  0.
         13    1    3    3    0    0  0.28379710689E+02  0.17299453189E+01 -0.76300861250E+02  0.81426244425E+02  0.10566000000E+00 0. -1.
         13    1    4    4    0    0 -0.83107563465E+01 -0.67390896392E+00 -0.13471324111E+03  0.13497107586E+03  0.10566000000E+00 0. -1.
        -13    1    4    4    0    0 -0.16321333804E+02 -0.12176627962E+01 -0.24735878818E+03  0.24789967707E+03  0.10566000000E+00 0.  1.
        -14    1    4    4    0    0 -0.37476205391E+01  0.16162644126E+00 -0.50213199751E+02  0.50353115217E+02  0.00000000000E+00 0.  1.
<mgrwt>
<rscale>  0 0.78771360E+02</rscale>
<asrwt>0</asrwt>
<pdfrwt beam="1">  1        1 0.46646366E-03 0.78771360E+02</pdfrwt>
<pdfrwt beam="2">  1       -2 0.78710408E-01 0.78771360E+02</pdfrwt>
<totfact> 0.51519545E+04</totfact>
</mgrwt>
</event>
<event>
 8    1  0.8577104E-014  0.8121408E+02  0.7818608E-02  0.1325641E+00
         -2   -1    0    0    0  501 -0.00000000000E+00  0.00000000000E+00  0.24435112236E+02  0.24435112369E+02  0.25500000000E-02 0.  1.
          1   -1    0    0  501    0  0.00000000000E+00 -0.00000000000E+00 -0.67482060858E+02  0.67482061046E+02  0.50400000000E-02 0. -1.
        -24    2    1    2    0    0 -0.17763568394E-14 -0.44408920985E-15 -0.43046948622E+02  0.91917173415E+02  0.81214081186E+02 0.  0.
         66    2    3    3    0    0  0.14434879747E+02  0.22642952445E+01  0.21313839343E+02  0.25918575114E+02  0.20000005395E+01 0.  0.
         13    1    3    3    0    0 -0.14434879747E+02 -0.22642952445E+01 -0.64360787965E+02  0.65998598301E+02  0.10566000000E+00 0. -1.
         13    1    4    4    0    0  0.13555221543E+00 -0.23014247651E-01  0.39701961104E+00  0.43323511614E+00  0.10566000000E+00 0.  1.
        -13    1    4    4    0    0  0.10125146592E+02  0.91988480671E+00  0.14602985275E+02  0.17793906950E+02  0.10566000000E+00 0.  1.
         14    1    4    4    0    0  0.41741809392E+01  0.13674246854E+01  0.63138344563E+01  0.76914330475E+01  0.00000000000E+00 0. -1.
<mgrwt>
<rscale>  0 0.81214081E+02</rscale>
<asrwt>0</asrwt>
<pdfrwt beam="1">  1        1 0.10381856E-01 0.81214081E+02</pdfrwt>
<pdfrwt beam="2">  1       -2 0.37592481E-02 0.81214081E+02</pdfrwt>
<totfact> 0.13231975E+05</totfact>
</mgrwt>
</event>
<event>
 8    1  0.8577104E-014  0.7977174E+02  0.7818608E-02  0.1329700E+00
         -2   -1    0    0    0  501 -0.00000000000E+00  0.00000000000E+00  0.14196282214E+04  0.14196282214E+04  0.25500000000E-02 0.  1.
          1   -1    0    0  501    0  0.00000000000E+00 -0.00000000000E+00 -0.11206276232E+01  0.11206389568E+01  0.50400000000E-02 0. -1.
        -24    2    1    2    0    0 -0.44408920985E-15  0.17763568394E-14  0.14185075937E+04  0.14207488603E+04  0.79771740668E+02 0.  0.
         66    2    3    3    0    0 -0.22348762191E+01  0.15967571435E+02  0.13589568334E+04  0.13590539478E+04  0.19999983414E+01 0.  0.
         13    1    3    3    0    0  0.22348762191E+01 -0.15967571435E+02  0.59550760332E+02  0.61694912509E+02  0.10566000000E+00 0. -1.
         13    1    4    4    0    0 -0.26341718401E+00  0.46110531912E+00  0.39157256543E+02  0.39160999869E+02  0.10566000000E+00 0.  1.
        -13    1    4    4    0    0 -0.13494818531E+01  0.94368807186E+01  0.74522899567E+03  0.74528997241E+03  0.10566000000E+00 0.  1.
        -14    1    4    4    0    0 -0.62197718197E+00  0.60695853975E+01  0.57457058119E+03  0.57460297554E+03  0.00000000000E+00 0.  1.
<mgrwt>
<rscale>  0 0.79771741E+02</rscale>
<asrwt>0</asrwt>
<pdfrwt beam="1">  1        1 0.17240444E-03 0.79771741E+02</pdfrwt>
<pdfrwt beam="2">  1       -2 0.21840520E+00 0.79771741E+02</pdfrwt>
<totfact> 0.16375392E+04</totfact>
</mgrwt>
</event>
<event>
 8    1  0.8577104E-014  0.8403913E+02  0.7818608E-02  0.1317965E+00
         -2   -1    0    0    0  501 -0.00000000000E+00  0.00000000000E+00  0.10106197486E+02  0.10106197807E+02  0.25500000000E-02 0.  1.
          1   -1    0    0  501    0  0.00000000000E+00 -0.00000000000E+00 -0.17470901668E+03  0.17470901675E+03  0.50400000000E-02 0. -1.
        -24    2    1    2    0    0  0.00000000000E+00  0.00000000000E+00 -0.16460281919E+03  0.18481521456E+03  0.84039130445E+02 0.  0.
         66    2    3    3    0    0 -0.24826409093E+02 -0.23844956317E+02 -0.29444285718E+02  0.45342016899E+02  0.20000012174E+01 0.  0.
         13    1    3    3    0    0  0.24826409093E+02  0.23844956317E+02 -0.13515853347E+03  0.13947319766E+03  0.10566000000E+00 0. -1.
         13    1    4    4    0    0 -0.20644199434E+01 -0.15070365068E+01 -0.22411467979E+01  0.34010133403E+01  0.10566000000E+00 0. -1.
        -13    1    4    4    0    0 -0.16595564396E+00 -0.29769211242E+00 -0.32871613212E+00  0.48515997431E+00  0.10566000000E+00 0.  1.
        -14    1    4    4    0    0 -0.22596033505E+02 -0.22040227698E+02 -0.26874422788E+02  0.41455843585E+02  0.00000000000E+00 0.  1.
<mgrwt>
<rscale>  0 0.84039130E+02</rscale>
<asrwt>0</asrwt>
<pdfrwt beam="1">  1        1 0.26878308E-01 0.84039130E+02</pdfrwt>
<pdfrwt beam="2">  1       -2 0.15547998E-02 0.84039130E+02</pdfrwt>
<totfact> 0.14243459E+05</totfact>
</mgrwt>
</event>
<event>
 8    1  0.8577104E-014  0.7974047E+02  0.7818608E-02  0.1329790E+00
          1   -1    0    0  501    0  0.00000000000E+00  0.00000000000E+00  0.98189236439E+02  0.98189236568E+02  0.50400000000E-02 0. -1.
         -2   -1    0    0    0  501 -0.00000000000E+00 -0.00000000000E+00 -0.16189508932E+02  0.16189509133E+02  0.25500000000E-02 0.  1.
        -24    2    1    2    0    0 -0.44408920985E-15  0.00000000000E+00  0.81999727507E+02  0.11437874570E+03  0.79740467499E+02 0.  0.
         66    2    3    3    0    0  0.25942484240E+01  0.28400082389E+02  0.11110358301E+01  0.28609949453E+02  0.20000006252E+01 0.  0.
         13    1    3    3    0    0 -0.25942484240E+01 -0.28400082389E+02  0.80888691677E+02  0.85768796248E+02  0.10566000000E+00 0. -1.
         13    1    4    4    0    0 -0.36509786523E-01  0.34009605216E+00 -0.13330273497E+00  0.38201039771E+00  0.10566000000E+00 0. -1.
        -13    1    4    4    0    0  0.19233031686E+01  0.21141785058E+02  0.13578772606E+01  0.21272732904E+02  0.10566000000E+00 0.  1.
        -14    1    4    4    0    0  0.70745504183E+00  0.69182012787E+01 -0.11353869556E+00  0.69552061511E+01  0.00000000000E+00 0.  1.
<mgrwt>
<rscale>  0 0.79740467E+02</rscale>
<asrwt>0</asrwt>
<pdfrwt beam="1">  1        1 0.15106036E-01 0.79740467E+02</pdfrwt>
<pdfrwt beam="2">  1       -2 0.24906937E-02 0.79740467E+02</pdfrwt>
<totfact> 0.14783406E+05</totfact>
</mgrwt>
</event>
<event>
 8    1  0.8577104E-014  0.7521721E+02  0.7818608E-02  0.1343200E+00
          1   -1    0    0  501    0  0.00000000000E+00  0.00000000000E+00  0.18107827503E+03  0.18107827510E+03  0.50400000000E-02 0. -1.
         -2   -1    0    0    0  501 -0.00000000000E+00 -0.00000000000E+00 -0.78110261029E+01  0.78110265191E+01  0.25500000000E-02 0.  1.
        -24    2    1    2    0    0  0.35527136788E-14  0.00000000000E+00  0.17326724892E+03  0.18888930161E+03  0.75217210234E+02 0.  0.
         66    2    3    3    0    0 -0.27378535189E+02  0.86244313441E+01  0.25777461952E+02  0.38632143949E+02  0.19999990750E+01 0.  0.
         13    1    3    3    0    0  0.27378535189E+02 -0.86244313441E+01  0.14748978697E+03  0.15025715767E+03  0.10566000000E+00 0. -1.
         13    1    4    4    0    0 -0.43384189834E+01  0.19139316823E+01  0.37936494310E+01  0.60735454061E+01  0.10566000000E+00 0. -1.
        -13    1    4    4    0    0 -0.12995536523E+02  0.33137179650E+01  0.12132378778E+02  0.18085089856E+02  0.10566000000E+00 0.  1.
        -14    1    4    4    0    0 -0.10044579683E+02  0.33967816968E+01  0.98514337436E+01  0.14473508687E+02  0.00000000000E+00 0.  1.
<mgrwt>
<rscale>  0 0.75217210E+02</rscale>
<asrwt>0</asrwt>
<pdfrwt beam="1">  1        1 0.27858195E-01 0.75217210E+02</pdfrwt>
<pdfrwt beam="2">  1       -2 0.12016964E-02 0.75217210E+02</pdfrwt>
<totfact> 0.19261063E+05</totfact>
</mgrwt>
</event>
<event>
 8    1  0.8577104E-014  0.8131345E+02  0.7818608E-02  0.1325365E+00
         -2   -1    0    0    0  501 -0.00000000000E+00  0.00000000000E+00  0.74995782969E+02  0.74995783013E+02  0.25500000000E-02 0.  1.
          1   -1    0    0  501    0  0.00000000000E+00 -0.00000000000E+00 -0.22040827881E+02  0.22040828457E+02  0.50400000000E-02 0. -1.
        -24    2    1    2    0    0  0.00000000000E+00  0.35527136788E-14  0.52954955089E+02  0.97036611470E+02  0.81313447209E+02 0.  0.
         66    2    3    3    0    0 -0.27877158888E+02 -0.20348859100E+02  0.52081379125E+02  0.62511456100E+02  0.20000094416E+01 0.  0.
         13    1    3    3    0    0  0.27877158888E+02  0.20348859100E+02  0.87357596364E+00  0.34525155370E+02  0.10566000000E+00 0. -1.
         13    1    4    4    0    0 -0.15795050019E+01 -0.16222266492E+01  0.29195200050E+01  0.36961082841E+01  0.10566000000E+00 0. -1.
        -13    1    4    4    0    0 -0.21612569288E+02 -0.15495495902E+02  0.40357252686E+02  0.48331486144E+02  0.10566000000E+00 0.  1.
         14    1    4    4    0    0 -0.46850845978E+01 -0.32311365485E+01  0.88046064341E+01  0.10483861671E+02  0.00000000000E+00 0. -1.
<mgrwt>
<rscale>  0 0.81313447E+02</rscale>
<asrwt>0</asrwt>
<pdfrwt beam="1">  1        1 0.33908967E-02 0.81313447E+02</pdfrwt>
<pdfrwt beam="2">  1       -2 0.11537813E-01 0.81313447E+02</pdfrwt>
<totfact> 0.10870227E+05</totfact>
</mgrwt>
</event>
<event>
 8    1  0.8577104E-014  0.8020107E+02  0.7818608E-02  0.1328482E+00
          1   -1    0    0  501    0  0.00000000000E+00  0.00000000000E+00  0.24773991397E+03  0.24773991403E+03  0.50400000000E-02 0. -1.
         -2   -1    0    0    0  501 -0.00000000000E+00 -0.00000000000E+00 -0.64908905942E+01  0.64908910951E+01  0.25500000000E-02 0.  1.
        -24    2    1    2    0    0  0.00000000000E+00 -0.71054273576E-14  0.24124902338E+03  0.25423080512E+03  0.80201066018E+02 0.  0.
         66    2    3    3    0    0 -0.12478795824E+02 -0.37680128036E+02  0.10318271878E+03  0.11057208445E+03  0.20000028454E+01 0.  0.
         13    1    3    3    0    0  0.12478795824E+02  0.37680128036E+02  0.13806630460E+03  0.14365872067E+03  0.10566000000E+00 0. -1.
         13    1    4    4    0    0 -0.28347423184E+01 -0.76258885648E+01  0.22187954935E+02  0.23632741031E+02  0.10566000000E+00 0. -1.
        -13    1    4    4    0    0 -0.54292896572E+01 -0.14741409811E+02  0.39604546812E+02  0.42606544587E+02  0.10566000000E+00 0.  1.
         14    1    4    4    0    0 -0.42147638484E+01 -0.15312829660E+02  0.41390217030E+02  0.44332798832E+02  0.00000000000E+00 0. -1.
<mgrwt>
<rscale>  0 0.80201066E+02</rscale>
<asrwt>0</asrwt>
<pdfrwt beam="1">  1        1 0.38113836E-01 0.80201066E+02</pdfrwt>
<pdfrwt beam="2">  1       -2 0.99859852E-03 0.80201066E+02</pdfrwt>
<totfact> 0.17269464E+05</totfact>
</mgrwt>
</event>
<event>
 8    1  0.8577104E-014  0.7932039E+02  0.7818608E-02  0.1330991E+00
          1   -1    0    0  501    0  0.00000000000E+00  0.00000000000E+00  0.35088483990E+02  0.35088484352E+02  0.50400000000E-02 0. -1.
         -2   -1    0    0    0  501 -0.00000000000E+00 -0.00000000000E+00 -0.44827557918E+02  0.44827557990E+02  0.25500000000E-02 0.  1.
        -24    2    1    2    0    0  0.00000000000E+00  0.00000000000E+00 -0.97390739278E+01  0.79916042342E+02  0.79320389955E+02 0.  0.
         66    2    3    3    0    0  0.28396819441E+02 -0.43186588912E+01 -0.32388811091E+02  0.43336650239E+02  0.20000002453E+01 0.  0.
         13    1    3    3    0    0 -0.28396819441E+02  0.43186588912E+01  0.22649737164E+02  0.36579392103E+02  0.10566000000E+00 0. -1.
         13    1    4    4    0    0  0.84303222234E+01 -0.20688012044E+01 -0.93568871432E+01  0.12763728776E+02  0.10566000000E+00 0. -1.
        -13    1    4    4    0    0  0.46896846173E+01 -0.24766561813E+00 -0.54900565817E+01  0.72253972468E+01  0.10566000000E+00 0. -1.
        -14    1    4    4    0    0  0.15276812601E+02 -0.20021920687E+01 -0.17541867367E+02  0.23347524216E+02  0.00000000000E+00 0.  1.
<mgrwt>
<rscale>  0 0.79320390E+02</rscale>
<asrwt>0</asrwt>
<pdfrwt beam="1">  1        1 0.53982283E-02 0.79320390E+02</pdfrwt>
<pdfrwt beam="2">  1       -2 0.68965474E-02 0.79320390E+02</pdfrwt>
<totfact> 0.12730463E+05</totfact>
</mgrwt>
</event>
<event>
 8    1  0.8577104E-014  0.7959730E+02  0.7818608E-02  0.1330198E+00
         -2   -1    0    0    0  501 -0.00000000000E+00  0.00000000000E+00  0.27273045510E+02  0.27273045629E+02  0.25500000000E-02 0.  1.
          1   -1    0    0  501    0  0.00000000000E+00 -0.00000000000E+00 -0.58076850682E+02  0.58076850900E+02  0.50400000000E-02 0. -1.
        -24    2    1    2    0    0  0.17763568394E-14  0.00000000000E+00 -0.30803805172E+02  0.85349896529E+02  0.79597301616E+02 0.  0.
         66    2    3    3    0    0  0.11966904281E+02  0.21106621801E+02  0.18381643490E+02  0.30505427291E+02  0.19999987325E+01 0.  0.
         13    1    3    3    0    0 -0.11966904281E+02 -0.21106621801E+02 -0.49185448662E+02  0.54844469238E+02  0.10566000000E+00 0. -1.
         13    1    4    4    0    0  0.80841554354E+01  0.15942226017E+02  0.13641985371E+02  0.22486063871E+02  0.10566000000E+00 0.  1.
        -13    1    4    4    0    0  0.27010611088E+01  0.33820996090E+01  0.32310167151E+01  0.54023107951E+01  0.10566000000E+00 0. -1.
        -14    1    4    4    0    0  0.11816877364E+01  0.17822961742E+01  0.15086414043E+01  0.26170526257E+01  0.00000000000E+00 0.  1.
<mgrwt>
<rscale>  0 0.79597302E+02</rscale>
<asrwt>0</asrwt>
<pdfrwt beam="1">  1        1 0.89349001E-02 0.79597302E+02</pdfrwt>
<pdfrwt beam="2">  1       -2 0.41958532E-02 0.79597302E+02</pdfrwt>
<totfact> 0.13658510E+05</totfact>
</mgrwt>
</event>
<event>
 8    1  0.8577104E-014  0.8002075E+02  0.7818608E-02  0.1328993E+00
          1   -1    0    0  501    0  0.00000000000E+00  0.00000000000E+00  0.41969219684E+03  0.41969219687E+03  0.50400000000E-02 0. -1.
         -2   -1    0    0    0  501 -0.00000000000E+00 -0.00000000000E+00 -0.38142951821E+01  0.38142960345E+01  0.25500000000E-02 0.  1.
        -24    2    1    2    0    0  0.00000000000E+00 -0.17763568394E-14  0.41587790165E+03  0.42350649290E+03  0.80020750091E+02 0.  0.
         66    2    3    3    0    0 -0.36092595745E+02 -0.12455131548E+02  0.27091726409E+03  0.27360184529E+03  0.19999981058E+01 0.  0.
         13    1    3    3    0    0  0.36092595745E+02  0.12455131548E+02  0.14496063756E+03  0.14990464761E+03  0.10566000000E+00 0. -1.
         13    1    4    4    0    0 -0.13087730124E+02 -0.39590455818E+01  0.10247467638E+03  0.10338294436E+03  0.10566000000E+00 0. -1.
        -13    1    4    4    0    0 -0.15935422182E+02 -0.57667357082E+01  0.11733964743E+03  0.11855714632E+03  0.10566000000E+00 0.  1.
         14    1    4    4    0    0 -0.70694434392E+01 -0.27293502585E+01  0.51102940284E+02  0.51661754607E+02  0.00000000000E+00 0. -1.
<mgrwt>
<rscale>  0 0.80020750E+02</rscale>
<asrwt>0</asrwt>
<pdfrwt beam="1">  1        1 0.64568067E-01 0.80020750E+02</pdfrwt>
<pdfrwt beam="2">  1       -2 0.58681437E-03 0.80020750E+02</pdfrwt>
<totfact> 0.19126810E+05</totfact>
</mgrwt>
</event>
<event>
 8    1  0.8577104E-014  0.8027077E+02  0.7818608E-02  0.1328285E+00
         -2   -1    0    0    0  501 -0.00000000000E+00  0.00000000000E+00  0.25352418646E+02  0.25352418774E+02  0.25500000000E-02 0.  1.
          1   -1    0    0  501    0  0.00000000000E+00 -0.00000000000E+00 -0.63538288312E+02  0.63538288512E+02  0.50400000000E-02 0. -1.
        -24    2    1    2    0    0  0.00000000000E+00 -0.35527136788E-14 -0.38185869666E+02  0.88890707286E+02  0.80270774255E+02 0.  0.
         66    2    3    3    0    0  0.29406613384E+02 -0.19135899556E+02  0.24227999186E+01  0.35225012731E+02  0.19999999877E+01 0.  0.
         13    1    3    3    0    0 -0.29406613384E+02  0.19135899556E+02 -0.40608669585E+02  0.53665694554E+02  0.10566000000E+00 0. -1.
         13    1    4    4    0    0  0.18745024438E+02 -0.11215208676E+02  0.13103820116E+01  0.21883443785E+02  0.10566000000E+00 0. -1.
        -13    1    4    4    0    0  0.24640795402E+01 -0.21270194537E+01  0.25736969674E+00  0.32670021324E+01  0.10566000000E+00 0.  1.
         14    1    4    4    0    0  0.81975094055E+01 -0.57936714255E+01  0.85504821026E+00  0.10074566814E+02  0.00000000000E+00 0. -1.
<mgrwt>
<rscale>  0 0.80270774E+02</rscale>
<asrwt>0</asrwt>
<pdfrwt beam="1">  1        1 0.97751213E-02 0.80270774E+02</pdfrwt>
<pdfrwt beam="2">  1       -2 0.39003721E-02 0.80270774E+02</pdfrwt>
<totfact> 0.13534236E+05</totfact>
</mgrwt>
</event>
<event>
 8    1  0.8577104E-014  0.7996870E+02  0.7818608E-02  0.1329140E+00
         -2   -1    0    0    0  501 -0.00000000000E+00  0.00000000000E+00  0.34038966200E+03  0.34038966201E+03  0.25500000000E-02 0.  1.
          1   -1    0    0  501    0  0.00000000000E+00 -0.00000000000E+00 -0.46968167434E+01  0.46968194475E+01  0.50400000000E-02 0. -1.
        -24    2    1    2    0    0  0.00000000000E+00  0.00000000000E+00  0.33569284526E+03  0.34508648146E+03  0.79968702177E+02 0.  0.
         66    2    3    3    0    0 -0.17670170226E+02  0.44875323476E+01  0.32139340790E+03  0.32191628648E+03  0.19999997822E+01 0.  0.
         13    1    3    3    0    0  0.17670170226E+02 -0.44875323476E+01  0.14299437356E+02  0.23170194974E+02  0.10566000000E+00 0. -1.
         13    1    4    4    0    0 -0.15541040728E+01 -0.10433941515E-01  0.30711316980E+02  0.30750796787E+02  0.10566000000E+00 0. -1.
        -13    1    4    4    0    0 -0.11078171947E+02  0.29427421866E+01  0.20768679415E+03  0.20800288761E+03  0.10566000000E+00 0.  1.
         14    1    4    4    0    0 -0.50378942056E+01  0.15552241025E+01  0.82995296771E+02  0.83162602089E+02  0.00000000000E+00 0. -1.
<mgrwt>
<rscale>  0 0.79968702E+02</rscale>
<asrwt>0</asrwt>
<pdfrwt beam="1">  1        1 0.72258730E-03 0.79968702E+02</pdfrwt>
<pdfrwt beam="2">  1       -2 0.52367648E-01 0.79968702E+02</pdfrwt>
<totfact> 0.65464339E+04</totfact>
</mgrwt>
</event>
<event>
 8    1  0.8577104E-014  0.8062398E+02  0.7818608E-02  0.1327290E+00
         -2   -1    0    0    0  501 -0.00000000000E+00  0.00000000000E+00  0.31551630002E+03  0.31551630003E+03  0.25500000000E-02 0.  1.
          1   -1    0    0  501    0  0.00000000000E+00 -0.00000000000E+00 -0.51504664389E+01  0.51504689048E+01  0.50400000000E-02 0. -1.
        -24    2    1    2    0    0 -0.88817841970E-15  0.00000000000E+00  0.31036583358E+03  0.32066676893E+03  0.80623979341E+02 0.  0.
         66    2    3    3    0    0 -0.46473085461E+01 -0.32846202704E+02  0.24619963491E+03  0.24843254765E+03  0.19999982322E+01 0.  0.
         13    1    3    3    0    0  0.46473085461E+01  0.32846202704E+02  0.64166198671E+02  0.72234221286E+02  0.10566000000E+00 0. -1.
         13    1    4    4    0    0 -0.53748485110E-01 -0.24712156806E+00  0.13016348854E+01  0.13301787021E+01  0.10566000000E+00 0. -1.
        -13    1    4    4    0    0 -0.32150046958E+01 -0.19827183793E+02  0.14941477454E+03  0.15075887863E+03  0.10566000000E+00 0.  1.
         14    1    4    4    0    0 -0.13785553651E+01 -0.12771897343E+02  0.95483225482E+02  0.96343490310E+02  0.00000000000E+00 0. -1.
<mgrwt>
<rscale>  0 0.80623979E+02</rscale>
<asrwt>0</asrwt>
<pdfrwt beam="1">  1        1 0.79237965E-03 0.80623979E+02</pdfrwt>
<pdfrwt beam="2">  1       -2 0.48540969E-01 0.80623979E+02</pdfrwt>
<totfact> 0.66976307E+04</totfact>
</mgrwt>
</event>
<event>
 8    1  0.8577104E-014  0.8014171E+02  0.7818608E-02  0.1328650E+00
         -2   -1    0    0    0  501 -0.00000000000E+00  0.00000000000E+00  0.19174934267E+02  0.19174934436E+02  0.25500000000E-02 0.  1.
          1   -1    0    0  501    0  0.00000000000E+00 -0.00000000000E+00 -0.83738138389E+02  0.83738138541E+02  0.50400000000E-02 0. -1.
        -24    2    1    2    0    0  0.00000000000E+00  0.00000000000E+00 -0.64563204123E+02  0.10291307298E+03  0.80141707388E+02 0.  0.
         66    2    3    3    0    0  0.17943976013E+02 -0.19933822391E+02  0.58855531648E+01  0.27531496199E+02  0.19999991570E+01 0.  0.
         13    1    3    3    0    0 -0.17943976013E+02  0.19933822391E+02 -0.70448757287E+02  0.75381576779E+02  0.10566000000E+00 0. -1.
         13    1    4    4    0    0  0.87652905309E+01 -0.99804091738E+01  0.28639320484E+01  0.13588677499E+02  0.10566000000E+00 0.  1.
        -13    1    4    4    0    0  0.43617489077E+01 -0.37208456152E+01  0.12308880364E+01  0.58647928368E+01  0.10566000000E+00 0. -1.
         14    1    4    4    0    0  0.48169365742E+01 -0.62325676020E+01  0.17907330800E+01  0.80780258626E+01  0.00000000000E+00 0. -1.
<mgrwt>
<rscale>  0 0.80141707E+02</rscale>
<asrwt>0</asrwt>
<pdfrwt beam="1">  1        1 0.12882790E-01 0.80141707E+02</pdfrwt>
<pdfrwt beam="2">  1       -2 0.29499900E-02 0.80141707E+02</pdfrwt>
<totfact> 0.14205898E+05</totfact>
</mgrwt>
</event>
<event>
 8    1  0.8577104E-014  0.7735537E+02  0.7818608E-02  0.1336729E+00
          1   -1    0    0  501    0  0.00000000000E+00  0.00000000000E+00  0.87940656436E+02  0.87940656580E+02  0.50400000000E-02 0. -1.
         -2   -1    0    0    0  501 -0.00000000000E+00 -0.00000000000E+00 -0.17011056112E+02  0.17011056304E+02  0.25500000000E-02 0.  1.
        -24    2    1    2    0    0  0.00000000000E+00  0.00000000000E+00  0.70929600323E+02  0.10495171288E+03  0.77355373667E+02 0.  0.
         66    2    3    3    0    0  0.16100016286E+02 -0.33899661916E+02  0.22938640522E+02  0.44029295096E+02  0.19999988104E+01 0.  0.
         13    1    3    3    0    0 -0.16100016286E+02  0.33899661916E+02  0.47990959801E+02  0.60922417788E+02  0.10566000000E+00 0. -1.
         13    1    4    4    0    0  0.44311420030E+00 -0.84370815048E+00  0.87667307395E+00  0.12991971951E+01  0.10566000000E+00 0. -1.
        -13    1    4    4    0    0  0.72759290465E+01 -0.14554256384E+02  0.10328667923E+02  0.19273247456E+02  0.10566000000E+00 0.  1.
         14    1    4    4    0    0  0.83809730390E+01 -0.18501697381E+02  0.11733299525E+02  0.23456850445E+02  0.00000000000E+00 0. -1.
<mgrwt>
<rscale>  0 0.77355374E+02</rscale>
<asrwt>0</asrwt>
<pdfrwt beam="1">  1        1 0.13529332E-01 0.77355374E+02</pdfrwt>
<pdfrwt beam="2">  1       -2 0.26170855E-02 0.77355374E+02</pdfrwt>
<totfact> 0.15760242E+05</totfact>
</mgrwt>
</event>
<event>
 8    1  0.8577104E-014  0.8088208E+02  0.7818608E-02  0.1326567E+00
         -2   -1    0    0    0  501 -0.00000000000E+00  0.00000000000E+00  0.72655987097E+01  0.72655991572E+01  0.25500000000E-02 0.  1.
          1   -1    0    0  501    0  0.00000000000E+00 -0.00000000000E+00 -0.22509881821E+03  0.22509881827E+03  0.50400000000E-02 0. -1.
        -24    2    1    2    0    0  0.88817841970E-15  0.71054273576E-14 -0.21783321950E+03  0.23236441743E+03  0.80882080629E+02 0.  0.
         66    2    3    3    0    0 -0.71550687279E+01 -0.36090761217E+02 -0.60933341035E+02  0.71208216549E+02  0.20000001816E+01 0.  0.
         13    1    3    3    0    0  0.71550687279E+01  0.36090761217E+02 -0.15689987847E+03  0.16115620088E+03  0.10566000000E+00 0. -1.
         13    1    4    4    0    0 -0.13205510882E+01 -0.77299090357E+01 -0.13549827482E+02  0.15655808434E+02  0.10566000000E+00 0.  1.
        -13    1    4    4    0    0 -0.26593632998E+01 -0.95619753592E+01 -0.16814128061E+02  0.19525103135E+02  0.10566000000E+00 0.  1.
        -14    1    4    4    0    0 -0.31751543398E+01 -0.18798876822E+02 -0.30569385491E+02  0.36027304980E+02  0.00000000000E+00 0.  1.
<mgrwt>
<rscale>  0 0.80882081E+02</rscale>
<asrwt>0</asrwt>
<pdfrwt beam="1">  1        1 0.34630582E-01 0.80882081E+02</pdfrwt>
<pdfrwt beam="2">  1       -2 0.11177846E-02 0.80882081E+02</pdfrwt>
<totfact> 0.16573588E+05</totfact>
</mgrwt>
</event>
<event>
 8    1  0.8577104E-014  0.8168317E+02  0.7818608E-02  0.1324342E+00
         -2   -1    0    0    0  501 -0.00000000000E+00  0.00000000000E+00  0.11709902949E+03  0.11709902951E+03  0.25500000000E-02 0.  1.
          1   -1    0    0  501    0  0.00000000000E+00 -0.00000000000E+00 -0.14244652387E+02  0.14244653279E+02  0.50400000000E-02 0. -1.
        -24    2    1    2    0    0 -0.17763568394E-14 -0.71054273576E-14  0.10285437710E+03  0.13134368279E+03  0.81683169142E+02 0.  0.
         66    2    3    3    0    0 -0.13559293698E+02 -0.36866144940E+02  0.33620174965E+02  0.51742470506E+02  0.20000002479E+01 0.  0.
         13    1    3    3    0    0  0.13559293698E+02  0.36866144940E+02  0.69234202133E+02  0.79601212286E+02  0.10566000000E+00 0. -1.
         13    1    4    4    0    0 -0.26107626383E+01 -0.55514976704E+01  0.49166348970E+01  0.78625486125E+01  0.10566000000E+00 0. -1.
        -13    1    4    4    0    0 -0.60560562137E+01 -0.16891542646E+02  0.14874374430E+02  0.23307900132E+02  0.10566000000E+00 0.  1.
         14    1    4    4    0    0 -0.48924748464E+01 -0.14423104624E+02  0.13829165638E+02  0.20572021762E+02  0.00000000000E+00 0. -1.
<mgrwt>
<rscale>  0 0.81683169E+02</rscale>
<asrwt>0</asrwt>
<pdfrwt beam="1">  1        1 0.21914850E-02 0.81683169E+02</pdfrwt>
<pdfrwt beam="2">  1       -2 0.18015236E-01 0.81683169E+02</pdfrwt>
<totfact> 0.96535001E+04</totfact>
</mgrwt>
</event>
<event>
 8    1  0.8577104E-014  0.7743554E+02  0.7818608E-02  0.1336491E+00
         -2   -1    0    0    0  501 -0.00000000000E+00  0.00000000000E+00  0.13036034449E+02  0.13036034698E+02  0.25500000000E-02 0.  1.
          1   -1    0    0  501    0  0.00000000000E+00 -0.00000000000E+00 -0.11499398880E+03  0.11499398891E+03  0.50400000000E-02 0. -1.
        -24    2    1    2    0    0  0.00000000000E+00  0.35527136788E-14 -0.10195795435E+03  0.12803002361E+03  0.77435537643E+02 0.  0.
         66    2    3    3    0    0  0.16035137955E+02 -0.17897865687E+02 -0.87438971975E+00  0.24129314045E+02  0.19999983763E+01 0.  0.
         13    1    3    3    0    0 -0.16035137955E+02  0.17897865687E+02 -0.10108356463E+03  0.10390070957E+03  0.10566000000E+00 0. -1.
         13    1    4    4    0    0  0.31655920731E+01 -0.37124646988E+01  0.36819312861E+00  0.48938836856E+01  0.10566000000E+00 0. -1.
        -13    1    4    4    0    0  0.15893058137E+01 -0.17622970246E+01  0.25179361744E+00  0.23887544524E+01  0.10566000000E+00 0.  1.
        -14    1    4    4    0    0  0.11280240068E+02 -0.12423103964E+02 -0.14943764658E+01  0.16846675907E+02  0.00000000000E+00 0.  1.
<mgrwt>
<rscale>  0 0.77435538E+02</rscale>
<asrwt>0</asrwt>
<pdfrwt beam="1">  1        1 0.17691382E-01 0.77435538E+02</pdfrwt>
<pdfrwt beam="2">  1       -2 0.20055439E-02 0.77435538E+02</pdfrwt>
<totfact> 0.16430726E+05</totfact>
</mgrwt>
</event>
<event>
 8    1  0.8577104E-014  0.7799586E+02  0.7818608E-02  0.1334837E+00
          1   -1    0    0  501    0  0.00000000000E+00  0.00000000000E+00  0.88752545269E+01  0.88752559580E+01  0.50400000000E-02 0. -1.
         -2   -1    0    0    0  501 -0.00000000000E+00 -0.00000000000E+00 -0.17135713924E+03  0.17135713926E+03  0.25500000000E-02 0.  1.
        -24    2    1    2    0    0  0.71054273576E-14  0.00000000000E+00 -0.16248188471E+03  0.18023239521E+03  0.77995855182E+02 0.  0.
         66    2    3    3    0    0  0.37889038252E+02 -0.87827869411E+01 -0.87009338874E+02  0.95327549033E+02  0.19999967828E+01 0.  0.
         13    1    3    3    0    0 -0.37889038252E+02  0.87827869411E+01 -0.75472545836E+02  0.84904846182E+02  0.10566000000E+00 0. -1.
         13    1    4    4    0    0  0.36648027683E+01 -0.34227974508E+00 -0.85081389026E+01  0.92707888756E+01  0.10566000000E+00 0. -1.
        -13    1    4    4    0    0  0.11336007625E+02 -0.31975037574E+01 -0.26528346345E+02  0.29025737252E+02  0.10566000000E+00 0.  1.
         14    1    4    4    0    0  0.22888227859E+02 -0.52430034386E+01 -0.51972853626E+02  0.57031022905E+02  0.00000000000E+00 0. -1.
<mgrwt>
<rscale>  0 0.77995855E+02</rscale>
<asrwt>0</asrwt>
<pdfrwt beam="1">  1        1 0.13654240E-02 0.77995855E+02</pdfrwt>
<pdfrwt beam="2">  1       -2 0.26362634E-01 0.77995855E+02</pdfrwt>
<totfact> 0.96365262E+04</totfact>
</mgrwt>
</event>
<event>
 8    1  0.8577104E-014  0.8189801E+02  0.7818608E-02  0.1323750E+00
         -2   -1    0    0    0  501 -0.00000000000E+00  0.00000000000E+00  0.37811233933E+02  0.37811234019E+02  0.25500000000E-02 0.  1.
          1   -1    0    0  501    0  0.00000000000E+00 -0.00000000000E+00 -0.44347167722E+02  0.44347168008E+02  0.50400000000E-02 0. -1.
        -24    2    1    2    0    0  0.00000000000E+00  0.00000000000E+00 -0.65359337895E+01  0.82158402027E+02  0.81898013365E+02 0.  0.
         66    2    3    3    0    0 -0.16327319081E+02 -0.36956649542E+02  0.32654679820E+01  0.40583723021E+02  0.19999998352E+01 0.  0.
         13    1    3    3    0    0  0.16327319081E+02  0.36956649542E+02 -0.98014017715E+01  0.41574679006E+02  0.10566000000E+00 0. -1.
         13    1    4    4    0    0 -0.20877541839E+01 -0.63964081191E+01  0.47662011012E+00  0.67461904156E+01  0.10566000000E+00 0. -1.
        -13    1    4    4    0    0 -0.42929804664E+01 -0.92462143465E+01  0.11593154445E+01  0.10260474519E+02  0.10566000000E+00 0.  1.
         14    1    4    4    0    0 -0.99465844309E+01 -0.21314027076E+02  0.16295324274E+01  0.23577058086E+02  0.00000000000E+00 0. -1.
<mgrwt>
<rscale>  0 0.81898013E+02</rscale>
<asrwt>0</asrwt>
<pdfrwt beam="1">  1        1 0.68226412E-02 0.81898013E+02</pdfrwt>
<pdfrwt beam="2">  1       -2 0.58171129E-02 0.81898013E+02</pdfrwt>
<totfact> 0.12087780E+05</totfact>
</mgrwt>
</event>
<event>
 8    1  0.8577104E-014  0.7942308E+02  0.7818608E-02  0.1330697E+00
         -2   -1    0    0    0  501 -0.00000000000E+00  0.00000000000E+00  0.12940769512E+03  0.12940769515E+03  0.25500000000E-02 0.  1.
          1   -1    0    0  501    0  0.00000000000E+00 -0.00000000000E+00 -0.12186342509E+02  0.12186343551E+02  0.50400000000E-02 0. -1.
        -24    2    1    2    0    0  0.00000000000E+00  0.17763568394E-14  0.11722135261E+03  0.14159403870E+03  0.79423084090E+02 0.  0.
         66    2    3    3    0    0 -0.37113474771E+02 -0.12560409783E+02  0.69898734561E+02  0.80156141218E+02  0.19999945278E+01 0.  0.
         13    1    3    3    0    0  0.37113474771E+02  0.12560409783E+02  0.47322618051E+02  0.61437897480E+02  0.10566000000E+00 0. -1.
         13    1    4    4    0    0 -0.69407142819E+01 -0.16915999791E+01  0.12245414035E+02  0.14177318300E+02  0.10566000000E+00 0. -1.
        -13    1    4    4    0    0 -0.25498161824E+02 -0.95104139860E+01  0.48774815997E+02  0.55853362210E+02  0.10566000000E+00 0.  1.
        -14    1    4    4    0    0 -0.46745986647E+01 -0.13583958177E+01  0.88785045291E+01  0.10125460708E+02  0.00000000000E+00 0.  1.
<mgrwt>
<rscale>  0 0.79423084E+02</rscale>
<asrwt>0</asrwt>
<pdfrwt beam="1">  1        1 0.18748219E-02 0.79423084E+02</pdfrwt>
<pdfrwt beam="2">  1       -2 0.19908877E-01 0.79423084E+02</pdfrwt>
<totfact> 0.10082465E+05</totfact>
</mgrwt>
</event>
<event>
 8    1  0.8577104E-014  0.7913935E+02  0.7818608E-02  0.1331512E+00
         -2   -1    0    0    0  501 -0.00000000000E+00  0.00000000000E+00  0.25886598873E+03  0.25886598874E+03  0.25500000000E-02 0.  1.
          1   -1    0    0  501    0  0.00000000000E+00 -0.00000000000E+00 -0.60485311073E+01  0.60485332071E+01  0.50400000000E-02 0. -1.
        -24    2    1    2    0    0  0.00000000000E+00  0.71054273576E-14  0.25281745762E+03  0.26491452195E+03  0.79139352165E+02 0.  0.
         66    2    3    3    0    0  0.70886432142E+01  0.38680080649E+02  0.11254328065E+03  0.11923249357E+03  0.20000008102E+01 0.  0.
         13    1    3    3    0    0 -0.70886432142E+01 -0.38680080649E+02  0.14027417698E+03  0.14568202838E+03  0.10566000000E+00 0. -1.
         13    1    4    4    0    0  0.11353879388E+01  0.54598705352E+01  0.17405446546E+02  0.18277309034E+02  0.10566000000E+00 0. -1.
        -13    1    4    4    0    0  0.30619965399E+01  0.16770160614E+02  0.49994343961E+02  0.52821015723E+02  0.10566000000E+00 0.  1.
         14    1    4    4    0    0  0.28912587355E+01  0.16450049500E+02  0.45143490140E+02  0.48134168817E+02  0.00000000000E+00 0. -1.
<mgrwt>
<rscale>  0 0.79139352E+02</rscale>
<asrwt>0</asrwt>
<pdfrwt beam="1">  1        1 0.93054354E-03 0.79139352E+02</pdfrwt>
<pdfrwt beam="2">  1       -2 0.39825531E-01 0.79139352E+02</pdfrwt>
<totfact> 0.77975457E+04</totfact>
</mgrwt>
</event>
<event>
 8    1  0.8577104E-014  0.7819981E+02  0.7818608E-02  0.1334239E+00
          1   -1    0    0  501    0  0.00000000000E+00  0.00000000000E+00  0.27981889992E+01  0.27981935381E+01  0.50400000000E-02 0. -1.
         -2   -1    0    0    0  501 -0.00000000000E+00 -0.00000000000E+00 -0.54635391345E+03  0.54635391346E+03  0.25500000000E-02 0.  1.
        -24    2    1    2    0    0 -0.17763568394E-14 -0.35527136788E-14 -0.54355572445E+03  0.54915210700E+03  0.78199814787E+02 0.  0.
         66    2    3    3    0    0  0.13485009101E+02 -0.17965612301E+02 -0.49647385786E+03  0.49698581499E+03  0.20000167651E+01 0.  0.
         13    1    3    3    0    0 -0.13485009101E+02  0.17965612301E+02 -0.47081866598E+02  0.52166292011E+02  0.10566000000E+00 0. -1.
         13    1    4    4    0    0  0.22769870163E+01 -0.28770927528E+01 -0.93987090880E+02  0.94058740948E+02  0.10566000000E+00 0. -1.
        -13    1    4    4    0    0  0.17539905842E+00 -0.12304016855E+00 -0.52757251209E+01  0.52811308732E+01  0.10566000000E+00 0. -1.
        -14    1    4    4    0    0  0.11032623027E+02 -0.14965479380E+02 -0.39721104185E+03  0.39764594316E+03  0.00000000000E+00 0.  1.
<mgrwt>
<rscale>  0 0.78199815E+02</rscale>
<asrwt>0</asrwt>
<pdfrwt beam="1">  1        1 0.43049140E-03 0.78199815E+02</pdfrwt>
<pdfrwt beam="2">  1       -2 0.84054364E-01 0.78199815E+02</pdfrwt>
<totfact> 0.49829046E+04</totfact>
</mgrwt>
</event>
<event>
 8    1  0.8577104E-014  0.7843106E+02  0.7818608E-02  0.1333564E+00
         -2   -1    0    0    0  501 -0.00000000000E+00  0.00000000000E+00  0.32985546196E+02  0.32985546295E+02  0.25500000000E-02 0.  1.
          1   -1    0    0  501    0  0.00000000000E+00 -0.00000000000E+00 -0.46622167894E+02  0.46622168166E+02  0.50400000000E-02 0. -1.
        -24    2    1    2    0    0  0.22204460493E-15  0.00000000000E+00 -0.13636621697E+02  0.79607714461E+02  0.78431057308E+02 0.  0.
         66    2    3    3    0    0 -0.13922030490E+01  0.12952567665E+02  0.30693184928E+02  0.33403275735E+02  0.19999975881E+01 0.  0.
         13    1    3    3    0    0  0.13922030490E+01 -0.12952567665E+02 -0.44329806626E+02  0.46204438726E+02  0.10566000000E+00 0. -1.
         13    1    4    4    0    0  0.21139254601E-01  0.38001113219E-01  0.25548392380E+00  0.27986965468E+00  0.10566000000E+00 0. -1.
        -13    1    4    4    0    0 -0.13567580696E+01  0.81673415986E+01  0.20536068546E+02  0.22142437459E+02  0.10566000000E+00 0.  1.
        -14    1    4    4    0    0 -0.56584234053E-01  0.47472249532E+01  0.99016324586E+01  0.10980968622E+02  0.00000000000E+00 0.  1.
<mgrwt>
<rscale>  0 0.78431057E+02</rscale>
<asrwt>0</asrwt>
<pdfrwt beam="1">  1        1 0.71726413E-02 0.78431057E+02</pdfrwt>
<pdfrwt beam="2">  1       -2 0.50746994E-02 0.78431057E+02</pdfrwt>
<totfact> 0.13751332E+05</totfact>
</mgrwt>
</event>
<event>
 8    1  0.8577104E-014  0.8034247E+02  0.7818608E-02  0.1328082E+00
          1   -1    0    0  501    0  0.00000000000E+00  0.00000000000E+00  0.19591133084E+01  0.19591197914E+01  0.50400000000E-02 0. -1.
         -2   -1    0    0    0  501 -0.00000000000E+00 -0.00000000000E+00 -0.82370187465E+03  0.82370187465E+03  0.25500000000E-02 0.  1.
        -24    2    1    2    0    0  0.00000000000E+00  0.35527136788E-14 -0.82174276134E+03  0.82566099444E+03  0.80342466549E+02 0.  0.
         66    2    3    3    0    0  0.93934719464E+01  0.27332674771E+02 -0.69747867297E+03  0.69808008973E+03  0.20000006907E+01 0.  0.
         13    1    3    3    0    0 -0.93934719464E+01 -0.27332674771E+02 -0.12426408837E+03  0.12758090471E+03  0.10566000000E+00 0. -1.
         13    1    4    4    0    0  0.42473715175E+01  0.10268680174E+02 -0.25431231491E+03  0.25455500513E+03  0.10566000000E+00 0. -1.
        -13    1    4    4    0    0  0.44855579955E+01  0.14119334605E+02 -0.36573760316E+03  0.36603754093E+03  0.10566000000E+00 0.  1.
        -14    1    4    4    0    0  0.66054243335E+00  0.29446599923E+01 -0.77428754897E+02  0.77487543668E+02  0.00000000000E+00 0.  1.
<mgrwt>
<rscale>  0 0.80342467E+02</rscale>
<asrwt>0</asrwt>
<pdfrwt beam="1">  1        1 0.30140321E-03 0.80342467E+02</pdfrwt>
<pdfrwt beam="2">  1       -2 0.12672309E+00 0.80342467E+02</pdfrwt>
<totfact> 0.31893866E+04</totfact>
</mgrwt>
</event>
<event>
 8    1  0.8577104E-014  0.8033321E+02  0.7818608E-02  0.1328108E+00
         -2   -1    0    0    0  501 -0.00000000000E+00  0.00000000000E+00  0.19685117554E+02  0.19685117719E+02  0.25500000000E-02 0.  1.
          1   -1    0    0  501    0  0.00000000000E+00 -0.00000000000E+00 -0.81958165709E+02  0.81958165864E+02  0.50400000000E-02 0. -1.
        -24    2    1    2    0    0 -0.17763568394E-14  0.00000000000E+00 -0.62273048155E+02  0.10164328358E+03  0.80333209639E+02 0.  0.
         66    2    3    3    0    0  0.10716153066E+02 -0.38684264573E+02 -0.31417887099E+02  0.51013644142E+02  0.19999992032E+01 0.  0.
         13    1    3    3    0    0 -0.10716153066E+02  0.38684264573E+02 -0.30855161056E+02  0.50629639441E+02  0.10566000000E+00 0. -1.
         13    1    4    4    0    0  0.51462020989E+00 -0.25641623226E+01 -0.20777564861E+01  0.33418555367E+01  0.10566000000E+00 0.  1.
        -13    1    4    4    0    0  0.43174446775E+01 -0.17020839516E+02 -0.14642858073E+02  0.22864246390E+02  0.10566000000E+00 0.  1.
        -14    1    4    4    0    0  0.58840881784E+01 -0.19099262734E+02 -0.14697272540E+02  0.24807542216E+02  0.00000000000E+00 0.  1.
<mgrwt>
<rscale>  0 0.80333210E+02</rscale>
<asrwt>0</asrwt>
<pdfrwt beam="1">  1        1 0.12608948E-01 0.80333210E+02</pdfrwt>
<pdfrwt beam="2">  1       -2 0.30284797E-02 0.80333210E+02</pdfrwt>
<totfact> 0.14064779E+05</totfact>
</mgrwt>
</event>
<event>
 8    1  0.8577104E-014  0.7773620E+02  0.7818608E-02  0.1335601E+00
          1   -1    0    0  501    0  0.00000000000E+00  0.00000000000E+00  0.38856482881E+02  0.38856483208E+02  0.50400000000E-02 0. -1.
         -2   -1    0    0    0  501 -0.00000000000E+00 -0.00000000000E+00 -0.38879724618E+02  0.38879724702E+02  0.25500000000E-02 0.  1.
        -24    2    1    2    0    0  0.35527136788E-14  0.11102230246E-15 -0.23241737380E-01  0.77736207910E+02  0.77736204436E+02 0.  0.
         66    2    3    3    0    0 -0.18869169436E+02 -0.97201747812E+00 -0.33948837737E+02  0.38903906908E+02  0.20000039583E+01 0.  0.
         13    1    3    3    0    0  0.18869169436E+02  0.97201747812E+00  0.33925595999E+02  0.38832301002E+02  0.10566000000E+00 0. -1.
         13    1    4    4    0    0 -0.10968495157E+02 -0.13561240961E+01 -0.19777985116E+02  0.22656716838E+02  0.10566000000E+00 0. -1.
        -13    1    4    4    0    0 -0.25780801922E+01 -0.11355012422E+00 -0.41061419051E+01  0.48508717246E+01  0.10566000000E+00 0.  1.
         14    1    4    4    0    0 -0.53225940871E+01  0.49765674218E+00 -0.10064710715E+02  0.11396318345E+02  0.00000000000E+00 0. -1.
<mgrwt>
<rscale>  0 0.77736204E+02</rscale>
<asrwt>0</asrwt>
<pdfrwt beam="1">  1        1 0.59779205E-02 0.77736204E+02</pdfrwt>
<pdfrwt beam="2">  1       -2 0.59814961E-02 0.77736204E+02</pdfrwt>
<totfact> 0.13701191E+05</totfact>
</mgrwt>
</event>
<event>
 8    1  0.8577104E-014  0.7958687E+02  0.7818608E-02  0.1330228E+00
         -2   -1    0    0    0  501 -0.00000000000E+00  0.00000000000E+00  0.31211759270E+02  0.31211759374E+02  0.25500000000E-02 0.  1.
          1   -1    0    0  501    0  0.00000000000E+00 -0.00000000000E+00 -0.50734644988E+02  0.50734645238E+02  0.50400000000E-02 0. -1.
        -24    2    1    2    0    0 -0.71054273576E-14  0.35527136788E-14 -0.19522885717E+02  0.81946404612E+02  0.79586871795E+02 0.  0.
         66    2    3    3    0    0  0.32611536868E+02 -0.18996825504E+02  0.31388183726E+01  0.37924186217E+02  0.20000008162E+01 0.  0.
         13    1    3    3    0    0 -0.32611536868E+02  0.18996825504E+02 -0.22661704090E+02  0.44022218395E+02  0.10566000000E+00 0. -1.
         13    1    4    4    0    0  0.16214329527E+02 -0.94902229720E+01  0.58311841089E+00  0.18796808377E+02  0.10566000000E+00 0. -1.
        -13    1    4    4    0    0  0.62065663711E+01 -0.34798608923E+01  0.92005267487E+00  0.71755528644E+01  0.10566000000E+00 0.  1.
         14    1    4    4    0    0  0.10190640971E+02 -0.60267416401E+01  0.16356472868E+01  0.11951824975E+02  0.00000000000E+00 0. -1.
<mgrwt>
<rscale>  0 0.79586872E+02</rscale>
<asrwt>0</asrwt>
<pdfrwt beam="1">  1        1 0.78053301E-02 0.79586872E+02</pdfrwt>
<pdfrwt beam="2">  1       -2 0.48018091E-02 0.79586872E+02</pdfrwt>
<totfact> 0.13378376E+05</totfact>
</mgrwt>
</event>
<event>
 8    1  0.8577104E-014  0.7892036E+02  0.7818608E-02  0.1332144E+00
         -2   -1    0    0    0  501 -0.00000000000E+00  0.00000000000E+00  0.14035404117E+03  0.14035404119E+03  0.25500000000E-02 0.  1.
          1   -1    0    0  501    0  0.00000000000E+00 -0.00000000000E+00 -0.11094127389E+02  0.11094128534E+02  0.50400000000E-02 0. -1.
        -24    2    1    2    0    0 -0.71054273576E-14  0.17763568394E-14  0.12925991378E+03  0.15144816972E+03  0.78920357342E+02 0.  0.
         66    2    3    3    0    0 -0.34322788110E+02  0.10469526239E+02  0.96053658043E+02  0.10255715473E+03  0.19999998138E+01 0.  0.
         13    1    3    3    0    0  0.34322788110E+02 -0.10469526239E+02  0.33206255735E+02  0.48891014995E+02  0.10566000000E+00 0. -1.
         13    1    4    4    0    0 -0.11730182498E+02  0.38209100539E+01  0.35340129569E+02  0.37431703902E+02  0.10566000000E+00 0.  1.
        -13    1    4    4    0    0 -0.55771351539E+01  0.19009561641E+01  0.14675881445E+02  0.15814889538E+02  0.10566000000E+00 0. -1.
        -14    1    4    4    0    0 -0.17015470459E+02  0.47476600212E+01  0.46037647029E+02  0.49310561288E+02  0.00000000000E+00 0.  1.
<mgrwt>
<rscale>  0 0.78920357E+02</rscale>
<asrwt>0</asrwt>
<pdfrwt beam="1">  1        1 0.17067889E-02 0.78920357E+02</pdfrwt>
<pdfrwt beam="2">  1       -2 0.21592930E-01 0.78920357E+02</pdfrwt>
<totfact> 0.99980449E+04</totfact>
</mgrwt>
</event>
<event>
 8    1  0.8577104E-014  0.8066705E+02  0.7818608E-02  0.1327169E+00
          1   -1    0    0  501    0  0.00000000000E+00  0.00000000000E+00  0.76685685418E+01  0.76685701980E+01  0.50400000000E-02 0. -1.
         -2   -1    0    0    0  501 -0.00000000000E+00 -0.00000000000E+00 -0.21213779140E+03  0.21213779142E+03  0.25500000000E-02 0.  1.
        -24    2    1    2    0    0  0.00000000000E+00 -0.17763568394E-14 -0.20446922286E+03  0.21980636161E+03  0.80667053432E+02 0.  0.
         66    2    3    3    0    0 -0.31594450485E+02  0.13602218603E+02 -0.15955556208E+03  0.16323359660E+03  0.20000042621E+01 0.  0.
         13    1    3    3    0    0  0.31594450485E+02 -0.13602218603E+02 -0.44913660780E+02  0.56572765011E+02  0.10566000000E+00 0. -1.
         13    1    4    4    0    0 -0.89592396151E+01  0.40759824653E+01 -0.47486005065E+02  0.48495499262E+02  0.10566000000E+00 0.  1.
        -13    1    4    4    0    0 -0.83597981277E+01  0.37976842674E+01 -0.44989009316E+02  0.45916562957E+02  0.10566000000E+00 0. -1.
         14    1    4    4    0    0 -0.14275412742E+02  0.57285518699E+01 -0.67080547698E+02  0.68821534384E+02  0.00000000000E+00 0. -1.
<mgrwt>
<rscale>  0 0.80667053E+02</rscale>
<asrwt>0</asrwt>
<pdfrwt beam="1">  1        1 0.11797801E-02 0.80667053E+02</pdfrwt>
<pdfrwt beam="2">  1       -2 0.32636579E-01 0.80667053E+02</pdfrwt>
<totfact> 0.81263349E+04</totfact>
</mgrwt>
</event>
<event>
 8    1  0.8577104E-014  0.8402163E+02  0.7818608E-02  0.1318011E+00
          1   -1    0    0  501    0  0.00000000000E+00  0.00000000000E+00  0.46941769088E+03  0.46941769091E+03  0.50400000000E-02 0. -1.
         -2   -1    0    0    0  501 -0.00000000000E+00 -0.00000000000E+00 -0.37597820812E+01  0.37597829459E+01  0.25500000000E-02 0.  1.
        -24    2    1    2    0    0  0.71054273576E-14  0.00000000000E+00  0.46565790880E+03  0.47317747385E+03  0.84021626591E+02 0.  0.
         66    2    3    3    0    0 -0.22748321496E+02  0.35241580423E+02  0.22250283454E+03  0.22643093097E+03  0.20000002992E+01 0.  0.
         13    1    3    3    0    0  0.22748321496E+02 -0.35241580423E+02  0.24315507426E+03  0.24674654288E+03  0.10566000000E+00 0. -1.
         13    1    4    4    0    0 -0.27545558867E+01  0.35880041116E+01  0.26465657859E+02  0.26849647327E+02  0.10566000000E+00 0. -1.
        -13    1    4    4    0    0 -0.17244691914E+02  0.27496977353E+02  0.17093185476E+03  0.17398612962E+03  0.10566000000E+00 0.  1.
        -14    1    4    4    0    0 -0.27490736947E+01  0.41565989585E+01  0.25105321917E+02  0.25595154027E+02  0.00000000000E+00 0.  1.
<mgrwt>
<rscale>  0 0.84021627E+02</rscale>
<asrwt>0</asrwt>
<pdfrwt beam="1">  1        1 0.72218095E-01 0.84021627E+02</pdfrwt>
<pdfrwt beam="2">  1       -2 0.57842817E-03 0.84021627E+02</pdfrwt>
<totfact> 0.17100387E+05</totfact>
</mgrwt>
</event>
<event>
 8    1  0.8577104E-014  0.7836339E+02  0.7818608E-02  0.1333761E+00
         -2   -1    0    0    0  501 -0.00000000000E+00  0.00000000000E+00  0.13114010480E+03  0.13114010483E+03  0.25500000000E-02 0.  1.
          1   -1    0    0  501    0  0.00000000000E+00 -0.00000000000E+00 -0.11706603352E+02  0.11706604437E+02  0.50400000000E-02 0. -1.
        -24    2    1    2    0    0  0.00000000000E+00 -0.35527136788E-14  0.11943350145E+03  0.14284670927E+03  0.78363391191E+02 0.  0.
         66    2    3    3    0    0 -0.57664283404E+01  0.23537519188E+02  0.11581996851E+03  0.11834496872E+03  0.20000028472E+01 0.  0.
         13    1    3    3    0    0  0.57664283404E+01 -0.23537519188E+02  0.36135329447E+01  0.24501740544E+02  0.10566000000E+00 0. -1.
         13    1    4    4    0    0 -0.68341569724E+00  0.15583492763E+01  0.74820095600E+01  0.76737957084E+01  0.10566000000E+00 0. -1.
        -13    1    4    4    0    0 -0.51333611025E+01  0.21935469147E+02  0.10778319859E+03  0.11011242103E+03  0.10566000000E+00 0.  1.
         14    1    4    4    0    0  0.50348459346E-01  0.43700764894E-01  0.55476035664E+00  0.55875198210E+00  0.00000000000E+00 0. -1.
<mgrwt>
<rscale>  0 0.78363391E+02</rscale>
<asrwt>0</asrwt>
<pdfrwt beam="1">  1        1 0.18010161E-02 0.78363391E+02</pdfrwt>
<pdfrwt beam="2">  1       -2 0.20175400E-01 0.78363391E+02</pdfrwt>
<totfact> 0.10395105E+05</totfact>
</mgrwt>
</event>
<event>
 8    1  0.1056916E-013  0.8007912E+02  0.7818608E-02  0.1328827E+00
         -2   -1    0    0    0  501 -0.00000000000E+00  0.00000000000E+00  0.60148165001E+01  0.60148170407E+01  0.25500000000E-02 0.  1.
          1   -1    0    0  501    0  0.00000000000E+00 -0.00000000000E+00 -0.26653619239E+03  0.26653619244E+03  0.50400000000E-02 0. -1.
        -24    2    1    2    0    0 -0.17763568394E-14 -0.71054273576E-14 -0.26052137589E+03  0.27255100948E+03  0.80079120076E+02 0.  0.
         66    2    3    3    0    0  0.74349229446E+01  0.35520494965E+02 -0.72966600723E+02  0.81517534680E+02  0.19999993538E+01 0.  0.
         13    1    3    3    0    0 -0.74349229446E+01 -0.35520494965E+02 -0.18755477517E+03  0.19103347480E+03  0.10566000000E+00 0. -1.
         13    1    4    4    0    0  0.27284469669E+01  0.12251872761E+02 -0.26715711022E+02  0.29517675865E+02  0.10566000000E+00 0. -1.
        -13    1    4    4    0    0  0.31440103291E+01  0.16068650352E+02 -0.32985696201E+02  0.36825991405E+02  0.10566000000E+00 0.  1.
         14    1    4    4    0    0  0.15624656486E+01  0.71999718519E+01 -0.13265193500E+02  0.15173867410E+02  0.00000000000E+00 0. -1.
<mgrwt>
<rscale>  0 0.80079120E+02</rscale>
<asrwt>0</asrwt>
<pdfrwt beam="1">  1        1 0.41005559E-01 0.80079120E+02</pdfrwt>
<pdfrwt beam="2">  1       -2 0.92535663E-03 0.80079120E+02</pdfrwt>
<totfact> 0.17588359E+05</totfact>
</mgrwt>
</event>
<event>
 8    1  0.8577104E-014  0.7880854E+02  0.7818608E-02  0.1332467E+00
         -2   -1    0    0    0  501 -0.00000000000E+00  0.00000000000E+00  0.33154290917E+02  0.33154291015E+02  0.25500000000E-02 0.  1.
          1   -1    0    0  501    0  0.00000000000E+00 -0.00000000000E+00 -0.46832449014E+02  0.46832449285E+02  0.50400000000E-02 0. -1.
        -24    2    1    2    0    0 -0.35527136788E-14  0.00000000000E+00 -0.13678158097E+02  0.79986740299E+02  0.78808544047E+02 0.  0.
         66    2    3    3    0    0  0.21931763123E+02 -0.31952719072E+02  0.24035861640E+00  0.38807682985E+02  0.19999991521E+01 0.  0.
         13    1    3    3    0    0 -0.21931763123E+02  0.31952719072E+02 -0.13918516713E+02  0.41179057315E+02  0.10566000000E+00 0. -1.
         13    1    4    4    0    0  0.68915249192E+00 -0.14733815948E+01 -0.18585743027E+00  0.16405765758E+01  0.10566000000E+00 0. -1.
        -13    1    4    4    0    0  0.14874072435E+02 -0.20545195728E+02  0.28460570109E+00  0.25366025758E+02  0.10566000000E+00 0.  1.
         14    1    4    4    0    0  0.63685381967E+01 -0.99341417491E+01  0.14161034558E+00  0.11801080651E+02  0.00000000000E+00 0. -1.
<mgrwt>
<rscale>  0 0.78808544E+02</rscale>
<asrwt>0</asrwt>
<pdfrwt beam="1">  1        1 0.72049922E-02 0.78808544E+02</pdfrwt>
<pdfrwt beam="2">  1       -2 0.51006602E-02 0.78808544E+02</pdfrwt>
<totfact> 0.13578294E+05</totfact>
</mgrwt>
</event>
<event>
 8    1  0.8577104E-014  0.7965117E+02  0.7818608E-02  0.1330044E+00
          1   -1    0    0  501    0  0.00000000000E+00  0.00000000000E+00  0.14556388220E+03  0.14556388229E+03  0.50400000000E-02 0. -1.
         -2   -1    0    0    0  501 -0.00000000000E+00 -0.00000000000E+00 -0.10896090631E+02  0.10896090930E+02  0.25500000000E-02 0.  1.
        -24    2    1    2    0    0 -0.71054273576E-14  0.00000000000E+00  0.13466779157E+03  0.15645997322E+03  0.79651171575E+02 0.  0.
         66    2    3    3    0    0  0.24476285301E+02  0.24121842076E+02  0.27936990424E+02  0.44333139300E+02  0.19999997480E+01 0.  0.
         13    1    3    3    0    0 -0.24476285301E+02 -0.24121842076E+02  0.10673080115E+03  0.11212683392E+03  0.10566000000E+00 0. -1.
         13    1    4    4    0    0  0.12750319909E+02  0.12074680165E+02  0.14168430000E+02  0.22563779196E+02  0.10566000000E+00 0. -1.
        -13    1    4    4    0    0  0.33411994321E+01  0.38252252278E+01  0.34923153520E+01  0.61646891440E+01  0.10566000000E+00 0.  1.
        -14    1    4    4    0    0  0.83847659597E+01  0.82219366829E+01  0.10276245072E+02  0.15604670961E+02  0.00000000000E+00 0.  1.
<mgrwt>
<rscale>  0 0.79651172E+02</rscale>
<asrwt>0</asrwt>
<pdfrwt beam="1">  1        1 0.22394441E-01 0.79651172E+02</pdfrwt>
<pdfrwt beam="2">  1       -2 0.16763219E-02 0.79651172E+02</pdfrwt>
<totfact> 0.15885997E+05</totfact>
</mgrwt>
</event>
<event>
 8    1  0.8577104E-014  0.8171936E+02  0.7818608E-02  0.1324242E+00
          1   -1    0    0  501    0  0.00000000000E+00  0.00000000000E+00  0.40836186064E+02  0.40836186375E+02  0.50400000000E-02 0. -1.
         -2   -1    0    0    0  501 -0.00000000000E+00 -0.00000000000E+00 -0.40883185677E+02  0.40883185756E+02  0.25500000000E-02 0.  1.
        -24    2    1    2    0    0 -0.88817841970E-15  0.00000000000E+00 -0.46999612691E-01  0.81719372131E+02  0.81719358616E+02 0.  0.
         66    2    3    3    0    0  0.63994070968E+01  0.40174017887E+02 -0.35737655739E+01  0.40886133629E+02  0.19999995998E+01 0.  0.
         13    1    3    3    0    0 -0.63994070968E+01 -0.40174017887E+02  0.35267659612E+01  0.40833238502E+02  0.10566000000E+00 0. -1.
         13    1    4    4    0    0  0.26891177925E+01  0.16423180923E+02 -0.19698589061E+01  0.16758392951E+02  0.10566000000E+00 0. -1.
        -13    1    4    4    0    0  0.19847716905E+01  0.15280438442E+02 -0.15087753837E+01  0.15482851315E+02  0.10566000000E+00 0.  1.
         14    1    4    4    0    0  0.17255176138E+01  0.84703985218E+01 -0.95131284092E-01  0.86448893639E+01  0.00000000000E+00 0. -1.
<mgrwt>
<rscale>  0 0.81719359E+02</rscale>
<asrwt>0</asrwt>
<pdfrwt beam="1">  1        1 0.62824902E-02 0.81719359E+02</pdfrwt>
<pdfrwt beam="2">  1       -2 0.62897209E-02 0.81719359E+02</pdfrwt>
<totfact> 0.11998774E+05</totfact>
</mgrwt>
</event>
<event>
 8    1  0.8577104E-014  0.8001644E+02  0.7818608E-02  0.1329005E+00
         -2   -1    0    0    0  501 -0.00000000000E+00  0.00000000000E+00  0.17128483060E+03  0.17128483062E+03  0.25500000000E-02 0.  1.
          1   -1    0    0  501    0  0.00000000000E+00 -0.00000000000E+00 -0.93450056365E+01  0.93450069956E+01  0.50400000000E-02 0. -1.
        -24    2    1    2    0    0  0.00000000000E+00  0.35527136788E-14  0.16193982496E+03  0.18062983761E+03  0.80016444106E+02 0.  0.
         66    2    3    3    0    0  0.35323247986E+02  0.18725142845E+02  0.79804603723E+02  0.89281227581E+02  0.20000000380E+01 0.  0.
         13    1    3    3    0    0 -0.35323247986E+02 -0.18725142845E+02  0.82135221241E+02  0.91348610034E+02  0.10566000000E+00 0. -1.
         13    1    4    4    0    0  0.11644325479E+02  0.65128625726E+01  0.26382887576E+02  0.29564769839E+02  0.10566000000E+00 0. -1.
        -13    1    4    4    0    0  0.15259023095E+01  0.12166027430E+01  0.40020758858E+01  0.44537933858E+01  0.10566000000E+00 0.  1.
        -14    1    4    4    0    0  0.22153020197E+02  0.10995677529E+02  0.49419640262E+02  0.55262664357E+02  0.00000000000E+00 0.  1.
<mgrwt>
<rscale>  0 0.80016444E+02</rscale>
<asrwt>0</asrwt>
<pdfrwt beam="1">  1        1 0.14376933E-02 0.80016444E+02</pdfrwt>
<pdfrwt beam="2">  1       -2 0.26351512E-01 0.80016444E+02</pdfrwt>
<totfact> 0.90237261E+04</totfact>
</mgrwt>
</event>
<event>
 8    1  0.1469851E-013  0.8173765E+02  0.7818608E-02  0.1324191E+00
          1   -1    0    0  501    0  0.00000000000E+00  0.00000000000E+00  0.11150654699E+03  0.11150654711E+03  0.50400000000E-02 0. -1.
         -2   -1    0    0    0  501 -0.00000000000E+00 -0.00000000000E+00 -0.14979039166E+02  0.14979039383E+02  0.25500000000E-02 0.  1.
        -24    2    1    2    0    0  0.00000000000E+00  0.00000000000E+00  0.96527507828E+02  0.12648558649E+03  0.81737652417E+02 0.  0.
         66    2    3    3    0    0  0.21147273501E+02  0.43900883180E+01 -0.53526009932E+01  0.22341226157E+02  0.19999992073E+01 0.  0.
         13    1    3    3    0    0 -0.21147273501E+02 -0.43900883180E+01  0.10188010882E+03  0.10414436033E+03  0.10566000000E+00 0. -1.
         13    1    4    4    0    0  0.47471238904E+01  0.50268422232E+00 -0.14804534697E+01  0.49990782320E+01  0.10566000000E+00 0. -1.
        -13    1    4    4    0    0  0.97556437341E+01  0.19262527641E+01 -0.28047943359E+01  0.10332524845E+02  0.10566000000E+00 0.  1.
         14    1    4    4    0    0  0.66445058768E+01  0.19611513315E+01 -0.10673531877E+01  0.70096230796E+01  0.00000000000E+00 0. -1.
<mgrwt>
<rscale>  0 0.81737652E+02</rscale>
<asrwt>0</asrwt>
<pdfrwt beam="1">  1        1 0.17154854E-01 0.81737652E+02</pdfrwt>
<pdfrwt beam="2">  1       -2 0.23044676E-02 0.81737652E+02</pdfrwt>
<totfact> 0.14130929E+05</totfact>
</mgrwt>
</event>
<event>
 8    1  0.8577104E-014  0.8005849E+02  0.7818608E-02  0.1328886E+00
         -2   -1    0    0    0  501 -0.00000000000E+00  0.00000000000E+00  0.10949811099E+02  0.10949811396E+02  0.25500000000E-02 0.  1.
          1   -1    0    0  501    0  0.00000000000E+00 -0.00000000000E+00 -0.14633498687E+03  0.14633498696E+03  0.50400000000E-02 0. -1.
        -24    2    1    2    0    0  0.00000000000E+00  0.88817841970E-15 -0.13538517578E+03  0.15728479836E+03  0.80058490957E+02 0.  0.
         66    2    3    3    0    0  0.33566559263E+02 -0.48231273477E+01 -0.26042132371E+02  0.42803844643E+02  0.19999999124E+01 0.  0.
         13    1    3    3    0    0 -0.33566559263E+02  0.48231273477E+01 -0.10934304340E+03  0.11448095371E+03  0.10566000000E+00 0. -1.
         13    1    4    4    0    0  0.47431569007E+01 -0.12382669059E+01 -0.38439744747E+01  0.62304210221E+01  0.10566000000E+00 0. -1.
        -13    1    4    4    0    0  0.19192209217E+02 -0.24819738975E+01 -0.15423821152E+02  0.24746848527E+02  0.10566000000E+00 0.  1.
        -14    1    4    4    0    0  0.96311931449E+01 -0.11028865444E+01 -0.67743367439E+01  0.11826575094E+02  0.00000000000E+00 0.  1.
<mgrwt>
<rscale>  0 0.80058491E+02</rscale>
<asrwt>0</asrwt>
<pdfrwt beam="1">  1        1 0.22513074E-01 0.80058491E+02</pdfrwt>
<pdfrwt beam="2">  1       -2 0.16845865E-02 0.80058491E+02</pdfrwt>
<totfact> 0.15686041E+05</totfact>
</mgrwt>
</event>
<event>
 8    1  0.8577104E-014  0.7599129E+02  0.7818608E-02  0.1340829E+00
         -2   -1    0    0    0  501 -0.00000000000E+00  0.00000000000E+00  0.61419079048E+02  0.61419079101E+02  0.25500000000E-02 0.  1.
          1   -1    0    0  501    0  0.00000000000E+00 -0.00000000000E+00 -0.23505219118E+02  0.23505219658E+02  0.50400000000E-02 0. -1.
        -24    2    1    2    0    0  0.00000000000E+00 -0.17763568394E-14  0.37913859931E+02  0.84924298759E+02  0.75991287296E+02 0.  0.
         66    2    3    3    0    0 -0.25041952792E+02  0.10881461907E+02  0.48456455517E+02  0.55655491154E+02  0.20000003456E+01 0.  0.
         13    1    3    3    0    0  0.25041952792E+02 -0.10881461907E+02 -0.10542595587E+02  0.29268807605E+02  0.10566000000E+00 0. -1.
         13    1    4    4    0    0 -0.20532995549E+01  0.13996579759E+01  0.42749388963E+01  0.49458414971E+01  0.10566000000E+00 0. -1.
        -13    1    4    4    0    0 -0.94745581558E+01  0.41309790409E+01  0.17426561899E+02  0.20261502011E+02  0.10566000000E+00 0.  1.
        -14    1    4    4    0    0 -0.13514095082E+02  0.53508248899E+01  0.26754954722E+02  0.30448147646E+02  0.00000000000E+00 0.  1.
<mgrwt>
<rscale>  0 0.75991287E+02</rscale>
<asrwt>0</asrwt>
<pdfrwt beam="1">  1        1 0.36161876E-02 0.75991287E+02</pdfrwt>
<pdfrwt beam="2">  1       -2 0.94490892E-02 0.75991287E+02</pdfrwt>
<totfact> 0.13424250E+05</totfact>
</mgrwt>
</event>
<event>
 8    1  0.8577104E-014  0.8106439E+02  0.7818608E-02  0.1326058E+00
         -2   -1    0    0    0  501 -0.00000000000E+00  0.00000000000E+00  0.77613012431E+01  0.77613016620E+01  0.25500000000E-02 0.  1.
          1   -1    0    0  501    0  0.00000000000E+00 -0.00000000000E+00 -0.21167312496E+03  0.21167312502E+03  0.50400000000E-02 0. -1.
        -24    2    1    2    0    0  0.00000000000E+00  0.00000000000E+00 -0.20391182372E+03  0.21943442668E+03  0.81064392688E+02 0.  0.
         66    2    3    3    0    0  0.11882689884E+02  0.34737111568E+02 -0.55683767632E+02  0.66727409772E+02  0.19999995435E+01 0.  0.
         13    1    3    3    0    0 -0.11882689884E+02 -0.34737111568E+02 -0.14822805609E+03  0.15270701691E+03  0.10566000000E+00 0. -1.
         13    1    4    4    0    0  0.61829367497E+01  0.15790649128E+02 -0.25988895116E+02  0.31032356342E+02  0.10566000000E+00 0. -1.
        -13    1    4    4    0    0  0.12656425856E+01  0.31314597874E+01 -0.53338476965E+01  0.63141893256E+01  0.10566000000E+00 0.  1.
        -14    1    4    4    0    0  0.44341105486E+01  0.15815002653E+02 -0.24361024819E+02  0.29380864104E+02  0.00000000000E+00 0.  1.
<mgrwt>
<rscale>  0 0.81064393E+02</rscale>
<asrwt>0</asrwt>
<pdfrwt beam="1">  1        1 0.32565092E-01 0.81064393E+02</pdfrwt>
<pdfrwt beam="2">  1       -2 0.11940465E-02 0.81064393E+02</pdfrwt>
<totfact> 0.16277764E+05</totfact>
</mgrwt>
</event>
<event>
 8    1  0.8577104E-014  0.7030246E+02  0.7818608E-02  0.1359068E+00
         -2   -1    0    0    0  501 -0.00000000000E+00  0.00000000000E+00  0.12254863604E+03  0.12254863606E+03  0.25500000000E-02 0.  1.
          1   -1    0    0  501    0  0.00000000000E+00 -0.00000000000E+00 -0.10082599692E+02  0.10082600951E+02  0.50400000000E-02 0. -1.
        -24    2    1    2    0    0  0.00000000000E+00  0.00000000000E+00  0.11246603634E+03  0.13263123701E+03  0.70302458711E+02 0.  0.
         66    2    3    3    0    0 -0.19747436727E+02  0.10089468807E+02  0.10766289059E+03  0.10994115082E+03  0.19999993022E+01 0.  0.
         13    1    3    3    0    0  0.19747436727E+02 -0.10089468807E+02  0.48031457589E+01  0.22690086190E+02  0.10566000000E+00 0. -1.
         13    1    4    4    0    0 -0.15901533856E+02  0.77280620969E+01  0.83039007676E+02  0.84900351487E+02  0.10566000000E+00 0. -1.
        -13    1    4    4    0    0 -0.20102939768E+01  0.90494054877E+00  0.11992564884E+02  0.12193972930E+02  0.10566000000E+00 0.  1.
         14    1    4    4    0    0 -0.18356088941E+01  0.14564661614E+01  0.12631318025E+02  0.12846826407E+02  0.00000000000E+00 0. -1.
<mgrwt>
<rscale>  0 0.70302459E+02</rscale>
<asrwt>0</asrwt>
<pdfrwt beam="1">  1        1 0.15511693E-02 0.70302459E+02</pdfrwt>
<pdfrwt beam="2">  1       -2 0.18853637E-01 0.70302459E+02</pdfrwt>
<totfact> 0.13989488E+05</totfact>
</mgrwt>
</event>
<event>
 8    1  0.8577104E-014  0.8126807E+02  0.7818608E-02  0.1325491E+00
          1   -1    0    0  501    0  0.00000000000E+00  0.00000000000E+00  0.17359763544E+03  0.17359763551E+03  0.50400000000E-02 0. -1.
         -2   -1    0    0    0  501 -0.00000000000E+00 -0.00000000000E+00 -0.95112158649E+01  0.95112162067E+01  0.25500000000E-02 0.  1.
        -24    2    1    2    0    0  0.00000000000E+00 -0.88817841970E-15  0.16408641957E+03  0.18310885172E+03  0.81268065617E+02 0.  0.
         66    2    3    3    0    0 -0.30236390730E+02 -0.59364887575E+01  0.22495507533E+02  0.38203783623E+02  0.20000002010E+01 0.  0.
         13    1    3    3    0    0  0.30236390730E+02  0.59364887575E+01  0.14159091204E+03  0.14490506810E+03  0.10566000000E+00 0. -1.
         13    1    4    4    0    0 -0.25156501393E+01 -0.74616635782E+00  0.14442521599E+01  0.29970465786E+01  0.10566000000E+00 0. -1.
        -13    1    4    4    0    0 -0.88123902162E+01 -0.12583950914E+01  0.69381218519E+01  0.11286739051E+02  0.10566000000E+00 0.  1.
        -14    1    4    4    0    0 -0.18908350374E+02 -0.39319273083E+01  0.14113133521E+02  0.23919997994E+02  0.00000000000E+00 0.  1.
<mgrwt>
<rscale>  0 0.81268066E+02</rscale>
<asrwt>0</asrwt>
<pdfrwt beam="1">  1        1 0.26707328E-01 0.81268066E+02</pdfrwt>
<pdfrwt beam="2">  1       -2 0.14632641E-02 0.81268066E+02</pdfrwt>
<totfact> 0.15559877E+05</totfact>
</mgrwt>
</event>
<event>
 8    1  0.8577104E-014  0.7982575E+02  0.7818608E-02  0.1329547E+00
          1   -1    0    0  501    0  0.00000000000E+00  0.00000000000E+00  0.91529655627E+02  0.91529655766E+02  0.50400000000E-02 0. -1.
         -2   -1    0    0    0  501 -0.00000000000E+00 -0.00000000000E+00 -0.17404606062E+02  0.17404606249E+02  0.25500000000E-02 0.  1.
        -24    2    1    2    0    0  0.35527136788E-14  0.00000000000E+00  0.74125049565E+02  0.10893426201E+03  0.79825750655E+02 0.  0.
         66    2    3    3    0    0 -0.18815364763E+02 -0.23239759710E+01 -0.10805810807E+02  0.21913109281E+02  0.19999989218E+01 0.  0.
         13    1    3    3    0    0  0.18815364763E+02  0.23239759710E+01  0.84930860372E+02  0.87021152733E+02  0.10566000000E+00 0. -1.
         13    1    4    4    0    0 -0.14063449579E+01  0.17461703790E+00 -0.43061870584E+00  0.14848884658E+01  0.10566000000E+00 0. -1.
        -13    1    4    4    0    0 -0.11389869398E+02 -0.17052904201E+01 -0.71005648892E+01  0.13530200520E+02  0.10566000000E+00 0.  1.
         14    1    4    4    0    0 -0.60191504072E+01 -0.79330258879E+00 -0.32746272121E+01  0.68980202957E+01  0.00000000000E+00 0. -1.
<mgrwt>
<rscale>  0 0.79825751E+02</rscale>
<asrwt>0</asrwt>
<pdfrwt beam="1">  1        1 0.14081486E-01 0.79825751E+02</pdfrwt>
<pdfrwt beam="2">  1       -2 0.26776317E-02 0.79825751E+02</pdfrwt>
<totfact> 0.14569760E+05</totfact>
</mgrwt>
</event>
<event>
 8    1  0.8577104E-014  0.7717638E+02  0.7818608E-02  0.1337261E+00
          1   -1    0    0  501    0  0.00000000000E+00  0.00000000000E+00  0.99906147539E+02  0.99906147666E+02  0.50400000000E-02 0. -1.
         -2   -1    0    0    0  501 -0.00000000000E+00 -0.00000000000E+00 -0.14904473123E+02  0.14904473342E+02  0.25500000000E-02 0.  1.
        -24    2    1    2    0    0  0.00000000000E+00  0.35527136788E-14  0.85001674416E+02  0.11481062101E+03  0.77176382675E+02 0.  0.
         66    2    3    3    0    0 -0.18758007252E+02  0.17559084714E+02 -0.24800911058E+00  0.25772966067E+02  0.19999948259E+01 0.  0.
         13    1    3    3    0    0  0.18758007252E+02 -0.17559084714E+02  0.85249683526E+02  0.89037654941E+02  0.10566000000E+00 0. -1.
         13    1    4    4    0    0 -0.33420515441E+01  0.27275115824E+01 -0.52406972823E+00  0.43467736393E+01  0.10566000000E+00 0. -1.
        -13    1    4    4    0    0 -0.14143519893E+01  0.17701430531E+01 -0.15279755886E+00  0.22733915429E+01  0.10566000000E+00 0.  1.
        -14    1    4    4    0    0 -0.14001603719E+02  0.13061430078E+02  0.42885817651E+00  0.19152800884E+02  0.00000000000E+00 0.  1.
<mgrwt>
<rscale>  0 0.77176383E+02</rscale>
<asrwt>0</asrwt>
<pdfrwt beam="1">  1        1 0.15370176E-01 0.77176383E+02</pdfrwt>
<pdfrwt beam="2">  1       -2 0.22929959E-02 0.77176383E+02</pdfrwt>
<totfact> 0.16191999E+05</totfact>
</mgrwt>
</event>
<event>
 8    1  0.8577104E-014  0.8150580E+02  0.7818608E-02  0.1324832E+00
         -2   -1    0    0    0  501 -0.00000000000E+00  0.00000000000E+00  0.71332597352E+02  0.71332597397E+02  0.25500000000E-02 0.  1.
          1   -1    0    0  501    0  0.00000000000E+00 -0.00000000000E+00 -0.23282467860E+02  0.23282468406E+02  0.50400000000E-02 0. -1.
        -24    2    1    2    0    0 -0.35527136788E-14  0.00000000000E+00  0.48050129491E+02  0.94615065803E+02  0.81505801835E+02 0.  0.
         66    2    3    3    0    0 -0.26422616616E+02 -0.25107479241E+02  0.45135273953E+02  0.58049402545E+02  0.19999995929E+01 0.  0.
         13    1    3    3    0    0  0.26422616616E+02  0.25107479241E+02  0.29148555384E+01  0.36565663258E+02  0.10566000000E+00 0. -1.
         13    1    4    4    0    0 -0.12246963622E+02 -0.12031471817E+02  0.20225646968E+02  0.26529839641E+02  0.10566000000E+00 0. -1.
        -13    1    4    4    0    0 -0.68500993840E+01 -0.68959337201E+01  0.12081121431E+02  0.15506205935E+02  0.10566000000E+00 0.  1.
        -14    1    4    4    0    0 -0.73255536101E+01 -0.61800737031E+01  0.12828505554E+02  0.16013356969E+02  0.00000000000E+00 0.  1.
<mgrwt>
<rscale>  0 0.81505802E+02</rscale>
<asrwt>0</asrwt>
<pdfrwt beam="1">  1        1 0.35819183E-02 0.81505802E+02</pdfrwt>
<pdfrwt beam="2">  1       -2 0.10974246E-01 0.81505802E+02</pdfrwt>
<totfact> 0.10917512E+05</totfact>
</mgrwt>
</event>
<event>
 8    1  0.8577104E-014  0.7964638E+02  0.7818608E-02  0.1330058E+00
          1   -1    0    0  501    0  0.00000000000E+00  0.00000000000E+00  0.10090482870E+01  0.10090608738E+01  0.50400000000E-02 0. -1.
         -2   -1    0    0    0  501 -0.00000000000E+00 -0.00000000000E+00 -0.15716559533E+04  0.15716559533E+04  0.25500000000E-02 0.  1.
        -24    2    1    2    0    0  0.00000000000E+00  0.00000000000E+00 -0.15706469050E+04  0.15726650142E+04  0.79646384637E+02 0.  0.
         66    2    3    3    0    0 -0.15338914419E+02 -0.60744818824E+01 -0.15009512696E+04  0.15010432689E+04  0.20000009144E+01 0.  0.
         13    1    3    3    0    0  0.15338914419E+02  0.60744818824E+01 -0.69695635446E+02  0.71621745232E+02  0.10566000000E+00 0. -1.
         13    1    4    4    0    0 -0.87874489589E+00 -0.24144673062E+00 -0.68553701249E+02  0.68559839615E+02  0.10566000000E+00 0.  1.
        -13    1    4    4    0    0 -0.73950411692E+01 -0.38549902106E+01 -0.74094212557E+03  0.74098906347E+03  0.10566000000E+00 0.  1.
        -14    1    4    4    0    0 -0.70651283542E+01 -0.19780449412E+01 -0.69145544275E+03  0.69149436586E+03  0.00000000000E+00 0.  1.
<mgrwt>
<rscale>  0 0.79646385E+02</rscale>
<asrwt>0</asrwt>
<pdfrwt beam="1">  1        1 0.15524042E-03 0.79646385E+02</pdfrwt>
<pdfrwt beam="2">  1       -2 0.24179126E+00 0.79646385E+02</pdfrwt>
<totfact> 0.13847739E+04</totfact>
</mgrwt>
</event>
<event>
 8    1  0.8577104E-014  0.8268741E+02  0.7818608E-02  0.1321593E+00
          1   -1    0    0  501    0  0.00000000000E+00  0.00000000000E+00  0.13141698577E+03  0.13141698587E+03  0.50400000000E-02 0. -1.
         -2   -1    0    0    0  501 -0.00000000000E+00 -0.00000000000E+00 -0.13006705618E+02  0.13006705868E+02  0.25500000000E-02 0.  1.
        -24    2    1    2    0    0  0.00000000000E+00  0.00000000000E+00  0.11841028015E+03  0.14442369174E+03  0.82687413122E+02 0.  0.
         66    2    3    3    0    0 -0.40323237088E+02  0.13892848751E+01  0.74803596985E+02  0.85014538042E+02  0.19999987091E+01 0.  0.
         13    1    3    3    0    0  0.40323237088E+02 -0.13892848751E+01  0.43606683168E+02  0.59409153695E+02  0.10566000000E+00 0. -1.
         13    1    4    4    0    0 -0.21592779054E+02  0.79200893962E+00  0.40618479229E+02  0.46008123243E+02  0.10566000000E+00 0. -1.
        -13    1    4    4    0    0 -0.13059783842E+02  0.98403921682E+00  0.24205056904E+02  0.27521305037E+02  0.10566000000E+00 0.  1.
         14    1    4    4    0    0 -0.56706741922E+01 -0.38676328130E+00  0.99800608521E+01  0.11485109762E+02  0.00000000000E+00 0. -1.
<mgrwt>
<rscale>  0 0.82687413E+02</rscale>
<asrwt>0</asrwt>
<pdfrwt beam="1">  1        1 0.20217997E-01 0.82687413E+02</pdfrwt>
<pdfrwt beam="2">  1       -2 0.20010317E-02 0.82687413E+02</pdfrwt>
<totfact> 0.14103872E+05</totfact>
</mgrwt>
</event>
<event>
 8    1  0.8577104E-014  0.7840837E+02  0.7818608E-02  0.1333630E+00
          1   -1    0    0  501    0  0.00000000000E+00  0.00000000000E+00  0.70265728622E+01  0.70265746698E+01  0.50400000000E-02 0. -1.
         -2   -1    0    0    0  501 -0.00000000000E+00 -0.00000000000E+00 -0.21873649905E+03  0.21873649906E+03  0.25500000000E-02 0.  1.
        -24    2    1    2    0    0  0.17763568394E-14 -0.35527136788E-14 -0.21170992618E+03  0.22576307373E+03  0.78408370826E+02 0.  0.
         66    2    3    3    0    0 -0.46587152536E+01  0.11400277919E+02 -0.21301332045E+03  0.21337840720E+03  0.20000012427E+01 0.  0.
         13    1    3    3    0    0  0.46587152536E+01 -0.11400277919E+02  0.13033942672E+01  0.12384666531E+02  0.10566000000E+00 0. -1.
         13    1    4    4    0    0 -0.21809212510E+00  0.54268922283E+00 -0.57289239934E+01  0.57596709910E+01  0.10566000000E+00 0. -1.
        -13    1    4    4    0    0 -0.87493404524E+00  0.19607379849E+01 -0.31550374618E+02  0.31623524560E+02  0.10566000000E+00 0.  1.
        -14    1    4    4    0    0 -0.35656890833E+01  0.88968507109E+01 -0.17573402184E+03  0.17599521165E+03  0.00000000000E+00 0.  1.
<mgrwt>
<rscale>  0 0.78408371E+02</rscale>
<asrwt>0</asrwt>
<pdfrwt beam="1">  1        1 0.10810115E-02 0.78408371E+02</pdfrwt>
<pdfrwt beam="2">  1       -2 0.33651764E-01 0.78408371E+02</pdfrwt>
<totfact> 0.86301448E+04</totfact>
</mgrwt>
</event>
<event>
 8    1  0.8577104E-014  0.7961857E+02  0.7818608E-02  0.1330137E+00
         -2   -1    0    0    0  501 -0.00000000000E+00  0.00000000000E+00  0.34343230189E+02  0.34343230284E+02  0.25500000000E-02 0.  1.
          1   -1    0    0  501    0  0.00000000000E+00 -0.00000000000E+00 -0.46145318584E+02  0.46145318859E+02  0.50400000000E-02 0. -1.
        -24    2    1    2    0    0  0.00000000000E+00  0.00000000000E+00 -0.11802088395E+02  0.80488549143E+02  0.79618573540E+02 0.  0.
         66    2    3    3    0    0  0.30688084847E+02 -0.20625753883E+02  0.89388042958E+01  0.38093076879E+02  0.20000022496E+01 0.  0.
         13    1    3    3    0    0 -0.30688084847E+02  0.20625753883E+02 -0.20740892691E+02  0.42395472264E+02  0.10566000000E+00 0. -1.
         13    1    4    4    0    0  0.18182441615E+02 -0.12955322327E+02  0.59889450553E+01  0.23115366893E+02  0.10566000000E+00 0. -1.
        -13    1    4    4    0    0  0.41177525905E+01 -0.22033861684E+01  0.10063435711E+01  0.47785655193E+01  0.10566000000E+00 0.  1.
        -14    1    4    4    0    0  0.83878906422E+01 -0.54670453878E+01  0.19435156694E+01  0.10199144467E+02  0.00000000000E+00 0.  1.
<mgrwt>
<rscale>  0 0.79618574E+02</rscale>
<asrwt>0</asrwt>
<pdfrwt beam="1">  1        1 0.70992798E-02 0.79618574E+02</pdfrwt>
<pdfrwt beam="2">  1       -2 0.52835739E-02 0.79618574E+02</pdfrwt>
<totfact> 0.13166136E+05</totfact>
</mgrwt>
</event>
<event>
 8    1  0.8577104E-014  0.8033213E+02  0.7818608E-02  0.1328112E+00
          1   -1    0    0  501    0  0.00000000000E+00  0.00000000000E+00  0.41750753036E+01  0.41750783457E+01  0.50400000000E-02 0. -1.
         -2   -1    0    0    0  501 -0.00000000000E+00 -0.00000000000E+00 -0.38641509820E+03  0.38641509820E+03  0.25500000000E-02 0.  1.
        -24    2    1    2    0    0  0.00000000000E+00 -0.17763568394E-14 -0.38224002289E+03  0.39059017655E+03  0.80332128794E+02 0.  0.
         66    2    3    3    0    0 -0.34977673718E+02  0.12255330519E+02 -0.26619745840E+03  0.26877261328E+03  0.20000004600E+01 0.  0.
         13    1    3    3    0    0  0.34977673718E+02 -0.12255330519E+02 -0.11604256449E+03  0.12181756327E+03  0.10566000000E+00 0. -1.
         13    1    4    4    0    0 -0.39388412253E+01  0.20166461897E+01 -0.31690997878E+02  0.31998622511E+02  0.10566000000E+00 0. -1.
        -13    1    4    4    0    0 -0.69163904961E+01  0.25428096487E+01 -0.52942569755E+02  0.53453055990E+02  0.10566000000E+00 0.  1.
         14    1    4    4    0    0 -0.24122441996E+02  0.76958746802E+01 -0.18156389077E+03  0.18332093478E+03  0.00000000000E+00 0. -1.
<mgrwt>
<rscale>  0 0.80332129E+02</rscale>
<asrwt>0</asrwt>
<pdfrwt beam="1">  1        1 0.64231982E-03 0.80332129E+02</pdfrwt>
<pdfrwt beam="2">  1       -2 0.59448449E-01 0.80332129E+02</pdfrwt>
<totfact> 0.59802589E+04</totfact>
</mgrwt>
</event>
<event>
 8    1  0.8577104E-014  0.8032182E+02  0.7818608E-02  0.1328141E+00
         -2   -1    0    0    0  501 -0.00000000000E+00  0.00000000000E+00  0.35509398620E+01  0.35509407776E+01  0.25500000000E-02 0.  1.
          1   -1    0    0  501    0  0.00000000000E+00 -0.00000000000E+00 -0.45421739937E+03  0.45421739940E+03  0.50400000000E-02 0. -1.
        -24    2    1    2    0    0  0.00000000000E+00  0.17763568394E-14 -0.45066645951E+03  0.45776834017E+03  0.80321824815E+02 0.  0.
         66    2    3    3    0    0 -0.36665168897E+02 -0.10964136689E+02 -0.29441775922E+03  0.29690126956E+03  0.20000042439E+01 0.  0.
         13    1    3    3    0    0  0.36665168897E+02  0.10964136689E+02 -0.15624870028E+03  0.16086707061E+03  0.10566000000E+00 0. -1.
         13    1    4    4    0    0 -0.14969366439E+02 -0.42668003613E+01 -0.11528191602E+03  0.11632806558E+03  0.10566000000E+00 0. -1.
        -13    1    4    4    0    0 -0.12918754059E+02 -0.37412234738E+01 -0.10173551125E+03  0.10262074046E+03  0.10566000000E+00 0.  1.
         14    1    4    4    0    0 -0.87770483982E+01 -0.29561128538E+01 -0.77400331951E+02  0.77952463514E+02  0.00000000000E+00 0. -1.
<mgrwt>
<rscale>  0 0.80321825E+02</rscale>
<asrwt>0</asrwt>
<pdfrwt beam="1">  1        1 0.69879554E-01 0.80321825E+02</pdfrwt>
<pdfrwt beam="2">  1       -2 0.54629887E-03 0.80321825E+02</pdfrwt>
<totfact> 0.19162864E+05</totfact>
</mgrwt>
</event>
<event>
 8    1  0.8577104E-014  0.7502381E+02  0.7818608E-02  0.1343797E+00
         -2   -1    0    0    0  501 -0.00000000000E+00  0.00000000000E+00  0.86252943413E+02  0.86252943450E+02  0.25500000000E-02 0.  1.
          1   -1    0    0  501    0  0.00000000000E+00 -0.00000000000E+00 -0.16314143025E+02  0.16314143804E+02  0.50400000000E-02 0. -1.
        -24    2    1    2    0    0 -0.35527136788E-14 -0.88817841970E-15  0.69938800387E+02  0.10256708725E+03  0.75023806810E+02 0.  0.
         66    2    3    3    0    0 -0.12969833361E+02 -0.46599325832E+01  0.82651979105E+02  0.83816950555E+02  0.20000003382E+01 0.  0.
         13    1    3    3    0    0  0.12969833361E+02  0.46599325832E+01 -0.12713178718E+02  0.18750136699E+02  0.10566000000E+00 0. -1.
         13    1    4    4    0    0 -0.11002098521E+01 -0.84093250156E+00  0.63461578639E+01  0.64963461160E+01  0.10566000000E+00 0. -1.
        -13    1    4    4    0    0 -0.80750446196E+01 -0.27470687933E+01  0.50537986200E+02  0.51252823783E+02  0.10566000000E+00 0.  1.
        -14    1    4    4    0    0 -0.37945788890E+01 -0.10719312884E+01  0.25767835041E+02  0.26067780656E+02  0.00000000000E+00 0.  1.
<mgrwt>
<rscale>  0 0.75023807E+02</rscale>
<asrwt>0</asrwt>
<pdfrwt beam="1">  1        1 0.25098682E-02 0.75023807E+02</pdfrwt>
<pdfrwt beam="2">  1       -2 0.13269684E-01 0.75023807E+02</pdfrwt>
<totfact> 0.12946444E+05</totfact>
</mgrwt>
</event>
<event>
 8    1  0.8577104E-014  0.8013317E+02  0.7818608E-02  0.1328674E+00
          1   -1    0    0  501    0  0.00000000000E+00  0.00000000000E+00  0.13244466381E+03  0.13244466390E+03  0.50400000000E-02 0. -1.
         -2   -1    0    0    0  501 -0.00000000000E+00 -0.00000000000E+00 -0.12120768128E+02  0.12120768396E+02  0.25500000000E-02 0.  1.
        -24    2    1    2    0    0  0.00000000000E+00  0.00000000000E+00  0.12032389568E+03  0.14456543230E+03  0.80133166319E+02 0.  0.
         66    2    3    3    0    0 -0.30920675441E+02  0.22735778256E+01  0.14485981402E+02  0.34279746063E+02  0.20000017900E+01 0.  0.
         13    1    3    3    0    0  0.30920675441E+02 -0.22735778256E+01  0.10583791428E+03  0.11028568624E+03  0.10566000000E+00 0. -1.
         13    1    4    4    0    0 -0.24768863185E+01  0.65628144380E+00  0.14258684619E+01  0.29342692573E+01  0.10566000000E+00 0. -1.
        -13    1    4    4    0    0 -0.10988113236E+02  0.60171994020E+00  0.47636934385E+01  0.11991857178E+02  0.10566000000E+00 0.  1.
        -14    1    4    4    0    0 -0.17455675887E+02  0.10155764416E+01  0.82964195016E+01  0.19353619628E+02  0.00000000000E+00 0.  1.
<mgrwt>
<rscale>  0 0.80133166E+02</rscale>
<asrwt>0</asrwt>
<pdfrwt beam="1">  1        1 0.20376101E-01 0.80133166E+02</pdfrwt>
<pdfrwt beam="2">  1       -2 0.18647337E-02 0.80133166E+02</pdfrwt>
<totfact> 0.15365889E+05</totfact>
</mgrwt>
</event>
<event>
 8    1  0.8577104E-014  0.7645829E+02  0.7818608E-02  0.1339414E+00
          1   -1    0    0  501    0  0.00000000000E+00  0.00000000000E+00  0.12980588489E+02  0.12980589467E+02  0.50400000000E-02 0. -1.
         -2   -1    0    0    0  501 -0.00000000000E+00 -0.00000000000E+00 -0.11258868129E+03  0.11258868132E+03  0.25500000000E-02 0.  1.
        -24    2    1    2    0    0 -0.71054273576E-14  0.00000000000E+00 -0.99608092798E+02  0.12556927078E+03  0.76458286759E+02 0.  0.
         66    2    3    3    0    0 -0.25981536434E+02  0.21088860730E+02 -0.80106830350E+02  0.86838266620E+02  0.19999996425E+01 0.  0.
         13    1    3    3    0    0  0.25981536434E+02 -0.21088860730E+02 -0.19501262448E+02  0.38731004163E+02  0.10566000000E+00 0. -1.
         13    1    4    4    0    0 -0.84596117777E+01  0.63067151282E+01 -0.23920919642E+02  0.26145004259E+02  0.10566000000E+00 0. -1.
        -13    1    4    4    0    0 -0.62530945937E+01  0.45828739358E+01 -0.18967237351E+02  0.20490758460E+02  0.10566000000E+00 0.  1.
         14    1    4    4    0    0 -0.11268830063E+02  0.10199271666E+02 -0.37218673357E+02  0.40202503902E+02  0.00000000000E+00 0. -1.
<mgrwt>
<rscale>  0 0.76458287E+02</rscale>
<asrwt>0</asrwt>
<pdfrwt beam="1">  1        1 0.19970138E-02 0.76458287E+02</pdfrwt>
<pdfrwt beam="2">  1       -2 0.17321335E-01 0.76458287E+02</pdfrwt>
<totfact> 0.11558913E+05</totfact>
</mgrwt>
</event>
<event>
 8    1  0.8577104E-014  0.7839844E+02  0.7818608E-02  0.1333659E+00
          1   -1    0    0  501    0  0.00000000000E+00  0.00000000000E+00  0.21362268988E+03  0.21362268994E+03  0.50400000000E-02 0. -1.
         -2   -1    0    0    0  501 -0.00000000000E+00 -0.00000000000E+00 -0.71929574888E+01  0.71929579408E+01  0.25500000000E-02 0.  1.
        -24    2    1    2    0    0  0.00000000000E+00  0.00000000000E+00  0.20642973239E+03  0.22081564788E+03  0.78398443438E+02 0.  0.
         66    2    3    3    0    0  0.33904248680E+02  0.63333726822E+01  0.15559483782E+03  0.15938432559E+03  0.19999999205E+01 0.  0.
         13    1    3    3    0    0 -0.33904248680E+02 -0.63333726822E+01  0.50834894567E+02  0.61431322285E+02  0.10566000000E+00 0. -1.
         13    1    4    4    0    0  0.80449947256E+01  0.15284588661E+01  0.40103221987E+02  0.40930889368E+02  0.10566000000E+00 0. -1.
        -13    1    4    4    0    0  0.11126015213E+02  0.25686976086E+01  0.49400767268E+02  0.50703386402E+02  0.10566000000E+00 0.  1.
         14    1    4    4    0    0  0.14733238741E+02  0.22362162075E+01  0.66090848564E+02  0.67750049820E+02  0.00000000000E+00 0. -1.
<mgrwt>
<rscale>  0 0.78398443E+02</rscale>
<asrwt>0</asrwt>
<pdfrwt beam="1">  1        1 0.32865027E-01 0.78398443E+02</pdfrwt>
<pdfrwt beam="2">  1       -2 0.11066089E-02 0.78398443E+02</pdfrwt>
<totfact> 0.17818356E+05</totfact>
</mgrwt>
</event>
<event>
 8    1  0.8577104E-014  0.7797440E+02  0.7818608E-02  0.1334900E+00
         -2   -1    0    0    0  501 -0.00000000000E+00  0.00000000000E+00  0.17499905623E+03  0.17499905625E+03  0.25500000000E-02 0.  1.
          1   -1    0    0  501    0  0.00000000000E+00 -0.00000000000E+00 -0.86857702744E+01  0.86857717367E+01  0.50400000000E-02 0. -1.
        -24    2    1    2    0    0 -0.71054273576E-14  0.00000000000E+00  0.16631328596E+03  0.18368482799E+03  0.77974399303E+02 0.  0.
         66    2    3    3    0    0  0.36068579638E+02  0.13976948036E+02  0.72237726683E+02  0.81966985254E+02  0.20000004410E+01 0.  0.
         13    1    3    3    0    0 -0.36068579638E+02 -0.13976948036E+02  0.94075559274E+02  0.10171784273E+03  0.10566000000E+00 0. -1.
         13    1    4    4    0    0  0.23733744333E+01  0.49678442805E+00  0.50389627358E+01  0.55930323132E+01  0.10566000000E+00 0.  1.
        -13    1    4    4    0    0  0.15044677055E+02  0.58754227551E+01  0.29531495134E+02  0.33659816831E+02  0.10566000000E+00 0.  1.
         14    1    4    4    0    0  0.18650528149E+02  0.76047408534E+01  0.37667268814E+02  0.42714136110E+02  0.00000000000E+00 0. -1.
<mgrwt>
<rscale>  0 0.77974399E+02</rscale>
<asrwt>0</asrwt>
<pdfrwt beam="1">  1        1 0.13362725E-02 0.77974399E+02</pdfrwt>
<pdfrwt beam="2">  1       -2 0.26922932E-01 0.77974399E+02</pdfrwt>
<totfact> 0.95698356E+04</totfact>
</mgrwt>
</event>
<event>
 8    1  0.8577104E-014  0.7917149E+02  0.7818608E-02  0.1331419E+00
          1   -1    0    0  501    0  0.00000000000E+00  0.00000000000E+00  0.15988854943E+02  0.15988855737E+02  0.50400000000E-02 0. -1.
         -2   -1    0    0    0  501 -0.00000000000E+00 -0.00000000000E+00 -0.98007705808E+02  0.98007705841E+02  0.25500000000E-02 0.  1.
        -24    2    1    2    0    0  0.00000000000E+00  0.00000000000E+00 -0.82018850865E+02  0.11399656158E+03  0.79171485741E+02 0.  0.
         66    2    3    3    0    0 -0.22189905979E+02  0.32513269329E+02 -0.46708219246E+02  0.61115974599E+02  0.19999990807E+01 0.  0.
         13    1    3    3    0    0  0.22189905979E+02 -0.32513269329E+02 -0.35310631619E+02  0.52880586978E+02  0.10566000000E+00 0. -1.
         13    1    4    4    0    0 -0.72487324932E+00  0.12686058731E+01 -0.16444645226E+01  0.22023237025E+01  0.10566000000E+00 0.  1.
        -13    1    4    4    0    0 -0.84957222921E+01  0.11203435875E+02 -0.17534041016E+02  0.22475498460E+02  0.10566000000E+00 0.  1.
        -14    1    4    4    0    0 -0.12969310438E+02  0.20041227581E+02 -0.27529713707E+02  0.36438152436E+02  0.00000000000E+00 0.  1.
<mgrwt>
<rscale>  0 0.79171486E+02</rscale>
<asrwt>0</asrwt>
<pdfrwt beam="1">  1        1 0.24598240E-02 0.79171486E+02</pdfrwt>
<pdfrwt beam="2">  1       -2 0.15078108E-01 0.79171486E+02</pdfrwt>
<totfact> 0.10953451E+05</totfact>
</mgrwt>
</event>
<event>
 8    1  0.8577104E-014  0.7994534E+02  0.7818608E-02  0.1329207E+00
         -2   -1    0    0    0  501 -0.00000000000E+00  0.00000000000E+00  0.30049621553E+02  0.30049621661E+02  0.25500000000E-02 0.  1.
          1   -1    0    0  501    0  0.00000000000E+00 -0.00000000000E+00 -0.53172528195E+02  0.53172528434E+02  0.50400000000E-02 0. -1.
        -24    2    1    2    0    0  0.00000000000E+00  0.00000000000E+00 -0.23122906642E+02  0.83222150095E+02  0.79945340420E+02 0.  0.
         66    2    3    3    0    0 -0.31120885492E+02 -0.23186099387E+02 -0.17092041159E+01  0.38897636128E+02  0.19999997723E+01 0.  0.
         13    1    3    3    0    0  0.31120885492E+02  0.23186099387E+02 -0.21413702526E+02  0.44324513967E+02  0.10566000000E+00 0. -1.
         13    1    4    4    0    0 -0.85257714107E+01 -0.60516618068E+01  0.16173993337E+00  0.10456993479E+02  0.10566000000E+00 0. -1.
        -13    1    4    4    0    0 -0.18386642734E+02 -0.14358076616E+02 -0.12728584323E+01  0.23363525585E+02  0.10566000000E+00 0.  1.
         14    1    4    4    0    0 -0.42084713473E+01 -0.27763609639E+01 -0.59808561703E+00  0.50771170647E+01  0.00000000000E+00 0. -1.
<mgrwt>
<rscale>  0 0.79945340E+02</rscale>
<asrwt>0</asrwt>
<pdfrwt beam="1">  1        1 0.81803890E-02 0.79945340E+02</pdfrwt>
<pdfrwt beam="2">  1       -2 0.46230187E-02 0.79945340E+02</pdfrwt>
<totfact> 0.13309984E+05</totfact>
</mgrwt>
</event>
<event>
 8    1  0.8577104E-014  0.7957574E+02  0.7818608E-02  0.1330260E+00
          1   -1    0    0  501    0  0.00000000000E+00  0.00000000000E+00  0.15196785603E+03  0.15196785612E+03  0.50400000000E-02 0. -1.
         -2   -1    0    0    0  501 -0.00000000000E+00 -0.00000000000E+00 -0.10417166209E+02  0.10417166521E+02  0.25500000000E-02 0.  1.
        -24    2    1    2    0    0  0.00000000000E+00  0.00000000000E+00  0.14155068982E+03  0.16238502264E+03  0.79575736172E+02 0.  0.
         66    2    3    3    0    0 -0.11344751071E+01  0.35288347317E+02  0.33497226959E+02  0.48709534993E+02  0.20000237888E+01 0.  0.
         13    1    3    3    0    0  0.11344751071E+01 -0.35288347317E+02  0.10805346287E+03  0.11367548765E+03  0.10566000000E+00 0. -1.
         13    1    4    4    0    0  0.17676179904E-01  0.48701783187E+01  0.46582392403E+01  0.67401265685E+01  0.10566000000E+00 0. -1.
        -13    1    4    4    0    0 -0.32915529237E+00  0.24570484456E+02  0.23736687675E+02  0.34165165819E+02  0.10566000000E+00 0.  1.
        -14    1    4    4    0    0 -0.82299599466E+00  0.58476845419E+01  0.51023000436E+01  0.78042426054E+01  0.00000000000E+00 0.  1.
<mgrwt>
<rscale>  0 0.79575736E+02</rscale>
<asrwt>0</asrwt>
<pdfrwt beam="1">  1        1 0.23379670E-01 0.79575736E+02</pdfrwt>
<pdfrwt beam="2">  1       -2 0.16026410E-02 0.79575736E+02</pdfrwt>
<totfact> 0.16052845E+05</totfact>
</mgrwt>
</event>
<event>
 8    1  0.8577104E-014  0.8033133E+02  0.7818608E-02  0.1328114E+00
         -2   -1    0    0    0  501 -0.00000000000E+00  0.00000000000E+00  0.37920669274E+01  0.37920677848E+01  0.25500000000E-02 0.  1.
          1   -1    0    0  501    0  0.00000000000E+00 -0.00000000000E+00 -0.42543565911E+03  0.42543565914E+03  0.50400000000E-02 0. -1.
        -24    2    1    2    0    0  0.00000000000E+00  0.00000000000E+00 -0.42164359218E+03  0.42922772693E+03  0.80331330950E+02 0.  0.
         66    2    3    3    0    0  0.34249947981E+02  0.20826165655E+02 -0.19963305719E+03  0.20362746779E+03  0.20000001302E+01 0.  0.
         13    1    3    3    0    0 -0.34249947981E+02 -0.20826165655E+02 -0.22201053499E+03  0.22560025914E+03  0.10566000000E+00 0. -1.
         13    1    4    4    0    0  0.17949064687E+02  0.11451536877E+02 -0.10831393158E+03  0.11038670915E+03  0.10566000000E+00 0. -1.
        -13    1    4    4    0    0  0.52882920608E+00  0.29972867641E+00 -0.38286538742E+01  0.38780474639E+01  0.10566000000E+00 0.  1.
         14    1    4    4    0    0  0.15772054088E+02  0.90749001016E+01 -0.87490471742E+02  0.89362711170E+02  0.00000000000E+00 0. -1.
<mgrwt>
<rscale>  0 0.80331331E+02</rscale>
<asrwt>0</asrwt>
<pdfrwt beam="1">  1        1 0.65451602E-01 0.80331331E+02</pdfrwt>
<pdfrwt beam="2">  1       -2 0.58339531E-03 0.80331331E+02</pdfrwt>
<totfact> 0.18973111E+05</totfact>
</mgrwt>
</event>
<event>
 8    1  0.8577104E-014  0.8032273E+02  0.7818608E-02  0.1328138E+00
          1   -1    0    0  501    0  0.00000000000E+00  0.00000000000E+00  0.19992627846E+03  0.19992627853E+03  0.50400000000E-02 0. -1.
         -2   -1    0    0    0  501 -0.00000000000E+00 -0.00000000000E+00 -0.80676502893E+01  0.80676506923E+01  0.25500000000E-02 0.  1.
        -24    2    1    2    0    0 -0.35527136788E-14  0.00000000000E+00  0.19185862817E+03  0.20799392922E+03  0.80322732692E+02 0.  0.
         66    2    3    3    0    0  0.30662552883E+02  0.19298822606E+02  0.51265284612E+02  0.62807372950E+02  0.19999968122E+01 0.  0.
         13    1    3    3    0    0 -0.30662552883E+02 -0.19298822606E+02  0.14059334356E+03  0.14518655627E+03  0.10566000000E+00 0. -1.
         13    1    4    4    0    0  0.68157525104E+00  0.44460025212E+00  0.12794231385E+01  0.15199677003E+01  0.10566000000E+00 0.  1.
        -13    1    4    4    0    0  0.22903956030E+02  0.14019368777E+02  0.36665018505E+02  0.45447427307E+02  0.10566000000E+00 0.  1.
        -14    1    4    4    0    0  0.70770216020E+01  0.48348535763E+01  0.13320842968E+02  0.15839977943E+02  0.00000000000E+00 0.  1.
<mgrwt>
<rscale>  0 0.80322733E+02</rscale>
<asrwt>0</asrwt>
<pdfrwt beam="1">  1        1 0.30757889E-01 0.80322733E+02</pdfrwt>
<pdfrwt beam="2">  1       -2 0.12411770E-02 0.80322733E+02</pdfrwt>
<totfact> 0.16495420E+05</totfact>
</mgrwt>
</event>
<event>
 8    1  0.8577104E-014  0.7817121E+02  0.7818608E-02  0.1334323E+00
         -2   -1    0    0    0  501 -0.00000000000E+00  0.00000000000E+00  0.14395361207E+02  0.14395361433E+02  0.25500000000E-02 0.  1.
          1   -1    0    0  501    0  0.00000000000E+00 -0.00000000000E+00 -0.10612338484E+03  0.10612338496E+03  0.50400000000E-02 0. -1.
        -24    2    1    2    0    0 -0.17763568394E-14  0.71054273576E-14 -0.91728023635E+02  0.12051874640E+03  0.78171208975E+02 0.  0.
         66    2    3    3    0    0 -0.69275744853E+01  0.34242460942E+02 -0.18962554236E+02  0.39800953310E+02  0.20000004058E+01 0.  0.
         13    1    3    3    0    0  0.69275744853E+01 -0.34242460942E+02 -0.72765469399E+02  0.80717793085E+02  0.10566000000E+00 0. -1.
         13    1    4    4    0    0 -0.19522441600E+01  0.84341681682E+01 -0.52022009169E+01  0.10100520203E+02  0.10566000000E+00 0. -1.
        -13    1    4    4    0    0 -0.32567536008E+00  0.43891810116E+01 -0.22957617442E+01  0.49651445512E+01  0.10566000000E+00 0.  1.
        -14    1    4    4    0    0 -0.46496549652E+01  0.21419111762E+02 -0.11464591575E+02  0.24735288556E+02  0.00000000000E+00 0.  1.
<mgrwt>
<rscale>  0 0.78171209E+02</rscale>
<asrwt>0</asrwt>
<pdfrwt beam="1">  1        1 0.16326674E-01 0.78171209E+02</pdfrwt>
<pdfrwt beam="2">  1       -2 0.22146710E-02 0.78171209E+02</pdfrwt>
<totfact> 0.15802036E+05</totfact>
</mgrwt>
</event>
<event>
 8    1  0.8577104E-014  0.7915880E+02  0.7818608E-02  0.1331456E+00
         -2   -1    0    0    0  501 -0.00000000000E+00  0.00000000000E+00  0.60374092052E+01  0.60374097437E+01  0.25500000000E-02 0.  1.
          1   -1    0    0  501    0  0.00000000000E+00 -0.00000000000E+00 -0.25947037162E+03  0.25947037167E+03  0.50400000000E-02 0. -1.
        -24    2    1    2    0    0  0.00000000000E+00  0.00000000000E+00 -0.25343296242E+03  0.26550778141E+03  0.79158799589E+02 0.  0.
         66    2    3    3    0    0 -0.31317483911E+02 -0.22714001672E+02 -0.99176399602E+02  0.10647379446E+03  0.19999996880E+01 0.  0.
         13    1    3    3    0    0  0.31317483911E+02  0.22714001672E+02 -0.15425656282E+03  0.15903398695E+03  0.10566000000E+00 0. -1.
         13    1    4    4    0    0 -0.42610504982E+00 -0.10785786582E+00 -0.12350910195E+01  0.13152234391E+01  0.10566000000E+00 0. -1.
        -13    1    4    4    0    0 -0.64632587767E+01 -0.48669322952E+01 -0.20014489657E+02  0.21588230688E+02  0.10566000000E+00 0.  1.
         14    1    4    4    0    0 -0.24428120084E+02 -0.17739211511E+02 -0.77926818925E+02  0.83570340335E+02  0.00000000000E+00 0. -1.
<mgrwt>
<rscale>  0 0.79158800E+02</rscale>
<asrwt>0</asrwt>
<pdfrwt beam="1">  1        1 0.39918510E-01 0.79158800E+02</pdfrwt>
<pdfrwt beam="2">  1       -2 0.92883243E-03 0.79158800E+02</pdfrwt>
<totfact> 0.18038565E+05</totfact>
</mgrwt>
</event>
<event>
 8    1  0.8577104E-014  0.8018849E+02  0.7818608E-02  0.1328517E+00
          1   -1    0    0  501    0  0.00000000000E+00  0.00000000000E+00  0.49567860849E+02  0.49567861105E+02  0.50400000000E-02 0. -1.
         -2   -1    0    0    0  501 -0.00000000000E+00 -0.00000000000E+00 -0.32431262201E+02  0.32431262301E+02  0.25500000000E-02 0.  1.
        -24    2    1    2    0    0  0.00000000000E+00  0.00000000000E+00  0.17136598648E+02  0.81999123407E+02  0.80188485621E+02 0.  0.
         66    2    3    3    0    0 -0.29646735059E+02 -0.10041951502E+01 -0.18971694016E+02  0.35268434660E+02  0.20000004909E+01 0.  0.
         13    1    3    3    0    0  0.29646735059E+02  0.10041951502E+01  0.36108292664E+02  0.46730688747E+02  0.10566000000E+00 0. -1.
         13    1    4    4    0    0 -0.98382392321E+00  0.18568107999E+00 -0.49031787833E+00  0.11198047297E+01  0.10566000000E+00 0. -1.
        -13    1    4    4    0    0 -0.12642719922E+02 -0.18712600665E+00 -0.87648590010E+01  0.15385294944E+02  0.10566000000E+00 0.  1.
         14    1    4    4    0    0 -0.16020191214E+02 -0.10027502235E+01 -0.97165171365E+01  0.18763334987E+02  0.00000000000E+00 0. -1.
<mgrwt>
<rscale>  0 0.80188486E+02</rscale>
<asrwt>0</asrwt>
<pdfrwt beam="1">  1        1 0.76258248E-02 0.80188486E+02</pdfrwt>
<pdfrwt beam="2">  1       -2 0.49894250E-02 0.80188486E+02</pdfrwt>
<totfact> 0.13053375E+05</totfact>
</mgrwt>
</event>
<event>
 8    1  0.8577104E-014  0.8105732E+02  0.7818608E-02  0.1326077E+00
          1   -1    0    0  501    0  0.00000000000E+00  0.00000000000E+00  0.19356289442E+02  0.19356290098E+02  0.50400000000E-02 0. -1.
         -2   -1    0    0    0  501 -0.00000000000E+00 -0.00000000000E+00 -0.84859864333E+02  0.84859864371E+02  0.25500000000E-02 0.  1.
        -24    2    1    2    0    0  0.00000000000E+00  0.00000000000E+00 -0.65503574891E+02  0.10421615447E+03  0.81057316320E+02 0.  0.
         66    2    3    3    0    0 -0.19099217085E+02 -0.20487770603E+02 -0.70389127468E+02  0.75783626873E+02  0.19999996781E+01 0.  0.
         13    1    3    3    0    0  0.19099217085E+02  0.20487770603E+02  0.48855525778E+01  0.28432527597E+02  0.10566000000E+00 0. -1.
         13    1    4    4    0    0 -0.31771189324E+01 -0.32324694671E+01 -0.10161708670E+02  0.11127193298E+02  0.10566000000E+00 0. -1.
        -13    1    4    4    0    0 -0.99713319524E+01 -0.10222944098E+02 -0.38054437659E+02  0.40645878469E+02  0.10566000000E+00 0.  1.
        -14    1    4    4    0    0 -0.59507662001E+01 -0.70323570376E+01 -0.22172981139E+02  0.24010555105E+02  0.00000000000E+00 0.  1.
<mgrwt>
<rscale>  0 0.81057316E+02</rscale>
<asrwt>0</asrwt>
<pdfrwt beam="1">  1        1 0.29778908E-02 0.81057316E+02</pdfrwt>
<pdfrwt beam="2">  1       -2 0.13055364E-01 0.81057316E+02</pdfrwt>
<totfact> 0.10668475E+05</totfact>
</mgrwt>
</event>
<event>
 8    1  0.8577104E-014  0.7845501E+02  0.7818608E-02  0.1333494E+00
         -2   -1    0    0    0  501 -0.00000000000E+00  0.00000000000E+00  0.67569067715E+01  0.67569072527E+01  0.25500000000E-02 0.  1.
          1   -1    0    0  501    0  0.00000000000E+00 -0.00000000000E+00 -0.22773688991E+03  0.22773688997E+03  0.50400000000E-02 0. -1.
        -24    2    1    2    0    0  0.00000000000E+00  0.00000000000E+00 -0.22097998314E+03  0.23449379722E+03  0.78455006125E+02 0.  0.
         66    2    3    3    0    0  0.38924275983E+02 -0.29032865224E+01 -0.99676216342E+02  0.10706482353E+03  0.19999997094E+01 0.  0.
         13    1    3    3    0    0 -0.38924275983E+02  0.29032865224E+01 -0.12130376680E+03  0.12742897370E+03  0.10566000000E+00 0. -1.
         13    1    4    4    0    0  0.11290873035E+02 -0.33254369863E+00 -0.27303915822E+02  0.29548424365E+02  0.10566000000E+00 0. -1.
        -13    1    4    4    0    0  0.12900983463E+02 -0.11050767267E+01 -0.32547046902E+02  0.35028245674E+02  0.10566000000E+00 0.  1.
         14    1    4    4    0    0  0.14732419485E+02 -0.14656660971E+01 -0.39825253618E+02  0.42488153487E+02  0.00000000000E+00 0. -1.
<mgrwt>
<rscale>  0 0.78455006E+02</rscale>
<asrwt>0</asrwt>
<pdfrwt beam="1">  1        1 0.35036439E-01 0.78455006E+02</pdfrwt>
<pdfrwt beam="2">  1       -2 0.10395243E-02 0.78455006E+02</pdfrwt>
<totfact> 0.18006744E+05</totfact>
</mgrwt>
</event>
<event>
 8    1  0.8577104E-014  0.7961096E+02  0.7818608E-02  0.1330159E+00
          1   -1    0    0  501    0  0.00000000000E+00  0.00000000000E+00  0.55198838875E+03  0.55198838877E+03  0.50400000000E-02 0. -1.
         -2   -1    0    0    0  501 -0.00000000000E+00 -0.00000000000E+00 -0.28704876124E+01  0.28704887450E+01  0.25500000000E-02 0.  1.
        -24    2    1    2    0    0  0.00000000000E+00  0.71054273576E-14  0.54911790114E+03  0.55485887752E+03  0.79610957856E+02 0.  0.
         66    2    3    3    0    0  0.20457298739E+02 -0.33523635816E+02  0.31888640920E+03  0.32130184749E+03  0.20000000747E+01 0.  0.
         13    1    3    3    0    0 -0.20457298739E+02  0.33523635816E+02  0.23023149194E+03  0.23355703003E+03  0.10566000000E+00 0. -1.
         13    1    4    4    0    0  0.11715575914E+02 -0.20010035226E+02  0.18266711057E+03  0.18413294294E+03  0.10566000000E+00 0. -1.
        -13    1    4    4    0    0  0.79870905215E+01 -0.12176609244E+02  0.12142303208E+03  0.12229320223E+03  0.10566000000E+00 0.  1.
         14    1    4    4    0    0  0.75463230356E+00 -0.13369913446E+01  0.14796266549E+02  0.14875702322E+02  0.00000000000E+00 0. -1.
<mgrwt>
<rscale>  0 0.79610958E+02</rscale>
<asrwt>0</asrwt>
<pdfrwt beam="1">  1        1 0.84921259E-01 0.79610958E+02</pdfrwt>
<pdfrwt beam="2">  1       -2 0.44161373E-03 0.79610958E+02</pdfrwt>
<totfact> 0.20065847E+05</totfact>
</mgrwt>
</event>
<event>
 8    1  0.8577104E-014  0.8661095E+02  0.7818608E-02  0.1311273E+00
         -2   -1    0    0    0  501 -0.00000000000E+00  0.00000000000E+00  0.33267591521E+03  0.33267591522E+03  0.25500000000E-02 0.  1.
          1   -1    0    0  501    0  0.00000000000E+00 -0.00000000000E+00 -0.56372089000E+01  0.56372111530E+01  0.50400000000E-02 0. -1.
        -24    2    1    2    0    0  0.35527136788E-14  0.00000000000E+00  0.32703870631E+03  0.33831312637E+03  0.86610946486E+02 0.  0.
         66    2    3    3    0    0 -0.22831951056E+02  0.34638329497E+02  0.21180336701E+03  0.21583738818E+03  0.19999995543E+01 0.  0.
         13    1    3    3    0    0  0.22831951056E+02 -0.34638329497E+02  0.11523533930E+03  0.12247573820E+03  0.10566000000E+00 0. -1.
         13    1    4    4    0    0 -0.28446317640E-01  0.19444748839E+00  0.10603976369E+01  0.10836171846E+01  0.10566000000E+00 0. -1.
        -13    1    4    4    0    0 -0.14712144888E+02  0.22557845525E+02  0.13784475205E+03  0.14045102504E+03  0.10566000000E+00 0.  1.
         14    1    4    4    0    0 -0.80913598512E+01  0.11886036483E+02  0.72898217321E+02  0.74302745953E+02  0.00000000000E+00 0. -1.
<mgrwt>
<rscale>  0 0.86610946E+02</rscale>
<asrwt>0</asrwt>
<pdfrwt beam="1">  1        1 0.86726320E-03 0.86610946E+02</pdfrwt>
<pdfrwt beam="2">  1       -2 0.51180903E-01 0.86610946E+02</pdfrwt>
<totfact> 0.53960429E+04</totfact>
</mgrwt>
</event>
<event>
 8    1  0.8577104E-014  0.8312368E+02  0.7818608E-02  0.1320414E+00
         -2   -1    0    0    0  501 -0.00000000000E+00  0.00000000000E+00  0.40808371836E+03  0.40808371837E+03  0.25500000000E-02 0.  1.
          1   -1    0    0  501    0  0.00000000000E+00 -0.00000000000E+00 -0.42329202633E+01  0.42329232638E+01  0.50400000000E-02 0. -1.
        -24    2    1    2    0    0  0.00000000000E+00  0.00000000000E+00  0.40385079809E+03  0.41231664163E+03  0.83123677993E+02 0.  0.
         66    2    3    3    0    0  0.32745004637E+02  0.40219380420E+01  0.32723081910E+03  0.32889575899E+03  0.20000005827E+01 0.  0.
         13    1    3    3    0    0 -0.32745004637E+02 -0.40219380420E+01  0.76619978998E+02  0.83420882638E+02  0.10566000000E+00 0. -1.
         13    1    4    4    0    0  0.12312213431E+02  0.16113149097E+01  0.11567544204E+03  0.11634004466E+03  0.10566000000E+00 0. -1.
        -13    1    4    4    0    0  0.17364950793E+02  0.23135571539E+01  0.18222941746E+03  0.18306956551E+03  0.10566000000E+00 0.  1.
        -14    1    4    4    0    0  0.30678404128E+01  0.97065978336E-01  0.29325959597E+02  0.29486148831E+02  0.00000000000E+00 0.  1.
<mgrwt>
<rscale>  0 0.83123678E+02</rscale>
<asrwt>0</asrwt>
<pdfrwt beam="1">  1        1 0.65121871E-03 0.83123678E+02</pdfrwt>
<pdfrwt beam="2">  1       -2 0.62782113E-01 0.83123678E+02</pdfrwt>
<totfact> 0.52807276E+04</totfact>
</mgrwt>
</event>
<event>
 8    1  0.8577104E-014  0.8032984E+02  0.7818608E-02  0.1328118E+00
          1   -1    0    0  501    0  0.00000000000E+00  0.00000000000E+00  0.17224237484E+03  0.17224237492E+03  0.50400000000E-02 0. -1.
         -2   -1    0    0    0  501 -0.00000000000E+00 -0.00000000000E+00 -0.93659923326E+01  0.93659926798E+01  0.25500000000E-02 0.  1.
        -24    2    1    2    0    0  0.00000000000E+00  0.35527136788E-14  0.16287638251E+03  0.18160836760E+03  0.80329840043E+02 0.  0.
         66    2    3    3    0    0 -0.21980875739E+02 -0.29839917467E+02  0.46637525824E+02  0.59604013000E+02  0.19999945107E+01 0.  0.
         13    1    3    3    0    0  0.21980875739E+02  0.29839917467E+02  0.11623885669E+03  0.12200435460E+03  0.10566000000E+00 0. -1.
         13    1    4    4    0    0 -0.79792412927E+01 -0.10319578113E+02  0.17615585139E+02  0.21919899358E+02  0.10566000000E+00 0. -1.
        -13    1    4    4    0    0 -0.63397006443E+00 -0.68153270131E+00  0.10536350933E+01  0.14098637562E+01  0.10566000000E+00 0.  1.
        -14    1    4    4    0    0 -0.13367664382E+02 -0.18838806652E+02  0.27968305592E+02  0.36274249886E+02  0.00000000000E+00 0.  1.
<mgrwt>
<rscale>  0 0.80329840E+02</rscale>
<asrwt>0</asrwt>
<pdfrwt beam="1">  1        1 0.26498825E-01 0.80329840E+02</pdfrwt>
<pdfrwt beam="2">  1       -2 0.14409221E-02 0.80329840E+02</pdfrwt>
<totfact> 0.16025297E+05</totfact>
</mgrwt>
</event>
<event>
 8    1  0.8577104E-014  0.8032061E+02  0.7818608E-02  0.1328144E+00
          1   -1    0    0  501    0  0.00000000000E+00  0.00000000000E+00  0.47257095197E+01  0.47257122073E+01  0.50400000000E-02 0. -1.
         -2   -1    0    0    0  501 -0.00000000000E+00 -0.00000000000E+00 -0.34129256381E+03  0.34129256382E+03  0.25500000000E-02 0.  1.
        -24    2    1    2    0    0 -0.35527136788E-14  0.17763568394E-14 -0.33656685429E+03  0.34601827603E+03  0.80320607180E+02 0.  0.
         66    2    3    3    0    0 -0.23246906827E+02  0.14898912468E+02 -0.29387046653E+03  0.29517155576E+03  0.19999907764E+01 0.  0.
         13    1    3    3    0    0  0.23246906827E+02 -0.14898912468E+02 -0.42696387759E+02  0.50846720263E+02  0.10566000000E+00 0. -1.
         13    1    4    4    0    0 -0.40052206213E+01  0.31733636843E+01 -0.49075611131E+02  0.49341045806E+02  0.10566000000E+00 0. -1.
        -13    1    4    4    0    0 -0.46137937030E+01  0.31040490686E+01 -0.60024094968E+02  0.60281218914E+02  0.10566000000E+00 0.  1.
         14    1    4    4    0    0 -0.14627892503E+02  0.86214997154E+01 -0.18477076043E+03  0.18554929104E+03  0.00000000000E+00 0. -1.
<mgrwt>
<rscale>  0 0.80320607E+02</rscale>
<asrwt>0</asrwt>
<pdfrwt beam="1">  1        1 0.72703271E-03 0.80320607E+02</pdfrwt>
<pdfrwt beam="2">  1       -2 0.52506529E-01 0.80320607E+02</pdfrwt>
<totfact> 0.64623731E+04</totfact>
</mgrwt>
</event>
<event>
 8    1  0.8577104E-014  0.8060190E+02  0.7818608E-02  0.1327352E+00
          1   -1    0    0  501    0  0.00000000000E+00  0.00000000000E+00  0.40766437487E+02  0.40766437799E+02  0.50400000000E-02 0. -1.
         -2   -1    0    0    0  501 -0.00000000000E+00 -0.00000000000E+00 -0.39840780105E+02  0.39840780187E+02  0.25500000000E-02 0.  1.
        -24    2    1    2    0    0  0.35527136788E-14  0.00000000000E+00  0.92565738191E+00  0.80607217986E+02  0.80601902892E+02 0.  0.
         66    2    3    3    0    0  0.30266667686E+02 -0.49724651372E+01 -0.25641580379E+02  0.40028579903E+02  0.19999955901E+01 0.  0.
         13    1    3    3    0    0 -0.30266667686E+02  0.49724651372E+01  0.26567237761E+02  0.40578638083E+02  0.10566000000E+00 0. -1.
         13    1    4    4    0    0  0.98662216015E+01 -0.12663838917E+01 -0.81130655199E+01  0.12836629348E+02  0.10566000000E+00 0.  1.
        -13    1    4    4    0    0  0.14145960107E+02 -0.30822202515E+01 -0.12821114602E+02  0.19339090276E+02  0.10566000000E+00 0. -1.
        -14    1    4    4    0    0  0.62544859769E+01 -0.62386099405E+00 -0.47074002571E+01  0.78528602786E+01  0.00000000000E+00 0.  1.
<mgrwt>
<rscale>  0 0.80601903E+02</rscale>
<asrwt>0</asrwt>
<pdfrwt beam="1">  1        1 0.62717596E-02 0.80601903E+02</pdfrwt>
<pdfrwt beam="2">  1       -2 0.61293508E-02 0.80601903E+02</pdfrwt>
<totfact> 0.12470658E+05</totfact>
</mgrwt>
</event>
<event>
 8    1  0.8577104E-014  0.8094651E+02  0.7818608E-02  0.1326387E+00
          1   -1    0    0  501    0  0.00000000000E+00  0.00000000000E+00  0.23641747553E+02  0.23641748090E+02  0.50400000000E-02 0. -1.
         -2   -1    0    0    0  501 -0.00000000000E+00 -0.00000000000E+00 -0.69287778115E+02  0.69287778162E+02  0.25500000000E-02 0.  1.
        -24    2    1    2    0    0  0.00000000000E+00  0.00000000000E+00 -0.45646030562E+02  0.92929526252E+02  0.80946505442E+02 0.  0.
         66    2    3    3    0    0  0.23037712176E+02  0.32061249437E+02 -0.12735539404E+02  0.41531360038E+02  0.20000012434E+01 0.  0.
         13    1    3    3    0    0 -0.23037712176E+02 -0.32061249437E+02 -0.32910491158E+02  0.51398166213E+02  0.10566000000E+00 0. -1.
         13    1    4    4    0    0  0.12029331504E+02  0.15416169227E+02 -0.66355113725E+01  0.20649558476E+02  0.10566000000E+00 0.  1.
        -13    1    4    4    0    0  0.20764315750E+00  0.30400022769E+00 -0.11230235201E+00  0.39913365325E+00  0.10566000000E+00 0.  1.
        -14    1    4    4    0    0  0.10800737515E+02  0.16341079982E+02 -0.59877256794E+01  0.20482667909E+02  0.00000000000E+00 0.  1.
<mgrwt>
<rscale>  0 0.80946505E+02</rscale>
<asrwt>0</asrwt>
<pdfrwt beam="1">  1        1 0.36371920E-02 0.80946505E+02</pdfrwt>
<pdfrwt beam="2">  1       -2 0.10659658E-01 0.80946505E+02</pdfrwt>
<totfact> 0.11175811E+05</totfact>
</mgrwt>
</event>
<event>
 8    1  0.8577104E-014  0.8245821E+02  0.7818608E-02  0.1322217E+00
          1   -1    0    0  501    0  0.00000000000E+00  0.00000000000E+00  0.15400251539E+02  0.15400252363E+02  0.50400000000E-02 0. -1.
         -2   -1    0    0    0  501 -0.00000000000E+00 -0.00000000000E+00 -0.11037736634E+03  0.11037736637E+03  0.25500000000E-02 0.  1.
        -24    2    1    2    0    0  0.71054273576E-14 -0.22204460493E-15 -0.94977114800E+02  0.12577761873E+03  0.82458213891E+02 0.  0.
         66    2    3    3    0    0 -0.38411063537E+02  0.64657661309E+00 -0.70243943994E+02  0.80087698995E+02  0.19999997618E+01 0.  0.
         13    1    3    3    0    0  0.38411063537E+02 -0.64657661309E+00 -0.24733170806E+02  0.45689919736E+02  0.10566000000E+00 0. -1.
         13    1    4    4    0    0 -0.10305655339E+02 -0.45336322441E+00 -0.17854114320E+02  0.20620199620E+02  0.10566000000E+00 0. -1.
        -13    1    4    4    0    0 -0.10418433078E+02  0.52044971532E+00 -0.18725875320E+02  0.21435582247E+02  0.10566000000E+00 0.  1.
         14    1    4    4    0    0 -0.17686975121E+02  0.57949012218E+00 -0.33663954354E+02  0.38031917129E+02  0.00000000000E+00 0. -1.
<mgrwt>
<rscale>  0 0.82458214E+02</rscale>
<asrwt>0</asrwt>
<pdfrwt beam="1">  1        1 0.23692696E-02 0.82458214E+02</pdfrwt>
<pdfrwt beam="2">  1       -2 0.16981133E-01 0.82458214E+02</pdfrwt>
<totfact> 0.95744773E+04</totfact>
</mgrwt>
</event>
<event>
 8    1  0.8577104E-014  0.8172687E+02  0.7818608E-02  0.1324221E+00
          1   -1    0    0  501    0  0.00000000000E+00  0.00000000000E+00  0.25979259610E+03  0.25979259615E+03  0.50400000000E-02 0. -1.
         -2   -1    0    0    0  501 -0.00000000000E+00 -0.00000000000E+00 -0.64275123423E+01  0.64275128481E+01  0.25500000000E-02 0.  1.
        -24    2    1    2    0    0  0.00000000000E+00  0.00000000000E+00  0.25336508376E+03  0.26622010900E+03  0.81726866860E+02 0.  0.
         66    2    3    3    0    0  0.16354007939E+02  0.35670881455E+02  0.89911726605E+02  0.98122290784E+02  0.20000020442E+01 0.  0.
         13    1    3    3    0    0 -0.16354007939E+02 -0.35670881455E+02  0.16345335715E+03  0.16809781821E+03  0.10566000000E+00 0. -1.
         13    1    4    4    0    0  0.42055029687E+01  0.82706067154E+01  0.19549483540E+02  0.21639839680E+02  0.10566000000E+00 0. -1.
        -13    1    4    4    0    0  0.59349782170E+01  0.13600440268E+02  0.35540914661E+02  0.38514461192E+02  0.10566000000E+00 0.  1.
         14    1    4    4    0    0  0.62135267532E+01  0.13799834471E+02  0.34821328403E+02  0.37967989911E+02  0.00000000000E+00 0. -1.
<mgrwt>
<rscale>  0 0.81726867E+02</rscale>
<asrwt>0</asrwt>
<pdfrwt beam="1">  1        1 0.39968103E-01 0.81726867E+02</pdfrwt>
<pdfrwt beam="2">  1       -2 0.98884782E-03 0.81726867E+02</pdfrwt>
<totfact> 0.16582421E+05</totfact>
</mgrwt>
</event>
<event>
 8    1  0.8577104E-014  0.8131861E+02  0.7818608E-02  0.1325351E+00
         -2   -1    0    0    0  501 -0.00000000000E+00  0.00000000000E+00  0.21280371514E+03  0.21280371516E+03  0.25500000000E-02 0.  1.
          1   -1    0    0  501    0  0.00000000000E+00 -0.00000000000E+00 -0.77685630471E+01  0.77685646820E+01  0.50400000000E-02 0. -1.
        -24    2    1    2    0    0 -0.88817841970E-15  0.00000000000E+00  0.20503515210E+03  0.22057227984E+03  0.81318614345E+02 0.  0.
         66    2    3    3    0    0  0.69144226634E+01  0.12441275989E+02  0.20581565053E+03  0.20631693239E+03  0.20000003094E+01 0.  0.
         13    1    3    3    0    0 -0.69144226634E+01 -0.12441275989E+02 -0.78049843126E+00  0.14255347447E+02  0.10566000000E+00 0. -1.
         13    1    4    4    0    0  0.88957334772E+00  0.16063263192E+01  0.27544357173E+02  0.27605695084E+02  0.10566000000E+00 0.  1.
        -13    1    4    4    0    0  0.45942710523E+01  0.84638093181E+01  0.14824463770E+03  0.14855715117E+03  0.10566000000E+00 0.  1.
        -14    1    4    4    0    0  0.14305782634E+01  0.23711403515E+01  0.30026655655E+02  0.30154086133E+02  0.00000000000E+00 0.  1.
<mgrwt>
<rscale>  0 0.81318614E+02</rscale>
<asrwt>0</asrwt>
<pdfrwt beam="1">  1        1 0.11951635E-02 0.81318614E+02</pdfrwt>
<pdfrwt beam="2">  1       -2 0.32739037E-01 0.81318614E+02</pdfrwt>
<totfact> 0.79486777E+04</totfact>
</mgrwt>
</event>
<event>
 8    1  0.8577104E-014  0.8022962E+02  0.7818608E-02  0.1328401E+00
          1   -1    0    0  501    0  0.00000000000E+00  0.00000000000E+00  0.64635183534E+02  0.64635183730E+02  0.50400000000E-02 0. -1.
         -2   -1    0    0    0  501 -0.00000000000E+00 -0.00000000000E+00 -0.24896626715E+02  0.24896626846E+02  0.25500000000E-02 0.  1.
        -24    2    1    2    0    0  0.88817841970E-15  0.00000000000E+00  0.39738556819E+02  0.89531810576E+02  0.80229621755E+02 0.  0.
         66    2    3    3    0    0 -0.61407249011E+01 -0.92463205250E+01 -0.23107486142E+02  0.25713010639E+02  0.20000136885E+01 0.  0.
         13    1    3    3    0    0  0.61407249011E+01  0.92463205250E+01  0.62846042961E+02  0.63818799937E+02  0.10566000000E+00 0. -1.
         13    1    4    4    0    0 -0.99709752590E+00 -0.10090504177E+01 -0.40066879826E+01  0.42517171645E+01  0.10566000000E+00 0.  1.
        -13    1    4    4    0    0 -0.48297836280E+00 -0.12398815126E+01 -0.19850291883E+01  0.23920867832E+01  0.10566000000E+00 0. -1.
        -14    1    4    4    0    0 -0.46606490124E+01 -0.69973885947E+01 -0.17115768971E+02  0.19069206691E+02  0.00000000000E+00 0.  1.
<mgrwt>
<rscale>  0 0.80229622E+02</rscale>
<asrwt>0</asrwt>
<pdfrwt beam="1">  1        1 0.99438744E-02 0.80229622E+02</pdfrwt>
<pdfrwt beam="2">  1       -2 0.38302503E-02 0.80229622E+02</pdfrwt>
<totfact> 0.13589900E+05</totfact>
</mgrwt>
</event>
<event>
 8    1  0.8577104E-014  0.8953400E+02  0.7818608E-02  0.1303984E+00
          1   -1    0    0  501    0  0.00000000000E+00  0.00000000000E+00  0.19006607867E+02  0.19006608535E+02  0.50400000000E-02 0. -1.
         -2   -1    0    0    0  501 -0.00000000000E+00 -0.00000000000E+00 -0.10544145021E+03  0.10544145024E+03  0.25500000000E-02 0.  1.
        -24    2    1    2    0    0  0.00000000000E+00  0.00000000000E+00 -0.86434842345E+02  0.12444805878E+03  0.89534001153E+02 0.  0.
         66    2    3    3    0    0 -0.29508498386E+01  0.28549340501E+02 -0.90951114782E+02  0.95393278818E+02  0.20000014338E+01 0.  0.
         13    1    3    3    0    0  0.29508498386E+01 -0.28549340501E+02  0.45162724370E+01  0.29054779961E+02  0.10566000000E+00 0. -1.
         13    1    4    4    0    0 -0.13599237670E+01  0.83203108749E+01 -0.24924668775E+02  0.26312112103E+02  0.10566000000E+00 0. -1.
        -13    1    4    4    0    0 -0.72139832459E+00  0.92415344203E+01 -0.31818280713E+02  0.33141220943E+02  0.10566000000E+00 0.  1.
         14    1    4    4    0    0 -0.86952774696E+00  0.10987495206E+02 -0.34208165293E+02  0.35939945773E+02  0.00000000000E+00 0. -1.
<mgrwt>
<rscale>  0 0.89534001E+02</rscale>
<asrwt>0</asrwt>
<pdfrwt beam="1">  1        1 0.29240936E-02 0.89534001E+02</pdfrwt>
<pdfrwt beam="2">  1       -2 0.16221761E-01 0.89534001E+02</pdfrwt>
<totfact> 0.78430853E+04</totfact>
</mgrwt>
</event>
<event>
 8    1  0.8577104E-014  0.7831084E+02  0.7818608E-02  0.1333915E+00
          1   -1    0    0  501    0  0.00000000000E+00  0.00000000000E+00  0.33801312926E+02  0.33801313302E+02  0.50400000000E-02 0. -1.
         -2   -1    0    0    0  501 -0.00000000000E+00 -0.00000000000E+00 -0.45357616719E+02  0.45357616791E+02  0.25500000000E-02 0.  1.
        -24    2    1    2    0    0 -0.71054273576E-14  0.00000000000E+00 -0.11556303794E+02  0.79158930093E+02  0.78310842519E+02 0.  0.
         66    2    3    3    0    0  0.31345376835E+02  0.23293055773E+02 -0.82667810973E+01  0.39967971700E+02  0.19999989895E+01 0.  0.
         13    1    3    3    0    0 -0.31345376835E+02 -0.23293055773E+02 -0.32895226963E+01  0.39190958393E+02  0.10566000000E+00 0. -1.
         13    1    4    4    0    0  0.37423164272E+01  0.30711262696E+01 -0.70290505061E+00  0.48930551143E+01  0.10566000000E+00 0. -1.
        -13    1    4    4    0    0  0.21549898019E+02  0.16021074194E+02 -0.53425336353E+01  0.27379312494E+02  0.10566000000E+00 0.  1.
        -14    1    4    4    0    0  0.60531623887E+01  0.42008553093E+01 -0.22213424113E+01  0.76956040921E+01  0.00000000000E+00 0.  1.
<mgrwt>
<rscale>  0 0.78310843E+02</rscale>
<asrwt>0</asrwt>
<pdfrwt beam="1">  1        1 0.52002020E-02 0.78310843E+02</pdfrwt>
<pdfrwt beam="2">  1       -2 0.69780949E-02 0.78310843E+02</pdfrwt>
<totfact> 0.13119896E+05</totfact>
</mgrwt>
</event>
<event>
 8    1  0.8577104E-014  0.7710923E+02  0.7818608E-02  0.1337461E+00
         -2   -1    0    0    0  501 -0.00000000000E+00  0.00000000000E+00  0.40444098630E+01  0.40444106669E+01  0.25500000000E-02 0.  1.
          1   -1    0    0  501    0  0.00000000000E+00 -0.00000000000E+00 -0.36753399715E+03  0.36753399718E+03  0.50400000000E-02 0. -1.
        -24    2    1    2    0    0  0.00000000000E+00 -0.17763568394E-14 -0.36348958728E+03  0.37157840785E+03  0.77109228470E+02 0.  0.
         66    2    3    3    0    0  0.31567408092E+02  0.15703211409E+02 -0.25673155881E+03  0.25914896371E+03  0.19999998437E+01 0.  0.
         13    1    3    3    0    0 -0.31567408092E+02 -0.15703211409E+02 -0.10675802847E+03  0.11242944414E+03  0.10566000000E+00 0. -1.
         13    1    4    4    0    0  0.12718512066E+02  0.62679021036E+01 -0.10919821830E+03  0.11011498168E+03  0.10566000000E+00 0. -1.
        -13    1    4    4    0    0  0.15144739231E+01  0.65423184389E+00 -0.10325426240E+02  0.10456923144E+02  0.10566000000E+00 0.  1.
         14    1    4    4    0    0  0.17334422103E+02  0.87810774612E+01 -0.13720791427E+03  0.13857705889E+03  0.00000000000E+00 0. -1.
<mgrwt>
<rscale>  0 0.77109228E+02</rscale>
<asrwt>0</asrwt>
<pdfrwt beam="1">  1        1 0.56543666E-01 0.77109228E+02</pdfrwt>
<pdfrwt beam="2">  1       -2 0.62221725E-03 0.77109228E+02</pdfrwt>
<totfact> 0.20621865E+05</totfact>
</mgrwt>
</event>
<event>
 8    1  0.8577104E-014  0.8055912E+02  0.7818608E-02  0.1327472E+00
          1   -1    0    0  501    0  0.00000000000E+00  0.00000000000E+00  0.28407890534E+02  0.28407890981E+02  0.50400000000E-02 0. -1.
         -2   -1    0    0    0  501 -0.00000000000E+00 -0.00000000000E+00 -0.57112405412E+02  0.57112405469E+02  0.25500000000E-02 0.  1.
        -24    2    1    2    0    0  0.00000000000E+00  0.00000000000E+00 -0.28704514878E+02  0.85520296451E+02  0.80559120716E+02 0.  0.
         66    2    3    3    0    0 -0.23891297087E+02 -0.21676344640E+02 -0.39922565131E+02  0.51366031579E+02  0.20000000326E+01 0.  0.
         13    1    3    3    0    0  0.23891297087E+02  0.21676344640E+02  0.11218050252E+02  0.34154264872E+02  0.10566000000E+00 0. -1.
         13    1    4    4    0    0 -0.91421799049E+01 -0.80920793756E+01 -0.15761688528E+02  0.19937482070E+02  0.10566000000E+00 0. -1.
        -13    1    4    4    0    0 -0.11514493594E+01 -0.14928887769E+01 -0.26472251416E+01  0.32516945602E+01  0.10566000000E+00 0.  1.
        -14    1    4    4    0    0 -0.13597667822E+02 -0.12091376487E+02 -0.21513651462E+02  0.28176854948E+02  0.00000000000E+00 0.  1.
<mgrwt>
<rscale>  0 0.80559121E+02</rscale>
<asrwt>0</asrwt>
<pdfrwt beam="1">  1        1 0.43704448E-02 0.80559121E+02</pdfrwt>
<pdfrwt beam="2">  1       -2 0.87865239E-02 0.80559121E+02</pdfrwt>
<totfact> 0.11738771E+05</totfact>
</mgrwt>
</event>
<event>
 8    1  0.8577104E-014  0.7965750E+02  0.7818608E-02  0.1330026E+00
         -2   -1    0    0    0  501 -0.00000000000E+00  0.00000000000E+00  0.35435407441E+02  0.35435407533E+02  0.25500000000E-02 0.  1.
          1   -1    0    0  501    0  0.00000000000E+00 -0.00000000000E+00 -0.44766786332E+02  0.44766786616E+02  0.50400000000E-02 0. -1.
        -24    2    1    2    0    0 -0.35527136788E-14  0.00000000000E+00 -0.93313788911E+01  0.80202194149E+02  0.79657500051E+02 0.  0.
         66    2    3    3    0    0 -0.21962239673E+02  0.30667996619E+02  0.81248919359E+01  0.38637803822E+02  0.20000067854E+01 0.  0.
         13    1    3    3    0    0  0.21962239673E+02 -0.30667996619E+02 -0.17456270827E+02  0.41564390327E+02  0.10566000000E+00 0. -1.
         13    1    4    4    0    0 -0.21012710130E+01  0.34933168426E+01  0.79764375863E+00  0.41552379035E+01  0.10566000000E+00 0. -1.
        -13    1    4    4    0    0 -0.10236616675E+02  0.15162592470E+02  0.43539822910E+01  0.18805872944E+02  0.10566000000E+00 0.  1.
        -14    1    4    4    0    0 -0.96243519848E+01  0.12012087306E+02  0.29732658863E+01  0.15676692974E+02  0.00000000000E+00 0.  1.
<mgrwt>
<rscale>  0 0.79657500E+02</rscale>
<asrwt>0</asrwt>
<pdfrwt beam="1">  1        1 0.68871979E-02 0.79657500E+02</pdfrwt>
<pdfrwt beam="2">  1       -2 0.54516012E-02 0.79657500E+02</pdfrwt>
<totfact> 0.13085293E+05</totfact>
</mgrwt>
</event>
<event>
 8    1  0.8577104E-014  0.7924987E+02  0.7818608E-02  0.1331194E+00
         -2   -1    0    0    0  501 -0.00000000000E+00  0.00000000000E+00  0.12296695541E+03  0.12296695544E+03  0.25500000000E-02 0.  1.
          1   -1    0    0  501    0  0.00000000000E+00 -0.00000000000E+00 -0.12768758669E+02  0.12768759664E+02  0.50400000000E-02 0. -1.
        -24    2    1    2    0    0  0.00000000000E+00  0.00000000000E+00  0.11019819674E+03  0.13573571510E+03  0.79249869330E+02 0.  0.
         66    2    3    3    0    0 -0.16713037383E+02  0.35413010072E+02  0.65226805211E+02  0.76104816054E+02  0.20000019021E+01 0.  0.
         13    1    3    3    0    0  0.16713037383E+02 -0.35413010072E+02  0.44971391533E+02  0.59630899049E+02  0.10566000000E+00 0. -1.
         13    1    4    4    0    0 -0.54636791078E+01  0.10291988993E+02  0.18332595062E+02  0.21722615693E+02  0.10566000000E+00 0. -1.
        -13    1    4    4    0    0 -0.54261760469E+01  0.12551268586E+02  0.24056414696E+02  0.27671284424E+02  0.10566000000E+00 0.  1.
        -14    1    4    4    0    0 -0.58231822284E+01  0.12569752494E+02  0.22837795453E+02  0.26710915936E+02  0.00000000000E+00 0.  1.
<mgrwt>
<rscale>  0 0.79249869E+02</rscale>
<asrwt>0</asrwt>
<pdfrwt beam="1">  1        1 0.19644246E-02 0.79249869E+02</pdfrwt>
<pdfrwt beam="2">  1       -2 0.18917992E-01 0.79249869E+02</pdfrwt>
<totfact> 0.10290761E+05</totfact>
</mgrwt>
</event>
<event>
 8    1  0.8577104E-014  0.7875737E+02  0.7818608E-02  0.1332615E+00
          1   -1    0    0  501    0  0.00000000000E+00  0.00000000000E+00  0.32086086786E+02  0.32086087182E+02  0.50400000000E-02 0. -1.
         -2   -1    0    0    0  501 -0.00000000000E+00 -0.00000000000E+00 -0.48328763675E+02  0.48328763742E+02  0.25500000000E-02 0.  1.
        -24    2    1    2    0    0  0.00000000000E+00  0.00000000000E+00 -0.16242676888E+02  0.80414850924E+02  0.78757372332E+02 0.  0.
         66    2    3    3    0    0  0.25153670424E+01  0.23537934767E+02 -0.40225644884E+02  0.46716848575E+02  0.19999974901E+01 0.  0.
         13    1    3    3    0    0 -0.25153670424E+01 -0.23537934767E+02  0.23982967996E+02  0.33698002350E+02  0.10566000000E+00 0. -1.
         13    1    4    4    0    0  0.56118996038E+00  0.74853408849E+01 -0.12278994709E+02  0.14392016448E+02  0.10566000000E+00 0.  1.
        -13    1    4    4    0    0  0.57735858831E-01  0.21425176146E+00 -0.81672591281E+00  0.85290239708E+00  0.10566000000E+00 0. -1.
        -14    1    4    4    0    0  0.18964412231E+01  0.15838342120E+02 -0.27129924262E+02  0.31471929730E+02  0.00000000000E+00 0.  1.
<mgrwt>
<rscale>  0 0.78757372E+02</rscale>
<asrwt>0</asrwt>
<pdfrwt beam="1">  1        1 0.49363211E-02 0.78757372E+02</pdfrwt>
<pdfrwt beam="2">  1       -2 0.74351945E-02 0.78757372E+02</pdfrwt>
<totfact> 0.12797256E+05</totfact>
</mgrwt>
</event>
<event>
 8    1  0.8577104E-014  0.7787408E+02  0.7818608E-02  0.1335195E+00
          1   -1    0    0  501    0  0.00000000000E+00  0.00000000000E+00  0.26214873090E+02  0.26214873575E+02  0.50400000000E-02 0. -1.
         -2   -1    0    0    0  501 -0.00000000000E+00 -0.00000000000E+00 -0.57833315314E+02  0.57833315370E+02  0.25500000000E-02 0.  1.
        -24    2    1    2    0    0  0.35527136788E-14  0.00000000000E+00 -0.31618442224E+02  0.84048188945E+02  0.77874078975E+02 0.  0.
         66    2    3    3    0    0 -0.30509217377E+02  0.22496376185E+02 -0.25301897297E+02  0.45618913773E+02  0.20000001338E+01 0.  0.
         13    1    3    3    0    0  0.30509217377E+02 -0.22496376185E+02 -0.63165449265E+01  0.38429275172E+02  0.10566000000E+00 0. -1.
         13    1    4    4    0    0 -0.18920265650E+02  0.13780858706E+02 -0.16243302663E+02  0.28491131328E+02  0.10566000000E+00 0. -1.
        -13    1    4    4    0    0 -0.10397482222E+02  0.80959561329E+01 -0.84404001387E+01  0.15649398097E+02  0.10566000000E+00 0.  1.
         14    1    4    4    0    0 -0.11914695055E+01  0.61956134631E+00 -0.61819449531E+00  0.14783843473E+01  0.00000000000E+00 0. -1.
<mgrwt>
<rscale>  0 0.77874079E+02</rscale>
<asrwt>0</asrwt>
<pdfrwt beam="1">  1        1 0.40330575E-02 0.77874079E+02</pdfrwt>
<pdfrwt beam="2">  1       -2 0.88974331E-02 0.77874079E+02</pdfrwt>
<totfact> 0.12758906E+05</totfact>
</mgrwt>
</event>
<event>
 8    1  0.8577104E-014  0.8134003E+02  0.7818608E-02  0.1325291E+00
          1   -1    0    0  501    0  0.00000000000E+00  0.00000000000E+00  0.77535389757E+02  0.77535389920E+02  0.50400000000E-02 0. -1.
         -2   -1    0    0    0  501 -0.00000000000E+00 -0.00000000000E+00 -0.21332840377E+02  0.21332840530E+02  0.25500000000E-02 0.  1.
        -24    2    1    2    0    0  0.00000000000E+00  0.00000000000E+00  0.56202549379E+02  0.98868230450E+02  0.81340029725E+02 0.  0.
         66    2    3    3    0    0 -0.18366683056E+02  0.22906240794E+02 -0.60458755564E+01  0.30043028055E+02  0.20000024114E+01 0.  0.
         13    1    3    3    0    0  0.18366683056E+02 -0.22906240794E+02  0.62248424936E+02  0.68825202396E+02  0.10566000000E+00 0. -1.
         13    1    4    4    0    0 -0.55468051633E+01  0.72262809045E+01 -0.10268872240E+01  0.91679793105E+01  0.10566000000E+00 0. -1.
        -13    1    4    4    0    0 -0.82003758238E+01  0.10325913275E+02 -0.34836690819E+01  0.13638832902E+02  0.10566000000E+00 0.  1.
        -14    1    4    4    0    0 -0.46195020689E+01  0.53540466144E+01 -0.15353192504E+01  0.72362158422E+01  0.00000000000E+00 0.  1.
<mgrwt>
<rscale>  0 0.81340030E+02</rscale>
<asrwt>0</asrwt>
<pdfrwt beam="1">  1        1 0.11928521E-01 0.81340030E+02</pdfrwt>
<pdfrwt beam="2">  1       -2 0.32819756E-02 0.81340030E+02</pdfrwt>
<totfact> 0.13473161E+05</totfact>
</mgrwt>
</event>
<event>
 8    1  0.8577104E-014  0.7876887E+02  0.7818608E-02  0.1332582E+00
         -2   -1    0    0    0  501 -0.00000000000E+00  0.00000000000E+00  0.95492909104E+01  0.95492912509E+01  0.25500000000E-02 0.  1.
          1   -1    0    0  501    0  0.00000000000E+00 -0.00000000000E+00 -0.16243444399E+03  0.16243444407E+03  0.50400000000E-02 0. -1.
        -24    2    1    2    0    0  0.00000000000E+00  0.22204460493E-15 -0.15288515308E+03  0.17198373532E+03  0.78768871911E+02 0.  0.
         66    2    3    3    0    0  0.39300755412E+02  0.14662985682E+01 -0.79894918101E+02  0.89072427443E+02  0.19999961749E+01 0.  0.
         13    1    3    3    0    0 -0.39300755412E+02 -0.14662985682E+01 -0.72990234977E+02  0.82911307874E+02  0.10566000000E+00 0. -1.
         13    1    4    4    0    0  0.12947054006E+02  0.42903689276E+00 -0.24467343817E+02  0.27685237178E+02  0.10566000000E+00 0.  1.
        -13    1    4    4    0    0  0.80020926165E+01  0.60660245329E+00 -0.16463669371E+02  0.18315704353E+02  0.10566000000E+00 0. -1.
        -14    1    4    4    0    0  0.18351608790E+02  0.43065922219E+00 -0.38963904913E+02  0.43071485912E+02  0.00000000000E+00 0.  1.
<mgrwt>
<rscale>  0 0.78768872E+02</rscale>
<asrwt>0</asrwt>
<pdfrwt beam="1">  1        1 0.24989913E-01 0.78768872E+02</pdfrwt>
<pdfrwt beam="2">  1       -2 0.14691218E-02 0.78768872E+02</pdfrwt>
<totfact> 0.16700093E+05</totfact>
</mgrwt>
</event>
<event>
 8    1  0.8577104E-014  0.7788843E+02  0.7818608E-02  0.1335153E+00
         -2   -1    0    0    0  501 -0.00000000000E+00  0.00000000000E+00  0.58446945136E+02  0.58446945191E+02  0.25500000000E-02 0.  1.
          1   -1    0    0  501    0  0.00000000000E+00 -0.00000000000E+00 -0.25949207186E+02  0.25949207676E+02  0.50400000000E-02 0. -1.
        -24    2    1    2    0    0  0.35527136788E-14  0.00000000000E+00  0.32497737950E+02  0.84396152867E+02  0.77888430764E+02 0.  0.
         66    2    3    3    0    0  0.19642937953E+02  0.33596324270E+02  0.16582752324E+02  0.42350273790E+02  0.19999998994E+01 0.  0.
         13    1    3    3    0    0 -0.19642937953E+02 -0.33596324270E+02  0.15914985626E+02  0.42045879077E+02  0.10566000000E+00 0. -1.
         13    1    4    4    0    0  0.13371026047E+02  0.21545747569E+02  0.11053414575E+02  0.27662116941E+02  0.10566000000E+00 0. -1.
        -13    1    4    4    0    0  0.56586773929E+01  0.10946649292E+02  0.52494804655E+01  0.13394699316E+02  0.10566000000E+00 0.  1.
         14    1    4    4    0    0  0.61323451313E+00  0.11039274086E+01  0.27985728282E+00  0.12934575332E+01  0.00000000000E+00 0. -1.
<mgrwt>
<rscale>  0 0.77888431E+02</rscale>
<asrwt>0</asrwt>
<pdfrwt beam="1">  1        1 0.39921858E-02 0.77888431E+02</pdfrwt>
<pdfrwt beam="2">  1       -2 0.89918377E-02 0.77888431E+02</pdfrwt>
<totfact> 0.12728511E+05</totfact>
</mgrwt>
</event>
<event>
 8    1  0.8577104E-014  0.7717370E+02  0.7818608E-02  0.1337269E+00
         -2   -1    0    0    0  501 -0.00000000000E+00  0.00000000000E+00  0.26919386875E+01  0.26919398952E+01  0.25500000000E-02 0.  1.
          1   -1    0    0  501    0  0.00000000000E+00 -0.00000000000E+00 -0.55311241798E+03  0.55311241800E+03  0.50400000000E-02 0. -1.
        -24    2    1    2    0    0  0.35527136788E-14  0.00000000000E+00 -0.55042047929E+03  0.55580435789E+03  0.77173701699E+02 0.  0.
         66    2    3    3    0    0 -0.16188230388E+02 -0.28164251235E+02 -0.42502558556E+03  0.42626990538E+03  0.20000004823E+01 0.  0.
         13    1    3    3    0    0  0.16188230388E+02  0.28164251235E+02 -0.12539489373E+03  0.12953445252E+03  0.10566000000E+00 0. -1.
         13    1    4    4    0    0 -0.55783918240E+00 -0.16301064801E+01 -0.26090659492E+02  0.26147697957E+02  0.10566000000E+00 0. -1.
        -13    1    4    4    0    0 -0.14668802375E+02 -0.25154824306E+02 -0.37733751131E+03  0.37845943978E+03  0.10566000000E+00 0.  1.
         14    1    4    4    0    0 -0.96158883079E+00 -0.13793204490E+01 -0.21597414753E+02  0.21662767644E+02  0.00000000000E+00 0. -1.
<mgrwt>
<rscale>  0 0.77173702E+02</rscale>
<asrwt>0</asrwt>
<pdfrwt beam="1">  1        1 0.85094128E-01 0.77173702E+02</pdfrwt>
<pdfrwt beam="2">  1       -2 0.41414495E-03 0.77173702E+02</pdfrwt>
<totfact> 0.21767802E+05</totfact>
</mgrwt>
</event>
<event>
 8    1  0.8577104E-014  0.8095463E+02  0.7818608E-02  0.1326364E+00
         -2   -1    0    0    0  501 -0.00000000000E+00  0.00000000000E+00  0.15839023286E+02  0.15839023491E+02  0.25500000000E-02 0.  1.
          1   -1    0    0  501    0  0.00000000000E+00 -0.00000000000E+00 -0.10344154539E+03  0.10344154551E+03  0.50400000000E-02 0. -1.
        -24    2    1    2    0    0 -0.35527136788E-14 -0.35527136788E-14 -0.87602522104E+02  0.11928056900E+03  0.80954630891E+02 0.  0.
         66    2    3    3    0    0  0.20223775247E+02  0.24276833595E+02 -0.66099436671E+01  0.32342805859E+02  0.20000002329E+01 0.  0.
         13    1    3    3    0    0 -0.20223775247E+02 -0.24276833595E+02 -0.80992578437E+02  0.86937763145E+02  0.10566000000E+00 0. -1.
         13    1    4    4    0    0  0.28399235121E+01  0.28360765916E+01 -0.12077002590E+01  0.41926363949E+01  0.10566000000E+00 0. -1.
        -13    1    4    4    0    0  0.95441098370E+01  0.11353913305E+02 -0.23829127830E+01  0.15023009594E+02  0.10566000000E+00 0.  1.
         14    1    4    4    0    0  0.78397418979E+01  0.10086843698E+02 -0.30193306250E+01  0.13127159870E+02  0.00000000000E+00 0. -1.
<mgrwt>
<rscale>  0 0.80954631E+02</rscale>
<asrwt>0</asrwt>
<pdfrwt beam="1">  1        1 0.15914084E-01 0.80954631E+02</pdfrwt>
<pdfrwt beam="2">  1       -2 0.24367729E-02 0.80954631E+02</pdfrwt>
<totfact> 0.14317026E+05</totfact>
</mgrwt>
</event>
<event>
 8    1  0.8577104E-014  0.7955984E+02  0.7818608E-02  0.1330305E+00
          1   -1    0    0  501    0  0.00000000000E+00  0.00000000000E+00  0.15091344271E+02  0.15091345112E+02  0.50400000000E-02 0. -1.
         -2   -1    0    0    0  501 -0.00000000000E+00 -0.00000000000E+00 -0.10485758099E+03  0.10485758102E+03  0.25500000000E-02 0.  1.
        -24    2    1    2    0    0  0.00000000000E+00  0.00000000000E+00 -0.89766236720E+02  0.11994892613E+03  0.79559836764E+02 0.  0.
         66    2    3    3    0    0  0.47666804714E+01  0.98997904755E+01 -0.10251316216E+03  0.10311971443E+03  0.19999985841E+01 0.  0.
         13    1    3    3    0    0 -0.47666804714E+01 -0.98997904755E+01  0.12746925442E+02  0.16829211700E+02  0.10566000000E+00 0. -1.
         13    1    4    4    0    0  0.78626191933E+00  0.17372144968E+01 -0.14641715192E+02  0.14765741086E+02  0.10566000000E+00 0.  1.
        -13    1    4    4    0    0  0.38553093984E+01  0.81015740027E+01 -0.83577164101E+02  0.84057435335E+02  0.10566000000E+00 0.  1.
        -14    1    4    4    0    0  0.12510915365E+00  0.61001976043E-01 -0.42942828694E+01  0.42965380138E+01  0.00000000000E+00 0.  1.
<mgrwt>
<rscale>  0 0.79559837E+02</rscale>
<asrwt>0</asrwt>
<pdfrwt beam="1">  1        1 0.23217454E-02 0.79559837E+02</pdfrwt>
<pdfrwt beam="2">  1       -2 0.16131935E-01 0.79559837E+02</pdfrwt>
<totfact> 0.10635850E+05</totfact>
</mgrwt>
</event>
<event>
 8    1  0.8577104E-014  0.7926984E+02  0.7818608E-02  0.1331136E+00
         -2   -1    0    0    0  501 -0.00000000000E+00  0.00000000000E+00  0.25310486324E+02  0.25310486453E+02  0.25500000000E-02 0.  1.
          1   -1    0    0  501    0  0.00000000000E+00 -0.00000000000E+00 -0.62066241681E+02  0.62066241886E+02  0.50400000000E-02 0. -1.
        -24    2    1    2    0    0  0.00000000000E+00  0.00000000000E+00 -0.36755755357E+02  0.87376728339E+02  0.79269837286E+02 0.  0.
         66    2    3    3    0    0 -0.17738710903E+02  0.27794860149E+02  0.58028426944E+01  0.33539366337E+02  0.19999989392E+01 0.  0.
         13    1    3    3    0    0  0.17738710903E+02 -0.27794860149E+02 -0.42558598051E+02  0.53837362002E+02  0.10566000000E+00 0. -1.
         13    1    4    4    0    0 -0.17150866272E+01  0.37649086979E+01  0.51630757623E+00  0.41705871519E+01  0.10566000000E+00 0. -1.
        -13    1    4    4    0    0 -0.23385728810E+01  0.31736868255E+01  0.68599862767E+00  0.40028701376E+01  0.10566000000E+00 0.  1.
        -14    1    4    4    0    0 -0.13685051395E+02  0.20856264625E+02  0.46005364905E+01  0.25365909047E+02  0.00000000000E+00 0.  1.
<mgrwt>
<rscale>  0 0.79269837E+02</rscale>
<asrwt>0</asrwt>
<pdfrwt beam="1">  1        1 0.95486526E-02 0.79269837E+02</pdfrwt>
<pdfrwt beam="2">  1       -2 0.38939210E-02 0.79269837E+02</pdfrwt>
<totfact> 0.13958024E+05</totfact>
</mgrwt>
</event>
<event>
 8    1  0.8577104E-014  0.8081566E+02  0.7818608E-02  0.1326753E+00
          1   -1    0    0  501    0  0.00000000000E+00  0.00000000000E+00  0.54132969417E+03  0.54132969419E+03  0.50400000000E-02 0. -1.
         -2   -1    0    0    0  501 -0.00000000000E+00 -0.00000000000E+00 -0.30162624016E+01  0.30162634795E+01  0.25500000000E-02 0.  1.
        -24    2    1    2    0    0  0.00000000000E+00  0.00000000000E+00  0.53831343177E+03  0.54434595767E+03  0.80815659451E+02 0.  0.
         66    2    3    3    0    0  0.69283917243E+01 -0.39534581220E+02  0.29929436758E+03  0.30198030430E+03  0.19999993685E+01 0.  0.
         13    1    3    3    0    0 -0.69283917243E+01  0.39534581220E+02  0.23901906419E+03  0.24236565337E+03  0.10566000000E+00 0. -1.
         13    1    4    4    0    0  0.26561599972E+01 -0.18414566539E+02  0.13741119293E+03  0.13866505888E+03  0.10566000000E+00 0.  1.
        -13    1    4    4    0    0  0.41959029149E+01 -0.19419757206E+02  0.15039578990E+03  0.15170246324E+03  0.10566000000E+00 0. -1.
         14    1    4    4    0    0  0.76328812211E-01 -0.17002574753E+01  0.11487384749E+02  0.11612782180E+02  0.00000000000E+00 0. -1.
<mgrwt>
<rscale>  0 0.80815659E+02</rscale>
<asrwt>0</asrwt>
<pdfrwt beam="1">  1        1 0.83281402E-01 0.80815659E+02</pdfrwt>
<pdfrwt beam="2">  1       -2 0.46404095E-03 0.80815659E+02</pdfrwt>
<totfact> 0.19257146E+05</totfact>
</mgrwt>
</event>
<event>
 8    1  0.8577104E-014  0.7993039E+02  0.7818608E-02  0.1329249E+00
         -2   -1    0    0    0  501 -0.00000000000E+00  0.00000000000E+00  0.37763174634E+02  0.37763174720E+02  0.25500000000E-02 0.  1.
          1   -1    0    0  501    0  0.00000000000E+00 -0.00000000000E+00 -0.42295622192E+02  0.42295622493E+02  0.50400000000E-02 0. -1.
        -24    2    1    2    0    0 -0.17763568394E-14  0.35527136788E-14 -0.45324475582E+01  0.80058797213E+02  0.79930394283E+02 0.  0.
         66    2    3    3    0    0  0.15547881725E+02 -0.23116025069E+02  0.26398694152E+02  0.38431475264E+02  0.19999992333E+01 0.  0.
         13    1    3    3    0    0 -0.15547881725E+02  0.23116025069E+02 -0.30931141710E+02  0.41627321949E+02  0.10566000000E+00 0. -1.
         13    1    4    4    0    0  0.73997790808E+00 -0.80926550537E+00  0.10966661658E+01  0.15544512464E+01  0.10566000000E+00 0. -1.
        -13    1    4    4    0    0  0.59511169447E+01 -0.79166433123E+01  0.85760771214E+01  0.13101499802E+02  0.10566000000E+00 0.  1.
        -14    1    4    4    0    0  0.88567868719E+01 -0.14390116251E+02  0.16725950865E+02  0.23775524216E+02  0.00000000000E+00 0.  1.
<mgrwt>
<rscale>  0 0.79930394E+02</rscale>
<asrwt>0</asrwt>
<pdfrwt beam="1">  1        1 0.65070189E-02 0.79930394E+02</pdfrwt>
<pdfrwt beam="2">  1       -2 0.58097192E-02 0.79930394E+02</pdfrwt>
<totfact> 0.12843774E+05</totfact>
</mgrwt>
</event>
<event>
 8    1  0.8577104E-014  0.7908521E+02  0.7818608E-02  0.1331668E+00
          1   -1    0    0  501    0  0.00000000000E+00  0.00000000000E+00  0.84274055765E+02  0.84274055916E+02  0.50400000000E-02 0. -1.
         -2   -1    0    0    0  501 -0.00000000000E+00 -0.00000000000E+00 -0.18553961946E+02  0.18553962121E+02  0.25500000000E-02 0.  1.
        -24    2    1    2    0    0  0.00000000000E+00  0.00000000000E+00  0.65720093820E+02  0.10282801804E+03  0.79085210765E+02 0.  0.
         66    2    3    3    0    0 -0.53718414953E+00 -0.20374754968E+02 -0.11138501414E+02  0.23312774013E+02  0.20000029102E+01 0.  0.
         13    1    3    3    0    0  0.53718414953E+00  0.20374754968E+02  0.76858595233E+02  0.79515244023E+02  0.10566000000E+00 0. -1.
         13    1    4    4    0    0  0.25490432146E+00 -0.44225386237E+01 -0.28708718764E+01  0.52798573331E+01  0.10566000000E+00 0. -1.
        -13    1    4    4    0    0 -0.49966692532E-01 -0.10522914446E+02 -0.58877472036E+01  0.12058646536E+02  0.10566000000E+00 0.  1.
        -14    1    4    4    0    0 -0.74212177847E+00 -0.54293018983E+01 -0.23798823338E+01  0.59742701445E+01  0.00000000000E+00 0.  1.
<mgrwt>
<rscale>  0 0.79085211E+02</rscale>
<asrwt>0</asrwt>
<pdfrwt beam="1">  1        1 0.12965239E-01 0.79085211E+02</pdfrwt>
<pdfrwt beam="2">  1       -2 0.28544557E-02 0.79085211E+02</pdfrwt>
<totfact> 0.14742654E+05</totfact>
</mgrwt>
</event>
<event>
 8    1  0.8577104E-014  0.8828900E+02  0.7818608E-02  0.1307049E+00
          1   -1    0    0  501    0  0.00000000000E+00  0.00000000000E+00  0.46067843972E+02  0.46067844248E+02  0.50400000000E-02 0. -1.
         -2   -1    0    0    0  501 -0.00000000000E+00 -0.00000000000E+00 -0.42301457353E+02  0.42301457430E+02  0.25500000000E-02 0.  1.
        -24    2    1    2    0    0 -0.17763568394E-14  0.00000000000E+00  0.37663866190E+01  0.88369301678E+02  0.88289001642E+02 0.  0.
         66    2    3    3    0    0 -0.82839874914E+01  0.19497470183E+02 -0.36854481970E+02  0.42556182146E+02  0.20000013363E+01 0.  0.
         13    1    3    3    0    0  0.82839874914E+01 -0.19497470183E+02  0.40620868589E+02  0.45813119532E+02  0.10566000000E+00 0. -1.
         13    1    4    4    0    0 -0.18949218230E+01  0.33078040331E+01 -0.57769673679E+01  0.69221970675E+01  0.10566000000E+00 0. -1.
        -13    1    4    4    0    0 -0.46177600718E-01  0.39790144077E+00 -0.65174659194E+00  0.77226652335E+00  0.10566000000E+00 0.  1.
        -14    1    4    4    0    0 -0.63428880678E+01  0.15791764709E+02 -0.30425768010E+02  0.34861718555E+02  0.00000000000E+00 0.  1.
<mgrwt>
<rscale>  0 0.88289002E+02</rscale>
<asrwt>0</asrwt>
<pdfrwt beam="1">  1        1 0.70873606E-02 0.88289002E+02</pdfrwt>
<pdfrwt beam="2">  1       -2 0.65079165E-02 0.88289002E+02</pdfrwt>
<totfact> 0.98362683E+04</totfact>
</mgrwt>
</event>
<event>
 8    1  0.8577104E-014  0.7938945E+02  0.7818608E-02  0.1330793E+00
          1   -1    0    0  501    0  0.00000000000E+00  0.00000000000E+00  0.17054273024E+03  0.17054273031E+03  0.50400000000E-02 0. -1.
         -2   -1    0    0    0  501 -0.00000000000E+00 -0.00000000000E+00 -0.92391575264E+01  0.92391578783E+01  0.25500000000E-02 0.  1.
        -24    2    1    2    0    0 -0.17763568394E-14 -0.71054273576E-14  0.16130357271E+03  0.17978188819E+03  0.79389449878E+02 0.  0.
         66    2    3    3    0    0 -0.12756726012E+02 -0.36287489677E+02  0.58729596868E+02  0.70233051365E+02  0.19999975164E+01 0.  0.
         13    1    3    3    0    0  0.12756726012E+02  0.36287489677E+02  0.10257397584E+03  0.10954883683E+03  0.10566000000E+00 0. -1.
         13    1    4    4    0    0 -0.58729532261E+01 -0.17033904450E+02  0.28769189101E+02  0.33945881724E+02  0.10566000000E+00 0. -1.
        -13    1    4    4    0    0 -0.72395383001E+00 -0.30836710952E+01  0.46326810664E+01  0.56130236477E+01  0.10566000000E+00 0.  1.
        -14    1    4    4    0    0 -0.61598189556E+01 -0.16169914132E+02  0.25327726701E+02  0.30674145993E+02  0.00000000000E+00 0.  1.
<mgrwt>
<rscale>  0 0.79389450E+02</rscale>
<asrwt>0</asrwt>
<pdfrwt beam="1">  1        1 0.26237343E-01 0.79389450E+02</pdfrwt>
<pdfrwt beam="2">  1       -2 0.14214089E-02 0.79389450E+02</pdfrwt>
<totfact> 0.16504886E+05</totfact>
</mgrwt>
</event>
<event>
 8    1  0.8577104E-014  0.7911044E+02  0.7818608E-02  0.1331595E+00
         -2   -1    0    0    0  501 -0.00000000000E+00  0.00000000000E+00  0.84575919251E+02  0.84575919290E+02  0.25500000000E-02 0.  1.
          1   -1    0    0  501    0  0.00000000000E+00 -0.00000000000E+00 -0.18499539584E+02  0.18499540271E+02  0.50400000000E-02 0. -1.
        -24    2    1    2    0    0  0.00000000000E+00  0.00000000000E+00  0.66076379667E+02  0.10307545956E+03  0.79110444403E+02 0.  0.
         66    2    3    3    0    0  0.10120260946E+02  0.36012006078E+02  0.16407889857E+02  0.40896248344E+02  0.20000039207E+01 0.  0.
         13    1    3    3    0    0 -0.10120260946E+02 -0.36012006078E+02  0.49668489810E+02  0.62179211216E+02  0.10566000000E+00 0. -1.
         13    1    4    4    0    0  0.12172678821E+01  0.47896568244E+01  0.21101160919E+01  0.53745983617E+01  0.10566000000E+00 0. -1.
        -13    1    4    4    0    0  0.58760456944E+01  0.23383428948E+02  0.10377160876E+02  0.26248986538E+02  0.10566000000E+00 0.  1.
         14    1    4    4    0    0  0.30269473694E+01  0.78389203061E+01  0.39206128885E+01  0.92726634450E+01  0.00000000000E+00 0. -1.
<mgrwt>
<rscale>  0 0.79110444E+02</rscale>
<asrwt>0</asrwt>
<pdfrwt beam="1">  1        1 0.28460831E-02 0.79110444E+02</pdfrwt>
<pdfrwt beam="2">  1       -2 0.13011680E-01 0.79110444E+02</pdfrwt>
<totfact> 0.11359729E+05</totfact>
</mgrwt>
</event>
<event>
 8    1  0.8577104E-014  0.8013284E+02  0.7818608E-02  0.1328675E+00
         -2   -1    0    0    0  501 -0.00000000000E+00  0.00000000000E+00  0.69114847872E+02  0.69114847919E+02  0.25500000000E-02 0.  1.
          1   -1    0    0  501    0  0.00000000000E+00 -0.00000000000E+00 -0.23226816448E+02  0.23226816995E+02  0.50400000000E-02 0. -1.
        -24    2    1    2    0    0 -0.35527136788E-14  0.35527136788E-14  0.45888031424E+02  0.92341664914E+02  0.80132837533E+02 0.  0.
         66    2    3    3    0    0  0.22251614929E+02 -0.17194198179E+02  0.55806277587E+02  0.62522919317E+02  0.20000009734E+01 0.  0.
         13    1    3    3    0    0 -0.22251614929E+02  0.17194198179E+02 -0.99182461629E+01  0.29818745596E+02  0.10566000000E+00 0. -1.
         13    1    4    4    0    0  0.25338856137E+01 -0.22119969899E+01  0.74189846922E+01  0.81465333048E+01  0.10566000000E+00 0. -1.
        -13    1    4    4    0    0  0.39026410665E+01 -0.35532671322E+01  0.11147322385E+02  0.12334110223E+02  0.10566000000E+00 0.  1.
        -14    1    4    4    0    0  0.15815088248E+02 -0.11428934057E+02  0.37239970510E+02  0.42042275790E+02  0.00000000000E+00 0.  1.
<mgrwt>
<rscale>  0 0.80132838E+02</rscale>
<asrwt>0</asrwt>
<pdfrwt beam="1">  1        1 0.35733564E-02 0.80132838E+02</pdfrwt>
<pdfrwt beam="2">  1       -2 0.10633054E-01 0.80132838E+02</pdfrwt>
<totfact> 0.11472010E+05</totfact>
</mgrwt>
</event>
<event>
 8    1  0.8577104E-014  0.7828386E+02  0.7818608E-02  0.1333993E+00
          1   -1    0    0  501    0  0.00000000000E+00  0.00000000000E+00  0.98751623505E+01  0.98751636366E+01  0.50400000000E-02 0. -1.
         -2   -1    0    0    0  501 -0.00000000000E+00 -0.00000000000E+00 -0.15514585010E+03  0.15514585012E+03  0.25500000000E-02 0.  1.
        -24    2    1    2    0    0 -0.35527136788E-14 -0.22204460493E-15 -0.14527068775E+03  0.16502101376E+03  0.78283856971E+02 0.  0.
         66    2    3    3    0    0 -0.16148145042E+02 -0.13982214107E+01 -0.14772704136E+03  0.14862703777E+03  0.19999991390E+01 0.  0.
         13    1    3    3    0    0  0.16148145042E+02  0.13982214107E+01  0.24563536135E+01  0.16393975982E+02  0.10566000000E+00 0. -1.
         13    1    4    4    0    0 -0.93082295206E+00 -0.30453129255E+00 -0.74553440920E+01  0.75201389776E+01  0.10566000000E+00 0.  1.
        -13    1    4    4    0    0 -0.52468964272E+01  0.21267228116E+00 -0.44599023907E+02  0.44907229364E+02  0.10566000000E+00 0.  1.
        -14    1    4    4    0    0 -0.99704256624E+01 -0.13063623993E+01 -0.95672673362E+02  0.96199669432E+02  0.00000000000E+00 0.  1.
<mgrwt>
<rscale>  0 0.78283857E+02</rscale>
<asrwt>0</asrwt>
<pdfrwt beam="1">  1        1 0.15192560E-02 0.78283857E+02</pdfrwt>
<pdfrwt beam="2">  1       -2 0.23868591E-01 0.78283857E+02</pdfrwt>
<totfact> 0.98818567E+04</totfact>
</mgrwt>
</event>
<event>
 8    1  0.8577104E-014  0.8048728E+02  0.7818608E-02  0.1327674E+00
          1   -1    0    0  501    0  0.00000000000E+00  0.00000000000E+00  0.17778335971E+03  0.17778335978E+03  0.50400000000E-02 0. -1.
         -2   -1    0    0    0  501 -0.00000000000E+00 -0.00000000000E+00 -0.91096864441E+01  0.91096868010E+01  0.25500000000E-02 0.  1.
        -24    2    1    2    0    0  0.00000000000E+00 -0.35527136788E-14  0.16867367327E+03  0.18689304658E+03  0.80487283516E+02 0.  0.
         66    2    3    3    0    0  0.18088416640E+02 -0.31047780039E+02  0.42438519434E+02  0.55643358244E+02  0.19999807646E+01 0.  0.
         13    1    3    3    0    0 -0.18088416640E+02  0.31047780039E+02  0.12623515383E+03  0.13124968834E+03  0.10566000000E+00 0. -1.
         13    1    4    4    0    0  0.69440129787E+01 -0.11963151945E+02  0.16398068827E+02  0.21453301517E+02  0.10566000000E+00 0. -1.
        -13    1    4    4    0    0  0.11062436041E+02 -0.18547965579E+02  0.25184001503E+02  0.33176039758E+02  0.10566000000E+00 0.  1.
         14    1    4    4    0    0  0.81967621016E-01 -0.53666251540E+00  0.85644910458E+00  0.10140169698E+01  0.00000000000E+00 0. -1.
<mgrwt>
<rscale>  0 0.80487284E+02</rscale>
<asrwt>0</asrwt>
<pdfrwt beam="1">  1        1 0.27351285E-01 0.80487284E+02</pdfrwt>
<pdfrwt beam="2">  1       -2 0.14014903E-02 0.80487284E+02</pdfrwt>
<totfact> 0.16038260E+05</totfact>
</mgrwt>
</event>
<event>
 8    1  0.8577104E-014  0.7889570E+02  0.7818608E-02  0.1332215E+00
          1   -1    0    0  501    0  0.00000000000E+00  0.00000000000E+00  0.88647251555E+02  0.88647251698E+02  0.50400000000E-02 0. -1.
         -2   -1    0    0    0  501 -0.00000000000E+00 -0.00000000000E+00 -0.17554214653E+02  0.17554214839E+02  0.25500000000E-02 0.  1.
        -24    2    1    2    0    0  0.71054273576E-14  0.11102230246E-15  0.71093036902E+02  0.10620146654E+03  0.78895700762E+02 0.  0.
         66    2    3    3    0    0  0.34966160803E+02  0.57754824401E+00  0.11073168842E+02  0.36736643143E+02  0.19999794664E+01 0.  0.
         13    1    3    3    0    0 -0.34966160803E+02 -0.57754824401E+00  0.60019868059E+02  0.69464823394E+02  0.10566000000E+00 0. -1.
         13    1    4    4    0    0  0.81137623103E+01  0.62188911917E+00  0.21228765121E+01  0.84105679728E+01  0.10566000000E+00 0. -1.
        -13    1    4    4    0    0  0.17955016868E+02  0.25131093418E+00  0.64348092706E+01  0.19075212248E+02  0.10566000000E+00 0.  1.
         14    1    4    4    0    0  0.88973816253E+01 -0.29565180933E+00  0.25154830597E+01  0.92508629221E+01  0.00000000000E+00 0. -1.
<mgrwt>
<rscale>  0 0.78895701E+02</rscale>
<asrwt>0</asrwt>
<pdfrwt beam="1">  1        1 0.13638039E-01 0.78895701E+02</pdfrwt>
<pdfrwt beam="2">  1       -2 0.27006484E-02 0.78895701E+02</pdfrwt>
<totfact> 0.14961074E+05</totfact>
</mgrwt>
</event>
<event>
 8    1  0.8577104E-014  0.8192563E+02  0.7818608E-02  0.1323674E+00
         -2   -1    0    0    0  501 -0.00000000000E+00  0.00000000000E+00  0.36742558923E+02  0.36742559011E+02  0.25500000000E-02 0.  1.
          1   -1    0    0  501    0  0.00000000000E+00 -0.00000000000E+00 -0.45667807490E+02  0.45667807768E+02  0.50400000000E-02 0. -1.
        -24    2    1    2    0    0  0.35527136788E-14  0.35527136788E-14 -0.89252485673E+01  0.82410366780E+02  0.81925627802E+02 0.  0.
         66    2    3    3    0    0 -0.28268002438E+02 -0.28626566035E+02  0.31549597568E+01  0.40404380992E+02  0.19999968528E+01 0.  0.
         13    1    3    3    0    0  0.28268002438E+02  0.28626566035E+02 -0.12080208324E+02  0.42005985788E+02  0.10566000000E+00 0. -1.
         13    1    4    4    0    0 -0.11123553545E+02 -0.12020927765E+02  0.17281952159E+01  0.16469182449E+02  0.10566000000E+00 0. -1.
        -13    1    4    4    0    0 -0.55482371338E+01 -0.58231929144E+01  0.90664164730E-01  0.80443703941E+01  0.10566000000E+00 0.  1.
        -14    1    4    4    0    0 -0.11596211760E+02 -0.10782445356E+02  0.13361003762E+01  0.15890828149E+02  0.00000000000E+00 0.  1.
<mgrwt>
<rscale>  0 0.81925628E+02</rscale>
<asrwt>0</asrwt>
<pdfrwt beam="1">  1        1 0.70258166E-02 0.81925628E+02</pdfrwt>
<pdfrwt beam="2">  1       -2 0.56527014E-02 0.81925628E+02</pdfrwt>
<totfact> 0.12134158E+05</totfact>
</mgrwt>
</event>
<event>
 8    1  0.8577104E-014  0.7955627E+02  0.7818608E-02  0.1330315E+00
         -2   -1    0    0    0  501 -0.00000000000E+00  0.00000000000E+00  0.13310642608E+02  0.13310642852E+02  0.25500000000E-02 0.  1.
          1   -1    0    0  501    0  0.00000000000E+00 -0.00000000000E+00 -0.11887481417E+03  0.11887481428E+03  0.50400000000E-02 0. -1.
        -24    2    1    2    0    0  0.00000000000E+00  0.00000000000E+00 -0.10556417156E+03  0.13218545713E+03  0.79556274164E+02 0.  0.
         66    2    3    3    0    0  0.28243639848E+02  0.23623035593E+02 -0.27917594765E+02  0.46250871223E+02  0.19999972422E+01 0.  0.
         13    1    3    3    0    0 -0.28243639848E+02 -0.23623035593E+02 -0.77646576799E+02  0.85934585908E+02  0.10566000000E+00 0. -1.
         13    1    4    4    0    0  0.14992810096E+02  0.12414164191E+02 -0.13766476187E+02  0.23841620284E+02  0.10566000000E+00 0. -1.
        -13    1    4    4    0    0  0.31466570997E+01  0.22763814771E+01 -0.29599840793E+01  0.48842638460E+01  0.10566000000E+00 0.  1.
         14    1    4    4    0    0  0.10104172652E+02  0.89324899249E+01 -0.11191134498E+02  0.17524987093E+02  0.00000000000E+00 0. -1.
<mgrwt>
<rscale>  0 0.79556274E+02</rscale>
<asrwt>0</asrwt>
<pdfrwt beam="1">  1        1 0.18288432E-01 0.79556274E+02</pdfrwt>
<pdfrwt beam="2">  1       -2 0.20477913E-02 0.79556274E+02</pdfrwt>
<totfact> 0.15369463E+05</totfact>
</mgrwt>
</event>
<event>
 8    1  0.8577104E-014  0.8005785E+02  0.7818608E-02  0.1328887E+00
         -2   -1    0    0    0  501 -0.00000000000E+00  0.00000000000E+00  0.25406928349E+02  0.25406928477E+02  0.25500000000E-02 0.  1.
          1   -1    0    0  501    0  0.00000000000E+00 -0.00000000000E+00 -0.63066058196E+02  0.63066058398E+02  0.50400000000E-02 0. -1.
        -24    2    1    2    0    0 -0.11102230246E-15 -0.17763568394E-14 -0.37659129848E+02  0.88472986874E+02  0.80057849994E+02 0.  0.
         66    2    3    3    0    0  0.96132148874E+00  0.12607982911E+02  0.23100995011E+02  0.26411007298E+02  0.19999909740E+01 0.  0.
         13    1    3    3    0    0 -0.96132148874E+00 -0.12607982911E+02 -0.60760124859E+02  0.62061979577E+02  0.10566000000E+00 0. -1.
         13    1    4    4    0    0 -0.53550542056E+00  0.39226076084E+01  0.77398455486E+01  0.86942503793E+01  0.10566000000E+00 0. -1.
        -13    1    4    4    0    0  0.91938263993E+00  0.64685025441E+01  0.11534846043E+02  0.13257097227E+02  0.10566000000E+00 0.  1.
        -14    1    4    4    0    0  0.57744426937E+00  0.22168727581E+01  0.38263034194E+01  0.44596596919E+01  0.00000000000E+00 0.  1.
<mgrwt>
<rscale>  0 0.80057850E+02</rscale>
<asrwt>0</asrwt>
<pdfrwt beam="1">  1        1 0.97024705E-02 0.80057850E+02</pdfrwt>
<pdfrwt beam="2">  1       -2 0.39087582E-02 0.80057850E+02</pdfrwt>
<totfact> 0.13617503E+05</totfact>
</mgrwt>
</event>
<event>
 8    1  0.8577104E-014  0.8220861E+02  0.7818608E-02  0.1322898E+00
          1   -1    0    0  501    0  0.00000000000E+00  0.00000000000E+00  0.91480700928E+02  0.91480701067E+02  0.50400000000E-02 0. -1.
         -2   -1    0    0    0  501 -0.00000000000E+00 -0.00000000000E+00 -0.18469074146E+02  0.18469074323E+02  0.25500000000E-02 0.  1.
        -24    2    1    2    0    0 -0.35527136788E-14  0.35527136788E-14  0.73011626781E+02  0.10994977539E+03  0.82208609421E+02 0.  0.
         66    2    3    3    0    0  0.30127836680E+02 -0.20299788195E+02  0.10877939743E+02  0.37974959149E+02  0.20000013730E+01 0.  0.
         13    1    3    3    0    0 -0.30127836680E+02  0.20299788195E+02  0.62133687038E+02  0.71974816240E+02  0.10566000000E+00 0. -1.
         13    1    4    4    0    0  0.21129265604E+01 -0.16500494024E+01  0.12129365405E+01  0.29444015974E+01  0.10566000000E+00 0. -1.
        -13    1    4    4    0    0  0.22855453224E+02 -0.14788873520E+02  0.76087548395E+01  0.28266355200E+02  0.10566000000E+00 0.  1.
        -14    1    4    4    0    0  0.51594568957E+01 -0.38608652734E+01  0.20562483630E+01  0.67642023512E+01  0.00000000000E+00 0.  1.
<mgrwt>
<rscale>  0 0.82208609E+02</rscale>
<asrwt>0</asrwt>
<pdfrwt beam="1">  1        1 0.14073954E-01 0.82208609E+02</pdfrwt>
<pdfrwt beam="2">  1       -2 0.28413960E-02 0.82208609E+02</pdfrwt>
<totfact> 0.13450238E+05</totfact>
</mgrwt>
</event>
<event>
 8    1  0.8577104E-014  0.7980439E+02  0.7818608E-02  0.1329607E+00
          1   -1    0    0  501    0  0.00000000000E+00  0.00000000000E+00  0.34000326834E+02  0.34000327207E+02  0.50400000000E-02 0. -1.
         -2   -1    0    0    0  501 -0.00000000000E+00 -0.00000000000E+00 -0.46828521160E+02  0.46828521229E+02  0.25500000000E-02 0.  1.
        -24    2    1    2    0    0  0.00000000000E+00 -0.71054273576E-14 -0.12828194326E+02  0.80828848437E+02  0.79804386909E+02 0.  0.
         66    2    3    3    0    0  0.99426369618E+01  0.35494561516E+02  0.89910023894E+01  0.37994184479E+02  0.20000008306E+01 0.  0.
         13    1    3    3    0    0 -0.99426369618E+01 -0.35494561516E+02 -0.21819196716E+02  0.42834663957E+02  0.10566000000E+00 0. -1.
         13    1    4    4    0    0  0.36768970443E+00  0.17428918332E+01  0.81505042241E+00  0.19617183508E+01  0.10566000000E+00 0. -1.
        -13    1    4    4    0    0  0.11261383555E+01  0.37265029613E+01  0.11351663423E+01  0.40564490107E+01  0.10566000000E+00 0.  1.
        -14    1    4    4    0    0  0.84488089019E+01  0.30025166722E+02  0.70407856246E+01  0.31976017118E+02  0.00000000000E+00 0.  1.
<mgrwt>
<rscale>  0 0.79804387E+02</rscale>
<asrwt>0</asrwt>
<pdfrwt beam="1">  1        1 0.52308196E-02 0.79804387E+02</pdfrwt>
<pdfrwt beam="2">  1       -2 0.72043879E-02 0.79804387E+02</pdfrwt>
<totfact> 0.12446332E+05</totfact>
</mgrwt>
</event>
<event>
 8    1  0.8577104E-014  0.8122807E+02  0.7818608E-02  0.1325602E+00
         -2   -1    0    0    0  501 -0.00000000000E+00  0.00000000000E+00  0.82275168279E+02  0.82275168319E+02  0.25500000000E-02 0.  1.
          1   -1    0    0  501    0  0.00000000000E+00 -0.00000000000E+00 -0.20048571607E+02  0.20048572240E+02  0.50400000000E-02 0. -1.
        -24    2    1    2    0    0  0.00000000000E+00 -0.17763568394E-14  0.62226596672E+02  0.10232374056E+03  0.81228065030E+02 0.  0.
         66    2    3    3    0    0 -0.13728585233E+02 -0.15958998819E+02  0.74848390683E+02  0.77778179985E+02  0.19999995097E+01 0.  0.
         13    1    3    3    0    0  0.13728585233E+02  0.15958998819E+02 -0.12621794011E+02  0.24545560574E+02  0.10566000000E+00 0. -1.
         13    1    4    4    0    0 -0.25937998696E+01 -0.34689483483E+01  0.17090217331E+02  0.17630884630E+02  0.10566000000E+00 0.  1.
        -13    1    4    4    0    0 -0.48756279263E+01 -0.57426330382E+01  0.28231899078E+02  0.29219871174E+02  0.10566000000E+00 0.  1.
         14    1    4    4    0    0 -0.62591574375E+01 -0.67474174321E+01  0.29526274275E+02  0.30927424180E+02  0.00000000000E+00 0. -1.
<mgrwt>
<rscale>  0 0.81228065E+02</rscale>
<asrwt>0</asrwt>
<pdfrwt beam="1">  1        1 0.30843956E-02 0.81228065E+02</pdfrwt>
<pdfrwt beam="2">  1       -2 0.12657718E-01 0.81228065E+02</pdfrwt>
<totfact> 0.10684644E+05</totfact>
</mgrwt>
</event>
<event>
 8    1  0.8577104E-014  0.8263565E+02  0.7818608E-02  0.1321734E+00
          1   -1    0    0  501    0  0.00000000000E+00  0.00000000000E+00  0.12350264148E+03  0.12350264158E+03  0.50400000000E-02 0. -1.
         -2   -1    0    0    0  501 -0.00000000000E+00 -0.00000000000E+00 -0.13822885128E+02  0.13822885363E+02  0.25500000000E-02 0.  1.
        -24    2    1    2    0    0  0.00000000000E+00  0.00000000000E+00  0.10967975635E+03  0.13732552694E+03  0.82635654516E+02 0.  0.
         66    2    3    3    0    0 -0.40715971430E+02 -0.59256237754E+01  0.49054480265E+02  0.64056579830E+02  0.20000097339E+01 0.  0.
         13    1    3    3    0    0  0.40715971430E+02  0.59256237754E+01  0.60625276086E+02  0.73268947113E+02  0.10566000000E+00 0. -1.
         13    1    4    4    0    0 -0.24080949789E+01 -0.21415980695E+00  0.30293969828E+01  0.38772665585E+01  0.10566000000E+00 0.  1.
        -13    1    4    4    0    0 -0.16445174621E+02 -0.15718992901E+01  0.19568057384E+02  0.25609269211E+02  0.10566000000E+00 0.  1.
         14    1    4    4    0    0 -0.21862701830E+02 -0.41395646783E+01  0.26457025898E+02  0.34570044061E+02  0.00000000000E+00 0. -1.
<mgrwt>
<rscale>  0 0.82635655E+02</rscale>
<asrwt>0</asrwt>
<pdfrwt beam="1">  1        1 0.19000406E-01 0.82635655E+02</pdfrwt>
<pdfrwt beam="2">  1       -2 0.21265978E-02 0.82635655E+02</pdfrwt>
<totfact> 0.13970028E+05</totfact>
</mgrwt>
</event>
<event>
 8    1  0.8577104E-014  0.8011705E+02  0.7818608E-02  0.1328720E+00
         -2   -1    0    0    0  501 -0.00000000000E+00  0.00000000000E+00  0.28943768358E+01  0.28943779591E+01  0.25500000000E-02 0.  1.
          1   -1    0    0  501    0  0.00000000000E+00 -0.00000000000E+00 -0.55441466106E+03  0.55441466109E+03  0.50400000000E-02 0. -1.
        -24    2    1    2    0    0  0.35527136788E-14 -0.35527136788E-14 -0.55152028423E+03  0.55730903905E+03  0.80117046172E+02 0.  0.
         66    2    3    3    0    0  0.30454612742E+02 -0.25299043566E+02 -0.31717604248E+03  0.31964381263E+03  0.19999967547E+01 0.  0.
         13    1    3    3    0    0 -0.30454612742E+02  0.25299043566E+02 -0.23434424175E+03  0.23766522641E+03  0.10566000000E+00 0. -1.
         13    1    4    4    0    0  0.22897881784E+01 -0.19304024155E+01 -0.22187349017E+02  0.22388818723E+02  0.10566000000E+00 0. -1.
        -13    1    4    4    0    0  0.24142052863E+02 -0.19817989252E+02 -0.24688632922E+03  0.24885429901E+03  0.10566000000E+00 0.  1.
        -14    1    4    4    0    0  0.40227716998E+01 -0.35506518988E+01 -0.48102364247E+02  0.48400694904E+02  0.00000000000E+00 0.  1.
<mgrwt>
<rscale>  0 0.80117046E+02</rscale>
<asrwt>0</asrwt>
<pdfrwt beam="1">  1        1 0.85294479E-01 0.80117046E+02</pdfrwt>
<pdfrwt beam="2">  1       -2 0.44528927E-03 0.80117046E+02</pdfrwt>
<totfact> 0.19743418E+05</totfact>
</mgrwt>
</event>
<event>
 8    1  0.8577104E-014  0.7723927E+02  0.7818608E-02  0.1337074E+00
          1   -1    0    0  501    0  0.00000000000E+00  0.00000000000E+00  0.55735955761E+02  0.55735955988E+02  0.50400000000E-02 0. -1.
         -2   -1    0    0    0  501 -0.00000000000E+00 -0.00000000000E+00 -0.26759677013E+02  0.26759677134E+02  0.25500000000E-02 0.  1.
        -24    2    1    2    0    0  0.00000000000E+00  0.00000000000E+00  0.28976278748E+02  0.82495633123E+02  0.77239269509E+02 0.  0.
         66    2    3    3    0    0  0.18126567631E+02 -0.23708686153E+02 -0.11637782337E+02  0.32095361546E+02  0.20000004764E+01 0.  0.
         13    1    3    3    0    0 -0.18126567631E+02  0.23708686153E+02  0.40614061085E+02  0.50400271577E+02  0.10566000000E+00 0. -1.
         13    1    4    4    0    0  0.21375269523E+01 -0.33441763758E+01 -0.14375887613E+01  0.42226014004E+01  0.10566000000E+00 0. -1.
        -13    1    4    4    0    0  0.55320548612E+01 -0.62161944278E+01 -0.38387083624E+01  0.91646903973E+01  0.10566000000E+00 0.  1.
         14    1    4    4    0    0  0.10456985817E+02 -0.14148315349E+02 -0.63614852133E+01  0.18708069749E+02  0.00000000000E+00 0. -1.
<mgrwt>
<rscale>  0 0.77239270E+02</rscale>
<asrwt>0</asrwt>
<pdfrwt beam="1">  1        1 0.85747624E-02 0.77239270E+02</pdfrwt>
<pdfrwt beam="2">  1       -2 0.41168734E-02 0.77239270E+02</pdfrwt>
<totfact> 0.14744430E+05</totfact>
</mgrwt>
</event>
<event>
 8    1  0.8577104E-014  0.8071458E+02  0.7818608E-02  0.1327036E+00
          1   -1    0    0  501    0  0.00000000000E+00  0.00000000000E+00  0.18918422882E+01  0.18918490016E+01  0.50400000000E-02 0. -1.
         -2   -1    0    0    0  501 -0.00000000000E+00 -0.00000000000E+00 -0.86091105462E+03  0.86091105462E+03  0.25500000000E-02 0.  1.
        -24    2    1    2    0    0  0.00000000000E+00  0.17763568394E-14 -0.85901921233E+03  0.86280290362E+03  0.80714579533E+02 0.  0.
         66    2    3    3    0    0  0.32777789762E+02  0.96200860520E+01 -0.65898223448E+03  0.65987007427E+03  0.20000004622E+01 0.  0.
         13    1    3    3    0    0 -0.32777789762E+02 -0.96200860520E+01 -0.20003697785E+03  0.20293282935E+03  0.10566000000E+00 0. -1.
         13    1    4    4    0    0  0.22823427296E+01  0.35987974442E+00 -0.42023653050E+02  0.42087256759E+02  0.10566000000E+00 0.  1.
        -13    1    4    4    0    0  0.27669781475E+01  0.12119212231E+01 -0.54987270188E+02  0.55070282076E+02  0.10566000000E+00 0.  1.
        -14    1    4    4    0    0  0.27728468885E+02  0.80482850844E+01 -0.56197131124E+03  0.56271253544E+03  0.00000000000E+00 0.  1.
<mgrwt>
<rscale>  0 0.80714580E+02</rscale>
<asrwt>0</asrwt>
<pdfrwt beam="1">  1        1 0.29105386E-03 0.80714580E+02</pdfrwt>
<pdfrwt beam="2">  1       -2 0.13244754E+00 0.80714580E+02</pdfrwt>
<totfact> 0.30095595E+04</totfact>
</mgrwt>
</event>
<event>
 8    1  0.8577104E-014  0.8330784E+02  0.7818608E-02  0.1319918E+00
          1   -1    0    0  501    0  0.00000000000E+00  0.00000000000E+00  0.13237674981E+03  0.13237674991E+03  0.50400000000E-02 0. -1.
         -2   -1    0    0    0  501 -0.00000000000E+00 -0.00000000000E+00 -0.13106903059E+02  0.13106903307E+02  0.25500000000E-02 0.  1.
        -24    2    1    2    0    0  0.00000000000E+00 -0.35527136788E-14  0.11926984675E+03  0.14548365321E+03  0.83307844819E+02 0.  0.
         66    2    3    3    0    0  0.21526754784E+02 -0.23161493109E+02  0.12382818582E+02  0.34017497412E+02  0.19999998883E+01 0.  0.
         13    1    3    3    0    0 -0.21526754784E+02  0.23161493109E+02  0.10688702817E+03  0.11146615580E+03  0.10566000000E+00 0. -1.
         13    1    4    4    0    0  0.88366304415E+01 -0.99847376874E+01  0.58814611700E+01  0.14573392665E+02  0.10566000000E+00 0. -1.
        -13    1    4    4    0    0  0.12304690023E+02 -0.12562310942E+02  0.63919818152E+01  0.18710575842E+02  0.10566000000E+00 0.  1.
        -14    1    4    4    0    0  0.38543431898E+00 -0.61444447899E+00  0.10937559712E+00  0.73352890417E+00  0.00000000000E+00 0.  1.
<mgrwt>
<rscale>  0 0.83307845E+02</rscale>
<asrwt>0</asrwt>
<pdfrwt beam="1">  1        1 0.20365655E-01 0.83307845E+02</pdfrwt>
<pdfrwt beam="2">  1       -2 0.20164466E-02 0.83307845E+02</pdfrwt>
<totfact> 0.13841129E+05</totfact>
</mgrwt>
</event>
<event>
 8    1  0.8577104E-014  0.8011257E+02  0.7818608E-02  0.1328732E+00
         -2   -1    0    0    0  501 -0.00000000000E+00  0.00000000000E+00  0.40802835749E+02  0.40802835829E+02  0.25500000000E-02 0.  1.
          1   -1    0    0  501    0  0.00000000000E+00 -0.00000000000E+00 -0.39323391031E+02  0.39323391354E+02  0.50400000000E-02 0. -1.
        -24    2    1    2    0    0 -0.35527136788E-14  0.00000000000E+00  0.14794447188E+01  0.80126227183E+02  0.80112567840E+02 0.  0.
         66    2    3    3    0    0  0.28476098573E+02 -0.48870076197E+01  0.28452845349E+02  0.40599697623E+02  0.20000012956E+01 0.  0.
         13    1    3    3    0    0 -0.28476098573E+02  0.48870076197E+01 -0.26973400630E+02  0.39526529560E+02  0.10566000000E+00 0. -1.
         13    1    4    4    0    0  0.11876312448E+02 -0.20963578438E+01  0.12873321820E+02  0.17640155677E+02  0.10566000000E+00 0.  1.
        -13    1    4    4    0    0  0.96376075148E+01 -0.16608458223E+01  0.83578418589E+01  0.12864935757E+02  0.10566000000E+00 0. -1.
         14    1    4    4    0    0  0.69621786100E+01 -0.11298039536E+01  0.72216816706E+01  0.10094606190E+02  0.00000000000E+00 0. -1.
<mgrwt>
<rscale>  0 0.80112568E+02</rscale>
<asrwt>0</asrwt>
<pdfrwt beam="1">  1        1 0.60497525E-02 0.80112568E+02</pdfrwt>
<pdfrwt beam="2">  1       -2 0.62773594E-02 0.80112568E+02</pdfrwt>
<totfact> 0.12612208E+05</totfact>
</mgrwt>
</event>
<event>
 8    1  0.8577104E-014  0.7676453E+02  0.7818608E-02  0.1338492E+00
          1   -1    0    0  501    0  0.00000000000E+00  0.00000000000E+00  0.13807579128E+03  0.13807579137E+03  0.50400000000E-02 0. -1.
         -2   -1    0    0    0  501 -0.00000000000E+00 -0.00000000000E+00 -0.10669490853E+02  0.10669491158E+02  0.25500000000E-02 0.  1.
        -24    2    1    2    0    0  0.00000000000E+00  0.44408920985E-15  0.12740630043E+03  0.14874528253E+03  0.76764534041E+02 0.  0.
         66    2    3    3    0    0 -0.33873640338E+02 -0.27020259879E+01  0.29275720494E+02  0.44897575111E+02  0.19999965538E+01 0.  0.
         13    1    3    3    0    0  0.33873640338E+02  0.27020259879E+01  0.98130579935E+02  0.10384770742E+03  0.10566000000E+00 0. -1.
         13    1    4    4    0    0 -0.11990283120E+02 -0.14547779851E+01  0.10730191438E+02  0.16156467455E+02  0.10566000000E+00 0.  1.
        -13    1    4    4    0    0 -0.16417367394E+02 -0.76806677754E+00  0.13191354925E+02  0.21074697803E+02  0.10566000000E+00 0. -1.
        -14    1    4    4    0    0 -0.54659898239E+01 -0.47918122520E+00  0.53541741307E+01  0.76664098523E+01  0.00000000000E+00 0.  1.
<mgrwt>
<rscale>  0 0.76764534E+02</rscale>
<asrwt>0</asrwt>
<pdfrwt beam="1">  1        1 0.21242430E-01 0.76764534E+02</pdfrwt>
<pdfrwt beam="2">  1       -2 0.16414601E-02 0.76764534E+02</pdfrwt>
<totfact> 0.17363853E+05</totfact>
</mgrwt>
</event>
<event>
 8    1  0.8577104E-014  0.8035651E+02  0.7818608E-02  0.1328043E+00
         -2   -1    0    0    0  501 -0.00000000000E+00  0.00000000000E+00  0.15788477063E+03  0.15788477065E+03  0.25500000000E-02 0.  1.
          1   -1    0    0  501    0  0.00000000000E+00 -0.00000000000E+00 -0.10224496057E+02  0.10224497299E+02  0.50400000000E-02 0. -1.
        -24    2    1    2    0    0  0.00000000000E+00  0.00000000000E+00  0.14766027457E+03  0.16810926795E+03  0.80356513635E+02 0.  0.
         66    2    3    3    0    0 -0.27424117871E+01  0.33074827213E+02  0.12115879790E+03  0.12563804890E+03  0.20000012740E+01 0.  0.
         13    1    3    3    0    0  0.27424117871E+01 -0.33074827213E+02  0.26501476667E+02  0.42471219045E+02  0.10566000000E+00 0. -1.
         13    1    4    4    0    0 -0.18041207852E+01  0.14642038033E+02  0.56221560473E+02  0.58125030371E+02  0.10566000000E+00 0. -1.
        -13    1    4    4    0    0 -0.10617403768E+00  0.30807643194E+01  0.11772055953E+02  0.12169422628E+02  0.10566000000E+00 0.  1.
        -14    1    4    4    0    0 -0.83211696423E+00  0.15352024861E+02  0.53165181477E+02  0.55343595902E+02  0.00000000000E+00 0.  1.
<mgrwt>
<rscale>  0 0.80356514E+02</rscale>
<asrwt>0</asrwt>
<pdfrwt beam="1">  1        1 0.15729994E-02 0.80356514E+02</pdfrwt>
<pdfrwt beam="2">  1       -2 0.24289967E-01 0.80356514E+02</pdfrwt>
<totfact> 0.91845932E+04</totfact>
</mgrwt>
</event>
<event>
 8    1  0.8577104E-014  0.7971641E+02  0.7818608E-02  0.1329858E+00
         -2   -1    0    0    0  501 -0.00000000000E+00  0.00000000000E+00  0.30726143842E+02  0.30726143948E+02  0.25500000000E-02 0.  1.
          1   -1    0    0  501    0  0.00000000000E+00 -0.00000000000E+00 -0.51704383955E+02  0.51704384200E+02  0.50400000000E-02 0. -1.
        -24    2    1    2    0    0  0.00000000000E+00  0.00000000000E+00 -0.20978240113E+02  0.82430528148E+02  0.79716406170E+02 0.  0.
         66    2    3    3    0    0  0.22991457417E+02 -0.82727734575E+01  0.22033677812E+02  0.32962537059E+02  0.19999991454E+01 0.  0.
         13    1    3    3    0    0 -0.22991457417E+02  0.82727734575E+01 -0.43011917925E+02  0.49467991090E+02  0.10566000000E+00 0. -1.
         13    1    4    4    0    0  0.40071680365E+01 -0.18201308535E+01  0.31913950430E+01  0.54375029520E+01  0.10566000000E+00 0. -1.
        -13    1    4    4    0    0  0.12471554395E+02 -0.42710491224E+01  0.11907927401E+02  0.17764893151E+02  0.10566000000E+00 0.  1.
         14    1    4    4    0    0  0.65127349857E+01 -0.21815934816E+01  0.69343553679E+01  0.97601409560E+01  0.00000000000E+00 0. -1.
<mgrwt>
<rscale>  0 0.79716406E+02</rscale>
<asrwt>0</asrwt>
<pdfrwt beam="1">  1        1 0.79545207E-02 0.79716406E+02</pdfrwt>
<pdfrwt beam="2">  1       -2 0.47270991E-02 0.79716406E+02</pdfrwt>
<totfact> 0.13357608E+05</totfact>
</mgrwt>
</event>
<event>
 8    1  0.8577104E-014  0.8878976E+02  0.7818608E-02  0.1305809E+00
          1   -1    0    0  501    0  0.00000000000E+00  0.00000000000E+00  0.16623652096E+03  0.16623652103E+03  0.50400000000E-02 0. -1.
         -2   -1    0    0    0  501 -0.00000000000E+00 -0.00000000000E+00 -0.11856032150E+02  0.11856032424E+02  0.25500000000E-02 0.  1.
        -24    2    1    2    0    0 -0.71054273576E-14 -0.22204460493E-15  0.15438048881E+03  0.17809255346E+03  0.88789764459E+02 0.  0.
         66    2    3    3    0    0  0.39315718482E+02 -0.10853858487E+01  0.36025488477E+02  0.53373585175E+02  0.19999980618E+01 0.  0.
         13    1    3    3    0    0 -0.39315718482E+02  0.10853858487E+01  0.11835500033E+03  0.12471896828E+03  0.10566000000E+00 0. -1.
         13    1    4    4    0    0  0.70969198131E+01 -0.78529774914E+00  0.64977829909E+01  0.96548076740E+01  0.10566000000E+00 0. -1.
        -13    1    4    4    0    0  0.15835541677E+02 -0.48780299704E+00  0.13902727397E+02  0.21078408978E+02  0.10566000000E+00 0.  1.
        -14    1    4    4    0    0  0.16383256992E+02  0.18771489749E+00  0.15624978089E+02  0.22640368523E+02  0.00000000000E+00 0.  1.
<mgrwt>
<rscale>  0 0.88789764E+02</rscale>
<asrwt>0</asrwt>
<pdfrwt beam="1">  1        1 0.25574849E-01 0.88789764E+02</pdfrwt>
<pdfrwt beam="2">  1       -2 0.18240050E-02 0.88789764E+02</pdfrwt>
<totfact> 0.12168579E+05</totfact>
</mgrwt>
</event>
<event>
 8    1  0.8577104E-014  0.8088640E+02  0.7818608E-02  0.1326555E+00
         -2   -1    0    0    0  501 -0.00000000000E+00  0.00000000000E+00  0.36269313337E+02  0.36269313427E+02  0.25500000000E-02 0.  1.
          1   -1    0    0  501    0  0.00000000000E+00 -0.00000000000E+00 -0.45097414216E+02  0.45097414498E+02  0.50400000000E-02 0. -1.
        -24    2    1    2    0    0  0.35527136788E-14 -0.71054273576E-14 -0.88281008787E+01  0.81366727924E+02  0.80886395939E+02 0.  0.
         66    2    3    3    0    0 -0.12238615498E+02  0.36818692437E+02  0.69751480940E+01  0.39472173813E+02  0.19999981267E+01 0.  0.
         13    1    3    3    0    0  0.12238615498E+02 -0.36818692437E+02 -0.15803248973E+02  0.41894554112E+02  0.10566000000E+00 0. -1.
         13    1    4    4    0    0 -0.49535285764E+01  0.12674123621E+02  0.24108472736E+01  0.13820065250E+02  0.10566000000E+00 0. -1.
        -13    1    4    4    0    0 -0.24417496076E+01  0.65050607229E+01  0.13768320699E+01  0.70841221573E+01  0.10566000000E+00 0.  1.
         14    1    4    4    0    0 -0.48433373137E+01  0.17639508093E+02  0.31874687505E+01  0.18567986405E+02  0.00000000000E+00 0. -1.
<mgrwt>
<rscale>  0 0.80886396E+02</rscale>
<asrwt>0</asrwt>
<pdfrwt beam="1">  1        1 0.69380637E-02 0.80886396E+02</pdfrwt>
<pdfrwt beam="2">  1       -2 0.55798944E-02 0.80886396E+02</pdfrwt>
<totfact> 0.12551041E+05</totfact>
</mgrwt>
</event>
<event>
 8    1  0.8577104E-014  0.7960466E+02  0.7818608E-02  0.1330177E+00
          1   -1    0    0  501    0  0.00000000000E+00  0.00000000000E+00  0.20076537670E+02  0.20076538302E+02  0.50400000000E-02 0. -1.
         -2   -1    0    0    0  501 -0.00000000000E+00 -0.00000000000E+00 -0.78909302613E+02  0.78909302655E+02  0.25500000000E-02 0.  1.
        -24    2    1    2    0    0  0.00000000000E+00  0.00000000000E+00 -0.58832764944E+02  0.98985840957E+02  0.79604663676E+02 0.  0.
         66    2    3    3    0    0  0.32622422089E+02 -0.22539707231E+02 -0.33359185789E+02  0.51856495279E+02  0.20000002808E+01 0.  0.
         13    1    3    3    0    0 -0.32622422089E+02  0.22539707231E+02 -0.25473579154E+02  0.47129345677E+02  0.10566000000E+00 0. -1.
         13    1    4    4    0    0  0.15918221886E+01 -0.14886072692E+01 -0.20186251156E+01  0.29725175988E+01  0.10566000000E+00 0. -1.
        -13    1    4    4    0    0  0.21343818454E+02 -0.14912515126E+02 -0.21236210948E+02  0.33599546322E+02  0.10566000000E+00 0.  1.
        -14    1    4    4    0    0  0.96867814459E+01 -0.61385848360E+01 -0.10104349726E+02  0.15284431359E+02  0.00000000000E+00 0.  1.
<mgrwt>
<rscale>  0 0.79604664E+02</rscale>
<asrwt>0</asrwt>
<pdfrwt beam="1">  1        1 0.30886982E-02 0.79604664E+02</pdfrwt>
<pdfrwt beam="2">  1       -2 0.12139893E-01 0.79604664E+02</pdfrwt>
<totfact> 0.11351426E+05</totfact>
</mgrwt>
</event>
<event>
 8    1  0.8577104E-014  0.8322123E+02  0.7818608E-02  0.1320151E+00
         -2   -1    0    0    0  501 -0.00000000000E+00  0.00000000000E+00  0.21044524016E+03  0.21044524018E+03  0.25500000000E-02 0.  1.
          1   -1    0    0  501    0  0.00000000000E+00 -0.00000000000E+00 -0.82275225812E+01  0.82275241249E+01  0.50400000000E-02 0. -1.
        -24    2    1    2    0    0  0.00000000000E+00  0.00000000000E+00  0.20221771758E+03  0.21867276430E+03  0.83221226524E+02 0.  0.
         66    2    3    3    0    0  0.16454139665E+02 -0.19303459491E+02  0.18776166249E+03  0.18947771415E+03  0.19999999425E+01 0.  0.
         13    1    3    3    0    0 -0.16454139665E+02  0.19303459491E+02  0.14456055096E+02  0.29195050153E+02  0.10566000000E+00 0. -1.
         13    1    4    4    0    0  0.31332066263E+01 -0.41606223824E+01  0.41898910076E+02  0.42221529958E+02  0.10566000000E+00 0. -1.
        -13    1    4    4    0    0  0.28530420566E+01 -0.38268884474E+01  0.31770572773E+02  0.32127330772E+02  0.10566000000E+00 0.  1.
        -14    1    4    4    0    0  0.10467890982E+02 -0.11315948662E+02  0.11409217964E+03  0.11512885342E+03  0.00000000000E+00 0.  1.
<mgrwt>
<rscale>  0 0.83221227E+02</rscale>
<asrwt>0</asrwt>
<pdfrwt beam="1">  1        1 0.12657726E-02 0.83221227E+02</pdfrwt>
<pdfrwt beam="2">  1       -2 0.32376196E-01 0.83221227E+02</pdfrwt>
<totfact> 0.75228000E+04</totfact>
</mgrwt>
</event>
<event>
 8    1  0.8577104E-014  0.8086205E+02  0.7818608E-02  0.1326623E+00
         -2   -1    0    0    0  501 -0.00000000000E+00  0.00000000000E+00  0.70600353878E+01  0.70600358484E+01  0.25500000000E-02 0.  1.
          1   -1    0    0  501    0  0.00000000000E+00 -0.00000000000E+00 -0.23153815073E+03  0.23153815079E+03  0.50400000000E-02 0. -1.
        -24    2    1    2    0    0  0.35527136788E-14  0.35527136788E-14 -0.22447811535E+03  0.23859818664E+03  0.80862045467E+02 0.  0.
         66    2    3    3    0    0 -0.21975340676E+02 -0.24377554056E+02 -0.42763895462E+02  0.53943780755E+02  0.19999968569E+01 0.  0.
         13    1    3    3    0    0  0.21975340676E+02  0.24377554056E+02 -0.18171421988E+03  0.18465440588E+03  0.10566000000E+00 0. -1.
         13    1    4    4    0    0 -0.12055594374E+01 -0.14350691159E+01 -0.27581676600E+01  0.33363827420E+01  0.10566000000E+00 0. -1.
        -13    1    4    4    0    0 -0.18005885184E+02 -0.19821241172E+02 -0.33625284391E+02  0.42985630358E+02  0.10566000000E+00 0.  1.
        -14    1    4    4    0    0 -0.27638960554E+01 -0.31212437683E+01 -0.63804434116E+01  0.76217676555E+01  0.00000000000E+00 0.  1.
<mgrwt>
<rscale>  0 0.80862045E+02</rscale>
<asrwt>0</asrwt>
<pdfrwt beam="1">  1        1 0.35621248E-01 0.80862045E+02</pdfrwt>
<pdfrwt beam="2">  1       -2 0.10861595E-02 0.80862045E+02</pdfrwt>
<totfact> 0.16676315E+05</totfact>
</mgrwt>
</event>
<event>
 8    1  0.8577104E-014  0.7999654E+02  0.7818608E-02  0.1329061E+00
          1   -1    0    0  501    0  0.00000000000E+00  0.00000000000E+00  0.45099352965E+02  0.45099353247E+02  0.50400000000E-02 0. -1.
         -2   -1    0    0    0  501 -0.00000000000E+00 -0.00000000000E+00 -0.35474154006E+02  0.35474154097E+02  0.25500000000E-02 0.  1.
        -24    2    1    2    0    0  0.00000000000E+00  0.00000000000E+00  0.96251989594E+01  0.80573507344E+02  0.79996535117E+02 0.  0.
         66    2    3    3    0    0 -0.16669180733E+02  0.43803039887E+01 -0.31511243861E+02  0.35972310708E+02  0.19999996656E+01 0.  0.
         13    1    3    3    0    0  0.16669180733E+02 -0.43803039887E+01  0.41136442821E+02  0.44601196636E+02  0.10566000000E+00 0. -1.
         13    1    4    4    0    0 -0.33336592331E+01  0.13183312113E+01 -0.73140859528E+01  0.81460603009E+01  0.10566000000E+00 0. -1.
        -13    1    4    4    0    0 -0.10052665766E+01 -0.67109080047E-01 -0.15746768921E+01  0.18723877453E+01  0.10566000000E+00 0.  1.
         14    1    4    4    0    0 -0.12330254923E+02  0.31290818575E+01 -0.22622481016E+02  0.25953862662E+02  0.00000000000E+00 0. -1.
<mgrwt>
<rscale>  0 0.79996535E+02</rscale>
<asrwt>0</asrwt>
<pdfrwt beam="1">  1        1 0.69383620E-02 0.79996535E+02</pdfrwt>
<pdfrwt beam="2">  1       -2 0.54575622E-02 0.79996535E+02</pdfrwt>
<totfact> 0.12945977E+05</totfact>
</mgrwt>
</event>
<event>
 8    1  0.8577104E-014  0.7932874E+02  0.7818608E-02  0.1330967E+00
          1   -1    0    0  501    0  0.00000000000E+00  0.00000000000E+00  0.93743563215E+02  0.93743563351E+02  0.50400000000E-02 0. -1.
         -2   -1    0    0    0  501 -0.00000000000E+00 -0.00000000000E+00 -0.16782616499E+02  0.16782616692E+02  0.25500000000E-02 0.  1.
        -24    2    1    2    0    0 -0.88817841970E-15  0.35527136788E-14  0.76960946717E+02  0.11052618004E+03  0.79328741042E+02 0.  0.
         66    2    3    3    0    0 -0.39228087827E+01  0.28082914437E+02  0.77096592005E+02  0.82170085888E+02  0.20000009959E+01 0.  0.
         13    1    3    3    0    0  0.39228087827E+01 -0.28082914437E+02 -0.13564528861E+00  0.28356094155E+02  0.10566000000E+00 0. -1.
         13    1    4    4    0    0 -0.18906345943E+01  0.11432784421E+02  0.33026429591E+02  0.35000561057E+02  0.10566000000E+00 0. -1.
        -13    1    4    4    0    0  0.72714579447E-01  0.15668962208E+01  0.35801838905E+01  0.39101575291E+01  0.10566000000E+00 0.  1.
        -14    1    4    4    0    0 -0.21048887678E+01  0.15083233795E+02  0.40489978524E+02  0.43259367302E+02  0.00000000000E+00 0.  1.
<mgrwt>
<rscale>  0 0.79328741E+02</rscale>
<asrwt>0</asrwt>
<pdfrwt beam="1">  1        1 0.14422087E-01 0.79328741E+02</pdfrwt>
<pdfrwt beam="2">  1       -2 0.25819410E-02 0.79328741E+02</pdfrwt>
<totfact> 0.14876794E+05</totfact>
</mgrwt>
</event>
<event>
 8    1  0.8577104E-014  0.7379700E+02  0.7818608E-02  0.1347637E+00
          1   -1    0    0  501    0  0.00000000000E+00  0.00000000000E+00  0.35882732253E+03  0.35882732257E+03  0.50400000000E-02 0. -1.
         -2   -1    0    0    0  501 -0.00000000000E+00 -0.00000000000E+00 -0.37943021762E+01  0.37943030331E+01  0.25500000000E-02 0.  1.
        -24    2    1    2    0    0  0.00000000000E+00  0.00000000000E+00  0.35503302036E+03  0.36262162560E+03  0.73797004073E+02 0.  0.
         66    2    3    3    0    0 -0.27763484523E+02  0.24203263546E+02  0.16929953846E+03  0.17327129817E+03  0.20000013705E+01 0.  0.
         13    1    3    3    0    0  0.27763484523E+02 -0.24203263546E+02  0.18573348189E+03  0.18935032743E+03  0.10566000000E+00 0. -1.
         13    1    4    4    0    0 -0.20735518201E+02  0.18319756504E+02  0.12738075372E+03  0.13035122851E+03  0.10566000000E+00 0.  1.
        -13    1    4    4    0    0 -0.66103002772E+01  0.53257726068E+01  0.37690999119E+02  0.38635249478E+02  0.10566000000E+00 0. -1.
         14    1    4    4    0    0 -0.41766604474E+00  0.55773443486E+00  0.42277856305E+01  0.42848201785E+01  0.00000000000E+00 0. -1.
<mgrwt>
<rscale>  0 0.73797004E+02</rscale>
<asrwt>0</asrwt>
<pdfrwt beam="1">  1        1 0.55204213E-01 0.73797004E+02</pdfrwt>
<pdfrwt beam="2">  1       -2 0.58373876E-03 0.73797004E+02</pdfrwt>
<totfact> 0.23032281E+05</totfact>
</mgrwt>
</event>
<event>
 8    1  0.8577104E-014  0.8403834E+02  0.7818608E-02  0.1317967E+00
          1   -1    0    0  501    0  0.00000000000E+00  0.00000000000E+00  0.14078182249E+02  0.14078183151E+02  0.50400000000E-02 0. -1.
         -2   -1    0    0    0  501 -0.00000000000E+00 -0.00000000000E+00 -0.12541467761E+03  0.12541467764E+03  0.25500000000E-02 0.  1.
        -24    2    1    2    0    0  0.00000000000E+00 -0.35527136788E-14 -0.11133649537E+03  0.13949286079E+03  0.84038342508E+02 0.  0.
         66    2    3    3    0    0  0.12907776688E+02  0.23054430667E+02 -0.10988091616E+03  0.11303067367E+03  0.19999953755E+01 0.  0.
         13    1    3    3    0    0 -0.12907776688E+02 -0.23054430667E+02 -0.14555792046E+01  0.26462187122E+02  0.10566000000E+00 0. -1.
         13    1    4    4    0    0  0.70935682115E+01  0.11445946301E+02 -0.57735475388E+02  0.59285113469E+02  0.10566000000E+00 0. -1.
        -13    1    4    4    0    0  0.13904785195E+01  0.20426965208E+01 -0.10470438604E+02  0.10758591366E+02  0.10566000000E+00 0.  1.
        -14    1    4    4    0    0  0.44237299573E+01  0.95657878451E+01 -0.41675002169E+02  0.42986968835E+02  0.00000000000E+00 0.  1.
<mgrwt>
<rscale>  0 0.84038343E+02</rscale>
<asrwt>0</asrwt>
<pdfrwt beam="1">  1        1 0.21658744E-02 0.84038343E+02</pdfrwt>
<pdfrwt beam="2">  1       -2 0.19294565E-01 0.84038343E+02</pdfrwt>
<totfact> 0.88001004E+04</totfact>
</mgrwt>
</event>
<event>
 8    1  0.8577104E-014  0.7856294E+02  0.7818608E-02  0.1333180E+00
          1   -1    0    0  501    0  0.00000000000E+00  0.00000000000E+00  0.97447591513E+01  0.97447604546E+01  0.50400000000E-02 0. -1.
         -2   -1    0    0    0  501 -0.00000000000E+00 -0.00000000000E+00 -0.15834498444E+03  0.15834498446E+03  0.25500000000E-02 0.  1.
        -24    2    1    2    0    0  0.00000000000E+00  0.00000000000E+00 -0.14860022529E+03  0.16808974491E+03  0.78562939034E+02 0.  0.
         66    2    3    3    0    0  0.20849603277E+02 -0.32184989284E+02 -0.92306305388E+02  0.99975164436E+02  0.19999993820E+01 0.  0.
         13    1    3    3    0    0 -0.20849603277E+02  0.32184989284E+02 -0.56293919897E+02  0.68114580476E+02  0.10566000000E+00 0. -1.
         13    1    4    4    0    0  0.20093009130E+01 -0.27297761102E+01 -0.83849281751E+01  0.90447306377E+01  0.10566000000E+00 0. -1.
        -13    1    4    4    0    0  0.95701768340E+01 -0.13386171431E+02 -0.39769192143E+02  0.43039257404E+02  0.10566000000E+00 0.  1.
         14    1    4    4    0    0  0.92701255297E+01 -0.16069041743E+02 -0.44152185071E+02  0.47891176394E+02  0.00000000000E+00 0. -1.
<mgrwt>
<rscale>  0 0.78562939E+02</rscale>
<asrwt>0</asrwt>
<pdfrwt beam="1">  1        1 0.14991939E-02 0.78562939E+02</pdfrwt>
<pdfrwt beam="2">  1       -2 0.24360765E-01 0.78562939E+02</pdfrwt>
<totfact> 0.97243955E+04</totfact>
</mgrwt>
</event>
<event>
 8    1  0.8577104E-014  0.8013000E+02  0.7818608E-02  0.1328683E+00
          1   -1    0    0  501    0  0.00000000000E+00  0.00000000000E+00  0.83002524556E+02  0.83002524709E+02  0.50400000000E-02 0. -1.
         -2   -1    0    0    0  501 -0.00000000000E+00 -0.00000000000E+00 -0.19339220511E+02  0.19339220679E+02  0.25500000000E-02 0.  1.
        -24    2    1    2    0    0 -0.35527136788E-14  0.35527136788E-14  0.63663304046E+02  0.10234174539E+03  0.80129997923E+02 0.  0.
         66    2    3    3    0    0 -0.20532012360E+02  0.18937765803E+02 -0.47886796219E+01  0.28410103061E+02  0.19999995719E+01 0.  0.
         13    1    3    3    0    0  0.20532012360E+02 -0.18937765803E+02  0.68451983667E+02  0.73931642327E+02  0.10566000000E+00 0. -1.
         13    1    4    4    0    0 -0.87391457855E+01  0.83750930689E+01 -0.15411594166E+01  0.12202507503E+02  0.10566000000E+00 0. -1.
        -13    1    4    4    0    0 -0.11071603569E+02  0.10000872733E+02 -0.27660491847E+01  0.15174322164E+02  0.10566000000E+00 0.  1.
         14    1    4    4    0    0 -0.72126300537E+00  0.56180000053E+00 -0.48147102071E+00  0.10332733943E+01  0.00000000000E+00 0. -1.
<mgrwt>
<rscale>  0 0.80129998E+02</rscale>
<asrwt>0</asrwt>
<pdfrwt beam="1">  1        1 0.12769619E-01 0.80129998E+02</pdfrwt>
<pdfrwt beam="2">  1       -2 0.29752647E-02 0.80129998E+02</pdfrwt>
<totfact> 0.14191197E+05</totfact>
</mgrwt>
</event>
<event>
 8    1  0.8577104E-014  0.7776775E+02  0.7818608E-02  0.1335508E+00
          1   -1    0    0  501    0  0.00000000000E+00  0.00000000000E+00  0.40768071234E+02  0.40768071546E+02  0.50400000000E-02 0. -1.
         -2   -1    0    0    0  501 -0.00000000000E+00 -0.00000000000E+00 -0.37086763177E+02  0.37086763264E+02  0.25500000000E-02 0.  1.
        -24    2    1    2    0    0  0.00000000000E+00  0.00000000000E+00  0.36813080576E+01  0.77854834810E+02  0.77767752149E+02 0.  0.
         66    2    3    3    0    0  0.45388230331E+00  0.29492349091E+02 -0.23483617781E+02  0.37755595118E+02  0.19999986413E+01 0.  0.
         13    1    3    3    0    0 -0.45388230331E+00 -0.29492349091E+02  0.27164925838E+02  0.40099239692E+02  0.10566000000E+00 0. -1.
         13    1    4    4    0    0  0.86913991187E+00  0.15029901822E+02 -0.12613513362E+02  0.19640907218E+02  0.10566000000E+00 0. -1.
        -13    1    4    4    0    0 -0.37854713077E+00  0.73030279625E+01 -0.50456138969E+01  0.88852067496E+01  0.10566000000E+00 0.  1.
         14    1    4    4    0    0 -0.36710477797E-01  0.71594193063E+01 -0.58244905217E+01  0.92294811501E+01  0.00000000000E+00 0. -1.
<mgrwt>
<rscale>  0 0.77767752E+02</rscale>
<asrwt>0</asrwt>
<pdfrwt beam="1">  1        1 0.62720110E-02 0.77767752E+02</pdfrwt>
<pdfrwt beam="2">  1       -2 0.57056559E-02 0.77767752E+02</pdfrwt>
<totfact> 0.13789579E+05</totfact>
</mgrwt>
</event>
<event>
 8    1  0.8577104E-014  0.8017747E+02  0.7818608E-02  0.1328549E+00
         -2   -1    0    0    0  501 -0.00000000000E+00  0.00000000000E+00  0.35235032647E+02  0.35235032740E+02  0.25500000000E-02 0.  1.
          1   -1    0    0  501    0  0.00000000000E+00 -0.00000000000E+00 -0.45611046482E+02  0.45611046760E+02  0.50400000000E-02 0. -1.
        -24    2    1    2    0    0  0.00000000000E+00  0.71054273576E-14 -0.10376013834E+02  0.80846079500E+02  0.80177471321E+02 0.  0.
         66    2    3    3    0    0  0.12582631692E+01 -0.40006891101E+02 -0.34543028760E+01  0.40225200529E+02  0.19999968627E+01 0.  0.
         13    1    3    3    0    0 -0.12582631692E+01  0.40006891101E+02 -0.69217109582E+01  0.40620878971E+02  0.10566000000E+00 0. -1.
         13    1    4    4    0    0  0.42453135900E+00 -0.21468910941E+02 -0.13543482686E+01  0.21516035582E+02  0.10566000000E+00 0.  1.
        -13    1    4    4    0    0  0.50963139235E+00 -0.27683128514E+01 -0.24438754610E+00  0.28273962417E+01  0.10566000000E+00 0. -1.
        -14    1    4    4    0    0  0.32410041789E+00 -0.15769667308E+02 -0.18555670613E+01  0.15881768705E+02  0.00000000000E+00 0.  1.
<mgrwt>
<rscale>  0 0.80177471E+02</rscale>
<asrwt>0</asrwt>
<pdfrwt beam="1">  1        1 0.70170841E-02 0.80177471E+02</pdfrwt>
<pdfrwt beam="2">  1       -2 0.54207743E-02 0.80177471E+02</pdfrwt>
<totfact> 0.12887524E+05</totfact>
</mgrwt>
</event>
<event>
 8    1  0.8577104E-014  0.7459778E+02  0.7818608E-02  0.1345121E+00
          1   -1    0    0  501    0  0.00000000000E+00  0.00000000000E+00  0.13718461084E+03  0.13718461093E+03  0.50400000000E-02 0. -1.
         -2   -1    0    0    0  501 -0.00000000000E+00 -0.00000000000E+00 -0.10141131128E+02  0.10141131449E+02  0.25500000000E-02 0.  1.
        -24    2    1    2    0    0  0.00000000000E+00  0.00000000000E+00  0.12704347971E+03  0.14732574238E+03  0.74597778994E+02 0.  0.
         66    2    3    3    0    0  0.33642611761E+02 -0.13822523571E+02  0.47484607806E+02  0.59847100719E+02  0.20000005089E+01 0.  0.
         13    1    3    3    0    0 -0.33642611761E+02  0.13822523571E+02  0.79558871906E+02  0.87478641662E+02  0.10566000000E+00 0. -1.
         13    1    4    4    0    0  0.46521619816E+01 -0.13825564941E+01  0.68509556429E+01  0.83964772862E+01  0.10566000000E+00 0. -1.
        -13    1    4    4    0    0  0.14953109536E+02 -0.61252376460E+01  0.20197683354E+02  0.25866418344E+02  0.10566000000E+00 0.  1.
        -14    1    4    4    0    0  0.14037340244E+02 -0.63147294311E+01  0.20435968809E+02  0.25584205089E+02  0.00000000000E+00 0.  1.
<mgrwt>
<rscale>  0 0.74597779E+02</rscale>
<asrwt>0</asrwt>
<pdfrwt beam="1">  1        1 0.21105324E-01 0.74597779E+02</pdfrwt>
<pdfrwt beam="2">  1       -2 0.15601741E-02 0.74597779E+02</pdfrwt>
<totfact> 0.18715383E+05</totfact>
</mgrwt>
</event>
<event>
 8    1  0.8577104E-014  0.7754806E+02  0.7818608E-02  0.1336157E+00
          1   -1    0    0  501    0  0.00000000000E+00  0.00000000000E+00  0.14517737333E+02  0.14517738207E+02  0.50400000000E-02 0. -1.
         -2   -1    0    0    0  501 -0.00000000000E+00 -0.00000000000E+00 -0.10355782594E+03  0.10355782597E+03  0.25500000000E-02 0.  1.
        -24    2    1    2    0    0 -0.44408920985E-15  0.00000000000E+00 -0.89040088604E+02  0.11807556418E+03  0.77548059142E+02 0.  0.
         66    2    3    3    0    0  0.18628990088E+01  0.38575318015E+02 -0.39760023499E+02  0.55465169404E+02  0.19999989258E+01 0.  0.
         13    1    3    3    0    0 -0.18628990088E+01 -0.38575318015E+02 -0.49280065105E+02  0.62610394772E+02  0.10566000000E+00 0. -1.
         13    1    4    4    0    0 -0.28012573570E-01  0.56380599252E+01 -0.49768727363E+01  0.75212319931E+01  0.10566000000E+00 0. -1.
        -13    1    4    4    0    0  0.74864337686E+00  0.92753623618E+01 -0.99500389940E+01  0.13623775316E+02  0.10566000000E+00 0.  1.
         14    1    4    4    0    0  0.11422682055E+01  0.23661895728E+02 -0.24833111769E+02  0.34320162095E+02  0.00000000000E+00 0. -1.
<mgrwt>
<rscale>  0 0.77548059E+02</rscale>
<asrwt>0</asrwt>
<pdfrwt beam="1">  1        1 0.22334982E-02 0.77548059E+02</pdfrwt>
<pdfrwt beam="2">  1       -2 0.15931973E-01 0.77548059E+02</pdfrwt>
<totfact> 0.11392446E+05</totfact>
</mgrwt>
</event>
<event>
 8    1  0.8577104E-014  0.7771894E+02  0.7818608E-02  0.1335652E+00
         -2   -1    0    0    0  501 -0.00000000000E+00  0.00000000000E+00  0.43727879805E+01  0.43727887240E+01  0.25500000000E-02 0.  1.
          1   -1    0    0  501    0  0.00000000000E+00 -0.00000000000E+00 -0.34533081246E+03  0.34533081250E+03  0.50400000000E-02 0. -1.
        -24    2    1    2    0    0  0.00000000000E+00  0.00000000000E+00 -0.34095802448E+03  0.34970360122E+03  0.77718943958E+02 0.  0.
         66    2    3    3    0    0 -0.33612565602E+02  0.19413844161E+02 -0.17582299256E+03  0.18006783894E+03  0.19999996196E+01 0.  0.
         13    1    3    3    0    0  0.33612565602E+02 -0.19413844161E+02 -0.16513503192E+03  0.16963576228E+03  0.10566000000E+00 0. -1.
         13    1    4    4    0    0 -0.19245958638E+02  0.10991575356E+02 -0.10199819277E+03  0.10437846590E+03  0.10566000000E+00 0.  1.
        -13    1    4    4    0    0 -0.36541670623E+01  0.24459569468E+01 -0.21599154325E+02  0.22042465241E+02  0.10566000000E+00 0. -1.
         14    1    4    4    0    0 -0.10712439901E+02  0.59763118589E+01 -0.52225645466E+02  0.53646907799E+02  0.00000000000E+00 0. -1.
<mgrwt>
<rscale>  0 0.77718944E+02</rscale>
<asrwt>0</asrwt>
<pdfrwt beam="1">  1        1 0.53127796E-01 0.77718944E+02</pdfrwt>
<pdfrwt beam="2">  1       -2 0.67273694E-03 0.77718944E+02</pdfrwt>
<totfact> 0.19981052E+05</totfact>
</mgrwt>
</event>
<event>
 8    1  0.8577104E-014  0.7889895E+02  0.7818608E-02  0.1332205E+00
         -2   -1    0    0    0  501 -0.00000000000E+00  0.00000000000E+00  0.73117847944E+03  0.73117847945E+03  0.25500000000E-02 0.  1.
          1   -1    0    0  501    0  0.00000000000E+00 -0.00000000000E+00 -0.21284253123E+01  0.21284312795E+01  0.50400000000E-02 0. -1.
        -24    2    1    2    0    0  0.00000000000E+00  0.00000000000E+00  0.72905005413E+03  0.73330691073E+03  0.78898947344E+02 0.  0.
         66    2    3    3    0    0  0.12665917692E+02 -0.10009848320E+02  0.69904614890E+03  0.69923539730E+03  0.20000012613E+01 0.  0.
         13    1    3    3    0    0 -0.12665917692E+02  0.10009848320E+02  0.30003905230E+02  0.34071513430E+02  0.10566000000E+00 0. -1.
         13    1    4    4    0    0  0.85213029993E+01 -0.77598724394E+01  0.49023139563E+03  0.49036686332E+03  0.10566000000E+00 0. -1.
        -13    1    4    4    0    0  0.37817662319E+01 -0.21813233731E+01  0.19034867577E+03  0.19039876433E+03  0.10566000000E+00 0.  1.
         14    1    4    4    0    0  0.36284846034E+00 -0.68652507508E-01  0.18466077503E+02  0.18469769639E+02  0.00000000000E+00 0. -1.
<mgrwt>
<rscale>  0 0.78898947E+02</rscale>
<asrwt>0</asrwt>
<pdfrwt beam="1">  1        1 0.32745061E-03 0.78898947E+02</pdfrwt>
<pdfrwt beam="2">  1       -2 0.11248896E+00 0.78898947E+02</pdfrwt>
<totfact> 0.37630767E+04</totfact>
</mgrwt>
</event>
<event>
 8    1  0.8577104E-014  0.8120582E+02  0.7818608E-02  0.1325664E+00
         -2   -1    0    0    0  501 -0.00000000000E+00  0.00000000000E+00  0.46812476638E+02  0.46812476708E+02  0.25500000000E-02 0.  1.
          1   -1    0    0  501    0  0.00000000000E+00 -0.00000000000E+00 -0.35217025530E+02  0.35217025891E+02  0.50400000000E-02 0. -1.
        -24    2    1    2    0    0 -0.44408920985E-15  0.00000000000E+00  0.11595451108E+02  0.82029502598E+02  0.81205817588E+02 0.  0.
         66    2    3    3    0    0  0.30279662161E+01  0.39325492737E+02  0.15433585373E+02  0.42401161766E+02  0.20000008122E+01 0.  0.
         13    1    3    3    0    0 -0.30279662161E+01 -0.39325492737E+02 -0.38381342647E+01  0.39628340832E+02  0.10566000000E+00 0. -1.
         13    1    4    4    0    0  0.23132571135E+01  0.22239519928E+02  0.80396177571E+01  0.23761187319E+02  0.10566000000E+00 0. -1.
        -13    1    4    4    0    0  0.25634677047E+00  0.22996913657E+01  0.10710923272E+01  0.25519985997E+01  0.10566000000E+00 0.  1.
        -14    1    4    4    0    0  0.45836233219E+00  0.14786281444E+02  0.63228752884E+01  0.16087975848E+02  0.00000000000E+00 0.  1.
<mgrwt>
<rscale>  0 0.81205818E+02</rscale>
<asrwt>0</asrwt>
<pdfrwt beam="1">  1        1 0.54180040E-02 0.81205818E+02</pdfrwt>
<pdfrwt beam="2">  1       -2 0.72019194E-02 0.81205818E+02</pdfrwt>
<totfact> 0.11915244E+05</totfact>
</mgrwt>
</event>
<event>
 8    1  0.8577104E-014  0.7955908E+02  0.7818608E-02  0.1330307E+00
          1   -1    0    0  501    0  0.00000000000E+00  0.00000000000E+00  0.67946843081E+02  0.67946843268E+02  0.50400000000E-02 0. -1.
         -2   -1    0    0    0  501 -0.00000000000E+00 -0.00000000000E+00 -0.23288965749E+02  0.23288965889E+02  0.25500000000E-02 0.  1.
        -24    2    1    2    0    0  0.35527136788E-14  0.00000000000E+00  0.44657877332E+02  0.91235809156E+02  0.79559077827E+02 0.  0.
         66    2    3    3    0    0 -0.29680260846E+02 -0.21123583197E+02  0.40923446164E+01  0.36713361857E+02  0.20000008605E+01 0.  0.
         13    1    3    3    0    0  0.29680260846E+02  0.21123583197E+02  0.40565532715E+02  0.54522447299E+02  0.10566000000E+00 0. -1.
         13    1    4    4    0    0 -0.97100094040E+01 -0.63634986327E+01  0.61079844341E+00  0.11625946682E+02  0.10566000000E+00 0. -1.
        -13    1    4    4    0    0 -0.78565420512E+01 -0.54592475247E+01  0.15754242753E+01  0.96964819507E+01  0.10566000000E+00 0.  1.
         14    1    4    4    0    0 -0.12113709391E+02 -0.93008370393E+01  0.19061218977E+01  0.15390933225E+02  0.00000000000E+00 0. -1.
<mgrwt>
<rscale>  0 0.79559078E+02</rscale>
<asrwt>0</asrwt>
<pdfrwt beam="1">  1        1 0.10453361E-01 0.79559078E+02</pdfrwt>
<pdfrwt beam="2">  1       -2 0.35829178E-02 0.79559078E+02</pdfrwt>
<totfact> 0.14016213E+05</totfact>
</mgrwt>
</event>
<event>
 8    1  0.8577104E-014  0.8168408E+02  0.7818608E-02  0.1324339E+00
          1   -1    0    0  501    0  0.00000000000E+00  0.00000000000E+00  0.12117270537E+03  0.12117270547E+03  0.50400000000E-02 0. -1.
         -2   -1    0    0    0  501 -0.00000000000E+00 -0.00000000000E+00 -0.13766072917E+02  0.13766073153E+02  0.25500000000E-02 0.  1.
        -24    2    1    2    0    0  0.17763568394E-14 -0.71054273576E-14  0.10740663245E+03  0.13493877863E+03  0.81684082187E+02 0.  0.
         66    2    3    3    0    0 -0.11177415183E+02  0.36342536508E+02  0.29213268776E+02  0.47990933012E+02  0.20000022087E+01 0.  0.
         13    1    3    3    0    0  0.11177415183E+02 -0.36342536508E+02  0.78193363676E+02  0.86947845615E+02  0.10566000000E+00 0. -1.
         13    1    4    4    0    0 -0.22645694768E+01  0.69666746789E+01  0.51426535579E+01  0.89510267930E+01  0.10566000000E+00 0. -1.
        -13    1    4    4    0    0 -0.75729159747E+01  0.24255784113E+02  0.20589104573E+02  0.32704961557E+02  0.10566000000E+00 0.  1.
        -14    1    4    4    0    0 -0.13399297313E+01  0.51200777167E+01  0.34815106442E+01  0.63349446623E+01  0.00000000000E+00 0.  1.
<mgrwt>
<rscale>  0 0.81684082E+02</rscale>
<asrwt>0</asrwt>
<pdfrwt beam="1">  1        1 0.18641955E-01 0.81684082E+02</pdfrwt>
<pdfrwt beam="2">  1       -2 0.21178573E-02 0.81684082E+02</pdfrwt>
<totfact> 0.14364133E+05</totfact>
</mgrwt>
</event>
<event>
 8    1  0.8577104E-014  0.8088124E+02  0.7818608E-02  0.1326569E+00
         -2   -1    0    0    0  501 -0.00000000000E+00  0.00000000000E+00  0.16745968385E+03  0.16745968387E+03  0.25500000000E-02 0.  1.
          1   -1    0    0  501    0  0.00000000000E+00 -0.00000000000E+00 -0.97661928645E+01  0.97661941650E+01  0.50400000000E-02 0. -1.
        -24    2    1    2    0    0  0.00000000000E+00  0.00000000000E+00  0.15769349099E+03  0.17722587804E+03  0.80881238529E+02 0.  0.
         66    2    3    3    0    0 -0.17435112278E+02  0.72629788650E+01  0.15718811765E+03  0.15833141937E+03  0.20000069537E+01 0.  0.
         13    1    3    3    0    0  0.17435112278E+02 -0.72629788650E+01  0.50537334193E+00  0.18894458669E+02  0.10566000000E+00 0. -1.
         13    1    4    4    0    0 -0.69418036456E+01  0.27432080391E+01  0.68905933481E+02  0.69309109510E+02  0.10566000000E+00 0. -1.
        -13    1    4    4    0    0 -0.24117667331E+01  0.10292826871E+01  0.17771814693E+02  0.17964537376E+02  0.10566000000E+00 0.  1.
         14    1    4    4    0    0 -0.80815418996E+01  0.34904881388E+01  0.70510369473E+02  0.71057772483E+02  0.00000000000E+00 0. -1.
<mgrwt>
<rscale>  0 0.80881239E+02</rscale>
<asrwt>0</asrwt>
<pdfrwt beam="1">  1        1 0.15024913E-02 0.80881239E+02</pdfrwt>
<pdfrwt beam="2">  1       -2 0.25763028E-01 0.80881239E+02</pdfrwt>
<totfact> 0.88485126E+04</totfact>
</mgrwt>
</event>
<event>
 8    1  0.8577104E-014  0.8010692E+02  0.7818608E-02  0.1328748E+00
          1   -1    0    0  501    0  0.00000000000E+00  0.00000000000E+00  0.18694676584E+02  0.18694677264E+02  0.50400000000E-02 0. -1.
         -2   -1    0    0    0  501 -0.00000000000E+00 -0.00000000000E+00 -0.85814791636E+02  0.85814791674E+02  0.25500000000E-02 0.  1.
        -24    2    1    2    0    0 -0.71054273576E-14  0.00000000000E+00 -0.67120115052E+02  0.10450946894E+03  0.80106923877E+02 0.  0.
         66    2    3    3    0    0 -0.32992852202E+02 -0.22556629906E+02 -0.36482057854E+02  0.54150442318E+02  0.20000022143E+01 0.  0.
         13    1    3    3    0    0  0.32992852202E+02  0.22556629906E+02 -0.30638057198E+02  0.50359026619E+02  0.10566000000E+00 0. -1.
         13    1    4    4    0    0 -0.74737758125E+01 -0.47046631492E+01 -0.85927914307E+01  0.12322272877E+02  0.10566000000E+00 0. -1.
        -13    1    4    4    0    0 -0.17966876002E+02 -0.11991323255E+02 -0.19882285075E+02  0.29358421118E+02  0.10566000000E+00 0.  1.
         14    1    4    4    0    0 -0.75522003875E+01 -0.58606435019E+01 -0.80069813482E+01  0.12469748324E+02  0.00000000000E+00 0. -1.
<mgrwt>
<rscale>  0 0.80106924E+02</rscale>
<asrwt>0</asrwt>
<pdfrwt beam="1">  1        1 0.28761042E-02 0.80106924E+02</pdfrwt>
<pdfrwt beam="2">  1       -2 0.13202275E-01 0.80106924E+02</pdfrwt>
<totfact> 0.10966820E+05</totfact>
</mgrwt>
</event>
<event>
 8    1  0.8781050E-014  0.8086378E+02  0.7818608E-02  0.1326618E+00
         -2   -1    0    0    0  501 -0.00000000000E+00  0.00000000000E+00  0.26087012219E+03  0.26087012220E+03  0.25500000000E-02 0.  1.
          1   -1    0    0  501    0  0.00000000000E+00 -0.00000000000E+00 -0.62664809754E+01  0.62664830022E+01  0.50400000000E-02 0. -1.
        -24    2    1    2    0    0 -0.17763568394E-14  0.17763568394E-14  0.25460364122E+03  0.26713660521E+03  0.80863784976E+02 0.  0.
         66    2    3    3    0    0 -0.14478415068E+02  0.12452072802E+02  0.24501764866E+03  0.24576884825E+03  0.19999992672E+01 0.  0.
         13    1    3    3    0    0  0.14478415068E+02 -0.12452072802E+02  0.95859925595E+01  0.21367756956E+02  0.10566000000E+00 0. -1.
         13    1    4    4    0    0 -0.58650125355E+01  0.49282598621E+01  0.97908687279E+02  0.98207985042E+02  0.10566000000E+00 0. -1.
        -13    1    4    4    0    0 -0.84400499625E+01  0.69304062578E+01  0.13919375675E+03  0.13962155298E+03  0.10566000000E+00 0.  1.
         14    1    4    4    0    0 -0.17335257005E+00  0.59340668185E+00  0.79152046266E+01  0.79393102272E+01  0.00000000000E+00 0. -1.
<mgrwt>
<rscale>  0 0.80863785E+02</rscale>
<asrwt>0</asrwt>
<pdfrwt beam="1">  1        1 0.96407423E-03 0.80863785E+02</pdfrwt>
<pdfrwt beam="2">  1       -2 0.40133862E-01 0.80863785E+02</pdfrwt>
<totfact> 0.73474441E+04</totfact>
</mgrwt>
</event>
<event>
 8    1  0.8577104E-014  0.7680636E+02  0.7818608E-02  0.1338367E+00
          1   -1    0    0  501    0  0.00000000000E+00  0.00000000000E+00  0.15766440612E+03  0.15766440620E+03  0.50400000000E-02 0. -1.
         -2   -1    0    0    0  501 -0.00000000000E+00 -0.00000000000E+00 -0.93540714944E+01  0.93540718420E+01  0.25500000000E-02 0.  1.
        -24    2    1    2    0    0  0.00000000000E+00  0.00000000000E+00  0.14831033463E+03  0.16701847804E+03  0.76806358141E+02 0.  0.
         66    2    3    3    0    0  0.37779520132E+02 -0.50240533711E+01  0.64416012765E+02  0.74872931986E+02  0.19999974885E+01 0.  0.
         13    1    3    3    0    0 -0.37779520132E+02  0.50240533711E+01  0.83894321862E+02  0.92145546058E+02  0.10566000000E+00 0. -1.
         13    1    4    4    0    0  0.17306334308E+02 -0.18188747848E+01  0.28520055189E+02  0.33409912072E+02  0.10566000000E+00 0.  1.
        -13    1    4    4    0    0  0.48298520768E+01 -0.11750576420E+01  0.81812136239E+01  0.95734869270E+01  0.10566000000E+00 0. -1.
         14    1    4    4    0    0  0.15643333747E+02 -0.20301209443E+01  0.27714743952E+02  0.31889532986E+02  0.00000000000E+00 0. -1.
<mgrwt>
<rscale>  0 0.76806358E+02</rscale>
<asrwt>0</asrwt>
<pdfrwt beam="1">  1        1 0.24256060E-01 0.76806358E+02</pdfrwt>
<pdfrwt beam="2">  1       -2 0.14390881E-02 0.76806358E+02</pdfrwt>
<totfact> 0.17760753E+05</totfact>
</mgrwt>
</event>
<event>
 8    1  0.8577104E-014  0.7789086E+02  0.7818608E-02  0.1335146E+00
          1   -1    0    0  501    0  0.00000000000E+00  0.00000000000E+00  0.15159147042E+02  0.15159147880E+02  0.50400000000E-02 0. -1.
         -2   -1    0    0    0  501 -0.00000000000E+00 -0.00000000000E+00 -0.10005485879E+03  0.10005485882E+03  0.25500000000E-02 0.  1.
        -24    2    1    2    0    0  0.00000000000E+00  0.00000000000E+00 -0.84895711747E+02  0.11521400670E+03  0.77890856121E+02 0.  0.
         66    2    3    3    0    0  0.17006961519E+02 -0.38767781143E+01 -0.93938961465E+02  0.95565656182E+02  0.20000029276E+01 0.  0.
         13    1    3    3    0    0 -0.17006961519E+02  0.38767781143E+01  0.90432497180E+01  0.19648350520E+02  0.10566000000E+00 0. -1.
         13    1    4    4    0    0  0.19371512646E+01 -0.18855755152E+00 -0.85656319652E+01  0.87846072178E+01  0.10566000000E+00 0. -1.
        -13    1    4    4    0    0  0.14921191706E+02 -0.37599875505E+01 -0.83999908036E+02  0.85397746939E+02  0.10566000000E+00 0.  1.
        -14    1    4    4    0    0  0.14861854918E+00  0.71766987726E-01 -0.13734214637E+01  0.13833020243E+01  0.00000000000E+00 0.  1.
<mgrwt>
<rscale>  0 0.77890856E+02</rscale>
<asrwt>0</asrwt>
<pdfrwt beam="1">  1        1 0.23321766E-02 0.77890856E+02</pdfrwt>
<pdfrwt beam="2">  1       -2 0.15393055E-01 0.77890856E+02</pdfrwt>
<totfact> 0.11361969E+05</totfact>
</mgrwt>
</event>
<event>
 8    1  0.8577104E-014  0.7957767E+02  0.7818608E-02  0.1330254E+00
         -2   -1    0    0    0  501 -0.00000000000E+00  0.00000000000E+00  0.36236958651E+01  0.36236967623E+01  0.25500000000E-02 0.  1.
          1   -1    0    0  501    0  0.00000000000E+00 -0.00000000000E+00 -0.43688853675E+03  0.43688853678E+03  0.50400000000E-02 0. -1.
        -24    2    1    2    0    0 -0.71054273576E-14  0.00000000000E+00 -0.43326484089E+03  0.44051223354E+03  0.79577669937E+02 0.  0.
         66    2    3    3    0    0 -0.35584096697E+02 -0.17585584781E+02 -0.22994517965E+03  0.23335437938E+03  0.20000010465E+01 0.  0.
         13    1    3    3    0    0  0.35584096697E+02  0.17585584781E+02 -0.20331966124E+03  0.20715785416E+03  0.10566000000E+00 0. -1.
         13    1    4    4    0    0 -0.73701027454E+00 -0.34569423844E+00 -0.40190077633E+01  0.41019844086E+01  0.10566000000E+00 0. -1.
        -13    1    4    4    0    0 -0.35620639779E+01 -0.12673385952E+01 -0.21344843981E+02  0.21677360898E+02  0.10566000000E+00 0.  1.
        -14    1    4    4    0    0 -0.31285022445E+02 -0.15972551947E+02 -0.20458132790E+03  0.20757503407E+03  0.00000000000E+00 0.  1.
<mgrwt>
<rscale>  0 0.79577670E+02</rscale>
<asrwt>0</asrwt>
<pdfrwt beam="1">  1        1 0.67213580E-01 0.79577670E+02</pdfrwt>
<pdfrwt beam="2">  1       -2 0.55749209E-03 0.79577670E+02</pdfrwt>
<totfact> 0.19526365E+05</totfact>
</mgrwt>
</event>
<event>
 8    1  0.8577104E-014  0.8045958E+02  0.7818608E-02  0.1327752E+00
          1   -1    0    0  501    0  0.00000000000E+00  0.00000000000E+00  0.83439281246E+01  0.83439296467E+01  0.50400000000E-02 0. -1.
         -2   -1    0    0    0  501 -0.00000000000E+00 -0.00000000000E+00 -0.19396570381E+03  0.19396570382E+03  0.25500000000E-02 0.  1.
        -24    2    1    2    0    0  0.00000000000E+00  0.00000000000E+00 -0.18562177568E+03  0.20230963347E+03  0.80459581079E+02 0.  0.
         66    2    3    3    0    0  0.29141274329E+02 -0.18880458587E+02 -0.14382757886E+03  0.14797316654E+03  0.19999975556E+01 0.  0.
         13    1    3    3    0    0 -0.29141274329E+02  0.18880458587E+02 -0.41794196821E+02  0.54336466925E+02  0.10566000000E+00 0. -1.
         13    1    4    4    0    0  0.23697879785E+00 -0.74303325336E-01 -0.15787410077E+01  0.16016451354E+01  0.10566000000E+00 0. -1.
        -13    1    4    4    0    0  0.12671982453E+02 -0.79390035120E+01 -0.63119737762E+02  0.64866935917E+02  0.10566000000E+00 0.  1.
         14    1    4    4    0    0  0.16232313079E+02 -0.10867151750E+02 -0.79129100090E+02  0.81504585491E+02  0.00000000000E+00 0. -1.
<mgrwt>
<rscale>  0 0.80459581E+02</rscale>
<asrwt>0</asrwt>
<pdfrwt beam="1">  1        1 0.12836815E-02 0.80459581E+02</pdfrwt>
<pdfrwt beam="2">  1       -2 0.29840874E-01 0.80459581E+02</pdfrwt>
<totfact> 0.84864919E+04</totfact>
</mgrwt>
</event>
<event>
 8    1  0.8577104E-014  0.8182646E+02  0.7818608E-02  0.1323947E+00
         -2   -1    0    0    0  501 -0.00000000000E+00  0.00000000000E+00  0.52828347662E+02  0.52828347724E+02  0.25500000000E-02 0.  1.
          1   -1    0    0  501    0  0.00000000000E+00 -0.00000000000E+00 -0.31685498817E+02  0.31685499218E+02  0.50400000000E-02 0. -1.
        -24    2    1    2    0    0  0.00000000000E+00 -0.35527136788E-14  0.21142848845E+02  0.84513846941E+02  0.81826464347E+02 0.  0.
         66    2    3    3    0    0  0.14679913034E+02  0.18128965419E+02  0.45262293717E+02  0.50959145053E+02  0.19999995402E+01 0.  0.
         13    1    3    3    0    0 -0.14679913034E+02 -0.18128965419E+02 -0.24119444872E+02  0.33554701888E+02  0.10566000000E+00 0. -1.
         13    1    4    4    0    0  0.66618877826E+00  0.12086929661E+01  0.23506546000E+01  0.27279089535E+01  0.10566000000E+00 0. -1.
        -13    1    4    4    0    0  0.75601538665E+01  0.10213227824E+02  0.25228154671E+02  0.28247776926E+02  0.10566000000E+00 0.  1.
        -14    1    4    4    0    0  0.64535703894E+01  0.67070446290E+01  0.17683484445E+02  0.19983459174E+02  0.00000000000E+00 0.  1.
<mgrwt>
<rscale>  0 0.81826464E+02</rscale>
<asrwt>0</asrwt>
<pdfrwt beam="1">  1        1 0.48746922E-02 0.81826464E+02</pdfrwt>
<pdfrwt beam="2">  1       -2 0.81274381E-02 0.81826464E+02</pdfrwt>
<totfact> 0.11445387E+05</totfact>
</mgrwt>
</event>
<event>
 8    1  0.8577104E-014  0.8184770E+02  0.7818608E-02  0.1323888E+00
         -2   -1    0    0    0  501 -0.00000000000E+00  0.00000000000E+00  0.23532181412E+02  0.23532181550E+02  0.25500000000E-02 0.  1.
          1   -1    0    0  501    0  0.00000000000E+00 -0.00000000000E+00 -0.71168992177E+02  0.71168992355E+02  0.50400000000E-02 0. -1.
        -24    2    1    2    0    0  0.00000000000E+00  0.17763568394E-14 -0.47636810765E+02  0.94701173906E+02  0.81847703690E+02 0.  0.
         66    2    3    3    0    0  0.37140694458E+02  0.15073727689E+02 -0.14425037229E+02  0.42646572604E+02  0.20000011405E+01 0.  0.
         13    1    3    3    0    0 -0.37140694458E+02 -0.15073727689E+02 -0.33211773536E+02  0.52054601302E+02  0.10566000000E+00 0. -1.
         13    1    4    4    0    0  0.21223987186E+02  0.82972679507E+01 -0.87737969686E+01  0.24419110647E+02  0.10566000000E+00 0. -1.
        -13    1    4    4    0    0  0.61866980796E+01  0.22394452643E+01 -0.24922819530E+01  0.70365461406E+01  0.10566000000E+00 0.  1.
        -14    1    4    4    0    0  0.97300091924E+01  0.45370144744E+01 -0.31589583071E+01  0.11190915816E+02  0.00000000000E+00 0.  1.
<mgrwt>
<rscale>  0 0.81847704E+02</rscale>
<asrwt>0</asrwt>
<pdfrwt beam="1">  1        1 0.10949076E-01 0.81847704E+02</pdfrwt>
<pdfrwt beam="2">  1       -2 0.36203356E-02 0.81847704E+02</pdfrwt>
<totfact> 0.13063376E+05</totfact>
</mgrwt>
</event>
<event>
 8    1  0.8577104E-014  0.7973281E+02  0.7818608E-02  0.1329811E+00
         -2   -1    0    0    0  501 -0.00000000000E+00  0.00000000000E+00  0.97451828309E+01  0.97451831645E+01  0.25500000000E-02 0.  1.
          1   -1    0    0  501    0  0.00000000000E+00 -0.00000000000E+00 -0.16308878618E+03  0.16308878626E+03  0.50400000000E-02 0. -1.
        -24    2    1    2    0    0  0.35527136788E-14 -0.17763568394E-14 -0.15334360335E+03  0.17283396943E+03  0.79732805660E+02 0.  0.
         66    2    3    3    0    0 -0.25875966031E+02  0.11651372534E+02 -0.16102575084E+02  0.32689647014E+02  0.19999994047E+01 0.  0.
         13    1    3    3    0    0  0.25875966031E+02 -0.11651372534E+02 -0.13724102827E+03  0.14014432241E+03  0.10566000000E+00 0. -1.
         13    1    4    4    0    0 -0.76716558560E+01  0.29932816856E+01 -0.51722696311E+01  0.97251003077E+01  0.10566000000E+00 0. -1.
        -13    1    4    4    0    0 -0.73812483071E+00  0.30959696473E+00 -0.70117104089E+00  0.10693378374E+01  0.10566000000E+00 0.  1.
        -14    1    4    4    0    0 -0.17466185344E+02  0.83484938841E+01 -0.10229134412E+02  0.21895208869E+02  0.00000000000E+00 0.  1.
<mgrwt>
<rscale>  0 0.79732806E+02</rscale>
<asrwt>0</asrwt>
<pdfrwt beam="1">  1        1 0.25090581E-01 0.79732806E+02</pdfrwt>
<pdfrwt beam="2">  1       -2 0.14992590E-02 0.79732806E+02</pdfrwt>
<totfact> 0.16179776E+05</totfact>
</mgrwt>
</event>
<event>
 8    1  0.8577104E-014  0.8196617E+02  0.7818608E-02  0.1323563E+00
          1   -1    0    0  501    0  0.00000000000E+00  0.00000000000E+00  0.40456783824E+03  0.40456783828E+03  0.50400000000E-02 0. -1.
         -2   -1    0    0    0  501 -0.00000000000E+00 -0.00000000000E+00 -0.41516233352E+01  0.41516241183E+01  0.25500000000E-02 0.  1.
        -24    2    1    2    0    0  0.00000000000E+00  0.71054273576E-14  0.40041621491E+03  0.40871946239E+03  0.81966174594E+02 0.  0.
         66    2    3    3    0    0  0.37706796915E+01  0.35678111500E+02  0.29885969492E+03  0.30101206440E+03  0.20000008478E+01 0.  0.
         13    1    3    3    0    0 -0.37706796915E+01 -0.35678111500E+02  0.10155651999E+03  0.10770739799E+03  0.10566000000E+00 0. -1.
         13    1    4    4    0    0  0.64793898036E+00  0.30435738693E+01  0.29155079620E+02  0.29320862854E+02  0.10566000000E+00 0. -1.
        -13    1    4    4    0    0  0.11105215395E+01  0.15431554112E+02  0.12913998349E+03  0.13006349457E+03  0.10566000000E+00 0.  1.
         14    1    4    4    0    0  0.20122191717E+01  0.17202983519E+02  0.14056463181E+03  0.14162770697E+03  0.00000000000E+00 0. -1.
<mgrwt>
<rscale>  0 0.81966175E+02</rscale>
<asrwt>0</asrwt>
<pdfrwt beam="1">  1        1 0.62241233E-01 0.81966175E+02</pdfrwt>
<pdfrwt beam="2">  1       -2 0.63871107E-03 0.81966175E+02</pdfrwt>
<totfact> 0.17851832E+05</totfact>
</mgrwt>
</event>
<event>
 8    1  0.8577104E-014  0.8206689E+02  0.7818608E-02  0.1323286E+00
         -2   -1    0    0    0  501 -0.00000000000E+00  0.00000000000E+00  0.58635396064E+02  0.58635396119E+02  0.25500000000E-02 0.  1.
          1   -1    0    0  501    0  0.00000000000E+00 -0.00000000000E+00 -0.28715478779E+02  0.28715479221E+02  0.50400000000E-02 0. -1.
        -24    2    1    2    0    0  0.35527136788E-14  0.35527136788E-14  0.29919917285E+02  0.87350875340E+02  0.82066887185E+02 0.  0.
         66    2    3    3    0    0 -0.15633467821E+02 -0.22310993726E+02  0.47594522197E+02  0.54876445707E+02  0.19999982853E+01 0.  0.
         13    1    3    3    0    0  0.15633467821E+02  0.22310993726E+02 -0.17674604911E+02  0.32474429633E+02  0.10566000000E+00 0. -1.
         13    1    4    4    0    0 -0.54714673907E+01 -0.87213104920E+01  0.18912410931E+02  0.21533431296E+02  0.10566000000E+00 0.  1.
        -13    1    4    4    0    0 -0.22062957158E+00 -0.50241157717E+00  0.76329351153E+00  0.94597876354E+00  0.10566000000E+00 0.  1.
        -14    1    4    4    0    0 -0.99413708590E+01 -0.13087271657E+02  0.27918817754E+02  0.32397035648E+02  0.00000000000E+00 0.  1.
<mgrwt>
<rscale>  0 0.82066887E+02</rscale>
<asrwt>0</asrwt>
<pdfrwt beam="1">  1        1 0.44177661E-02 0.82066887E+02</pdfrwt>
<pdfrwt beam="2">  1       -2 0.90208301E-02 0.82066887E+02</pdfrwt>
<totfact> 0.11147109E+05</totfact>
</mgrwt>
</event>
<event>
 8    1  0.8577104E-014  0.7917416E+02  0.7818608E-02  0.1331412E+00
          1   -1    0    0  501    0  0.00000000000E+00  0.00000000000E+00  0.13848400153E+03  0.13848400162E+03  0.50400000000E-02 0. -1.
         -2   -1    0    0    0  501 -0.00000000000E+00 -0.00000000000E+00 -0.11316374274E+02  0.11316374561E+02  0.25500000000E-02 0.  1.
        -24    2    1    2    0    0  0.00000000000E+00  0.00000000000E+00  0.12716762726E+03  0.14980037619E+03  0.79174157922E+02 0.  0.
         66    2    3    3    0    0 -0.15730129371E+02  0.19785811216E+02  0.60424086829E+01  0.26065801249E+02  0.19999991450E+01 0.  0.
         13    1    3    3    0    0  0.15730129371E+02 -0.19785811216E+02  0.12112521858E+03  0.12373457494E+03  0.10566000000E+00 0. -1.
         13    1    4    4    0    0 -0.26377030723E+01  0.22433898809E+01  0.86184049146E+00  0.35699031813E+01  0.10566000000E+00 0. -1.
        -13    1    4    4    0    0 -0.10097703032E+02  0.13566540396E+02  0.38953153151E+01  0.17355093496E+02  0.10566000000E+00 0.  1.
         14    1    4    4    0    0 -0.29947232670E+01  0.39758809391E+01  0.12852528764E+01  0.51408045717E+01  0.00000000000E+00 0. -1.
<mgrwt>
<rscale>  0 0.79174158E+02</rscale>
<asrwt>0</asrwt>
<pdfrwt beam="1">  1        1 0.21305230E-01 0.79174158E+02</pdfrwt>
<pdfrwt beam="2">  1       -2 0.17409807E-02 0.79174158E+02</pdfrwt>
<totfact> 0.15997376E+05</totfact>
</mgrwt>
</event>
<event>
 8    1  0.8577104E-014  0.7984611E+02  0.7818608E-02  0.1329489E+00
          1   -1    0    0  501    0  0.00000000000E+00  0.00000000000E+00  0.65864860785E+02  0.65864860977E+02  0.50400000000E-02 0. -1.
         -2   -1    0    0    0  501 -0.00000000000E+00 -0.00000000000E+00 -0.24198794815E+02  0.24198794950E+02  0.25500000000E-02 0.  1.
        -24    2    1    2    0    0  0.00000000000E+00 -0.17763568394E-14  0.41666065969E+02  0.90063655927E+02  0.79846108644E+02 0.  0.
         66    2    3    3    0    0  0.20802262062E+02  0.14404528180E+02 -0.13949808604E+02  0.28962418562E+02  0.19999974629E+01 0.  0.
         13    1    3    3    0    0 -0.20802262062E+02 -0.14404528180E+02  0.55615874573E+02  0.61101237365E+02  0.10566000000E+00 0. -1.
         13    1    4    4    0    0  0.12660759689E+02  0.97897521650E+01 -0.85197496621E+01  0.18130950932E+02  0.10566000000E+00 0. -1.
        -13    1    4    4    0    0  0.52457578237E+01  0.32239335450E+01 -0.36584868108E+01  0.71629192672E+01  0.10566000000E+00 0.  1.
        -14    1    4    4    0    0  0.28957445494E+01  0.13908424703E+01 -0.17715721311E+01  0.36685483625E+01  0.00000000000E+00 0.  1.
<mgrwt>
<rscale>  0 0.79846109E+02</rscale>
<asrwt>0</asrwt>
<pdfrwt beam="1">  1        1 0.10133056E-01 0.79846109E+02</pdfrwt>
<pdfrwt beam="2">  1       -2 0.37228915E-02 0.79846109E+02</pdfrwt>
<totfact> 0.13810802E+05</totfact>
</mgrwt>
</event>
<event>
 8    1  0.8577104E-014  0.8035815E+02  0.7818608E-02  0.1328038E+00
          1   -1    0    0  501    0  0.00000000000E+00  0.00000000000E+00  0.18889054126E+02  0.18889054799E+02  0.50400000000E-02 0. -1.
         -2   -1    0    0    0  501 -0.00000000000E+00 -0.00000000000E+00 -0.85465258426E+02  0.85465258464E+02  0.25500000000E-02 0.  1.
        -24    2    1    2    0    0  0.00000000000E+00  0.00000000000E+00 -0.66576204300E+02  0.10435431326E+03  0.80358146554E+02 0.  0.
         66    2    3    3    0    0 -0.23206781775E+02 -0.27585152860E+02 -0.56278286028E+02  0.66863598900E+02  0.20000002201E+01 0.  0.
         13    1    3    3    0    0  0.23206781775E+02  0.27585152860E+02 -0.10297918272E+02  0.37490714363E+02  0.10566000000E+00 0. -1.
         13    1    4    4    0    0 -0.26224241995E+01 -0.29811920805E+01 -0.70622073585E+01  0.81025028055E+01  0.10566000000E+00 0. -1.
        -13    1    4    4    0    0 -0.16904284031E+02 -0.20019596988E+02 -0.41032653019E+02  0.48684996251E+02  0.10566000000E+00 0.  1.
        -14    1    4    4    0    0 -0.36800735445E+01 -0.45843637916E+01 -0.81834256511E+01  0.10076099843E+02  0.00000000000E+00 0.  1.
<mgrwt>
<rscale>  0 0.80358147E+02</rscale>
<asrwt>0</asrwt>
<pdfrwt beam="1">  1        1 0.29060084E-02 0.80358147E+02</pdfrwt>
<pdfrwt beam="2">  1       -2 0.13148501E-01 0.80358147E+02</pdfrwt>
<totfact> 0.10889562E+05</totfact>
</mgrwt>
</event>
<event>
 8    1  0.8577104E-014  0.7999681E+02  0.7818608E-02  0.1329060E+00
         -2   -1    0    0    0  501 -0.00000000000E+00  0.00000000000E+00  0.84191386954E+01  0.84191390816E+01  0.25500000000E-02 0.  1.
          1   -1    0    0  501    0  0.00000000000E+00 -0.00000000000E+00 -0.19002801749E+03  0.19002801756E+03  0.50400000000E-02 0. -1.
        -24    2    1    2    0    0  0.00000000000E+00  0.00000000000E+00 -0.18160887880E+03  0.19844715664E+03  0.79996806942E+02 0.  0.
         66    2    3    3    0    0  0.37287083643E+02  0.10341084728E+01 -0.55215751330E+02  0.66664647096E+02  0.19999976569E+01 0.  0.
         13    1    3    3    0    0 -0.37287083643E+02 -0.10341084728E+01 -0.12639312747E+03  0.13178250954E+03  0.10566000000E+00 0. -1.
         13    1    4    4    0    0  0.55500203213E+01  0.31376364469E+00 -0.76835555746E+01  0.94841638269E+01  0.10566000000E+00 0. -1.
        -13    1    4    4    0    0  0.21604203541E+02  0.12270124989E+01 -0.32491863578E+02  0.39038180453E+02  0.10566000000E+00 0.  1.
         14    1    4    4    0    0  0.10132859781E+02 -0.50666767086E+00 -0.15040332177E+02  0.18142302816E+02  0.00000000000E+00 0. -1.
<mgrwt>
<rscale>  0 0.79996807E+02</rscale>
<asrwt>0</asrwt>
<pdfrwt beam="1">  1        1 0.29235077E-01 0.79996807E+02</pdfrwt>
<pdfrwt beam="2">  1       -2 0.12952523E-02 0.79996807E+02</pdfrwt>
<totfact> 0.16511414E+05</totfact>
</mgrwt>
</event>
<event>
 8    1  0.8577104E-014  0.7957734E+02  0.7818608E-02  0.1330255E+00
         -2   -1    0    0    0  501 -0.00000000000E+00  0.00000000000E+00  0.11864443088E+02  0.11864443362E+02  0.25500000000E-02 0.  1.
          1   -1    0    0  501    0  0.00000000000E+00 -0.00000000000E+00 -0.13343552850E+03  0.13343552860E+03  0.50400000000E-02 0. -1.
        -24    2    1    2    0    0 -0.71054273576E-14 -0.71054273576E-14 -0.12157108542E+03  0.14529997196E+03  0.79577340006E+02 0.  0.
         66    2    3    3    0    0  0.13586560332E+02  0.34541693407E+02 -0.34782548590E+02  0.50907257763E+02  0.20000003599E+01 0.  0.
         13    1    3    3    0    0 -0.13586560332E+02 -0.34541693407E+02 -0.86788536826E+02  0.94392714197E+02  0.10566000000E+00 0. -1.
         13    1    4    4    0    0  0.12690170343E+00  0.95105929674E+00 -0.97530260051E+00  0.13722233879E+01  0.10566000000E+00 0.  1.
        -13    1    4    4    0    0  0.42627209815E+01  0.10928948557E+02 -0.10260823721E+02  0.15585518092E+02  0.10566000000E+00 0.  1.
        -14    1    4    4    0    0  0.91969376469E+01  0.22661685554E+02 -0.23546422268E+02  0.33949516283E+02  0.00000000000E+00 0.  1.
<mgrwt>
<rscale>  0 0.79577340E+02</rscale>
<asrwt>0</asrwt>
<pdfrwt beam="1">  1        1 0.20528542E-01 0.79577340E+02</pdfrwt>
<pdfrwt beam="2">  1       -2 0.18252991E-02 0.79577340E+02</pdfrwt>
<totfact> 0.15676150E+05</totfact>
</mgrwt>
</event>
<event>
 8    1  0.8577104E-014  0.8062935E+02  0.7818608E-02  0.1327275E+00
         -2   -1    0    0    0  501 -0.00000000000E+00  0.00000000000E+00  0.27703980645E+02  0.27703980762E+02  0.25500000000E-02 0.  1.
          1   -1    0    0  501    0  0.00000000000E+00 -0.00000000000E+00 -0.58665689772E+02  0.58665689989E+02  0.50400000000E-02 0. -1.
        -24    2    1    2    0    0  0.71054273576E-14 -0.35527136788E-14 -0.30961709127E+02  0.86369670751E+02  0.80629353176E+02 0.  0.
         66    2    3    3    0    0  0.32444304117E+02 -0.17871290780E+02  0.14890763782E+01  0.37124563911E+02  0.19999983360E+01 0.  0.
         13    1    3    3    0    0 -0.32444304117E+02  0.17871290780E+02 -0.32450785506E+02  0.49245106840E+02  0.10566000000E+00 0. -1.
         13    1    4    4    0    0  0.94342738702E+01 -0.57580312804E+01  0.11794198865E+01  0.11115873469E+02  0.10566000000E+00 0. -1.
        -13    1    4    4    0    0  0.94503890777E+01 -0.50564208560E+01  0.29459994448E+00  0.10722648868E+02  0.10566000000E+00 0.  1.
         14    1    4    4    0    0  0.13559641169E+02 -0.70568386432E+01  0.15056547184E-01  0.15286041573E+02  0.00000000000E+00 0. -1.
<mgrwt>
<rscale>  0 0.80629353E+02</rscale>
<asrwt>0</asrwt>
<pdfrwt beam="1">  1        1 0.90254908E-02 0.80629353E+02</pdfrwt>
<pdfrwt beam="2">  1       -2 0.42621509E-02 0.80629353E+02</pdfrwt>
<totfact> 0.13202130E+05</totfact>
</mgrwt>
</event>
<event>
 8    1  0.8577104E-014  0.8040078E+02  0.7818608E-02  0.1327918E+00
         -2   -1    0    0    0  501 -0.00000000000E+00  0.00000000000E+00  0.49124332972E+02  0.49124333039E+02  0.25500000000E-02 0.  1.
          1   -1    0    0  501    0  0.00000000000E+00 -0.00000000000E+00 -0.32897574615E+02  0.32897575001E+02  0.50400000000E-02 0. -1.
        -24    2    1    2    0    0 -0.17763568394E-14  0.35527136788E-14  0.16226758358E+02  0.82021908039E+02  0.80400781785E+02 0.  0.
         66    2    3    3    0    0 -0.13537360320E+02  0.31608960615E+02  0.29314220752E+02  0.45229526334E+02  0.19999996276E+01 0.  0.
         13    1    3    3    0    0  0.13537360320E+02 -0.31608960615E+02 -0.13087462394E+02  0.36792381705E+02  0.10566000000E+00 0. -1.
         13    1    4    4    0    0 -0.27162710670E+01  0.48497606766E+01  0.50769822984E+01  0.75289587875E+01  0.10566000000E+00 0. -1.
        -13    1    4    4    0    0 -0.72921957113E+01  0.18991442405E+02  0.17265304865E+02  0.26682445897E+02  0.10566000000E+00 0.  1.
        -14    1    4    4    0    0 -0.35288935420E+01  0.77677575332E+01  0.69719335881E+01  0.11018121649E+02  0.00000000000E+00 0.  1.
<mgrwt>
<rscale>  0 0.80400782E+02</rscale>
<asrwt>0</asrwt>
<pdfrwt beam="1">  1        1 0.50611654E-02 0.80400782E+02</pdfrwt>
<pdfrwt beam="2">  1       -2 0.75575897E-02 0.80400782E+02</pdfrwt>
<totfact> 0.12116411E+05</totfact>
</mgrwt>
</event>
<event>
 8    1  0.8577104E-014  0.8047890E+02  0.7818608E-02  0.1327698E+00
         -2   -1    0    0    0  501 -0.00000000000E+00  0.00000000000E+00  0.80434312688E+01  0.80434316730E+01  0.25500000000E-02 0.  1.
          1   -1    0    0  501    0  0.00000000000E+00 -0.00000000000E+00 -0.20130877614E+03  0.20130877621E+03  0.50400000000E-02 0. -1.
        -24    2    1    2    0    0  0.00000000000E+00  0.71054273576E-14 -0.19326534488E+03  0.20935220788E+03  0.80478900431E+02 0.  0.
         66    2    3    3    0    0  0.18951657725E+02  0.35282882648E+02 -0.10612940473E+03  0.11345262307E+03  0.19999984356E+01 0.  0.
         13    1    3    3    0    0 -0.18951657725E+02 -0.35282882648E+02 -0.87135940142E+02  0.95899584811E+02  0.10566000000E+00 0. -1.
         13    1    4    4    0    0  0.40382028092E+01  0.77061127086E+01 -0.21586057669E+02  0.23273596729E+02  0.10566000000E+00 0. -1.
        -13    1    4    4    0    0  0.85838632604E+01  0.14707439067E+02 -0.44847809402E+02  0.47972165310E+02  0.10566000000E+00 0.  1.
        -14    1    4    4    0    0  0.63295916559E+01  0.12869330872E+02 -0.39695537663E+02  0.42206861030E+02  0.00000000000E+00 0.  1.
<mgrwt>
<rscale>  0 0.80478900E+02</rscale>
<asrwt>0</asrwt>
<pdfrwt beam="1">  1        1 0.30970577E-01 0.80478900E+02</pdfrwt>
<pdfrwt beam="2">  1       -2 0.12374511E-02 0.80478900E+02</pdfrwt>
<totfact> 0.16432527E+05</totfact>
</mgrwt>
</event>
<event>
 8    1  0.8577104E-014  0.8127585E+02  0.7818608E-02  0.1325469E+00
          1   -1    0    0  501    0  0.00000000000E+00  0.00000000000E+00  0.26193546347E+02  0.26193546832E+02  0.50400000000E-02 0. -1.
         -2   -1    0    0    0  501 -0.00000000000E+00 -0.00000000000E+00 -0.63047620713E+02  0.63047620765E+02  0.25500000000E-02 0.  1.
        -24    2    1    2    0    0  0.45102810375E-16  0.00000000000E+00 -0.36854074366E+02  0.89241167597E+02  0.81275846330E+02 0.  0.
         66    2    3    3    0    0  0.25819778214E-01 -0.40578106256E+02 -0.16583724833E+02  0.43881696610E+02  0.19999985109E+01 0.  0.
         13    1    3    3    0    0 -0.25819778214E-01  0.40578106256E+02 -0.20270349532E+02  0.45359470987E+02  0.10566000000E+00 0. -1.
         13    1    4    4    0    0 -0.25335321229E+00 -0.71964364572E+01 -0.31179616420E+01  0.78476578907E+01  0.10566000000E+00 0. -1.
        -13    1    4    4    0    0  0.66046676020E+00 -0.21101274006E+02 -0.91845448214E+01  0.23023184155E+02  0.10566000000E+00 0.  1.
        -14    1    4    4    0    0 -0.38129376970E+00 -0.12280395793E+02 -0.42812183698E+01  0.13010854565E+02  0.00000000000E+00 0.  1.
<mgrwt>
<rscale>  0 0.81275846E+02</rscale>
<asrwt>0</asrwt>
<pdfrwt beam="1">  1        1 0.40297764E-02 0.81275846E+02</pdfrwt>
<pdfrwt beam="2">  1       -2 0.96996339E-02 0.81275846E+02</pdfrwt>
<totfact> 0.11268010E+05</totfact>
</mgrwt>
</event>
<event>
 8    1  0.8577104E-014  0.8059111E+02  0.7818608E-02  0.1327382E+00
         -2   -1    0    0    0  501 -0.00000000000E+00  0.00000000000E+00  0.11737866433E+02  0.11737866710E+02  0.25500000000E-02 0.  1.
          1   -1    0    0  501    0  0.00000000000E+00 -0.00000000000E+00 -0.13833276715E+03  0.13833276724E+03  0.50400000000E-02 0. -1.
        -24    2    1    2    0    0  0.00000000000E+00  0.00000000000E+00 -0.12659490072E+03  0.15007063395E+03  0.80591105508E+02 0.  0.
         66    2    3    3    0    0 -0.32313007249E+02  0.82037234841E+01 -0.21271478877E+02  0.39596809591E+02  0.19999999339E+01 0.  0.
         13    1    3    3    0    0  0.32313007249E+02 -0.82037234841E+01 -0.10532342184E+03  0.11047382436E+03  0.10566000000E+00 0. -1.
         13    1    4    4    0    0 -0.20659491366E+01  0.84024277870E+00 -0.11112970809E+01  0.24940527259E+01  0.10566000000E+00 0. -1.
        -13    1    4    4    0    0 -0.14877082028E+02  0.41479275326E+01 -0.99428247867E+01  0.18368554686E+02  0.10566000000E+00 0.  1.
         14    1    4    4    0    0 -0.15369976085E+02  0.32155531727E+01 -0.10217357009E+02  0.18734202180E+02  0.00000000000E+00 0. -1.
<mgrwt>
<rscale>  0 0.80591106E+02</rscale>
<asrwt>0</asrwt>
<pdfrwt beam="1">  1        1 0.21281963E-01 0.80591106E+02</pdfrwt>
<pdfrwt beam="2">  1       -2 0.18058257E-02 0.80591106E+02</pdfrwt>
<totfact> 0.15252492E+05</totfact>
</mgrwt>
</event>
<event>
 8    1  0.8577104E-014  0.7595677E+02  0.7818608E-02  0.1340934E+00
         -2   -1    0    0    0  501 -0.00000000000E+00  0.00000000000E+00  0.14055910054E+02  0.14055910285E+02  0.25500000000E-02 0.  1.
          1   -1    0    0  501    0  0.00000000000E+00 -0.00000000000E+00 -0.10261574499E+03  0.10261574511E+03  0.50400000000E-02 0. -1.
        -24    2    1    2    0    0 -0.35527136788E-14  0.00000000000E+00 -0.88559834932E+02  0.11667165539E+03  0.75956769345E+02 0.  0.
         66    2    3    3    0    0 -0.25357288099E+02  0.39588883814E+01 -0.13652370734E+01  0.25778454787E+02  0.20000004978E+01 0.  0.
         13    1    3    3    0    0  0.25357288099E+02 -0.39588883814E+01 -0.87194597859E+02  0.90893200608E+02  0.10566000000E+00 0. -1.
         13    1    4    4    0    0 -0.10152531760E+02  0.12785986910E+01 -0.10341209553E+01  0.10285391871E+02  0.10566000000E+00 0.  1.
        -13    1    4    4    0    0 -0.32328032265E+01  0.61936689494E+00 -0.57213802877E+00  0.33426244197E+01  0.10566000000E+00 0. -1.
        -14    1    4    4    0    0 -0.11971953113E+02  0.20609227955E+01  0.24102191071E+00  0.12150438497E+02  0.00000000000E+00 0.  1.
<mgrwt>
<rscale>  0 0.75956769E+02</rscale>
<asrwt>0</asrwt>
<pdfrwt beam="1">  1        1 0.15787037E-01 0.75956769E+02</pdfrwt>
<pdfrwt beam="2">  1       -2 0.21624478E-02 0.75956769E+02</pdfrwt>
<totfact> 0.16974654E+05</totfact>
</mgrwt>
</event>
<event>
 8    1  0.8577104E-014  0.7847149E+02  0.7818608E-02  0.1333446E+00
          1   -1    0    0  501    0  0.00000000000E+00  0.00000000000E+00  0.10281213620E+03  0.10281213633E+03  0.50400000000E-02 0. -1.
         -2   -1    0    0    0  501 -0.00000000000E+00 -0.00000000000E+00 -0.14973366621E+02  0.14973366838E+02  0.25500000000E-02 0.  1.
        -24    2    1    2    0    0  0.00000000000E+00  0.00000000000E+00  0.87838769583E+02  0.11778550317E+03  0.78471493641E+02 0.  0.
         66    2    3    3    0    0 -0.66402672953E+01  0.30296195934E+02  0.79399675907E+01  0.32077963464E+02  0.20000042127E+01 0.  0.
         13    1    3    3    0    0  0.66402672953E+01 -0.30296195934E+02  0.79898801993E+02  0.85707539702E+02  0.10566000000E+00 0. -1.
         13    1    4    4    0    0 -0.18039778984E+01  0.81024398484E+01  0.25828020376E+01  0.86940150768E+01  0.10566000000E+00 0. -1.
        -13    1    4    4    0    0 -0.36828704716E+01  0.14073268404E+02  0.30532871578E+01  0.14864526396E+02  0.10566000000E+00 0.  1.
         14    1    4    4    0    0 -0.11534189254E+01  0.81204876815E+01  0.23038783952E+01  0.85194219912E+01  0.00000000000E+00 0. -1.
<mgrwt>
<rscale>  0 0.78471494E+02</rscale>
<asrwt>0</asrwt>
<pdfrwt beam="1">  1        1 0.15817252E-01 0.78471494E+02</pdfrwt>
<pdfrwt beam="2">  1       -2 0.23035949E-02 0.78471494E+02</pdfrwt>
<totfact> 0.15556709E+05</totfact>
</mgrwt>
</event>
<event>
 8    1  0.8577104E-014  0.8477754E+02  0.7818608E-02  0.1316015E+00
         -2   -1    0    0    0  501 -0.00000000000E+00  0.00000000000E+00  0.69024841611E+01  0.69024846321E+01  0.25500000000E-02 0.  1.
          1   -1    0    0  501    0  0.00000000000E+00 -0.00000000000E+00 -0.26031318968E+03  0.26031318973E+03  0.50400000000E-02 0. -1.
        -24    2    1    2    0    0  0.00000000000E+00  0.88817841970E-15 -0.25341070552E+03  0.26721567436E+03  0.84777538019E+02 0.  0.
         66    2    3    3    0    0  0.41219295119E+02 -0.67855397771E+01 -0.10454843845E+03  0.11260306310E+03  0.19999992297E+01 0.  0.
         13    1    3    3    0    0 -0.41219295119E+02  0.67855397771E+01 -0.14886226707E+03  0.15461261126E+03  0.10566000000E+00 0. -1.
         13    1    4    4    0    0  0.25781610485E+01 -0.71657848803E+00 -0.64618297007E+01  0.69947699203E+01  0.10566000000E+00 0. -1.
        -13    1    4    4    0    0  0.79485996605E+01 -0.70818774468E+00 -0.19365772471E+02  0.20945788929E+02  0.10566000000E+00 0.  1.
        -14    1    4    4    0    0  0.30692534410E+02 -0.53607735444E+01 -0.78720836280E+02  0.84662504252E+02  0.00000000000E+00 0.  1.
<mgrwt>
<rscale>  0 0.84777538E+02</rscale>
<asrwt>0</asrwt>
<pdfrwt beam="1">  1        1 0.40048176E-01 0.84777538E+02</pdfrwt>
<pdfrwt beam="2">  1       -2 0.10619209E-02 0.84777538E+02</pdfrwt>
<totfact> 0.15051652E+05</totfact>
</mgrwt>
</event>
<event>
 8    1  0.8577104E-014  0.7954625E+02  0.7818608E-02  0.1330344E+00
         -2   -1    0    0    0  501 -0.00000000000E+00  0.00000000000E+00  0.62336420318E+02  0.62336420370E+02  0.25500000000E-02 0.  1.
          1   -1    0    0  501    0  0.00000000000E+00 -0.00000000000E+00 -0.25376842711E+02  0.25376843212E+02  0.50400000000E-02 0. -1.
        -24    2    1    2    0    0  0.00000000000E+00  0.00000000000E+00  0.36959577607E+02  0.87713263582E+02  0.79546252151E+02 0.  0.
         66    2    3    3    0    0 -0.89990990032E+01 -0.13050378495E+02  0.58683727603E+02  0.60820029883E+02  0.19999969619E+01 0.  0.
         13    1    3    3    0    0  0.89990990032E+01  0.13050378495E+02 -0.21724149996E+02  0.26893233699E+02  0.10566000000E+00 0. -1.
         13    1    4    4    0    0 -0.37920463653E+01 -0.53601510798E+01  0.22517723306E+02  0.23455699993E+02  0.10566000000E+00 0. -1.
        -13    1    4    4    0    0 -0.39436839426E+01 -0.53201986974E+01  0.23426295772E+02  0.24344602171E+02  0.10566000000E+00 0.  1.
         14    1    4    4    0    0 -0.12633686952E+01 -0.23700287177E+01  0.12739708524E+02  0.13019727719E+02  0.00000000000E+00 0. -1.
<mgrwt>
<rscale>  0 0.79546252E+02</rscale>
<asrwt>0</asrwt>
<pdfrwt beam="1">  1        1 0.39041297E-02 0.79546252E+02</pdfrwt>
<pdfrwt beam="2">  1       -2 0.95902184E-02 0.79546252E+02</pdfrwt>
<totfact> 0.11924662E+05</totfact>
</mgrwt>
</event>
<event>
 8    1  0.8577104E-014  0.7941241E+02  0.7818608E-02  0.1330727E+00
         -2   -1    0    0    0  501 -0.00000000000E+00  0.00000000000E+00  0.78600094108E+01  0.78600098245E+01  0.25500000000E-02 0.  1.
          1   -1    0    0  501    0  0.00000000000E+00 -0.00000000000E+00 -0.20058278225E+03  0.20058278232E+03  0.50400000000E-02 0. -1.
        -24    2    1    2    0    0  0.00000000000E+00  0.00000000000E+00 -0.19272277284E+03  0.20844279214E+03  0.79412407239E+02 0.  0.
         66    2    3    3    0    0  0.39285552355E+02  0.22137599315E+00 -0.11107764383E+03  0.11783737350E+03  0.20000010213E+01 0.  0.
         13    1    3    3    0    0 -0.39285552355E+02 -0.22137599315E+00 -0.81645129014E+02  0.90605418640E+02  0.10566000000E+00 0. -1.
         13    1    4    4    0    0  0.13305415535E+02  0.38833558025E+00 -0.38396043498E+02  0.40638063529E+02  0.10566000000E+00 0. -1.
        -13    1    4    4    0    0  0.26304285319E+01 -0.27328254683E-01 -0.61774743786E+01  0.67150766808E+01  0.10566000000E+00 0.  1.
        -14    1    4    4    0    0  0.23349708288E+02 -0.13963133242E+00 -0.66504125952E+02  0.70484233291E+02  0.00000000000E+00 0.  1.
<mgrwt>
<rscale>  0 0.79412407E+02</rscale>
<asrwt>0</asrwt>
<pdfrwt beam="1">  1        1 0.30858886E-01 0.79412407E+02</pdfrwt>
<pdfrwt beam="2">  1       -2 0.12092324E-02 0.79412407E+02</pdfrwt>
<totfact> 0.17012943E+05</totfact>
</mgrwt>
</event>
<event>
 8    1  0.8577104E-014  0.8055480E+02  0.7818608E-02  0.1327484E+00
         -2   -1    0    0    0  501 -0.00000000000E+00  0.00000000000E+00  0.13226329503E+03  0.13226329505E+03  0.25500000000E-02 0.  1.
          1   -1    0    0  501    0  0.00000000000E+00 -0.00000000000E+00 -0.12265450764E+02  0.12265451800E+02  0.50400000000E-02 0. -1.
        -24    2    1    2    0    0  0.27755575616E-16  0.00000000000E+00  0.11999784426E+03  0.14452874685E+03  0.80554801464E+02 0.  0.
         66    2    3    3    0    0  0.22372513925E+00  0.39976989401E+02  0.68461571701E+02  0.79304454690E+02  0.19999998205E+01 0.  0.
         13    1    3    3    0    0 -0.22372513925E+00 -0.39976989401E+02  0.51536272563E+02  0.65224292164E+02  0.10566000000E+00 0. -1.
         13    1    4    4    0    0 -0.49492349012E+00  0.10897751280E+02  0.17892566601E+02  0.20956169397E+02  0.10566000000E+00 0. -1.
        -13    1    4    4    0    0 -0.26563728701E-01  0.18703452422E+02  0.32830871916E+02  0.37784879951E+02  0.10566000000E+00 0.  1.
        -14    1    4    4    0    0  0.74521235807E+00  0.10375785700E+02  0.17738133184E+02  0.20563405341E+02  0.00000000000E+00 0.  1.
<mgrwt>
<rscale>  0 0.80554801E+02</rscale>
<asrwt>0</asrwt>
<pdfrwt beam="1">  1        1 0.18869926E-02 0.80554801E+02</pdfrwt>
<pdfrwt beam="2">  1       -2 0.20348199E-01 0.80554801E+02</pdfrwt>
<totfact> 0.96593647E+04</totfact>
</mgrwt>
</event>
<event>
 8    1  0.8577104E-014  0.8067504E+02  0.7818608E-02  0.1327147E+00
         -2   -1    0    0    0  501 -0.00000000000E+00  0.00000000000E+00  0.96233692633E+03  0.96233692633E+03  0.25500000000E-02 0.  1.
          1   -1    0    0  501    0  0.00000000000E+00 -0.00000000000E+00 -0.16907923918E+01  0.16907999035E+01  0.50400000000E-02 0. -1.
        -24    2    1    2    0    0  0.00000000000E+00  0.00000000000E+00  0.96064613393E+03  0.96402772623E+03  0.80675041388E+02 0.  0.
         66    2    3    3    0    0 -0.99715833455E+01  0.18977858342E+02  0.88857032928E+03  0.88883115476E+03  0.20000004065E+01 0.  0.
         13    1    3    3    0    0  0.99715833455E+01 -0.18977858342E+02  0.72075804649E+02  0.75196571474E+02  0.10566000000E+00 0. -1.
         13    1    4    4    0    0 -0.20276007007E+01  0.44608482303E+01  0.21319679155E+03  0.21325312055E+03  0.10566000000E+00 0. -1.
        -13    1    4    4    0    0 -0.65368330802E+01  0.12563895257E+02  0.59447055030E+03  0.59463924188E+03  0.10566000000E+00 0.  1.
         14    1    4    4    0    0 -0.14071495646E+01  0.19531148545E+01  0.80902987434E+02  0.80938792327E+02  0.00000000000E+00 0. -1.
<mgrwt>
<rscale>  0 0.80675041E+02</rscale>
<asrwt>0</asrwt>
<pdfrwt beam="1">  1        1 0.26012299E-03 0.80675041E+02</pdfrwt>
<pdfrwt beam="2">  1       -2 0.14805155E+00 0.80675041E+02</pdfrwt>
<totfact> 0.26668606E+04</totfact>
</mgrwt>
</event>
<event>
 8    1  0.8577104E-014  0.7840307E+02  0.7818608E-02  0.1333645E+00
         -2   -1    0    0    0  501 -0.00000000000E+00  0.00000000000E+00  0.20076273125E+02  0.20076273287E+02  0.25500000000E-02 0.  1.
          1   -1    0    0  501    0  0.00000000000E+00 -0.00000000000E+00 -0.76546096357E+02  0.76546096522E+02  0.50400000000E-02 0. -1.
        -24    2    1    2    0    0  0.17763568394E-14  0.00000000000E+00 -0.56469823232E+02  0.96622369809E+02  0.78403070168E+02 0.  0.
         66    2    3    3    0    0  0.97289895823E+01 -0.19405854391E+02  0.11936620213E+02  0.24854040500E+02  0.20000010294E+01 0.  0.
         13    1    3    3    0    0 -0.97289895823E+01  0.19405854391E+02 -0.68406443445E+02  0.71768329309E+02  0.10566000000E+00 0. -1.
         13    1    4    4    0    0  0.65837430817E+00 -0.16137574074E+01  0.93585431459E+00  0.19810747168E+01  0.10566000000E+00 0. -1.
        -13    1    4    4    0    0  0.70555816079E+01 -0.13367194511E+02  0.74451451281E+01  0.16849465004E+02  0.10566000000E+00 0.  1.
        -14    1    4    4    0    0  0.20150336663E+01 -0.44249024734E+01  0.35556207705E+01  0.60235007794E+01  0.00000000000E+00 0.  1.
<mgrwt>
<rscale>  0 0.78403070E+02</rscale>
<asrwt>0</asrwt>
<pdfrwt beam="1">  1        1 0.11776322E-01 0.78403070E+02</pdfrwt>
<pdfrwt beam="2">  1       -2 0.30886575E-02 0.78403070E+02</pdfrwt>
<totfact> 0.14863850E+05</totfact>
</mgrwt>
</event>
<event>
 8    1  0.8577104E-014  0.8231965E+02  0.7818608E-02  0.1322595E+00
          1   -1    0    0  501    0  0.00000000000E+00  0.00000000000E+00  0.52284625801E+02  0.52284626044E+02  0.50400000000E-02 0. -1.
         -2   -1    0    0    0  501 -0.00000000000E+00 -0.00000000000E+00 -0.32402087204E+02  0.32402087305E+02  0.25500000000E-02 0.  1.
        -24    2    1    2    0    0  0.00000000000E+00  0.35527136788E-14  0.19882538597E+02  0.84686713348E+02  0.82319645752E+02 0.  0.
         66    2    3    3    0    0 -0.13547320942E+02  0.25239128664E+02 -0.20424364438E+02  0.35237738468E+02  0.20000073101E+01 0.  0.
         13    1    3    3    0    0  0.13547320942E+02 -0.25239128664E+02  0.40306903035E+02  0.49448974880E+02  0.10566000000E+00 0. -1.
         13    1    4    4    0    0 -0.72608760122E+01  0.13957596028E+02 -0.12233413396E+02  0.19929936645E+02  0.10566000000E+00 0. -1.
        -13    1    4    4    0    0 -0.45321738492E+01  0.80322071241E+01 -0.61903694123E+01  0.11108050620E+02  0.10566000000E+00 0.  1.
         14    1    4    4    0    0 -0.17542710808E+01  0.32493255118E+01 -0.20005816303E+01  0.41997512029E+01  0.00000000000E+00 0. -1.
<mgrwt>
<rscale>  0 0.82319646E+02</rscale>
<asrwt>0</asrwt>
<pdfrwt beam="1">  1        1 0.80437886E-02 0.82319646E+02</pdfrwt>
<pdfrwt beam="2">  1       -2 0.49849365E-02 0.82319646E+02</pdfrwt>
<totfact> 0.12236970E+05</totfact>
</mgrwt>
</event>
<event>
 8    1  0.8577104E-014  0.7839585E+02  0.7818608E-02  0.1333666E+00
         -2   -1    0    0    0  501 -0.00000000000E+00  0.00000000000E+00  0.16276218608E+03  0.16276218610E+03  0.25500000000E-02 0.  1.
          1   -1    0    0  501    0  0.00000000000E+00 -0.00000000000E+00 -0.94400121691E+01  0.94400135146E+01  0.50400000000E-02 0. -1.
        -24    2    1    2    0    0  0.35527136788E-14  0.00000000000E+00  0.15332217391E+03  0.17220219961E+03  0.78395845166E+02 0.  0.
         66    2    3    3    0    0 -0.28227427096E+02 -0.25287214074E+02  0.98482566564E+02  0.10554168256E+03  0.20000010743E+01 0.  0.
         13    1    3    3    0    0  0.28227427096E+02  0.25287214074E+02  0.54839607346E+02  0.66660517054E+02  0.10566000000E+00 0. -1.
         13    1    4    4    0    0 -0.95200886333E+00 -0.11002472159E+01  0.37170220049E+01  0.39930291048E+01  0.10566000000E+00 0. -1.
        -13    1    4    4    0    0 -0.13622562486E+02 -0.12801129976E+02  0.50261713829E+02  0.53625499330E+02  0.10566000000E+00 0.  1.
         14    1    4    4    0    0 -0.13652855747E+02 -0.11385836882E+02  0.44503830731E+02  0.47923154125E+02  0.00000000000E+00 0. -1.
<mgrwt>
<rscale>  0 0.78395845E+02</rscale>
<asrwt>0</asrwt>
<pdfrwt beam="1">  1        1 0.14523098E-02 0.78395845E+02</pdfrwt>
<pdfrwt beam="2">  1       -2 0.25040335E-01 0.78395845E+02</pdfrwt>
<totfact> 0.96855727E+04</totfact>
</mgrwt>
</event>
<event>
 8    1  0.8577104E-014  0.7712013E+02  0.7818608E-02  0.1337429E+00
         -2   -1    0    0    0  501 -0.00000000000E+00  0.00000000000E+00  0.24411157565E+02  0.24411157698E+02  0.25500000000E-02 0.  1.
          1   -1    0    0  501    0  0.00000000000E+00 -0.00000000000E+00 -0.60909793573E+02  0.60909793782E+02  0.50400000000E-02 0. -1.
        -24    2    1    2    0    0  0.00000000000E+00  0.00000000000E+00 -0.36498636008E+02  0.85320951480E+02  0.77120129221E+02 0.  0.
         66    2    3    3    0    0 -0.11035935707E+02  0.13807903150E+02  0.19620208708E+02  0.26484007621E+02  0.20000009049E+01 0.  0.
         13    1    3    3    0    0  0.11035935707E+02 -0.13807903150E+02 -0.56118844716E+02  0.58836943859E+02  0.10566000000E+00 0. -1.
         13    1    4    4    0    0 -0.61382635873E+00  0.66542452919E+00  0.49619307669E+00  0.10377592243E+01  0.10566000000E+00 0. -1.
        -13    1    4    4    0    0 -0.81859427593E+01  0.98827620776E+01  0.14680403842E+02  0.19498822173E+02  0.10566000000E+00 0.  1.
         14    1    4    4    0    0 -0.22361665892E+01  0.32597165428E+01  0.44436117891E+01  0.59474262237E+01  0.00000000000E+00 0. -1.
<mgrwt>
<rscale>  0 0.77120129E+02</rscale>
<asrwt>0</asrwt>
<pdfrwt beam="1">  1        1 0.93707375E-02 0.77120129E+02</pdfrwt>
<pdfrwt beam="2">  1       -2 0.37555627E-02 0.77120129E+02</pdfrwt>
<totfact> 0.15008069E+05</totfact>
</mgrwt>
</event>
<event>
 8    1  0.8577104E-014  0.8190475E+02  0.7818608E-02  0.1323731E+00
          1   -1    0    0  501    0  0.00000000000E+00  0.00000000000E+00  0.11470246892E+02  0.11470247999E+02  0.50400000000E-02 0. -1.
         -2   -1    0    0    0  501 -0.00000000000E+00 -0.00000000000E+00 -0.14621278408E+03  0.14621278410E+03  0.25500000000E-02 0.  1.
        -24    2    1    2    0    0 -0.17763568394E-14  0.35527136788E-14 -0.13474253719E+03  0.15768303210E+03  0.81904745191E+02 0.  0.
         66    2    3    3    0    0 -0.12855901770E+02  0.17071754012E+02 -0.13461082183E+03  0.13631138012E+03  0.20000003842E+01 0.  0.
         13    1    3    3    0    0  0.12855901770E+02 -0.17071754012E+02 -0.13171535688E+00  0.21371651979E+02  0.10566000000E+00 0. -1.
         13    1    4    4    0    0 -0.75719472929E+01  0.96940069267E+01 -0.76245342225E+02  0.77231285960E+02  0.10566000000E+00 0. -1.
        -13    1    4    4    0    0 -0.23731075309E+01  0.42637557621E+01 -0.29312126644E+02  0.29715706032E+02  0.10566000000E+00 0.  1.
        -14    1    4    4    0    0 -0.29108469458E+01  0.31139913227E+01 -0.29053352960E+02  0.29364388128E+02  0.00000000000E+00 0.  1.
<mgrwt>
<rscale>  0 0.81904745E+02</rscale>
<asrwt>0</asrwt>
<pdfrwt beam="1">  1        1 0.17646536E-02 0.81904745E+02</pdfrwt>
<pdfrwt beam="2">  1       -2 0.22494273E-01 0.81904745E+02</pdfrwt>
<totfact> 0.89698814E+04</totfact>
</mgrwt>
</event>
<event>
 8    1  0.8577104E-014  0.7757696E+02  0.7818608E-02  0.1336072E+00
         -2   -1    0    0    0  501 -0.00000000000E+00  0.00000000000E+00  0.19159801768E+02  0.19159801938E+02  0.25500000000E-02 0.  1.
          1   -1    0    0  501    0  0.00000000000E+00 -0.00000000000E+00 -0.78526189062E+02  0.78526189224E+02  0.50400000000E-02 0. -1.
        -24    2    1    2    0    0  0.17763568394E-14  0.00000000000E+00 -0.59366387294E+02  0.97685991162E+02  0.77576961328E+02 0.  0.
         66    2    3    3    0    0  0.13959441504E+02  0.85017129604E+01  0.14556240066E+02  0.21977926002E+02  0.19999940298E+01 0.  0.
         13    1    3    3    0    0 -0.13959441504E+02 -0.85017129604E+01 -0.73922627360E+02  0.75708065159E+02  0.10566000000E+00 0. -1.
         13    1    4    4    0    0  0.60198920537E+00  0.46249383295E+00  0.38092777371E+00  0.85589809749E+00  0.10566000000E+00 0. -1.
        -13    1    4    4    0    0  0.48037668720E+01  0.36079632689E+01  0.59246450713E+01  0.84383741542E+01  0.10566000000E+00 0.  1.
        -14    1    4    4    0    0  0.85536854269E+01  0.44312558586E+01  0.82506672212E+01  0.12683653750E+02  0.00000000000E+00 0.  1.
<mgrwt>
<rscale>  0 0.77576961E+02</rscale>
<asrwt>0</asrwt>
<pdfrwt beam="1">  1        1 0.12080952E-01 0.77576961E+02</pdfrwt>
<pdfrwt beam="2">  1       -2 0.29476619E-02 0.77576961E+02</pdfrwt>
<totfact> 0.15359628E+05</totfact>
</mgrwt>
</event>
<event>
 8    1  0.8577104E-014  0.7950941E+02  0.7818608E-02  0.1330449E+00
         -2   -1    0    0    0  501 -0.00000000000E+00  0.00000000000E+00  0.19764860820E+03  0.19764860822E+03  0.25500000000E-02 0.  1.
          1   -1    0    0  501    0  0.00000000000E+00 -0.00000000000E+00 -0.79961934583E+01  0.79961950466E+01  0.50400000000E-02 0. -1.
        -24    2    1    2    0    0  0.00000000000E+00  0.17763568394E-14  0.18965241474E+03  0.20564480327E+03  0.79509412599E+02 0.  0.
         66    2    3    3    0    0 -0.17207450323E+02 -0.10447108006E+02  0.18347589326E+03  0.18458776183E+03  0.19999995610E+01 0.  0.
         13    1    3    3    0    0  0.17207450323E+02  0.10447108006E+02  0.61765214854E+01  0.21057041435E+02  0.10566000000E+00 0. -1.
         13    1    4    4    0    0 -0.60914889968E+01 -0.32214820712E+01  0.69888920374E+02  0.70227890043E+02  0.10566000000E+00 0. -1.
        -13    1    4    4    0    0 -0.47404589873E+01 -0.31384730675E+01  0.51322978090E+02  0.51637013941E+02  0.10566000000E+00 0.  1.
         14    1    4    4    0    0 -0.63755023385E+01 -0.40871528675E+01  0.62263994795E+02  0.62722857846E+02  0.00000000000E+00 0. -1.
<mgrwt>
<rscale>  0 0.79509413E+02</rscale>
<asrwt>0</asrwt>
<pdfrwt beam="1">  1        1 0.12301837E-02 0.79509413E+02</pdfrwt>
<pdfrwt beam="2">  1       -2 0.30407478E-01 0.79509413E+02</pdfrwt>
<totfact> 0.86850321E+04</totfact>
</mgrwt>
</event>
<event>
 8    1  0.8577104E-014  0.7967016E+02  0.7818608E-02  0.1329990E+00
         -2   -1    0    0    0  501 -0.00000000000E+00  0.00000000000E+00  0.97077261293E+02  0.97077261326E+02  0.25500000000E-02 0.  1.
          1   -1    0    0  501    0  0.00000000000E+00 -0.00000000000E+00 -0.16346089280E+02  0.16346090057E+02  0.50400000000E-02 0. -1.
        -24    2    1    2    0    0  0.00000000000E+00  0.35527136788E-14  0.80731172012E+02  0.11342335138E+03  0.79670160692E+02 0.  0.
         66    2    3    3    0    0  0.51465809413E+01  0.29185010798E+02  0.78234024628E+02  0.83682822475E+02  0.20000043242E+01 0.  0.
         13    1    3    3    0    0 -0.51465809413E+01 -0.29185010798E+02  0.24971473846E+01  0.29740528908E+02  0.10566000000E+00 0. -1.
         13    1    4    4    0    0  0.25588385569E+00  0.51613514788E+01  0.14277552053E+02  0.15184356499E+02  0.10566000000E+00 0. -1.
        -13    1    4    4    0    0  0.19107172279E+01  0.98966540043E+01  0.25342613511E+02  0.27273683734E+02  0.10566000000E+00 0.  1.
         14    1    4    4    0    0  0.29799798576E+01  0.14127005315E+02  0.38613859064E+02  0.41224782242E+02  0.00000000000E+00 0. -1.
<mgrwt>
<rscale>  0 0.79670161E+02</rscale>
<asrwt>0</asrwt>
<pdfrwt beam="1">  1        1 0.25147831E-02 0.79670161E+02</pdfrwt>
<pdfrwt beam="2">  1       -2 0.14934963E-01 0.79670161E+02</pdfrwt>
<totfact> 0.10804078E+05</totfact>
</mgrwt>
</event>
<event>
 8    1  0.8577104E-014  0.8053122E+02  0.7818608E-02  0.1327551E+00
          1   -1    0    0  501    0  0.00000000000E+00  0.00000000000E+00  0.47469665866E+03  0.47469665869E+03  0.50400000000E-02 0. -1.
         -2   -1    0    0    0  501 -0.00000000000E+00 -0.00000000000E+00 -0.34154843134E+01  0.34154852654E+01  0.25500000000E-02 0.  1.
        -24    2    1    2    0    0  0.00000000000E+00  0.00000000000E+00  0.47128117435E+03  0.47811214395E+03  0.80531216935E+02 0.  0.
         66    2    3    3    0    0  0.18608954574E+02 -0.19335852868E+02  0.41381035350E+03  0.41468443069E+03  0.19999998758E+01 0.  0.
         13    1    3    3    0    0 -0.18608954574E+02  0.19335852868E+02  0.57470820852E+02  0.63427713264E+02  0.10566000000E+00 0. -1.
         13    1    4    4    0    0  0.57581869914E+01 -0.68121855532E+01  0.14413364709E+03  0.14440942482E+03  0.10566000000E+00 0. -1.
        -13    1    4    4    0    0  0.53519576839E+01 -0.53753265790E+01  0.12144522583E+03  0.12168192811E+03  0.10566000000E+00 0.  1.
         14    1    4    4    0    0  0.74988098984E+01 -0.71483407356E+01  0.14823148058E+03  0.14859307776E+03  0.00000000000E+00 0. -1.
<mgrwt>
<rscale>  0 0.80531217E+02</rscale>
<asrwt>0</asrwt>
<pdfrwt beam="1">  1        1 0.73030290E-01 0.80531217E+02</pdfrwt>
<pdfrwt beam="2">  1       -2 0.52545895E-03 0.80531217E+02</pdfrwt>
<totfact> 0.19146871E+05</totfact>
</mgrwt>
</event>
<event>
 8    1  0.8577104E-014  0.7524428E+02  0.7818608E-02  0.1343116E+00
          1   -1    0    0  501    0  0.00000000000E+00  0.00000000000E+00  0.58208000812E+01  0.58208022632E+01  0.50400000000E-02 0. -1.
         -2   -1    0    0    0  501 -0.00000000000E+00 -0.00000000000E+00 -0.24316676222E+03  0.24316676223E+03  0.25500000000E-02 0.  1.
        -24    2    1    2    0    0  0.44408920985E-15  0.00000000000E+00 -0.23734596214E+03  0.24898756449E+03  0.75244279053E+02 0.  0.
         66    2    3    3    0    0 -0.24249161947E+01  0.37046786362E+02 -0.99158715983E+02  0.10589993134E+03  0.19999760064E+01 0.  0.
         13    1    3    3    0    0  0.24249161947E+01 -0.37046786362E+02 -0.13818724615E+03  0.14308763315E+03  0.10566000000E+00 0. -1.
         13    1    4    4    0    0  0.27510396488E-01  0.55652252418E+00 -0.10328779200E+01  0.11783356802E+01  0.10566000000E+00 0. -1.
        -13    1    4    4    0    0 -0.14270592969E+01  0.25269502942E+02 -0.67716284702E+02  0.72291705299E+02  0.10566000000E+00 0.  1.
        -14    1    4    4    0    0 -0.10253672943E+01  0.11220760896E+02 -0.30409553361E+02  0.32429890360E+02  0.00000000000E+00 0.  1.
<mgrwt>
<rscale>  0 0.75244279E+02</rscale>
<asrwt>0</asrwt>
<pdfrwt beam="1">  1        1 0.89550807E-03 0.75244279E+02</pdfrwt>
<pdfrwt beam="2">  1       -2 0.37410263E-01 0.75244279E+02</pdfrwt>
<totfact> 0.91495257E+04</totfact>
</mgrwt>
</event>
<event>
 8    1  0.8577104E-014  0.7779955E+02  0.7818608E-02  0.1335415E+00
          1   -1    0    0  501    0  0.00000000000E+00  0.00000000000E+00  0.34214204762E+01  0.34214241883E+01  0.50400000000E-02 0. -1.
         -2   -1    0    0    0  501 -0.00000000000E+00 -0.00000000000E+00 -0.44226997766E+03  0.44226997767E+03  0.25500000000E-02 0.  1.
        -24    2    1    2    0    0 -0.88817841970E-15  0.00000000000E+00 -0.43884855719E+03  0.44569140186E+03  0.77799547208E+02 0.  0.
         66    2    3    3    0    0  0.76616524693E+01  0.22714210484E+02 -0.39488544340E+03  0.39561742844E+03  0.19999991325E+01 0.  0.
         13    1    3    3    0    0 -0.76616524693E+01 -0.22714210484E+02 -0.43963113786E+02  0.50073973422E+02  0.10566000000E+00 0. -1.
         13    1    4    4    0    0  0.77458877667E+00  0.12307407158E+01 -0.26938089101E+02  0.26977518769E+02  0.10566000000E+00 0. -1.
        -13    1    4    4    0    0  0.43457218344E+01  0.15138103616E+02 -0.25518756722E+03  0.25567313724E+03  0.10566000000E+00 0.  1.
        -14    1    4    4    0    0  0.25413418582E+01  0.63453661522E+01 -0.11275978708E+03  0.11296677243E+03  0.00000000000E+00 0.  1.
<mgrwt>
<rscale>  0 0.77799547E+02</rscale>
<asrwt>0</asrwt>
<pdfrwt beam="1">  1        1 0.52637302E-03 0.77799547E+02</pdfrwt>
<pdfrwt beam="2">  1       -2 0.68041490E-01 0.77799547E+02</pdfrwt>
<totfact> 0.59278151E+04</totfact>
</mgrwt>
</event>
<event>
 8    1  0.8577104E-014  0.7755131E+02  0.7818608E-02  0.1336148E+00
          1   -1    0    0  501    0  0.00000000000E+00  0.00000000000E+00  0.65369631277E+01  0.65369650707E+01  0.50400000000E-02 0. -1.
         -2   -1    0    0    0  501 -0.00000000000E+00 -0.00000000000E+00 -0.23000757764E+03  0.23000757766E+03  0.25500000000E-02 0.  1.
        -24    2    1    2    0    0  0.00000000000E+00  0.17763568394E-14 -0.22347061451E+03  0.23654454273E+03  0.77551306517E+02 0.  0.
         66    2    3    3    0    0  0.68465732697E+01 -0.11648518702E+02 -0.22258482822E+03  0.22300351858E+03  0.19999984796E+01 0.  0.
         13    1    3    3    0    0 -0.68465732697E+01  0.11648518702E+02 -0.88578629648E+00  0.13541024144E+02  0.10566000000E+00 0. -1.
         13    1    4    4    0    0  0.10337421288E+01 -0.27334025907E+01 -0.44889299689E+02  0.44984447347E+02  0.10566000000E+00 0. -1.
        -13    1    4    4    0    0  0.99150982160E+00 -0.97515270152E+00 -0.29195367420E+02  0.29228661573E+02  0.10566000000E+00 0.  1.
        -14    1    4    4    0    0  0.48213213193E+01 -0.79399634094E+01 -0.14850016111E+03  0.14879040966E+03  0.00000000000E+00 0.  1.
<mgrwt>
<rscale>  0 0.77551307E+02</rscale>
<asrwt>0</asrwt>
<pdfrwt beam="1">  1        1 0.10056870E-02 0.77551307E+02</pdfrwt>
<pdfrwt beam="2">  1       -2 0.35385775E-01 0.77551307E+02</pdfrwt>
<totfact> 0.86837216E+04</totfact>
</mgrwt>
</event>
<event>
 8    1  0.8577104E-014  0.8022575E+02  0.7818608E-02  0.1328412E+00
         -2   -1    0    0    0  501 -0.00000000000E+00  0.00000000000E+00  0.16750568232E+03  0.16750568234E+03  0.25500000000E-02 0.  1.
          1   -1    0    0  501    0  0.00000000000E+00 -0.00000000000E+00 -0.96058982667E+01  0.96058995889E+01  0.50400000000E-02 0. -1.
        -24    2    1    2    0    0  0.00000000000E+00 -0.88817841970E-15  0.15789978405E+03  0.17711158193E+03  0.80225748043E+02 0.  0.
         66    2    3    3    0    0 -0.38721847173E+02  0.61295977884E+01  0.97480587413E+02  0.10508766990E+03  0.20000061084E+01 0.  0.
         13    1    3    3    0    0  0.38721847173E+02 -0.61295977884E+01  0.60419196639E+02  0.72023912030E+02  0.10566000000E+00 0. -1.
         13    1    4    4    0    0 -0.19050331674E+01  0.44596142214E+00  0.40444432024E+01  0.44940758574E+01  0.10566000000E+00 0. -1.
        -13    1    4    4    0    0 -0.52981510370E+00  0.10650715693E+00  0.15216891979E+01  0.16182551929E+01  0.10566000000E+00 0.  1.
         14    1    4    4    0    0 -0.36286998902E+02  0.55771292093E+01  0.91914455012E+02  0.98975338846E+02  0.00000000000E+00 0. -1.
<mgrwt>
<rscale>  0 0.80225748E+02</rscale>
<asrwt>0</asrwt>
<pdfrwt beam="1">  1        1 0.14778307E-02 0.80225748E+02</pdfrwt>
<pdfrwt beam="2">  1       -2 0.25770103E-01 0.80225748E+02</pdfrwt>
<totfact> 0.90351680E+04</totfact>
</mgrwt>
</event>
<event>
 8    1  0.1253736E-013  0.8075916E+02  0.7818608E-02  0.1326911E+00
          1   -1    0    0  501    0  0.00000000000E+00  0.00000000000E+00  0.12627761052E+03  0.12627761062E+03  0.50400000000E-02 0. -1.
         -2   -1    0    0    0  501 -0.00000000000E+00 -0.00000000000E+00 -0.12912111504E+02  0.12912111756E+02  0.25500000000E-02 0.  1.
        -24    2    1    2    0    0 -0.35527136788E-14  0.00000000000E+00  0.11336549901E+03  0.13918972238E+03  0.80759163245E+02 0.  0.
         66    2    3    3    0    0  0.21425825929E+02 -0.10197067468E+02  0.45947716696E+00  0.23817164394E+02  0.19999997029E+01 0.  0.
         13    1    3    3    0    0 -0.21425825929E+02  0.10197067468E+02  0.11290602185E+03  0.11537255798E+03  0.10566000000E+00 0. -1.
         13    1    4    4    0    0  0.10234057980E+02 -0.45561812255E+01  0.11692268257E+00  0.11203551448E+02  0.10566000000E+00 0. -1.
        -13    1    4    4    0    0  0.10355257402E+02 -0.47783404202E+01  0.38153883722E+00  0.11411425369E+02  0.10566000000E+00 0.  1.
         14    1    4    4    0    0  0.83651054767E+00 -0.86254582204E+00 -0.38984352826E-01  0.12021875774E+01  0.00000000000E+00 0. -1.
<mgrwt>
<rscale>  0 0.80759163E+02</rscale>
<asrwt>0</asrwt>
<pdfrwt beam="1">  1        1 0.19427324E-01 0.80759163E+02</pdfrwt>
<pdfrwt beam="2">  1       -2 0.19864788E-02 0.80759163E+02</pdfrwt>
<totfact> 0.14920323E+05</totfact>
</mgrwt>
</event>
<event>
 8    1  0.8577104E-014  0.7973743E+02  0.7818608E-02  0.1329798E+00
          1   -1    0    0  501    0  0.00000000000E+00  0.00000000000E+00  0.18197987881E+01  0.18198057673E+01  0.50400000000E-02 0. -1.
         -2   -1    0    0    0  501 -0.00000000000E+00 -0.00000000000E+00 -0.87345453444E+03  0.87345453444E+03  0.25500000000E-02 0.  1.
        -24    2    1    2    0    0  0.35527136788E-14  0.00000000000E+00 -0.87163473565E+03  0.87527434021E+03  0.79737433098E+02 0.  0.
         66    2    3    3    0    0 -0.23214630961E+02 -0.13006545685E+02 -0.76161266485E+03  0.76208000931E+03  0.20000008609E+01 0.  0.
         13    1    3    3    0    0  0.23214630961E+02  0.13006545685E+02 -0.11002207080E+03  0.11319433090E+03  0.10566000000E+00 0. -1.
         13    1    4    4    0    0 -0.25197297112E+01 -0.12928045501E+01 -0.74903477823E+02  0.74957071284E+02  0.10566000000E+00 0. -1.
        -13    1    4    4    0    0 -0.42079812908E+01 -0.16433920346E+01 -0.13501070007E+03  0.13508629887E+03  0.10566000000E+00 0.  1.
        -14    1    4    4    0    0 -0.16486919959E+02 -0.10070349101E+02 -0.55169848696E+03  0.55203663916E+03  0.00000000000E+00 0.  1.
<mgrwt>
<rscale>  0 0.79737433E+02</rscale>
<asrwt>0</asrwt>
<pdfrwt beam="1">  1        1 0.27997028E-03 0.79737433E+02</pdfrwt>
<pdfrwt beam="2">  1       -2 0.13437729E+00 0.79737433E+02</pdfrwt>
<totfact> 0.30584826E+04</totfact>
</mgrwt>
</event>
<event>
 8    1  0.8577104E-014  0.8013301E+02  0.7818608E-02  0.1328674E+00
         -2   -1    0    0    0  501 -0.00000000000E+00  0.00000000000E+00  0.36004717800E+02  0.36004717890E+02  0.25500000000E-02 0.  1.
          1   -1    0    0  501    0  0.00000000000E+00 -0.00000000000E+00 -0.44586511092E+02  0.44586511376E+02  0.50400000000E-02 0. -1.
        -24    2    1    2    0    0 -0.35527136788E-14  0.00000000000E+00 -0.85817932920E+01  0.80591229266E+02  0.80133008546E+02 0.  0.
         66    2    3    3    0    0  0.31895161339E+02 -0.24151329637E+02 -0.26313065889E+01  0.40143639770E+02  0.19999998935E+01 0.  0.
         13    1    3    3    0    0 -0.31895161339E+02  0.24151329637E+02 -0.59504867031E+01  0.40447589496E+02  0.10566000000E+00 0. -1.
         13    1    4    4    0    0  0.12117463086E+02 -0.92185431457E+01 -0.70743932892E+00  0.15242246678E+02  0.10566000000E+00 0. -1.
        -13    1    4    4    0    0  0.14116025234E+02 -0.99708079316E+01 -0.92900063326E+00  0.17307610622E+02  0.10566000000E+00 0.  1.
         14    1    4    4    0    0  0.56616730188E+01 -0.49619785593E+01 -0.99486662676E+00  0.75937824698E+01  0.00000000000E+00 0. -1.
<mgrwt>
<rscale>  0 0.80133009E+02</rscale>
<asrwt>0</asrwt>
<pdfrwt beam="1">  1        1 0.68594633E-02 0.80133009E+02</pdfrwt>
<pdfrwt beam="2">  1       -2 0.55391874E-02 0.80133009E+02</pdfrwt>
<totfact> 0.12860936E+05</totfact>
</mgrwt>
</event>
<event>
 8    1  0.8577104E-014  0.7974739E+02  0.7818608E-02  0.1329770E+00
         -2   -1    0    0    0  501 -0.00000000000E+00  0.00000000000E+00  0.37800743217E+03  0.37800743218E+03  0.25500000000E-02 0.  1.
          1   -1    0    0  501    0  0.00000000000E+00 -0.00000000000E+00 -0.42060313727E+01  0.42060343924E+01  0.50400000000E-02 0. -1.
        -24    2    1    2    0    0  0.00000000000E+00  0.00000000000E+00  0.37380140080E+03  0.38221346657E+03  0.79747393626E+02 0.  0.
         66    2    3    3    0    0  0.96083397961E+01 -0.38631200198E+02  0.19561418659E+03  0.19963366404E+03  0.19999997711E+01 0.  0.
         13    1    3    3    0    0 -0.96083397961E+01  0.38631200198E+02  0.17818721420E+03  0.18257980253E+03  0.10566000000E+00 0. -1.
         13    1    4    4    0    0  0.14023209598E+01 -0.54737106462E+01  0.25063104997E+02  0.25692380357E+02  0.10566000000E+00 0. -1.
        -13    1    4    4    0    0  0.58804490755E+01 -0.25620766344E+02  0.13126157647E+03  0.13386790494E+03  0.10566000000E+00 0.  1.
         14    1    4    4    0    0  0.23255697608E+01 -0.75367232085E+01  0.39289505123E+02  0.40073378748E+02  0.00000000000E+00 0. -1.
<mgrwt>
<rscale>  0 0.79747394E+02</rscale>
<asrwt>0</asrwt>
<pdfrwt beam="1">  1        1 0.64708195E-03 0.79747394E+02</pdfrwt>
<pdfrwt beam="2">  1       -2 0.58154993E-01 0.79747394E+02</pdfrwt>
<totfact> 0.61810020E+04</totfact>
</mgrwt>
</event>
<event>
 8    1  0.8577104E-014  0.8114558E+02  0.7818608E-02  0.1325832E+00
          1   -1    0    0  501    0  0.00000000000E+00  0.00000000000E+00  0.41618343154E+03  0.41618343157E+03  0.50400000000E-02 0. -1.
         -2   -1    0    0    0  501 -0.00000000000E+00 -0.00000000000E+00 -0.39553503601E+01  0.39553511821E+01  0.25500000000E-02 0.  1.
        -24    2    1    2    0    0 -0.71054273576E-14  0.00000000000E+00  0.41222808118E+03  0.42013878275E+03  0.81145584351E+02 0.  0.
         66    2    3    3    0    0 -0.39943908073E+02 -0.30485003937E+01  0.17376530604E+03  0.17833449115E+03  0.20000008034E+01 0.  0.
         13    1    3    3    0    0  0.39943908073E+02  0.30485003937E+01  0.23846277514E+03  0.24180429161E+03  0.10566000000E+00 0. -1.
         13    1    4    4    0    0 -0.10821358509E+02 -0.10368564511E+01  0.49582430822E+02  0.50760274640E+02  0.10566000000E+00 0. -1.
        -13    1    4    4    0    0 -0.25798505352E+02 -0.13836505744E+01  0.11015788039E+03  0.11314701561E+03  0.10566000000E+00 0.  1.
        -14    1    4    4    0    0 -0.33240442118E+01 -0.62799336812E+00  0.14024994831E+02  0.14427200892E+02  0.00000000000E+00 0.  1.
<mgrwt>
<rscale>  0 0.81145584E+02</rscale>
<asrwt>0</asrwt>
<pdfrwt beam="1">  1        1 0.64028160E-01 0.81145584E+02</pdfrwt>
<pdfrwt beam="2">  1       -2 0.60851608E-03 0.81145584E+02</pdfrwt>
<totfact> 0.18413908E+05</totfact>
</mgrwt>
</event>
<event>
 8    1  0.8577104E-014  0.7695374E+02  0.7818608E-02  0.1337925E+00
         -2   -1    0    0    0  501 -0.00000000000E+00  0.00000000000E+00  0.43271131687E+03  0.43271131688E+03  0.25500000000E-02 0.  1.
          1   -1    0    0  501    0  0.00000000000E+00 -0.00000000000E+00 -0.34213774173E+01  0.34213811295E+01  0.50400000000E-02 0. -1.
        -24    2    1    2    0    0  0.00000000000E+00  0.00000000000E+00  0.42928993946E+03  0.43613269801E+03  0.76953740361E+02 0.  0.
         66    2    3    3    0    0  0.18013676061E+02  0.17610585948E+02  0.37942327467E+03  0.38026391707E+03  0.20000006735E+01 0.  0.
         13    1    3    3    0    0 -0.18013676061E+02 -0.17610585948E+02  0.49866664786E+02  0.55868780939E+02  0.10566000000E+00 0. -1.
         13    1    4    4    0    0  0.12316410674E+01  0.13280404996E+01  0.26866653302E+02  0.26927845346E+02  0.10566000000E+00 0. -1.
        -13    1    4    4    0    0  0.15768306674E+02  0.14593838777E+02  0.32189837176E+03  0.32261461921E+03  0.10566000000E+00 0.  1.
         14    1    4    4    0    0  0.10137283192E+01  0.16887066715E+01  0.30658249609E+02  0.30721452512E+02  0.00000000000E+00 0. -1.
<mgrwt>
<rscale>  0 0.76953740E+02</rscale>
<asrwt>0</asrwt>
<pdfrwt beam="1">  1        1 0.52636599E-03 0.76953740E+02</pdfrwt>
<pdfrwt beam="2">  1       -2 0.66570979E-01 0.76953740E+02</pdfrwt>
<totfact> 0.61916395E+04</totfact>
</mgrwt>
</event>
<event>
 8    1  0.8577104E-014  0.7946242E+02  0.7818608E-02  0.1330584E+00
         -2   -1    0    0    0  501 -0.00000000000E+00  0.00000000000E+00  0.13513305920E+02  0.13513306160E+02  0.25500000000E-02 0.  1.
          1   -1    0    0  501    0  0.00000000000E+00 -0.00000000000E+00 -0.11681588788E+03  0.11681588799E+03  0.50400000000E-02 0. -1.
        -24    2    1    2    0    0  0.00000000000E+00  0.00000000000E+00 -0.10330258196E+03  0.13032919415E+03  0.79462415064E+02 0.  0.
         66    2    3    3    0    0  0.32313420498E+02 -0.22628153369E+02 -0.59086993208E+02  0.71073646545E+02  0.19999993938E+01 0.  0.
         13    1    3    3    0    0 -0.32313420498E+02  0.22628153369E+02 -0.44215588751E+02  0.59255547604E+02  0.10566000000E+00 0. -1.
         13    1    4    4    0    0  0.21663099541E+01 -0.14745550385E+01 -0.33482989611E+01  0.42531730916E+01  0.10566000000E+00 0. -1.
        -13    1    4    4    0    0  0.14487318213E+02 -0.10873091179E+02 -0.26769996409E+02  0.32322598481E+02  0.10566000000E+00 0.  1.
        -14    1    4    4    0    0  0.15659792331E+02 -0.10280507152E+02 -0.28968697838E+02  0.34497874972E+02  0.00000000000E+00 0.  1.
<mgrwt>
<rscale>  0 0.79462415E+02</rscale>
<asrwt>0</asrwt>
<pdfrwt beam="1">  1        1 0.17971675E-01 0.79462415E+02</pdfrwt>
<pdfrwt beam="2">  1       -2 0.20789702E-02 0.79462415E+02</pdfrwt>
<totfact> 0.15371485E+05</totfact>
</mgrwt>
</event>
<event>
 8    1  0.8577104E-014  0.8101206E+02  0.7818608E-02  0.1326204E+00
         -2   -1    0    0    0  501 -0.00000000000E+00  0.00000000000E+00  0.14197140109E+02  0.14197140338E+02  0.25500000000E-02 0.  1.
          1   -1    0    0  501    0  0.00000000000E+00 -0.00000000000E+00 -0.11556824767E+03  0.11556824778E+03  0.50400000000E-02 0. -1.
        -24    2    1    2    0    0 -0.71054273576E-14  0.00000000000E+00 -0.10137110756E+03  0.12976538812E+03  0.81012063951E+02 0.  0.
         66    2    3    3    0    0  0.40406797227E+02 -0.14285566944E+00 -0.46791458638E+02  0.61856044797E+02  0.20000016217E+01 0.  0.
         13    1    3    3    0    0 -0.40406797227E+02  0.14285566944E+00 -0.54579648925E+02  0.67909343324E+02  0.10566000000E+00 0. -1.
         13    1    4    4    0    0  0.28540767172E+01  0.18445123969E+00 -0.30658162255E+01  0.41940635822E+01  0.10566000000E+00 0. -1.
        -13    1    4    4    0    0  0.23544907181E+02 -0.12034878767E+00 -0.28602608425E+02  0.37047233510E+02  0.10566000000E+00 0.  1.
         14    1    4    4    0    0  0.14007813329E+02 -0.20695812145E+00 -0.15123033988E+02  0.20614747705E+02  0.00000000000E+00 0. -1.
<mgrwt>
<rscale>  0 0.81012064E+02</rscale>
<asrwt>0</asrwt>
<pdfrwt beam="1">  1        1 0.17779730E-01 0.81012064E+02</pdfrwt>
<pdfrwt beam="2">  1       -2 0.21841755E-02 0.81012064E+02</pdfrwt>
<totfact> 0.14565597E+05</totfact>
</mgrwt>
</event>
<event>
 8    1  0.8577104E-014  0.7956073E+02  0.7818608E-02  0.1330303E+00
          1   -1    0    0  501    0  0.00000000000E+00  0.00000000000E+00  0.25807359441E+02  0.25807359933E+02  0.50400000000E-02 0. -1.
         -2   -1    0    0    0  501 -0.00000000000E+00 -0.00000000000E+00 -0.61318846319E+02  0.61318846372E+02  0.25500000000E-02 0.  1.
        -24    2    1    2    0    0  0.00000000000E+00  0.44408920985E-15 -0.35511486878E+02  0.87126206305E+02  0.79560732304E+02 0.  0.
         66    2    3    3    0    0 -0.95034534964E+01  0.37290450362E+01 -0.59842517152E+02  0.60740005300E+02  0.19999948863E+01 0.  0.
         13    1    3    3    0    0  0.95034534964E+01 -0.37290450362E+01  0.24331030274E+02  0.26386201005E+02  0.10566000000E+00 0. -1.
         13    1    4    4    0    0 -0.30630915779E+01  0.18336360056E+01 -0.24279804264E+02  0.24541084128E+02  0.10566000000E+00 0. -1.
        -13    1    4    4    0    0 -0.42199261602E+01  0.87107944271E+00 -0.23037836991E+02  0.23437569274E+02  0.10566000000E+00 0.  1.
         14    1    4    4    0    0 -0.22204357583E+01  0.10243295879E+01 -0.12524875896E+02  0.12761351899E+02  0.00000000000E+00 0. -1.
<mgrwt>
<rscale>  0 0.79560732E+02</rscale>
<asrwt>0</asrwt>
<pdfrwt beam="1">  1        1 0.39703631E-02 0.79560732E+02</pdfrwt>
<pdfrwt beam="2">  1       -2 0.94336686E-02 0.79560732E+02</pdfrwt>
<totfact> 0.11956237E+05</totfact>
</mgrwt>
</event>
<event>
 8    1  0.8577104E-014  0.7764957E+02  0.7818608E-02  0.1335857E+00
         -2   -1    0    0    0  501 -0.00000000000E+00  0.00000000000E+00  0.11667646792E+03  0.11667646795E+03  0.25500000000E-02 0.  1.
          1   -1    0    0  501    0  0.00000000000E+00 -0.00000000000E+00 -0.12919177807E+02  0.12919178790E+02  0.50400000000E-02 0. -1.
        -24    2    1    2    0    0  0.00000000000E+00 -0.71054273576E-14  0.10375729012E+03  0.12959564674E+03  0.77649574384E+02 0.  0.
         66    2    3    3    0    0  0.18400716034E+02 -0.34125984476E+02  0.49443094114E+02  0.62863254168E+02  0.20000005065E+01 0.  0.
         13    1    3    3    0    0 -0.18400716034E+02  0.34125984476E+02  0.54314196003E+02  0.66732392573E+02  0.10566000000E+00 0. -1.
         13    1    4    4    0    0  0.25482244118E+01 -0.48658498572E+01  0.74062989359E+01  0.92214082683E+01  0.10566000000E+00 0. -1.
        -13    1    4    4    0    0  0.77433069316E+01 -0.13938220756E+02  0.18806103738E+02  0.24655901970E+02  0.10566000000E+00 0.  1.
        -14    1    4    4    0    0  0.81091846907E+01 -0.15321913863E+02  0.23230691440E+02  0.28985943931E+02  0.00000000000E+00 0.  1.
<mgrwt>
<rscale>  0 0.77649574E+02</rscale>
<asrwt>0</asrwt>
<pdfrwt beam="1">  1        1 0.19875659E-02 0.77649574E+02</pdfrwt>
<pdfrwt beam="2">  1       -2 0.17950226E-01 0.77649574E+02</pdfrwt>
<totfact> 0.11003668E+05</totfact>
</mgrwt>
</event>
<event>
 8    1  0.8577104E-014  0.8052429E+02  0.7818608E-02  0.1327570E+00
         -2   -1    0    0    0  501 -0.00000000000E+00  0.00000000000E+00  0.31678796211E+03  0.31678796212E+03  0.25500000000E-02 0.  1.
          1   -1    0    0  501    0  0.00000000000E+00 -0.00000000000E+00 -0.51171135611E+01  0.51171160431E+01  0.50400000000E-02 0. -1.
        -24    2    1    2    0    0  0.00000000000E+00  0.00000000000E+00  0.31167084855E+03  0.32190507817E+03  0.80524291442E+02 0.  0.
         66    2    3    3    0    0 -0.87063469513E+01 -0.35861421242E+02  0.22004203433E+03  0.22312404370E+03  0.19999984445E+01 0.  0.
         13    1    3    3    0    0  0.87063469513E+01  0.35861421242E+02  0.91628814223E+02  0.98781034469E+02  0.10566000000E+00 0. -1.
         13    1    4    4    0    0 -0.27299889114E+01 -0.13775017842E+02  0.82258699072E+02  0.83448838776E+02  0.10566000000E+00 0. -1.
        -13    1    4    4    0    0 -0.30514934602E+01 -0.94420703695E+01  0.57734013134E+02  0.58580643064E+02  0.10566000000E+00 0.  1.
         14    1    4    4    0    0 -0.29248645796E+01 -0.12644333030E+02  0.80049322123E+02  0.81094561858E+02  0.00000000000E+00 0. -1.
<mgrwt>
<rscale>  0 0.80524291E+02</rscale>
<asrwt>0</asrwt>
<pdfrwt beam="1">  1        1 0.78724829E-03 0.80524291E+02</pdfrwt>
<pdfrwt beam="2">  1       -2 0.48736618E-01 0.80524291E+02</pdfrwt>
<totfact> 0.67038496E+04</totfact>
</mgrwt>
</event>
<event>
 8    1  0.8577104E-014  0.8011412E+02  0.7818608E-02  0.1328728E+00
          1   -1    0    0  501    0  0.00000000000E+00  0.00000000000E+00  0.53732188138E+01  0.53732211775E+01  0.50400000000E-02 0. -1.
         -2   -1    0    0    0  501 -0.00000000000E+00 -0.00000000000E+00 -0.29862314869E+03  0.29862314870E+03  0.25500000000E-02 0.  1.
        -24    2    1    2    0    0  0.00000000000E+00  0.00000000000E+00 -0.29324992988E+03  0.30399636988E+03  0.80114115653E+02 0.  0.
         66    2    3    3    0    0 -0.19302447827E+02 -0.34079601504E+02 -0.17813507755E+03  0.18240095828E+03  0.19999995743E+01 0.  0.
         13    1    3    3    0    0  0.19302447827E+02  0.34079601504E+02 -0.11511485233E+03  0.12159541159E+03  0.10566000000E+00 0. -1.
         13    1    4    4    0    0 -0.45368218624E+01 -0.72352022991E+01 -0.40921071021E+02  0.41802824335E+02  0.10566000000E+00 0. -1.
        -13    1    4    4    0    0 -0.12901283959E+02 -0.22708308920E+02 -0.11799308558E+03  0.12084903736E+03  0.10566000000E+00 0.  1.
        -14    1    4    4    0    0 -0.18643420054E+01 -0.41360902851E+01 -0.19220920953E+02  0.19749096593E+02  0.00000000000E+00 0.  1.
<mgrwt>
<rscale>  0 0.80114116E+02</rscale>
<asrwt>0</asrwt>
<pdfrwt beam="1">  1        1 0.82664946E-03 0.80114116E+02</pdfrwt>
<pdfrwt beam="2">  1       -2 0.45942010E-01 0.80114116E+02</pdfrwt>
<totfact> 0.70186497E+04</totfact>
</mgrwt>
</event>
<event>
 8    1  0.8577104E-014  0.8436023E+02  0.7818608E-02  0.1317114E+00
          1   -1    0    0  501    0  0.00000000000E+00  0.00000000000E+00  0.59773359012E+01  0.59773380261E+01  0.50400000000E-02 0. -1.
         -2   -1    0    0    0  501 -0.00000000000E+00 -0.00000000000E+00 -0.29765128856E+03  0.29765128857E+03  0.25500000000E-02 0.  1.
        -24    2    1    2    0    0 -0.35527136788E-14  0.00000000000E+00 -0.29167395266E+03  0.30362862660E+03  0.84360228957E+02 0.  0.
         66    2    3    3    0    0 -0.30766903218E+02  0.20282036786E+02 -0.21960935760E+03  0.22268864652E+03  0.19999984808E+01 0.  0.
         13    1    3    3    0    0  0.30766903218E+02 -0.20282036786E+02 -0.72064595066E+02  0.80939980083E+02  0.10566000000E+00 0. -1.
         13    1    4    4    0    0 -0.23642442864E+01  0.16144307276E+01 -0.20317288649E+02  0.20518270388E+02  0.10566000000E+00 0.  1.
        -13    1    4    4    0    0 -0.23364136238E+02  0.15096185278E+02 -0.16332213999E+03  0.16567410856E+03  0.10566000000E+00 0.  1.
         14    1    4    4    0    0 -0.50385226944E+01  0.35714207807E+01 -0.35969928955E+02  0.36496267568E+02  0.00000000000E+00 0. -1.
<mgrwt>
<rscale>  0 0.84360229E+02</rscale>
<asrwt>0</asrwt>
<pdfrwt beam="1">  1        1 0.91959054E-03 0.84360229E+02</pdfrwt>
<pdfrwt beam="2">  1       -2 0.45792495E-01 0.84360229E+02</pdfrwt>
<totfact> 0.61512402E+04</totfact>
</mgrwt>
</event>
<event>
 8    1  0.8577104E-014  0.8125768E+02  0.7818608E-02  0.1325520E+00
          1   -1    0    0  501    0  0.00000000000E+00  0.00000000000E+00  0.16385141754E+01  0.16385219268E+01  0.50400000000E-02 0. -1.
         -2   -1    0    0    0  501 -0.00000000000E+00 -0.00000000000E+00 -0.10074364024E+04  0.10074364024E+04  0.25500000000E-02 0.  1.
        -24    2    1    2    0    0  0.35527136788E-14  0.00000000000E+00 -0.10057978882E+04  0.10090749243E+04  0.81257682432E+02 0.  0.
         66    2    3    3    0    0  0.24755753760E+02  0.25633492383E+01 -0.90160857387E+03  0.90195423308E+03  0.19999987024E+01 0.  0.
         13    1    3    3    0    0 -0.24755753760E+02 -0.25633492383E+01 -0.10418931431E+03  0.10712069121E+03  0.10566000000E+00 0. -1.
         13    1    4    4    0    0  0.10783210615E+01 -0.32000406879E-01 -0.48593718270E+02  0.48605806440E+02  0.10566000000E+00 0. -1.
        -13    1    4    4    0    0  0.24362191784E+01 -0.77861805892E-01 -0.94736409358E+02  0.94767819688E+02  0.10566000000E+00 0.  1.
        -14    1    4    4    0    0  0.21241213520E+02  0.26732114511E+01 -0.75827844624E+03  0.75858060695E+03  0.00000000000E+00 0.  1.
<mgrwt>
<rscale>  0 0.81257682E+02</rscale>
<asrwt>0</asrwt>
<pdfrwt beam="1">  1        1 0.25208051E-03 0.81257682E+02</pdfrwt>
<pdfrwt beam="2">  1       -2 0.15498972E+00 0.81257682E+02</pdfrwt>
<totfact> 0.24833723E+04</totfact>
</mgrwt>
</event>
<event>
 8    1  0.8577104E-014  0.7947445E+02  0.7818608E-02  0.1330550E+00
         -2   -1    0    0    0  501 -0.00000000000E+00  0.00000000000E+00  0.17878396873E+03  0.17878396875E+03  0.25500000000E-02 0.  1.
          1   -1    0    0  501    0  0.00000000000E+00 -0.00000000000E+00 -0.88321512643E+01  0.88321527023E+01  0.50400000000E-02 0. -1.
        -24    2    1    2    0    0  0.00000000000E+00  0.00000000000E+00  0.16995181747E+03  0.18761612145E+03  0.79474453557E+02 0.  0.
         66    2    3    3    0    0  0.12771967223E+02  0.81735579152E+01  0.17167476405E+03  0.17235473538E+03  0.20000006725E+01 0.  0.
         13    1    3    3    0    0 -0.12771967223E+02 -0.81735579152E+01 -0.17229465815E+01  0.15261386067E+02  0.10566000000E+00 0. -1.
         13    1    4    4    0    0  0.66025829483E+01  0.45748912042E+01  0.89980083851E+02  0.90337978642E+02  0.10566000000E+00 0. -1.
        -13    1    4    4    0    0  0.48034833913E+01  0.30574855334E+01  0.69738414478E+02  0.69970560155E+02  0.10566000000E+00 0.  1.
         14    1    4    4    0    0  0.13659008832E+01  0.54118117758E+00  0.11956265717E+02  0.12046196586E+02  0.00000000000E+00 0. -1.
<mgrwt>
<rscale>  0 0.79474454E+02</rscale>
<asrwt>0</asrwt>
<pdfrwt beam="1">  1        1 0.13587925E-02 0.79474454E+02</pdfrwt>
<pdfrwt beam="2">  1       -2 0.27505228E-01 0.79474454E+02</pdfrwt>
<totfact> 0.90397486E+04</totfact>
</mgrwt>
</event>
<event>
 8    1  0.8577104E-014  0.7840824E+02  0.7818608E-02  0.1333630E+00
         -2   -1    0    0    0  501 -0.00000000000E+00  0.00000000000E+00  0.66503572355E+02  0.66503572404E+02  0.25500000000E-02 0.  1.
          1   -1    0    0  501    0  0.00000000000E+00 -0.00000000000E+00 -0.23110981283E+02  0.23110981833E+02  0.50400000000E-02 0. -1.
        -24    2    1    2    0    0  0.00000000000E+00  0.00000000000E+00  0.43392591072E+02  0.89614554237E+02  0.78408235353E+02 0.  0.
         66    2    3    3    0    0 -0.17618661341E+02 -0.32272310809E+02  0.37173176447E+02  0.52323649787E+02  0.20000018579E+01 0.  0.
         13    1    3    3    0    0  0.17618661341E+02  0.32272310809E+02  0.62194146250E+01  0.37290904450E+02  0.10566000000E+00 0. -1.
         13    1    4    4    0    0 -0.77044998262E+01 -0.13281443190E+02  0.15501034518E+02  0.21818553709E+02  0.10566000000E+00 0. -1.
        -13    1    4    4    0    0 -0.65344159973E+01 -0.12983220405E+02  0.13819255758E+02  0.20056061384E+02  0.10566000000E+00 0.  1.
         14    1    4    4    0    0 -0.33797455171E+01 -0.60076472143E+01  0.78528861709E+01  0.10449034693E+02  0.00000000000E+00 0. -1.
<mgrwt>
<rscale>  0 0.78408235E+02</rscale>
<asrwt>0</asrwt>
<pdfrwt beam="1">  1        1 0.35555357E-02 0.78408235E+02</pdfrwt>
<pdfrwt beam="2">  1       -2 0.10231319E-01 0.78408235E+02</pdfrwt>
<totfact> 0.12215505E+05</totfact>
</mgrwt>
</event>
<event>
 8    1  0.8577104E-014  0.7695901E+02  0.7818608E-02  0.1337910E+00
         -2   -1    0    0    0  501 -0.00000000000E+00  0.00000000000E+00  0.26563361315E+02  0.26563361437E+02  0.25500000000E-02 0.  1.
          1   -1    0    0  501    0  0.00000000000E+00 -0.00000000000E+00 -0.55741142355E+02  0.55741142583E+02  0.50400000000E-02 0. -1.
        -24    2    1    2    0    0  0.00000000000E+00  0.17763568394E-14 -0.29177781040E+02  0.82304504020E+02  0.76959005162E+02 0.  0.
         66    2    3    3    0    0  0.26767071003E+02  0.14208712841E+02  0.10716163521E+02  0.32205585994E+02  0.19999994769E+01 0.  0.
         13    1    3    3    0    0 -0.26767071003E+02 -0.14208712841E+02 -0.39893944562E+02  0.50098918026E+02  0.10566000000E+00 0. -1.
         13    1    4    4    0    0  0.65326902428E+01  0.25528093824E+01  0.24240985486E+01  0.74216100248E+01  0.10566000000E+00 0. -1.
        -13    1    4    4    0    0  0.15819557909E+02  0.92949576039E+01  0.65954633362E+01  0.19497844752E+02  0.10566000000E+00 0.  1.
        -14    1    4    4    0    0  0.44148228511E+01  0.23609458544E+01  0.16966016365E+01  0.52861312173E+01  0.00000000000E+00 0.  1.
<mgrwt>
<rscale>  0 0.76959005E+02</rscale>
<asrwt>0</asrwt>
<pdfrwt beam="1">  1        1 0.85755604E-02 0.76959005E+02</pdfrwt>
<pdfrwt beam="2">  1       -2 0.40866710E-02 0.76959005E+02</pdfrwt>
<totfact> 0.14892745E+05</totfact>
</mgrwt>
</event>
<event>
 8    1  0.8577104E-014  0.8144212E+02  0.7818608E-02  0.1325008E+00
          1   -1    0    0  501    0  0.00000000000E+00  0.00000000000E+00  0.46858261256E+02  0.46858261527E+02  0.50400000000E-02 0. -1.
         -2   -1    0    0    0  501 -0.00000000000E+00 -0.00000000000E+00 -0.35387666734E+02  0.35387666826E+02  0.25500000000E-02 0.  1.
        -24    2    1    2    0    0  0.17763568394E-14  0.00000000000E+00  0.11470594523E+02  0.82245928353E+02  0.81442115591E+02 0.  0.
         66    2    3    3    0    0  0.13903943831E+02 -0.81057927119E+01 -0.32008991008E+02  0.35883130212E+02  0.19999997290E+01 0.  0.
         13    1    3    3    0    0 -0.13903943831E+02  0.81057927119E+01  0.43479585530E+02  0.46362798141E+02  0.10566000000E+00 0. -1.
         13    1    4    4    0    0  0.77827561300E+01 -0.42225170630E+01 -0.15664333495E+02  0.17993983751E+02  0.10566000000E+00 0. -1.
        -13    1    4    4    0    0  0.47400953518E+00 -0.17819351982E+00 -0.11654777353E+01  0.12751236634E+01  0.10566000000E+00 0.  1.
        -14    1    4    4    0    0  0.56471781662E+01 -0.37050821291E+01 -0.15179179777E+02  0.16614022798E+02  0.00000000000E+00 0.  1.
<mgrwt>
<rscale>  0 0.81442116E+02</rscale>
<asrwt>0</asrwt>
<pdfrwt beam="1">  1        1 0.72089633E-02 0.81442116E+02</pdfrwt>
<pdfrwt beam="2">  1       -2 0.54442565E-02 0.81442116E+02</pdfrwt>
<totfact> 0.12388658E+05</totfact>
</mgrwt>
</event>
<event>
 8    1  0.8577104E-014  0.7957524E+02  0.7818608E-02  0.1330261E+00
         -2   -1    0    0    0  501 -0.00000000000E+00  0.00000000000E+00  0.10036271547E+02  0.10036271871E+02  0.25500000000E-02 0.  1.
          1   -1    0    0  501    0  0.00000000000E+00 -0.00000000000E+00 -0.15773332632E+03  0.15773332640E+03  0.50400000000E-02 0. -1.
        -24    2    1    2    0    0  0.00000000000E+00 -0.35527136788E-14 -0.14769705478E+03  0.16776959828E+03  0.79575235569E+02 0.  0.
         66    2    3    3    0    0 -0.25596833244E+02 -0.30242094986E+02 -0.80972011621E+02  0.90167892564E+02  0.20000005371E+01 0.  0.
         13    1    3    3    0    0  0.25596833244E+02  0.30242094986E+02 -0.66725043155E+02  0.77601705712E+02  0.10566000000E+00 0. -1.
         13    1    4    4    0    0 -0.36906663644E+01 -0.53465374079E+01 -0.12872169167E+02  0.14419097876E+02  0.10566000000E+00 0. -1.
        -13    1    4    4    0    0 -0.12400794588E+02 -0.14076607909E+02 -0.37644516357E+02  0.42060092397E+02  0.10566000000E+00 0.  1.
         14    1    4    4    0    0 -0.95053722918E+01 -0.10818949669E+02 -0.30455326097E+02  0.33688702290E+02  0.00000000000E+00 0. -1.
<mgrwt>
<rscale>  0 0.79575236E+02</rscale>
<asrwt>0</asrwt>
<pdfrwt beam="1">  1        1 0.24266664E-01 0.79575236E+02</pdfrwt>
<pdfrwt beam="2">  1       -2 0.15440419E-02 0.79575236E+02</pdfrwt>
<totfact> 0.16164290E+05</totfact>
</mgrwt>
</event>
<event>
 8    1  0.9415704E-014  0.8020058E+02  0.7818608E-02  0.1328483E+00
          1   -1    0    0  501    0  0.00000000000E+00  0.00000000000E+00  0.11740740950E+03  0.11740740961E+03  0.50400000000E-02 0. -1.
         -2   -1    0    0    0  501 -0.00000000000E+00 -0.00000000000E+00 -0.13696181463E+02  0.13696181700E+02  0.25500000000E-02 0.  1.
        -24    2    1    2    0    0  0.00000000000E+00  0.00000000000E+00  0.10371122804E+03  0.13110359131E+03  0.80200578759E+02 0.  0.
         66    2    3    3    0    0 -0.16999295064E+02  0.15678519332E+02 -0.16154230957E+01  0.23268037784E+02  0.19999973528E+01 0.  0.
         13    1    3    3    0    0  0.16999295064E+02 -0.15678519332E+02  0.10532665114E+03  0.10783555353E+03  0.10566000000E+00 0. -1.
         13    1    4    4    0    0 -0.54500749199E+01  0.50693103513E+01  0.33002590442E+00  0.74512619873E+01  0.10566000000E+00 0. -1.
        -13    1    4    4    0    0 -0.71106925873E+01  0.65875102432E+01 -0.88453133661E+00  0.97340022599E+01  0.10566000000E+00 0.  1.
         14    1    4    4    0    0 -0.44385275571E+01  0.40216987371E+01 -0.10609176635E+01  0.60827735365E+01  0.00000000000E+00 0. -1.
<mgrwt>
<rscale>  0 0.80200579E+02</rscale>
<asrwt>0</asrwt>
<pdfrwt beam="1">  1        1 0.18062679E-01 0.80200579E+02</pdfrwt>
<pdfrwt beam="2">  1       -2 0.21071048E-02 0.80200579E+02</pdfrwt>
<totfact> 0.15007179E+05</totfact>
</mgrwt>
</event>
<event>
 8    1  0.8577104E-014  0.8300660E+02  0.7818608E-02  0.1320729E+00
         -2   -1    0    0    0  501 -0.00000000000E+00  0.00000000000E+00  0.14494577298E+03  0.14494577300E+03  0.25500000000E-02 0.  1.
          1   -1    0    0  501    0  0.00000000000E+00 -0.00000000000E+00 -0.11883919022E+02  0.11883920090E+02  0.50400000000E-02 0. -1.
        -24    2    1    2    0    0  0.00000000000E+00 -0.88817841970E-15  0.13306185396E+03  0.15682969309E+03  0.83006600080E+02 0.  0.
         66    2    3    3    0    0 -0.38334135292E+02 -0.72463156336E+01  0.93188960821E+02  0.10104552159E+03  0.19999990523E+01 0.  0.
         13    1    3    3    0    0  0.38334135292E+02  0.72463156336E+01  0.39872893139E+02  0.55784171501E+02  0.10566000000E+00 0. -1.
         13    1    4    4    0    0 -0.17909491083E+02 -0.42160265079E+01  0.44567581881E+02  0.48216234497E+02  0.10566000000E+00 0.  1.
        -13    1    4    4    0    0 -0.77718388700E+01 -0.10098729793E+01  0.19275012998E+02  0.20807657556E+02  0.10566000000E+00 0. -1.
        -14    1    4    4    0    0 -0.12652805338E+02 -0.20204161463E+01  0.29346365942E+02  0.32021629539E+02  0.00000000000E+00 0.  1.
<mgrwt>
<rscale>  0 0.83006600E+02</rscale>
<asrwt>0</asrwt>
<pdfrwt beam="1">  1        1 0.18282953E-02 0.83006600E+02</pdfrwt>
<pdfrwt beam="2">  1       -2 0.22299350E-01 0.83006600E+02</pdfrwt>
<totfact> 0.86906379E+04</totfact>
</mgrwt>
</event>
<event>
 8    1  0.8577104E-014  0.8005752E+02  0.7818608E-02  0.1328888E+00
         -2   -1    0    0    0  501 -0.00000000000E+00  0.00000000000E+00  0.27301697306E+02  0.27301697425E+02  0.25500000000E-02 0.  1.
          1   -1    0    0  501    0  0.00000000000E+00 -0.00000000000E+00 -0.58688720941E+02  0.58688721158E+02  0.50400000000E-02 0. -1.
        -24    2    1    2    0    0  0.35527136788E-14  0.00000000000E+00 -0.31387023635E+02  0.85990418583E+02  0.80057522041E+02 0.  0.
         66    2    3    3    0    0  0.27691438844E+02 -0.13664408087E+02  0.11612975341E+02  0.33051369577E+02  0.20000002657E+01 0.  0.
         13    1    3    3    0    0 -0.27691438844E+02  0.13664408087E+02 -0.42999998976E+02  0.52939049005E+02  0.10566000000E+00 0. -1.
         13    1    4    4    0    0  0.62248580037E+01 -0.23520530974E+01  0.22843127094E+01  0.70363527150E+01  0.10566000000E+00 0. -1.
        -13    1    4    4    0    0  0.17367136312E+02 -0.87907517106E+01  0.77181903632E+01  0.20939827264E+02  0.10566000000E+00 0.  1.
         14    1    4    4    0    0  0.40994445279E+01 -0.25216032789E+01  0.16104722686E+01  0.50751895985E+01  0.00000000000E+00 0. -1.
<mgrwt>
<rscale>  0 0.80057522E+02</rscale>
<asrwt>0</asrwt>
<pdfrwt beam="1">  1        1 0.90290340E-02 0.80057522E+02</pdfrwt>
<pdfrwt beam="2">  1       -2 0.42002611E-02 0.80057522E+02</pdfrwt>
<totfact> 0.13464998E+05</totfact>
</mgrwt>
</event>
<event>
 8    1  0.8577104E-014  0.8046232E+02  0.7818608E-02  0.1327745E+00
         -2   -1    0    0    0  501 -0.00000000000E+00  0.00000000000E+00  0.40656372897E+02  0.40656372977E+02  0.25500000000E-02 0.  1.
          1   -1    0    0  501    0  0.00000000000E+00 -0.00000000000E+00 -0.39810390216E+02  0.39810390536E+02  0.50400000000E-02 0. -1.
        -24    2    1    2    0    0 -0.17763568394E-14 -0.35527136788E-14  0.84598268012E+00  0.80466763512E+02  0.80462316294E+02 0.  0.
         66    2    3    3    0    0  0.95097552203E+01  0.20287800884E+02  0.33809386988E+02  0.40609173311E+02  0.19999998613E+01 0.  0.
         13    1    3    3    0    0 -0.95097552203E+01 -0.20287800884E+02 -0.32963404308E+02  0.39857590201E+02  0.10566000000E+00 0. -1.
         13    1    4    4    0    0  0.45456502877E+01  0.11231885366E+02  0.18809206719E+02  0.22374440928E+02  0.10566000000E+00 0.  1.
        -13    1    4    4    0    0  0.27052807965E+01  0.54487452164E+01  0.81612416109E+01  0.10179606932E+02  0.10566000000E+00 0. -1.
        -14    1    4    4    0    0  0.22588241361E+01  0.36071703017E+01  0.68389386577E+01  0.80551254507E+01  0.00000000000E+00 0.  1.
<mgrwt>
<rscale>  0 0.80462316E+02</rscale>
<asrwt>0</asrwt>
<pdfrwt beam="1">  1        1 0.61246755E-02 0.80462316E+02</pdfrwt>
<pdfrwt beam="2">  1       -2 0.62548266E-02 0.80462316E+02</pdfrwt>
<totfact> 0.12483248E+05</totfact>
</mgrwt>
</event>
<event>
 8    1  0.8577104E-014  0.7898239E+02  0.7818608E-02  0.1331964E+00
          1   -1    0    0  501    0  0.00000000000E+00  0.00000000000E+00  0.75266096641E+01  0.75266113515E+01  0.50400000000E-02 0. -1.
         -2   -1    0    0    0  501 -0.00000000000E+00 -0.00000000000E+00 -0.20720542953E+03  0.20720542954E+03  0.25500000000E-02 0.  1.
        -24    2    1    2    0    0  0.00000000000E+00  0.11102230246E-15 -0.19967881986E+03  0.21473204089E+03  0.78982392245E+02 0.  0.
         66    2    3    3    0    0  0.36273825559E+02 -0.60585248929E+00 -0.14214366036E+03  0.14671393139E+03  0.20000011237E+01 0.  0.
         13    1    3    3    0    0 -0.36273825559E+02  0.60585248929E+00 -0.57535159504E+02  0.68018109509E+02  0.10566000000E+00 0. -1.
         13    1    4    4    0    0  0.38739651125E+01  0.10235423287E+00 -0.14205005260E+02  0.14724517668E+02  0.10566000000E+00 0. -1.
        -13    1    4    4    0    0  0.97514401415E+01  0.38680569790E+00 -0.40294477202E+02  0.41459573810E+02  0.10566000000E+00 0.  1.
        -14    1    4    4    0    0  0.22648420305E+02 -0.10950124201E+01 -0.87644177896E+02  0.90529839907E+02  0.00000000000E+00 0.  1.
<mgrwt>
<rscale>  0 0.78982392E+02</rscale>
<asrwt>0</asrwt>
<pdfrwt beam="1">  1        1 0.11579402E-02 0.78982392E+02</pdfrwt>
<pdfrwt beam="2">  1       -2 0.31877754E-01 0.78982392E+02</pdfrwt>
<totfact> 0.86662330E+04</totfact>
</mgrwt>
</event>
<event>
 8    1  0.8577104E-014  0.7938413E+02  0.7818608E-02  0.1330808E+00
         -2   -1    0    0    0  501 -0.00000000000E+00  0.00000000000E+00  0.32345580901E+01  0.32345590952E+01  0.25500000000E-02 0.  1.
          1   -1    0    0  501    0  0.00000000000E+00 -0.00000000000E+00 -0.48707112182E+03  0.48707112185E+03  0.50400000000E-02 0. -1.
        -24    2    1    2    0    0  0.71054273576E-14  0.35527136788E-14 -0.48383656373E+03  0.49030568094E+03  0.79384131672E+02 0.  0.
         66    2    3    3    0    0 -0.32405615961E+02 -0.22869950663E+02 -0.24543483046E+03  0.24862705925E+03  0.20000006754E+01 0.  0.
         13    1    3    3    0    0  0.32405615961E+02  0.22869950663E+02 -0.23840173327E+03  0.24167862169E+03  0.10566000000E+00 0. -1.
         13    1    4    4    0    0 -0.29716312173E+01 -0.18013108462E+01 -0.19546709300E+02  0.19853471267E+02  0.10566000000E+00 0. -1.
        -13    1    4    4    0    0 -0.22780414329E+01 -0.17533841654E+01 -0.20064697961E+02  0.20269856859E+02  0.10566000000E+00 0.  1.
        -14    1    4    4    0    0 -0.27155943311E+02 -0.19315255651E+02 -0.20582342319E+03  0.20850373113E+03  0.00000000000E+00 0.  1.
<mgrwt>
<rscale>  0 0.79384132E+02</rscale>
<asrwt>0</asrwt>
<pdfrwt beam="1">  1        1 0.74933961E-01 0.79384132E+02</pdfrwt>
<pdfrwt beam="2">  1       -2 0.49762479E-03 0.79384132E+02</pdfrwt>
<totfact> 0.19946041E+05</totfact>
</mgrwt>
</event>
<event>
 8    1  0.8577104E-014  0.8040798E+02  0.7818608E-02  0.1327898E+00
         -2   -1    0    0    0  501 -0.00000000000E+00  0.00000000000E+00  0.16343581788E+02  0.16343581987E+02  0.25500000000E-02 0.  1.
          1   -1    0    0  501    0  0.00000000000E+00 -0.00000000000E+00 -0.98898810775E+02  0.98898810903E+02  0.50400000000E-02 0. -1.
        -24    2    1    2    0    0  0.00000000000E+00  0.17763568394E-14 -0.82555228987E+02  0.11524239289E+03  0.80407980238E+02 0.  0.
         66    2    3    3    0    0  0.25037396102E+02  0.14822402165E+02 -0.15901619023E+01  0.29207934319E+02  0.20000007053E+01 0.  0.
         13    1    3    3    0    0 -0.25037396102E+02 -0.14822402165E+02 -0.80965067084E+02  0.86034458571E+02  0.10566000000E+00 0. -1.
         13    1    4    4    0    0  0.10115752273E+02  0.55072841183E+01 -0.41367453978E+00  0.11525663238E+02  0.10566000000E+00 0.  1.
        -13    1    4    4    0    0  0.85427693003E+01  0.60502292801E+01 -0.96707710017E+00  0.10513352644E+02  0.10566000000E+00 0. -1.
         14    1    4    4    0    0  0.63788745284E+01  0.32648887665E+01 -0.20941026233E+00  0.71689184376E+01  0.00000000000E+00 0. -1.
<mgrwt>
<rscale>  0 0.80407980E+02</rscale>
<asrwt>0</asrwt>
<pdfrwt beam="1">  1        1 0.15215201E-01 0.80407980E+02</pdfrwt>
<pdfrwt beam="2">  1       -2 0.25143973E-02 0.80407980E+02</pdfrwt>
<totfact> 0.14471342E+05</totfact>
</mgrwt>
</event>
<event>
 8    1  0.8577104E-014  0.8157230E+02  0.7818608E-02  0.1324648E+00
         -2   -1    0    0    0  501 -0.00000000000E+00  0.00000000000E+00  0.90262410446E+02  0.90262410482E+02  0.25500000000E-02 0.  1.
          1   -1    0    0  501    0  0.00000000000E+00 -0.00000000000E+00 -0.18429708838E+02  0.18429709527E+02  0.50400000000E-02 0. -1.
        -24    2    1    2    0    0  0.00000000000E+00  0.00000000000E+00  0.71832701608E+02  0.10869212001E+03  0.81572298802E+02 0.  0.
         66    2    3    3    0    0  0.19012412794E+02 -0.29154872654E+02  0.64204536989E+02  0.73059571697E+02  0.20000017349E+01 0.  0.
         13    1    3    3    0    0 -0.19012412794E+02  0.29154872654E+02  0.76281646186E+01  0.35632548312E+02  0.10566000000E+00 0. -1.
         13    1    4    4    0    0  0.47563921761E+00 -0.95447043815E+00  0.14858119593E+01  0.18319518816E+01  0.10566000000E+00 0. -1.
        -13    1    4    4    0    0  0.10444029283E+02 -0.16092754621E+02  0.36579752549E+02  0.41305495512E+02  0.10566000000E+00 0.  1.
         14    1    4    4    0    0  0.80927442934E+01 -0.12107647595E+02  0.26138972480E+02  0.29922124303E+02  0.00000000000E+00 0. -1.
<mgrwt>
<rscale>  0 0.81572299E+02</rscale>
<asrwt>0</asrwt>
<pdfrwt beam="1">  1        1 0.28353399E-02 0.81572299E+02</pdfrwt>
<pdfrwt beam="2">  1       -2 0.13886525E-01 0.81572299E+02</pdfrwt>
<totfact> 0.10349704E+05</totfact>
</mgrwt>
</event>
<event>
 8    1  0.8577104E-014  0.7891921E+02  0.7818608E-02  0.1332147E+00
         -2   -1    0    0    0  501 -0.00000000000E+00  0.00000000000E+00  0.11301132333E+02  0.11301132621E+02  0.25500000000E-02 0.  1.
          1   -1    0    0  501    0  0.00000000000E+00 -0.00000000000E+00 -0.13777915310E+03  0.13777915319E+03  0.50400000000E-02 0. -1.
        -24    2    1    2    0    0  0.00000000000E+00  0.00000000000E+00 -0.12647802077E+03  0.14908028581E+03  0.78919211103E+02 0.  0.
         66    2    3    3    0    0 -0.32990067211E+02  0.14532091057E+02 -0.33082924762E+02  0.48969440612E+02  0.19999994944E+01 0.  0.
         13    1    3    3    0    0  0.32990067211E+02 -0.14532091057E+02 -0.93395096005E+02  0.10011084520E+03  0.10566000000E+00 0. -1.
         13    1    4    4    0    0 -0.57099555444E+01  0.32077031872E+01 -0.61100618849E+01  0.89575092704E+01  0.10566000000E+00 0. -1.
        -13    1    4    4    0    0 -0.25656327780E+02  0.10842885159E+02 -0.25228904409E+02  0.37580900674E+02  0.10566000000E+00 0.  1.
         14    1    4    4    0    0 -0.16237838870E+01  0.48150271097E+00 -0.17439584678E+01  0.24310306682E+01  0.00000000000E+00 0. -1.
<mgrwt>
<rscale>  0 0.78919211E+02</rscale>
<asrwt>0</asrwt>
<pdfrwt beam="1">  1        1 0.21196792E-01 0.78919211E+02</pdfrwt>
<pdfrwt beam="2">  1       -2 0.17386359E-02 0.78919211E+02</pdfrwt>
<totfact> 0.16121064E+05</totfact>
</mgrwt>
</event>
<event>
 8    1  0.8577104E-014  0.8035998E+02  0.7818608E-02  0.1328033E+00
         -2   -1    0    0    0  501 -0.00000000000E+00  0.00000000000E+00  0.19593311335E+03  0.19593311337E+03  0.25500000000E-02 0.  1.
          1   -1    0    0  501    0  0.00000000000E+00 -0.00000000000E+00 -0.82397076125E+01  0.82397091539E+01  0.50400000000E-02 0. -1.
        -24    2    1    2    0    0 -0.17763568394E-14 -0.17763568394E-14  0.18769340574E+03  0.20417282252E+03  0.80359983192E+02 0.  0.
         66    2    3    3    0    0 -0.81717589106E+01 -0.65014855963E+01  0.19241742231E+03  0.19271095290E+03  0.19999996041E+01 0.  0.
         13    1    3    3    0    0  0.81717589106E+01  0.65014855963E+01 -0.47240165743E+01  0.11461869624E+02  0.10566000000E+00 0. -1.
         13    1    4    4    0    0 -0.26914901251E+01 -0.32842891461E+01  0.73513176224E+02  0.73635785572E+02  0.10566000000E+00 0. -1.
        -13    1    4    4    0    0 -0.27541280864E+01 -0.18779208430E+01  0.64647264229E+02  0.64733235239E+02  0.10566000000E+00 0.  1.
         14    1    4    4    0    0 -0.27261406991E+01 -0.13392756073E+01  0.54256981859E+02  0.54341932085E+02  0.00000000000E+00 0. -1.
<mgrwt>
<rscale>  0 0.80359983E+02</rscale>
<asrwt>0</asrwt>
<pdfrwt beam="1">  1        1 0.12676475E-02 0.80359983E+02</pdfrwt>
<pdfrwt beam="2">  1       -2 0.30143555E-01 0.80359983E+02</pdfrwt>
<totfact> 0.84795028E+04</totfact>
</mgrwt>
</event>
<event>
 8    1  0.8577104E-014  0.8009239E+02  0.7818608E-02  0.1328789E+00
          1   -1    0    0  501    0  0.00000000000E+00  0.00000000000E+00  0.57608522425E+02  0.57608522646E+02  0.50400000000E-02 0. -1.
         -2   -1    0    0    0  501 -0.00000000000E+00 -0.00000000000E+00 -0.27837852626E+02  0.27837852743E+02  0.25500000000E-02 0.  1.
        -24    2    1    2    0    0 -0.71054273576E-14  0.00000000000E+00  0.29770669799E+02  0.85446375389E+02  0.80092385948E+02 0.  0.
         66    2    3    3    0    0  0.34156726427E+02  0.19436646145E+02  0.68240161053E+01  0.39937856919E+02  0.20000114798E+01 0.  0.
         13    1    3    3    0    0 -0.34156726427E+02 -0.19436646145E+02  0.22946653694E+02  0.45508518470E+02  0.10566000000E+00 0. -1.
         13    1    4    4    0    0  0.10573217776E+02  0.61259480798E+01  0.27577970952E+01  0.12527441194E+02  0.10566000000E+00 0. -1.
        -13    1    4    4    0    0  0.72134587319E+00  0.42618051220E+00 -0.53329902935E-01  0.84615472102E+00  0.10566000000E+00 0.  1.
        -14    1    4    4    0    0  0.22862162778E+02  0.12884517553E+02  0.41195489130E+01  0.26564261004E+02  0.00000000000E+00 0.  1.
<mgrwt>
<rscale>  0 0.80092386E+02</rscale>
<asrwt>0</asrwt>
<pdfrwt beam="1">  1        1 0.88628497E-02 0.80092386E+02</pdfrwt>
<pdfrwt beam="2">  1       -2 0.42827466E-02 0.80092386E+02</pdfrwt>
<totfact> 0.13409733E+05</totfact>
</mgrwt>
</event>
<event>
 8    1  0.8577104E-014  0.7947375E+02  0.7818608E-02  0.1330552E+00
         -2   -1    0    0    0  501 -0.00000000000E+00  0.00000000000E+00  0.17719914706E+02  0.17719914889E+02  0.25500000000E-02 0.  1.
          1   -1    0    0  501    0  0.00000000000E+00 -0.00000000000E+00 -0.89109872358E+02  0.89109872501E+02  0.50400000000E-02 0. -1.
        -24    2    1    2    0    0  0.00000000000E+00  0.88817841970E-15 -0.71389957652E+02  0.10682978739E+03  0.79473753027E+02 0.  0.
         66    2    3    3    0    0  0.37414293101E+02 -0.70967536981E+01 -0.20579661007E+02  0.43332616976E+02  0.20000013712E+01 0.  0.
         13    1    3    3    0    0 -0.37414293101E+02  0.70967536981E+01 -0.50810296646E+02  0.63497170414E+02  0.10566000000E+00 0. -1.
         13    1    4    4    0    0  0.13696630197E+02 -0.30245991320E+01 -0.72961621526E+01  0.15811104479E+02  0.10566000000E+00 0. -1.
        -13    1    4    4    0    0  0.22672242396E+02 -0.41726619443E+01 -0.12690874184E+02  0.26315606293E+02  0.10566000000E+00 0.  1.
         14    1    4    4    0    0  0.10454205086E+01  0.10050737825E+00 -0.59262466964E+00  0.12059062036E+01  0.00000000000E+00 0. -1.
<mgrwt>
<rscale>  0 0.79473753E+02</rscale>
<asrwt>0</asrwt>
<pdfrwt beam="1">  1        1 0.13709211E-01 0.79473753E+02</pdfrwt>
<pdfrwt beam="2">  1       -2 0.27261408E-02 0.79473753E+02</pdfrwt>
<totfact> 0.14680540E+05</totfact>
</mgrwt>
</event>
<event>
 8    1  0.8577104E-014  0.7991048E+02  0.7818608E-02  0.1329306E+00
         -2   -1    0    0    0  501 -0.00000000000E+00  0.00000000000E+00  0.26317267630E+03  0.26317267632E+03  0.25500000000E-02 0.  1.
          1   -1    0    0  501    0  0.00000000000E+00 -0.00000000000E+00 -0.60660591797E+01  0.60660612734E+01  0.50400000000E-02 0. -1.
        -24    2    1    2    0    0  0.00000000000E+00  0.00000000000E+00  0.25710661712E+03  0.26923873759E+03  0.79910482728E+02 0.  0.
         66    2    3    3    0    0 -0.38848450298E+02  0.88340942578E+01  0.13765732728E+03  0.14332056051E+03  0.19999994443E+01 0.  0.
         13    1    3    3    0    0  0.38848450298E+02 -0.88340942578E+01  0.11944928984E+03  0.12591817708E+03  0.10566000000E+00 0. -1.
         13    1    4    4    0    0 -0.10971512128E+02  0.22575056374E+01  0.37713540836E+02  0.39341997108E+02  0.10566000000E+00 0. -1.
        -13    1    4    4    0    0 -0.15892973132E+02  0.45110954094E+01  0.56907075125E+02  0.59256754383E+02  0.10566000000E+00 0.  1.
         14    1    4    4    0    0 -0.11983965038E+02  0.20654932110E+01  0.43036711320E+02  0.44721809014E+02  0.00000000000E+00 0. -1.
<mgrwt>
<rscale>  0 0.79910483E+02</rscale>
<asrwt>0</asrwt>
<pdfrwt beam="1">  1        1 0.93324006E-03 0.79910483E+02</pdfrwt>
<pdfrwt beam="2">  1       -2 0.40488103E-01 0.79910483E+02</pdfrwt>
<totfact> 0.75432503E+04</totfact>
</mgrwt>
</event>
<event>
 8    1  0.8577104E-014  0.8064200E+02  0.7818608E-02  0.1327239E+00
          1   -1    0    0  501    0  0.00000000000E+00  0.00000000000E+00  0.52059461916E+02  0.52059462160E+02  0.50400000000E-02 0. -1.
         -2   -1    0    0    0  501 -0.00000000000E+00 -0.00000000000E+00 -0.31229345670E+02  0.31229345774E+02  0.25500000000E-02 0.  1.
        -24    2    1    2    0    0  0.00000000000E+00  0.00000000000E+00  0.20830116245E+02  0.83288807934E+02  0.80641997645E+02 0.  0.
         66    2    3    3    0    0  0.38965579320E+02 -0.99838381117E+01  0.79373907226E+01  0.41048697486E+02  0.19999996443E+01 0.  0.
         13    1    3    3    0    0 -0.38965579320E+02  0.99838381117E+01  0.12892725523E+02  0.42240110448E+02  0.10566000000E+00 0. -1.
         13    1    4    4    0    0  0.16006449872E+02 -0.44413535237E+01  0.25636319889E+01  0.16808195372E+02  0.10566000000E+00 0. -1.
        -13    1    4    4    0    0  0.12979257023E+02 -0.26787659301E+01  0.28771025040E+01  0.13561924002E+02  0.10566000000E+00 0.  1.
         14    1    4    4    0    0  0.99798724247E+01 -0.28637186580E+01  0.24966562297E+01  0.10678578112E+02  0.00000000000E+00 0. -1.
<mgrwt>
<rscale>  0 0.80641998E+02</rscale>
<asrwt>0</asrwt>
<pdfrwt beam="1">  1        1 0.80091480E-02 0.80641998E+02</pdfrwt>
<pdfrwt beam="2">  1       -2 0.48045148E-02 0.80641998E+02</pdfrwt>
<totfact> 0.12950052E+05</totfact>
</mgrwt>
</event>
<event>
 8    1  0.8577104E-014  0.8136875E+02  0.7818608E-02  0.1325211E+00
         -2   -1    0    0    0  501 -0.00000000000E+00  0.00000000000E+00  0.34718312644E+02  0.34718312738E+02  0.25500000000E-02 0.  1.
          1   -1    0    0  501    0  0.00000000000E+00 -0.00000000000E+00 -0.47675660098E+02  0.47675660364E+02  0.50400000000E-02 0. -1.
        -24    2    1    2    0    0  0.00000000000E+00  0.00000000000E+00 -0.12957347454E+02  0.82393973102E+02  0.81368752912E+02 0.  0.
         66    2    3    3    0    0  0.34102118735E+01 -0.33325387393E+02  0.16851255526E+02  0.37552307594E+02  0.20000007447E+01 0.  0.
         13    1    3    3    0    0 -0.34102118735E+01  0.33325387393E+02 -0.29808602979E+02  0.44841665508E+02  0.10566000000E+00 0. -1.
         13    1    4    4    0    0  0.70202092664E+00 -0.37524294393E+01  0.18316781681E+01  0.42355364507E+01  0.10566000000E+00 0. -1.
        -13    1    4    4    0    0  0.15775870419E+01 -0.18764823376E+02  0.86780843364E+01  0.20734697707E+02  0.10566000000E+00 0.  1.
        -14    1    4    4    0    0  0.11306039050E+01 -0.10808134577E+02  0.63414930212E+01  0.12582073436E+02  0.00000000000E+00 0.  1.
<mgrwt>
<rscale>  0 0.81368753E+02</rscale>
<asrwt>0</asrwt>
<pdfrwt beam="1">  1        1 0.73347170E-02 0.81368753E+02</pdfrwt>
<pdfrwt beam="2">  1       -2 0.53412788E-02 0.81368753E+02</pdfrwt>
<totfact> 0.12454511E+05</totfact>
</mgrwt>
</event>
<event>
 8    1  0.8577104E-014  0.8243146E+02  0.7818608E-02  0.1322290E+00
         -2   -1    0    0    0  501 -0.00000000000E+00  0.00000000000E+00  0.71391398903E+01  0.71391403457E+01  0.25500000000E-02 0.  1.
          1   -1    0    0  501    0  0.00000000000E+00 -0.00000000000E+00 -0.23794689233E+03  0.23794689238E+03  0.50400000000E-02 0. -1.
        -24    2    1    2    0    0  0.71054273576E-14 -0.17763568394E-14 -0.23080775244E+03  0.24508603272E+03  0.82431455480E+02 0.  0.
         66    2    3    3    0    0  0.33213180409E+02 -0.11871496280E+02 -0.17873070540E+03  0.18218867373E+03  0.20000013497E+01 0.  0.
         13    1    3    3    0    0 -0.33213180409E+02  0.11871496280E+02 -0.52077047038E+02  0.62897358999E+02  0.10566000000E+00 0. -1.
         13    1    4    4    0    0  0.73423998602E+01 -0.33433033455E+01 -0.43287151346E+02  0.44032682733E+02  0.10566000000E+00 0. -1.
        -13    1    4    4    0    0  0.40307459368E+01 -0.13476668890E+01 -0.21400192497E+02  0.21818398699E+02  0.10566000000E+00 0.  1.
         14    1    4    4    0    0  0.21840034612E+02 -0.71805260455E+01 -0.11404336155E+03  0.11633759229E+03  0.00000000000E+00 0. -1.
<mgrwt>
<rscale>  0 0.82431455E+02</rscale>
<asrwt>0</asrwt>
<pdfrwt beam="1">  1        1 0.36607208E-01 0.82431455E+02</pdfrwt>
<pdfrwt beam="2">  1       -2 0.10983294E-02 0.82431455E+02</pdfrwt>
<totfact> 0.15932326E+05</totfact>
</mgrwt>
</event>
<event>
 8    1  0.8577104E-014  0.8231633E+02  0.7818608E-02  0.1322604E+00
          1   -1    0    0  501    0  0.00000000000E+00  0.00000000000E+00  0.22362460042E+03  0.22362460048E+03  0.50400000000E-02 0. -1.
         -2   -1    0    0    0  501 -0.00000000000E+00 -0.00000000000E+00 -0.75751700511E+01  0.75751704802E+01  0.25500000000E-02 0.  1.
        -24    2    1    2    0    0  0.00000000000E+00  0.00000000000E+00  0.21604943037E+03  0.23119977096E+03  0.82316327225E+02 0.  0.
         66    2    3    3    0    0 -0.14729680640E+01  0.37096627415E+02  0.58345417387E+02  0.69184659701E+02  0.20000018699E+01 0.  0.
         13    1    3    3    0    0  0.14729680640E+01 -0.37096627415E+02  0.15770401298E+03  0.16201511126E+03  0.10566000000E+00 0. -1.
         13    1    4    4    0    0 -0.27424486830E+00  0.15590724656E+02  0.22862930857E+02  0.27674368592E+02  0.10566000000E+00 0. -1.
        -13    1    4    4    0    0 -0.44953117161E+00  0.90584526316E+01  0.14615584241E+02  0.17201282193E+02  0.10566000000E+00 0.  1.
         14    1    4    4    0    0 -0.74919202410E+00  0.12447450127E+02  0.20866902289E+02  0.24309008917E+02  0.00000000000E+00 0. -1.
<mgrwt>
<rscale>  0 0.82316327E+02</rscale>
<asrwt>0</asrwt>
<pdfrwt beam="1">  1        1 0.34403785E-01 0.82316327E+02</pdfrwt>
<pdfrwt beam="2">  1       -2 0.11654108E-02 0.82316327E+02</pdfrwt>
<totfact> 0.15797548E+05</totfact>
</mgrwt>
</event>
<event>
 8    1  0.8577104E-014  0.7853680E+02  0.7818608E-02  0.1333256E+00
          1   -1    0    0  501    0  0.00000000000E+00  0.00000000000E+00  0.71099584177E+02  0.71099584356E+02  0.50400000000E-02 0. -1.
         -2   -1    0    0    0  501 -0.00000000000E+00 -0.00000000000E+00 -0.21687993693E+02  0.21687993843E+02  0.25500000000E-02 0.  1.
        -24    2    1    2    0    0  0.00000000000E+00  0.35527136788E-14  0.49411590484E+02  0.92787578198E+02  0.78536802798E+02 0.  0.
         66    2    3    3    0    0  0.20445797939E+02  0.30421568994E+02  0.81603443227E+01  0.37604437772E+02  0.20000018177E+01 0.  0.
         13    1    3    3    0    0 -0.20445797939E+02 -0.30421568994E+02  0.41251246161E+02  0.55183140426E+02  0.10566000000E+00 0. -1.
         13    1    4    4    0    0  0.42927967381E+01  0.76753114342E+01  0.23041195533E+01  0.90916797347E+01  0.10566000000E+00 0. -1.
        -13    1    4    4    0    0  0.11921550047E+02  0.17120026776E+02  0.45553543363E+01  0.21353713717E+02  0.10566000000E+00 0.  1.
        -14    1    4    4    0    0  0.42314511542E+01  0.56262307838E+01  0.13008704331E+01  0.71590443208E+01  0.00000000000E+00 0.  1.
<mgrwt>
<rscale>  0 0.78536803E+02</rscale>
<asrwt>0</asrwt>
<pdfrwt beam="1">  1        1 0.10938398E-01 0.78536803E+02</pdfrwt>
<pdfrwt beam="2">  1       -2 0.33366144E-02 0.78536803E+02</pdfrwt>
<totfact> 0.14624301E+05</totfact>
</mgrwt>
</event>
<event>
 8    1  0.8577104E-014  0.7920857E+02  0.7818608E-02  0.1331313E+00
         -2   -1    0    0    0  501 -0.00000000000E+00  0.00000000000E+00  0.59213136385E+02  0.59213136440E+02  0.25500000000E-02 0.  1.
          1   -1    0    0  501    0  0.00000000000E+00 -0.00000000000E+00 -0.26489040831E+02  0.26489041311E+02  0.50400000000E-02 0. -1.
        -24    2    1    2    0    0  0.35527136788E-14  0.00000000000E+00  0.32724095554E+02  0.85702177751E+02  0.79208565455E+02 0.  0.
         66    2    3    3    0    0  0.20876113773E+02  0.26781377504E+02  0.38372615073E+02  0.51278766472E+02  0.19999990369E+01 0.  0.
         13    1    3    3    0    0 -0.20876113773E+02 -0.26781377504E+02 -0.56485195188E+01  0.34423411278E+02  0.10566000000E+00 0. -1.
         13    1    4    4    0    0  0.10746718066E+01  0.15542638573E+01  0.15662334203E+01  0.24566047286E+01  0.10566000000E+00 0. -1.
        -13    1    4    4    0    0  0.27731374859E+01  0.36959188802E+01  0.50505942535E+01  0.68461503222E+01  0.10566000000E+00 0.  1.
        -14    1    4    4    0    0  0.17028304480E+02  0.21531194766E+02  0.31755787399E+02  0.41976011422E+02  0.00000000000E+00 0.  1.
<mgrwt>
<rscale>  0 0.79208565E+02</rscale>
<asrwt>0</asrwt>
<pdfrwt beam="1">  1        1 0.40752371E-02 0.79208565E+02</pdfrwt>
<pdfrwt beam="2">  1       -2 0.91097132E-02 0.79208565E+02</pdfrwt>
<totfact> 0.12170113E+05</totfact>
</mgrwt>
</event>
<event>
 8    1  0.8577104E-014  0.7942577E+02  0.7818608E-02  0.1330689E+00
         -2   -1    0    0    0  501 -0.00000000000E+00  0.00000000000E+00  0.22772098452E+03  0.22772098454E+03  0.25500000000E-02 0.  1.
          1   -1    0    0  501    0  0.00000000000E+00 -0.00000000000E+00 -0.69256379681E+01  0.69256398020E+01  0.50400000000E-02 0. -1.
        -24    2    1    2    0    0  0.00000000000E+00  0.00000000000E+00  0.22079534655E+03  0.23464662434E+03  0.79425771973E+02 0.  0.
         66    2    3    3    0    0  0.32976054043E+01 -0.20133553081E+02  0.21103807137E+03  0.21203136966E+03  0.19999981100E+01 0.  0.
         13    1    3    3    0    0 -0.32976054043E+01  0.20133553081E+02  0.97572751866E+01  0.22615254678E+02  0.10566000000E+00 0. -1.
         13    1    4    4    0    0  0.32639306522E+00 -0.13759832346E+01  0.19001443162E+02  0.19054287406E+02  0.10566000000E+00 0. -1.
        -13    1    4    4    0    0  0.20804637707E+01 -0.11582671882E+02  0.12415324921E+03  0.12470977135E+03  0.10566000000E+00 0.  1.
         14    1    4    4    0    0  0.89074856835E+00 -0.71748979639E+01  0.67883378999E+02  0.68267310904E+02  0.00000000000E+00 0. -1.
<mgrwt>
<rscale>  0 0.79425772E+02</rscale>
<asrwt>0</asrwt>
<pdfrwt beam="1">  1        1 0.10654830E-02 0.79425772E+02</pdfrwt>
<pdfrwt beam="2">  1       -2 0.35033994E-01 0.79425772E+02</pdfrwt>
<totfact> 0.82016906E+04</totfact>
</mgrwt>
</event>
<event>
 8    1  0.8577104E-014  0.8076270E+02  0.7818608E-02  0.1326901E+00
         -2   -1    0    0    0  501 -0.00000000000E+00  0.00000000000E+00  0.64615270035E+02  0.64615270085E+02  0.25500000000E-02 0.  1.
          1   -1    0    0  501    0  0.00000000000E+00 -0.00000000000E+00 -0.25236347889E+02  0.25236348393E+02  0.50400000000E-02 0. -1.
        -24    2    1    2    0    0  0.00000000000E+00  0.00000000000E+00  0.39378922145E+02  0.89851618478E+02  0.80762700758E+02 0.  0.
         66    2    3    3    0    0  0.79753178774E+01 -0.39559549705E+02  0.20025520769E+02  0.45095289574E+02  0.19999978938E+01 0.  0.
         13    1    3    3    0    0 -0.79753178774E+01  0.39559549705E+02  0.19353401376E+02  0.44756328904E+02  0.10566000000E+00 0. -1.
         13    1    4    4    0    0  0.63715490979E+01 -0.34432493881E+02  0.17055479103E+02  0.38949888373E+02  0.10566000000E+00 0.  1.
        -13    1    4    4    0    0  0.32514939170E+00 -0.99890473603E+00  0.66012268639E+00  0.12451742028E+01  0.10566000000E+00 0.  1.
        -14    1    4    4    0    0  0.12786193879E+01 -0.41281510877E+01  0.23099189798E+01  0.49002269983E+01  0.00000000000E+00 0.  1.
<mgrwt>
<rscale>  0 0.80762701E+02</rscale>
<asrwt>0</asrwt>
<pdfrwt beam="1">  1        1 0.38825151E-02 0.80762701E+02</pdfrwt>
<pdfrwt beam="2">  1       -2 0.99408108E-02 0.80762701E+02</pdfrwt>
<totfact> 0.11396232E+05</totfact>
</mgrwt>
</event>
<event>
 8    1  0.8577104E-014  0.7982185E+02  0.7818608E-02  0.1329558E+00
         -2   -1    0    0    0  501 -0.00000000000E+00  0.00000000000E+00  0.17352356004E+03  0.17352356006E+03  0.25500000000E-02 0.  1.
          1   -1    0    0  501    0  0.00000000000E+00 -0.00000000000E+00 -0.91796282761E+01  0.91796296596E+01  0.50400000000E-02 0. -1.
        -24    2    1    2    0    0  0.35527136788E-14  0.00000000000E+00  0.16434393177E+03  0.18270318972E+03  0.79821849300E+02 0.  0.
         66    2    3    3    0    0  0.20711387729E+02 -0.33807588391E+02  0.92190542906E+02  0.10037435332E+03  0.19999973253E+01 0.  0.
         13    1    3    3    0    0 -0.20711387729E+02  0.33807588391E+02  0.72153388861E+02  0.82328836398E+02  0.10566000000E+00 0. -1.
         13    1    4    4    0    0  0.30424813351E+01 -0.40653690230E+01  0.12567188543E+02  0.13554678524E+02  0.10566000000E+00 0. -1.
        -13    1    4    4    0    0  0.13389113898E+02 -0.22995779797E+02  0.62087666805E+02  0.67549713492E+02  0.10566000000E+00 0.  1.
        -14    1    4    4    0    0  0.42797924959E+01 -0.67464395708E+01  0.17535687558E+02  0.19269961308E+02  0.00000000000E+00 0.  1.
<mgrwt>
<rscale>  0 0.79821849E+02</rscale>
<asrwt>0</asrwt>
<pdfrwt beam="1">  1        1 0.14122507E-02 0.79821849E+02</pdfrwt>
<pdfrwt beam="2">  1       -2 0.26695932E-01 0.79821849E+02</pdfrwt>
<totfact> 0.90378120E+04</totfact>
</mgrwt>
</event>
<event>
 8    1  0.8577104E-014  0.7767112E+02  0.7818608E-02  0.1335793E+00
          1   -1    0    0  501    0  0.00000000000E+00  0.00000000000E+00  0.98608185809E+01  0.98608198689E+01  0.50400000000E-02 0. -1.
         -2   -1    0    0    0  501 -0.00000000000E+00 -0.00000000000E+00 -0.15294883462E+03  0.15294883464E+03  0.25500000000E-02 0.  1.
        -24    2    1    2    0    0  0.00000000000E+00  0.00000000000E+00 -0.14308801604E+03  0.16280965451E+03  0.77671122483E+02 0.  0.
         66    2    3    3    0    0 -0.31604271065E+02  0.15622205160E+02 -0.10560521266E+03  0.11135234253E+03  0.20000002675E+01 0.  0.
         13    1    3    3    0    0  0.31604271065E+02 -0.15622205160E+02 -0.37482803380E+02  0.51457311987E+02  0.10566000000E+00 0. -1.
         13    1    4    4    0    0 -0.52018776923E+01  0.27753253582E+01 -0.16555119859E+02  0.17573989870E+02  0.10566000000E+00 0. -1.
        -13    1    4    4    0    0 -0.16096838740E+02  0.70628647696E+01 -0.52361168876E+02  0.55233101002E+02  0.10566000000E+00 0.  1.
        -14    1    4    4    0    0 -0.10305554633E+02  0.57840150327E+01 -0.36688923926E+02  0.38545251653E+02  0.00000000000E+00 0.  1.
<mgrwt>
<rscale>  0 0.77671122E+02</rscale>
<asrwt>0</asrwt>
<pdfrwt beam="1">  1        1 0.15170492E-02 0.77671122E+02</pdfrwt>
<pdfrwt beam="2">  1       -2 0.23530588E-01 0.77671122E+02</pdfrwt>
<totfact> 0.10131681E+05</totfact>
</mgrwt>
</event>
<event>
 8    1  0.8577104E-014  0.7965197E+02  0.7818608E-02  0.1330042E+00
          1   -1    0    0  501    0  0.00000000000E+00  0.00000000000E+00  0.27905588856E+01  0.27905634370E+01  0.50400000000E-02 0. -1.
         -2   -1    0    0    0  501 -0.00000000000E+00 -0.00000000000E+00 -0.56838353019E+03  0.56838353020E+03  0.25500000000E-02 0.  1.
        -24    2    1    2    0    0 -0.44408920985E-15  0.00000000000E+00 -0.56559297130E+03  0.57117409363E+03  0.79651968263E+02 0.  0.
         66    2    3    3    0    0  0.36186409984E+01 -0.23017345185E+02 -0.51436260155E+03  0.51489394890E+03  0.19999992739E+01 0.  0.
         13    1    3    3    0    0 -0.36186409984E+01  0.23017345185E+02 -0.51230369753E+02  0.56280144732E+02  0.10566000000E+00 0. -1.
         13    1    4    4    0    0  0.25053498610E+01 -0.14254860352E+02 -0.30159514846E+03  0.30194225037E+03  0.10566000000E+00 0.  1.
        -13    1    4    4    0    0  0.29360399600E+00 -0.14923970771E+01 -0.32154681729E+02  0.32190808835E+02  0.10566000000E+00 0. -1.
        -14    1    4    4    0    0  0.81968714146E+00 -0.72700877566E+01 -0.18061277136E+03  0.18076088969E+03  0.00000000000E+00 0.  1.
<mgrwt>
<rscale>  0 0.79651968E+02</rscale>
<asrwt>0</asrwt>
<pdfrwt beam="1">  1        1 0.42931756E-03 0.79651968E+02</pdfrwt>
<pdfrwt beam="2">  1       -2 0.87443528E-01 0.79651968E+02</pdfrwt>
<totfact> 0.46007903E+04</totfact>
</mgrwt>
</event>
<event>
 8    1  0.1009653E-013  0.8031099E+02  0.7818608E-02  0.1328171E+00
         -2   -1    0    0    0  501 -0.00000000000E+00  0.00000000000E+00  0.12981616116E+02  0.12981616367E+02  0.25500000000E-02 0.  1.
          1   -1    0    0  501    0  0.00000000000E+00 -0.00000000000E+00 -0.12421132026E+03  0.12421132036E+03  0.50400000000E-02 0. -1.
        -24    2    1    2    0    0  0.00000000000E+00  0.44408920985E-15 -0.11122970414E+03  0.13719293672E+03  0.80310988066E+02 0.  0.
         66    2    3    3    0    0 -0.38493831324E+02 -0.23611543648E+01 -0.36695239136E+02  0.53271856314E+02  0.19999999756E+01 0.  0.
         13    1    3    3    0    0  0.38493831324E+02  0.23611543648E+01 -0.74534465004E+02  0.83921080411E+02  0.10566000000E+00 0. -1.
         13    1    4    4    0    0 -0.12817760757E+02 -0.95861009243E+00 -0.11756171621E+02  0.17419318567E+02  0.10566000000E+00 0. -1.
        -13    1    4    4    0    0 -0.23558507341E+02 -0.13446821776E+01 -0.22285709680E+02  0.32457286674E+02  0.10566000000E+00 0.  1.
         14    1    4    4    0    0 -0.21175632262E+01 -0.57862094806E-01 -0.26533578362E+01  0.33952510726E+01  0.00000000000E+00 0. -1.
<mgrwt>
<rscale>  0 0.80310988E+02</rscale>
<asrwt>0</asrwt>
<pdfrwt beam="1">  1        1 0.19109433E-01 0.80310988E+02</pdfrwt>
<pdfrwt beam="2">  1       -2 0.19971718E-02 0.80310988E+02</pdfrwt>
<totfact> 0.15100690E+05</totfact>
</mgrwt>
</event>
<event>
 8    1  0.8577104E-014  0.8011520E+02  0.7818608E-02  0.1328725E+00
         -2   -1    0    0    0  501 -0.00000000000E+00  0.00000000000E+00  0.95436289972E+01  0.95436293379E+01  0.25500000000E-02 0.  1.
          1   -1    0    0  501    0  0.00000000000E+00 -0.00000000000E+00 -0.16813428290E+03  0.16813428298E+03  0.50400000000E-02 0. -1.
        -24    2    1    2    0    0  0.00000000000E+00  0.00000000000E+00 -0.15859065391E+03  0.17767791232E+03  0.80115198427E+02 0.  0.
         66    2    3    3    0    0  0.18727457729E+02  0.34109563214E+02 -0.58489648998E+02  0.70279577491E+02  0.19999991903E+01 0.  0.
         13    1    3    3    0    0 -0.18727457729E+02 -0.34109563214E+02 -0.10010100491E+03  0.10739833483E+03  0.10566000000E+00 0. -1.
         13    1    4    4    0    0  0.37723397083E+01  0.58338799640E+01 -0.11054179370E+02  0.13056444688E+02  0.10566000000E+00 0. -1.
        -13    1    4    4    0    0  0.57935632149E+01  0.11352480431E+02 -0.18020476652E+02  0.22072447292E+02  0.10566000000E+00 0.  1.
        -14    1    4    4    0    0  0.91615548057E+01  0.16923202819E+02 -0.29414992975E+02  0.35150685510E+02  0.00000000000E+00 0.  1.
<mgrwt>
<rscale>  0 0.80115198E+02</rscale>
<asrwt>0</asrwt>
<pdfrwt beam="1">  1        1 0.25866811E-01 0.80115198E+02</pdfrwt>
<pdfrwt beam="2">  1       -2 0.14682508E-02 0.80115198E+02</pdfrwt>
<totfact> 0.16066481E+05</totfact>
</mgrwt>
</event>
<event>
 8    1  0.8577104E-014  0.7927955E+02  0.7818608E-02  0.1331108E+00
         -2   -1    0    0    0  501 -0.00000000000E+00  0.00000000000E+00  0.59420188706E+02  0.59420188760E+02  0.25500000000E-02 0.  1.
          1   -1    0    0  501    0  0.00000000000E+00 -0.00000000000E+00 -0.26444075029E+02  0.26444075510E+02  0.50400000000E-02 0. -1.
        -24    2    1    2    0    0 -0.88817841970E-15  0.00000000000E+00  0.32976113676E+02  0.85864264270E+02  0.79279554776E+02 0.  0.
         66    2    3    3    0    0  0.57404956760E+01  0.36517523401E+02  0.31923021429E+02  0.48883147828E+02  0.20000096133E+01 0.  0.
         13    1    3    3    0    0 -0.57404956760E+01 -0.36517523401E+02  0.10530922472E+01  0.36981116442E+02  0.10566000000E+00 0. -1.
         13    1    4    4    0    0  0.67001446118E-01  0.66049028729E+00  0.50793965514E+00  0.84255761954E+00  0.10566000000E+00 0.  1.
        -13    1    4    4    0    0  0.16356106672E+01  0.14274885810E+02  0.11648185541E+02  0.18496999150E+02  0.10566000000E+00 0.  1.
        -14    1    4    4    0    0  0.40378835627E+01  0.21582147304E+02  0.19766896233E+02  0.29543591058E+02  0.00000000000E+00 0.  1.
<mgrwt>
<rscale>  0 0.79279555E+02</rscale>
<asrwt>0</asrwt>
<pdfrwt beam="1">  1        1 0.40683193E-02 0.79279555E+02</pdfrwt>
<pdfrwt beam="2">  1       -2 0.91415675E-02 0.79279555E+02</pdfrwt>
<totfact> 0.12134751E+05</totfact>
</mgrwt>
</event>
<event>
 8    1  0.8577104E-014  0.8068284E+02  0.7818608E-02  0.1327125E+00
         -2   -1    0    0    0  501 -0.00000000000E+00  0.00000000000E+00  0.10882339873E+02  0.10882340172E+02  0.25500000000E-02 0.  1.
          1   -1    0    0  501    0  0.00000000000E+00 -0.00000000000E+00 -0.14954780852E+03  0.14954780860E+03  0.50400000000E-02 0. -1.
        -24    2    1    2    0    0 -0.88817841970E-15 -0.71054273576E-14 -0.13866546865E+03  0.16043014878E+03  0.80682838582E+02 0.  0.
         66    2    3    3    0    0 -0.79609571884E+01 -0.34330731677E+02 -0.30438556164E+02  0.46609888162E+02  0.19999990867E+01 0.  0.
         13    1    3    3    0    0  0.79609571884E+01  0.34330731677E+02 -0.10822691248E+03  0.11382026061E+03  0.10566000000E+00 0. -1.
         13    1    4    4    0    0 -0.48811362437E-01 -0.55506686178E+00 -0.75652621999E+00  0.94550395413E+00  0.10566000000E+00 0. -1.
        -13    1    4    4    0    0 -0.40814020981E+01 -0.15626119461E+02 -0.14039272540E+02  0.21399667988E+02  0.10566000000E+00 0.  1.
         14    1    4    4    0    0 -0.38307437278E+01 -0.18149545354E+02 -0.15642757404E+02  0.24264716220E+02  0.00000000000E+00 0. -1.
<mgrwt>
<rscale>  0 0.80682839E+02</rscale>
<asrwt>0</asrwt>
<pdfrwt beam="1">  1        1 0.23007354E-01 0.80682839E+02</pdfrwt>
<pdfrwt beam="2">  1       -2 0.16742063E-02 0.80682839E+02</pdfrwt>
<totfact> 0.15425126E+05</totfact>
</mgrwt>
</event>
<event>
 8    1  0.8577104E-014  0.7684169E+02  0.7818608E-02  0.1338261E+00
         -2   -1    0    0    0  501 -0.00000000000E+00  0.00000000000E+00  0.10244098248E+02  0.10244098565E+02  0.25500000000E-02 0.  1.
          1   -1    0    0  501    0  0.00000000000E+00 -0.00000000000E+00 -0.14409868776E+03  0.14409868785E+03  0.50400000000E-02 0. -1.
        -24    2    1    2    0    0 -0.35527136788E-14 -0.71054273576E-14 -0.13385458951E+03  0.15434278641E+03  0.76841685201E+02 0.  0.
         66    2    3    3    0    0 -0.15750135181E+02 -0.34169486521E+02 -0.51605129707E+02  0.63896087361E+02  0.20000001340E+01 0.  0.
         13    1    3    3    0    0  0.15750135181E+02  0.34169486521E+02 -0.82249459806E+02  0.90446699054E+02  0.10566000000E+00 0. -1.
         13    1    4    4    0    0 -0.53735479261E+01 -0.12287485365E+02 -0.19847727278E+02  0.23954138600E+02  0.10566000000E+00 0. -1.
        -13    1    4    4    0    0 -0.62671691733E+01 -0.13741559781E+02 -0.20050419440E+02  0.25102556810E+02  0.10566000000E+00 0.  1.
         14    1    4    4    0    0 -0.41094180818E+01 -0.81404413752E+01 -0.11706982989E+02  0.14839391951E+02  0.00000000000E+00 0. -1.
<mgrwt>
<rscale>  0 0.76841685E+02</rscale>
<asrwt>0</asrwt>
<pdfrwt beam="1">  1        1 0.22169028E-01 0.76841685E+02</pdfrwt>
<pdfrwt beam="2">  1       -2 0.15760152E-02 0.76841685E+02</pdfrwt>
<totfact> 0.17450700E+05</totfact>
</mgrwt>
</event>
<event>
 8    1  0.8577104E-014  0.8039056E+02  0.7818608E-02  0.1327947E+00
         -2   -1    0    0    0  501 -0.00000000000E+00  0.00000000000E+00  0.30684112666E+03  0.30684112667E+03  0.25500000000E-02 0.  1.
          1   -1    0    0  501    0  0.00000000000E+00 -0.00000000000E+00 -0.52654621653E+01  0.52654645774E+01  0.50400000000E-02 0. -1.
        -24    2    1    2    0    0 -0.71054273576E-14  0.00000000000E+00  0.30157566449E+03  0.31210659125E+03  0.80390564651E+02 0.  0.
         66    2    3    3    0    0 -0.36973511436E+02  0.40051824827E+01  0.20983347366E+03  0.21311304207E+03  0.19999999061E+01 0.  0.
         13    1    3    3    0    0  0.36973511436E+02 -0.40051824827E+01  0.91742190837E+02  0.98993549175E+02  0.10566000000E+00 0. -1.
         13    1    4    4    0    0 -0.12619945143E+02  0.13417573409E+01  0.67570696474E+02  0.68752261884E+02  0.10566000000E+00 0. -1.
        -13    1    4    4    0    0 -0.20654357556E+02  0.23361014468E+01  0.12281315416E+03  0.12455979229E+03  0.10566000000E+00 0.  1.
         14    1    4    4    0    0 -0.36992087379E+01  0.32732369493E+00  0.19449623020E+02  0.19800987897E+02  0.00000000000E+00 0. -1.
<mgrwt>
<rscale>  0 0.80390565E+02</rscale>
<asrwt>0</asrwt>
<pdfrwt beam="1">  1        1 0.81007090E-03 0.80390565E+02</pdfrwt>
<pdfrwt beam="2">  1       -2 0.47206350E-01 0.80390565E+02</pdfrwt>
<totfact> 0.68538384E+04</totfact>
</mgrwt>
</event>
<event>
 8    1  0.8577104E-014  0.7946732E+02  0.7818608E-02  0.1330570E+00
          1   -1    0    0  501    0  0.00000000000E+00  0.00000000000E+00  0.41131627111E+02  0.41131627419E+02  0.50400000000E-02 0. -1.
         -2   -1    0    0    0  501 -0.00000000000E+00 -0.00000000000E+00 -0.38383209074E+02  0.38383209159E+02  0.25500000000E-02 0.  1.
        -24    2    1    2    0    0  0.00000000000E+00  0.00000000000E+00  0.27484180365E+01  0.79514836578E+02  0.79467323060E+02 0.  0.
         66    2    3    3    0    0  0.32261995805E+02  0.12771043143E+02 -0.17945092519E+02  0.39114731883E+02  0.19999971195E+01 0.  0.
         13    1    3    3    0    0 -0.32261995805E+02 -0.12771043143E+02  0.20693510556E+02  0.40400104696E+02  0.10566000000E+00 0. -1.
         13    1    4    4    0    0  0.60957091421E+01  0.17212124678E+01 -0.35476379088E+01  0.72606570689E+01  0.10566000000E+00 0. -1.
        -13    1    4    4    0    0  0.25449489694E+02  0.10871796892E+02 -0.13969937559E+02  0.31000690521E+02  0.10566000000E+00 0.  1.
        -14    1    4    4    0    0  0.71679696844E+00  0.17803378365E+00 -0.42751705118E+00  0.85338429277E+00  0.00000000000E+00 0.  1.
<mgrwt>
<rscale>  0 0.79467323E+02</rscale>
<asrwt>0</asrwt>
<pdfrwt beam="1">  1        1 0.63279426E-02 0.79467323E+02</pdfrwt>
<pdfrwt beam="2">  1       -2 0.59051092E-02 0.79467323E+02</pdfrwt>
<totfact> 0.12996784E+05</totfact>
</mgrwt>
</event>
<event>
 8    1  0.8577104E-014  0.8030836E+02  0.7818608E-02  0.1328179E+00
         -2   -1    0    0    0  501 -0.00000000000E+00  0.00000000000E+00  0.90727284640E+01  0.90727288224E+01  0.25500000000E-02 0.  1.
          1   -1    0    0  501    0  0.00000000000E+00 -0.00000000000E+00 -0.17771479075E+03  0.17771479082E+03  0.50400000000E-02 0. -1.
        -24    2    1    2    0    0  0.00000000000E+00  0.00000000000E+00 -0.16864206228E+03  0.18678751964E+03  0.80308357738E+02 0.  0.
         66    2    3    3    0    0  0.10430144431E+01 -0.38832879529E+02 -0.10777951142E+03  0.11458404554E+03  0.19999992747E+01 0.  0.
         13    1    3    3    0    0 -0.10430144431E+01  0.38832879529E+02 -0.60862550861E+02  0.72203474106E+02  0.10566000000E+00 0. -1.
         13    1    4    4    0    0  0.92317614829E+00 -0.34254589021E+02 -0.93773126008E+02  0.99838066130E+02  0.10566000000E+00 0. -1.
        -13    1    4    4    0    0 -0.27818975779E-01 -0.27876247542E+01 -0.77559265704E+01  0.82424017536E+01  0.10566000000E+00 0.  1.
         14    1    4    4    0    0  0.14765727058E+00 -0.17906657535E+01 -0.62504588439E+01  0.65035776515E+01  0.00000000000E+00 0. -1.
<mgrwt>
<rscale>  0 0.80308358E+02</rscale>
<asrwt>0</asrwt>
<pdfrwt beam="1">  1        1 0.27340734E-01 0.80308358E+02</pdfrwt>
<pdfrwt beam="2">  1       -2 0.13958045E-02 0.80308358E+02</pdfrwt>
<totfact> 0.16132409E+05</totfact>
</mgrwt>
</event>
<event>
 8    1  0.8577104E-014  0.8106449E+02  0.7818608E-02  0.1326057E+00
          1   -1    0    0  501    0  0.00000000000E+00  0.00000000000E+00  0.19035517085E+01  0.19035583807E+01  0.50400000000E-02 0. -1.
         -2   -1    0    0    0  501 -0.00000000000E+00 -0.00000000000E+00 -0.86304977060E+03  0.86304977060E+03  0.25500000000E-02 0.  1.
        -24    2    1    2    0    0  0.00000000000E+00  0.00000000000E+00 -0.86114621889E+03  0.86495332898E+03  0.81064486739E+02 0.  0.
         66    2    3    3    0    0  0.25238957372E+02 -0.84568888680E+01 -0.75663197516E+03  0.75710268112E+03  0.19999954483E+01 0.  0.
         13    1    3    3    0    0 -0.25238957372E+02  0.84568888680E+01 -0.10451424372E+03  0.10785064786E+03  0.10566000000E+00 0. -1.
         13    1    4    4    0    0  0.56275830326E+01 -0.11297780177E+01 -0.15381327332E+03  0.15392037000E+03  0.10566000000E+00 0. -1.
        -13    1    4    4    0    0  0.59884140850E+01 -0.20501782671E+01 -0.17967991538E+03  0.17979139993E+03  0.10566000000E+00 0.  1.
        -14    1    4    4    0    0  0.13622960254E+02 -0.52769325832E+01 -0.42313878647E+03  0.42339091119E+03  0.00000000000E+00 0.  1.
<mgrwt>
<rscale>  0 0.81064487E+02</rscale>
<asrwt>0</asrwt>
<pdfrwt beam="1">  1        1 0.29285531E-03 0.81064487E+02</pdfrwt>
<pdfrwt beam="2">  1       -2 0.13277658E+00 0.81064487E+02</pdfrwt>
<totfact> 0.29683374E+04</totfact>
</mgrwt>
</event>
<event>
 8    1  0.8577104E-014  0.7900392E+02  0.7818608E-02  0.1331902E+00
         -2   -1    0    0    0  501 -0.00000000000E+00  0.00000000000E+00  0.67512948248E+01  0.67512953063E+01  0.25500000000E-02 0.  1.
          1   -1    0    0  501    0  0.00000000000E+00 -0.00000000000E+00 -0.23112674893E+03  0.23112674898E+03  0.50400000000E-02 0. -1.
        -24    2    1    2    0    0 -0.35527136788E-14  0.35527136788E-14 -0.22437545410E+03  0.23787804429E+03  0.79003921110E+02 0.  0.
         66    2    3    3    0    0 -0.16915375775E+02  0.29886135967E+02 -0.53635316449E+02  0.63718586232E+02  0.20000000389E+01 0.  0.
         13    1    3    3    0    0  0.16915375775E+02 -0.29886135967E+02 -0.17074013765E+03  0.17415945805E+03  0.10566000000E+00 0. -1.
         13    1    4    4    0    0 -0.10435928249E+02  0.16513815371E+02 -0.30329255227E+02  0.36076163643E+02  0.10566000000E+00 0. -1.
        -13    1    4    4    0    0 -0.50162883420E+01  0.10062203564E+02 -0.17761497842E+02  0.21021252553E+02  0.10566000000E+00 0.  1.
         14    1    4    4    0    0 -0.14631591836E+01  0.33101170322E+01 -0.55445633803E+01  0.66211700357E+01  0.00000000000E+00 0. -1.
<mgrwt>
<rscale>  0 0.79003921E+02</rscale>
<asrwt>0</asrwt>
<pdfrwt beam="1">  1        1 0.35557955E-01 0.79003921E+02</pdfrwt>
<pdfrwt beam="2">  1       -2 0.10386610E-02 0.79003921E+02</pdfrwt>
<totfact> 0.17728774E+05</totfact>
</mgrwt>
</event>
<event>
 8    1  0.8577104E-014  0.8033280E+02  0.7818608E-02  0.1328110E+00
          1   -1    0    0  501    0  0.00000000000E+00  0.00000000000E+00  0.73960293238E+02  0.73960293410E+02  0.50400000000E-02 0. -1.
         -2   -1    0    0    0  501 -0.00000000000E+00 -0.00000000000E+00 -0.21813594398E+02  0.21813594547E+02  0.25500000000E-02 0.  1.
        -24    2    1    2    0    0  0.00000000000E+00  0.00000000000E+00  0.52146698840E+02  0.95773887957E+02  0.80332804100E+02 0.  0.
         66    2    3    3    0    0 -0.16041964880E+02 -0.35735092490E+02  0.15628278445E+02  0.42220665228E+02  0.20000031535E+01 0.  0.
         13    1    3    3    0    0  0.16041964880E+02  0.35735092490E+02  0.36518420395E+02  0.53553222729E+02  0.10566000000E+00 0. -1.
         13    1    4    4    0    0 -0.81318953003E+01 -0.16656635936E+02  0.77566299714E+01  0.20093474424E+02  0.10566000000E+00 0.  1.
        -13    1    4    4    0    0 -0.39873823229E+01 -0.10858948476E+02  0.46134873865E+01  0.12454373115E+02  0.10566000000E+00 0. -1.
        -14    1    4    4    0    0 -0.39226872567E+01 -0.82195080789E+01  0.32581610867E+01  0.96728176887E+01  0.00000000000E+00 0.  1.
<mgrwt>
<rscale>  0 0.80332804E+02</rscale>
<asrwt>0</asrwt>
<pdfrwt beam="1">  1        1 0.11378507E-01 0.80332804E+02</pdfrwt>
<pdfrwt beam="2">  1       -2 0.33559377E-02 0.80332804E+02</pdfrwt>
<totfact> 0.13834501E+05</totfact>
</mgrwt>
</event>
<event>
 8    1  0.8577104E-014  0.7899264E+02  0.7818608E-02  0.1331935E+00
          1   -1    0    0  501    0  0.00000000000E+00  0.00000000000E+00  0.21542794204E+03  0.21542794210E+03  0.50400000000E-02 0. -1.
         -2   -1    0    0    0  501 -0.00000000000E+00 -0.00000000000E+00 -0.72412116660E+01  0.72412121150E+01  0.25500000000E-02 0.  1.
        -24    2    1    2    0    0  0.00000000000E+00  0.00000000000E+00  0.20818673038E+03  0.22266915422E+03  0.78992642281E+02 0.  0.
         66    2    3    3    0    0  0.36037444781E+02  0.12122856579E+02  0.13403095481E+03  0.13933397982E+03  0.20000017423E+01 0.  0.
         13    1    3    3    0    0 -0.36037444781E+02 -0.12122856579E+02  0.74155775569E+02  0.83335174400E+02  0.10566000000E+00 0. -1.
         13    1    4    4    0    0  0.75471832568E+01  0.24552935167E+01  0.27395367197E+02  0.28522022180E+02  0.10566000000E+00 0. -1.
        -13    1    4    4    0    0  0.26416123615E+02  0.88640228459E+01  0.96981293469E+02  0.10090473197E+03  0.10566000000E+00 0.  1.
         14    1    4    4    0    0  0.20741379087E+01  0.80354021670E+00  0.96542941426E+01  0.99072256630E+01  0.00000000000E+00 0. -1.
<mgrwt>
<rscale>  0 0.78992642E+02</rscale>
<asrwt>0</asrwt>
<pdfrwt beam="1">  1        1 0.33142754E-01 0.78992642E+02</pdfrwt>
<pdfrwt beam="2">  1       -2 0.11140328E-02 0.78992642E+02</pdfrwt>
<totfact> 0.17494372E+05</totfact>
</mgrwt>
</event>
<event>
 8    1  0.8577104E-014  0.8576447E+02  0.7818608E-02  0.1313445E+00
          1   -1    0    0  501    0  0.00000000000E+00  0.00000000000E+00  0.58476845817E+02  0.58476846034E+02  0.50400000000E-02 0. -1.
         -2   -1    0    0    0  501 -0.00000000000E+00 -0.00000000000E+00 -0.31446393878E+02  0.31446393982E+02  0.25500000000E-02 0.  1.
        -24    2    1    2    0    0  0.00000000000E+00  0.35527136788E-14  0.27030451939E+02  0.89923240016E+02  0.85764466785E+02 0.  0.
         66    2    3    3    0    0 -0.13491605367E+02 -0.29893117996E+02 -0.15406268220E+02  0.36290150409E+02  0.19999993398E+01 0.  0.
         13    1    3    3    0    0  0.13491605367E+02  0.29893117996E+02  0.42436720159E+02  0.53633089607E+02  0.10566000000E+00 0. -1.
         13    1    4    4    0    0 -0.62869060107E+01 -0.16002594157E+02 -0.81029926370E+01  0.19007310716E+02  0.10566000000E+00 0. -1.
        -13    1    4    4    0    0 -0.44685390157E+01 -0.91218442485E+01 -0.49999819506E+01  0.11321963918E+02  0.10566000000E+00 0.  1.
        -14    1    4    4    0    0 -0.27361603411E+01 -0.47686795908E+01 -0.23032936324E+01  0.59608757753E+01  0.00000000000E+00 0.  1.
<mgrwt>
<rscale>  0 0.85764467E+02</rscale>
<asrwt>0</asrwt>
<pdfrwt beam="1">  1        1 0.89964379E-02 0.85764467E+02</pdfrwt>
<pdfrwt beam="2">  1       -2 0.48379068E-02 0.85764467E+02</pdfrwt>
<totfact> 0.11115847E+05</totfact>
</mgrwt>
</event>
<event>
 8    1  0.8577104E-014  0.7682167E+02  0.7818608E-02  0.1338321E+00
         -2   -1    0    0    0  501 -0.00000000000E+00  0.00000000000E+00  0.29203560086E+02  0.29203560197E+02  0.25500000000E-02 0.  1.
          1   -1    0    0  501    0  0.00000000000E+00 -0.00000000000E+00 -0.50520975126E+02  0.50520975377E+02  0.50400000000E-02 0. -1.
        -24    2    1    2    0    0  0.17763568394E-14  0.00000000000E+00 -0.21317415040E+02  0.79724535575E+02  0.76821672649E+02 0.  0.
         66    2    3    3    0    0  0.89426042271E+01 -0.21618069922E+02  0.20915506516E+02  0.31444705990E+02  0.20000011179E+01 0.  0.
         13    1    3    3    0    0 -0.89426042271E+01  0.21618069922E+02 -0.42232921556E+02  0.48279829584E+02  0.10566000000E+00 0. -1.
         13    1    4    4    0    0  0.69105121623E+01 -0.17284755444E+02  0.15675430844E+02  0.24336150996E+02  0.10566000000E+00 0. -1.
        -13    1    4    4    0    0  0.66735362634E+00 -0.10712690791E+01  0.14424682207E+01  0.19195981105E+01  0.10566000000E+00 0.  1.
         14    1    4    4    0    0  0.13647384385E+01 -0.32620453988E+01  0.37976074509E+01  0.51889568837E+01  0.00000000000E+00 0. -1.
<mgrwt>
<rscale>  0 0.76821673E+02</rscale>
<asrwt>0</asrwt>
<pdfrwt beam="1">  1        1 0.77724577E-02 0.76821673E+02</pdfrwt>
<pdfrwt beam="2">  1       -2 0.44928554E-02 0.76821673E+02</pdfrwt>
<totfact> 0.14745115E+05</totfact>
</mgrwt>
</event>
<event>
 8    1  0.8577104E-014  0.8935962E+02  0.7818608E-02  0.1304410E+00
         -2   -1    0    0    0  501 -0.00000000000E+00  0.00000000000E+00  0.32085681167E+02  0.32085681268E+02  0.25500000000E-02 0.  1.
          1   -1    0    0  501    0  0.00000000000E+00 -0.00000000000E+00 -0.62217331128E+02  0.62217331332E+02  0.50400000000E-02 0. -1.
        -24    2    1    2    0    0 -0.35527136788E-14  0.00000000000E+00 -0.30131649961E+02  0.94303012600E+02  0.89359620949E+02 0.  0.
         66    2    3    3    0    0 -0.26957371752E+02  0.32492383442E+01  0.22342519138E+02  0.35219960645E+02  0.20000061938E+01 0.  0.
         13    1    3    3    0    0  0.26957371752E+02 -0.32492383442E+01 -0.52474169100E+02  0.59083051955E+02  0.10566000000E+00 0. -1.
         13    1    4    4    0    0 -0.17535786364E+01  0.34912308419E+00  0.18503524391E+01  0.25752462303E+01  0.10566000000E+00 0. -1.
        -13    1    4    4    0    0 -0.10622053373E+02  0.18563904118E+01  0.91287488736E+01  0.14128673797E+02  0.10566000000E+00 0.  1.
        -14    1    4    4    0    0 -0.14581739743E+02  0.10437248482E+01  0.11363417826E+02  0.18516040618E+02  0.00000000000E+00 0.  1.
<mgrwt>
<rscale>  0 0.89359621E+02</rscale>
<asrwt>0</asrwt>
<pdfrwt beam="1">  1        1 0.95718971E-02 0.89359621E+02</pdfrwt>
<pdfrwt beam="2">  1       -2 0.49362587E-02 0.89359621E+02</pdfrwt>
<totfact> 0.10014046E+05</totfact>
</mgrwt>
</event>
<event>
 8    1  0.8577104E-014  0.8086296E+02  0.7818608E-02  0.1326620E+00
         -2   -1    0    0    0  501 -0.00000000000E+00  0.00000000000E+00  0.18602897584E+02  0.18602897759E+02  0.25500000000E-02 0.  1.
          1   -1    0    0  501    0  0.00000000000E+00 -0.00000000000E+00 -0.87873657480E+02  0.87873657624E+02  0.50400000000E-02 0. -1.
        -24    2    1    2    0    0 -0.35527136788E-14 -0.35527136788E-14 -0.69270759895E+02  0.10647655538E+03  0.80862962287E+02 0.  0.
         66    2    3    3    0    0  0.25379871956E+02 -0.29852158939E+02 -0.21660589207E+02  0.44815961721E+02  0.20000015868E+01 0.  0.
         13    1    3    3    0    0 -0.25379871956E+02  0.29852158939E+02 -0.47610170688E+02  0.61660593663E+02  0.10566000000E+00 0. -1.
         13    1    4    4    0    0  0.70994605108E+01 -0.80239822413E+01 -0.50818055928E+01  0.11858437615E+02  0.10566000000E+00 0. -1.
        -13    1    4    4    0    0  0.17044839706E+02 -0.20365231474E+02 -0.15217261010E+02  0.30607930513E+02  0.10566000000E+00 0.  1.
        -14    1    4    4    0    0  0.12355717392E+01 -0.14629452236E+01 -0.13615226042E+01  0.23495935929E+01  0.00000000000E+00 0.  1.
<mgrwt>
<rscale>  0 0.80862962E+02</rscale>
<asrwt>0</asrwt>
<pdfrwt beam="1">  1        1 0.13519024E-01 0.80862962E+02</pdfrwt>
<pdfrwt beam="2">  1       -2 0.28619843E-02 0.80862962E+02</pdfrwt>
<totfact> 0.13973892E+05</totfact>
</mgrwt>
</event>
<event>
 8    1  0.8577104E-014  0.7894549E+02  0.7818608E-02  0.1332071E+00
          1   -1    0    0  501    0  0.00000000000E+00  0.00000000000E+00  0.24106455937E+02  0.24106456464E+02  0.50400000000E-02 0. -1.
         -2   -1    0    0    0  501 -0.00000000000E+00 -0.00000000000E+00 -0.64634040494E+02  0.64634040544E+02  0.25500000000E-02 0.  1.
        -24    2    1    2    0    0  0.00000000000E+00 -0.62450045135E-16 -0.40527584556E+02  0.88740497008E+02  0.78945491950E+02 0.  0.
         66    2    3    3    0    0 -0.15886198854E+02  0.99528684478E-02 -0.60863757054E+02  0.62934635485E+02  0.20000019478E+01 0.  0.
         13    1    3    3    0    0  0.15886198854E+02 -0.99528684478E-02  0.20336172497E+02  0.25805861524E+02  0.10566000000E+00 0. -1.
         13    1    4    4    0    0 -0.35052944085E+01 -0.73213603709E+00 -0.13291606872E+02  0.13765939465E+02  0.10566000000E+00 0. -1.
        -13    1    4    4    0    0 -0.25246667745E+01 -0.10380913313E+00 -0.90665330332E+01  0.94126459583E+01  0.10566000000E+00 0. -1.
        -14    1    4    4    0    0 -0.98562376711E+01  0.84589803867E+00 -0.38505617149E+02  0.39756050062E+02  0.00000000000E+00 0.  1.
<mgrwt>
<rscale>  0 0.78945492E+02</rscale>
<asrwt>0</asrwt>
<pdfrwt beam="1">  1        1 0.37086856E-02 0.78945492E+02</pdfrwt>
<pdfrwt beam="2">  1       -2 0.99436985E-02 0.78945492E+02</pdfrwt>
<totfact> 0.12072221E+05</totfact>
</mgrwt>
</event>
<event>
 8    1  0.8577104E-014  0.8108268E+02  0.7818608E-02  0.1326007E+00
          1   -1    0    0  501    0  0.00000000000E+00  0.00000000000E+00  0.25155225073E+02  0.25155225578E+02  0.50400000000E-02 0. -1.
         -2   -1    0    0    0  501 -0.00000000000E+00 -0.00000000000E+00 -0.65338324843E+02  0.65338324893E+02  0.25500000000E-02 0.  1.
        -24    2    1    2    0    0 -0.71054273576E-14  0.00000000000E+00 -0.40183099770E+02  0.90493550470E+02  0.81082681070E+02 0.  0.
         66    2    3    3    0    0 -0.37897806786E+02  0.45088204906E+01 -0.49227072736E+01  0.38533184185E+02  0.20000037908E+01 0.  0.
         13    1    3    3    0    0  0.37897806786E+02 -0.45088204906E+01 -0.35260392497E+02  0.51960366285E+02  0.10566000000E+00 0. -1.
         13    1    4    4    0    0 -0.15479677695E+02  0.21561897524E+01 -0.13138438108E+01  0.15684607913E+02  0.10566000000E+00 0. -1.
        -13    1    4    4    0    0 -0.98502538236E+01  0.12256233271E+01 -0.11530771824E+01  0.99935180970E+01  0.10566000000E+00 0.  1.
         14    1    4    4    0    0 -0.12567875267E+02  0.11270074112E+01 -0.24557862805E+01  0.12855058175E+02  0.00000000000E+00 0. -1.
<mgrwt>
<rscale>  0 0.81082681E+02</rscale>
<asrwt>0</asrwt>
<pdfrwt beam="1">  1        1 0.38700347E-02 0.81082681E+02</pdfrwt>
<pdfrwt beam="2">  1       -2 0.10052050E-01 0.81082681E+02</pdfrwt>
<totfact> 0.11258167E+05</totfact>
</mgrwt>
</event>
<event>
 8    1  0.8577104E-014  0.8260795E+02  0.7818608E-02  0.1321809E+00
         -2   -1    0    0    0  501 -0.00000000000E+00  0.00000000000E+00  0.25776405930E+03  0.25776405931E+03  0.25500000000E-02 0.  1.
          1   -1    0    0  501    0  0.00000000000E+00 -0.00000000000E+00 -0.66185250892E+01  0.66185270082E+01  0.50400000000E-02 0. -1.
        -24    2    1    2    0    0  0.00000000000E+00  0.71054273576E-14  0.25114553421E+03  0.26438258632E+03  0.82607945112E+02 0.  0.
         66    2    3    3    0    0 -0.66713652216E+01  0.33518960751E+02  0.19974092301E+03  0.20265355700E+03  0.19999993351E+01 0.  0.
         13    1    3    3    0    0  0.66713652216E+01 -0.33518960751E+02  0.51404611199E+02  0.61729029316E+02  0.10566000000E+00 0. -1.
         13    1    4    4    0    0 -0.92179663024E+00  0.81590069056E+01  0.45655741331E+02  0.46388328092E+02  0.10566000000E+00 0. -1.
        -13    1    4    4    0    0 -0.36769029542E+01  0.16469151362E+02  0.98250925915E+02  0.99689558977E+02  0.10566000000E+00 0.  1.
        -14    1    4    4    0    0 -0.20726656371E+01  0.88908024832E+01  0.55834255765E+02  0.56575669934E+02  0.00000000000E+00 0.  1.
<mgrwt>
<rscale>  0 0.82607945E+02</rscale>
<asrwt>0</asrwt>
<pdfrwt beam="1">  1        1 0.10182348E-02 0.82607945E+02</pdfrwt>
<pdfrwt beam="2">  1       -2 0.39656010E-01 0.82607945E+02</pdfrwt>
<totfact> 0.69938128E+04</totfact>
</mgrwt>
</event>
<event>
 8    1  0.8577104E-014  0.7515394E+02  0.7818608E-02  0.1343395E+00
         -2   -1    0    0    0  501 -0.00000000000E+00  0.00000000000E+00  0.11041145924E+02  0.11041146219E+02  0.25500000000E-02 0.  1.
          1   -1    0    0  501    0  0.00000000000E+00 -0.00000000000E+00 -0.12788787362E+03  0.12788787372E+03  0.50400000000E-02 0. -1.
        -24    2    1    2    0    0  0.00000000000E+00  0.00000000000E+00 -0.11684672770E+03  0.13892901994E+03  0.75153940735E+02 0.  0.
         66    2    3    3    0    0  0.32766387504E+02 -0.90399867977E+01 -0.28964286794E+02  0.44702207967E+02  0.19999940711E+01 0.  0.
         13    1    3    3    0    0 -0.32766387504E+02  0.90399867977E+01 -0.87882440906E+02  0.94226811975E+02  0.10566000000E+00 0. -1.
         13    1    4    4    0    0  0.65424105176E+01 -0.13136666783E+01 -0.62502743904E+01  0.91436289029E+01  0.10566000000E+00 0. -1.
        -13    1    4    4    0    0  0.21430104579E+02 -0.67126761298E+01 -0.18500872294E+02  0.29096440380E+02  0.10566000000E+00 0.  1.
        -14    1    4    4    0    0  0.47938724072E+01 -0.10136439896E+01 -0.42131401097E+01  0.64621386846E+01  0.00000000000E+00 0.  1.
<mgrwt>
<rscale>  0 0.75153941E+02</rscale>
<asrwt>0</asrwt>
<pdfrwt beam="1">  1        1 0.19675057E-01 0.75153941E+02</pdfrwt>
<pdfrwt beam="2">  1       -2 0.16986379E-02 0.75153941E+02</pdfrwt>
<totfact> 0.18125768E+05</totfact>
</mgrwt>
</event>
<event>
 8    1  0.8577104E-014  0.8039028E+02  0.7818608E-02  0.1327948E+00
         -2   -1    0    0    0  501 -0.00000000000E+00  0.00000000000E+00  0.44007117960E+02  0.44007118034E+02  0.25500000000E-02 0.  1.
          1   -1    0    0  501    0  0.00000000000E+00 -0.00000000000E+00 -0.36713358540E+02  0.36713358886E+02  0.50400000000E-02 0. -1.
        -24    2    1    2    0    0 -0.35527136788E-14  0.35527136788E-14  0.72937594196E+01  0.80720476920E+02  0.80390275952E+02 0.  0.
         66    2    3    3    0    0  0.16788504770E+02 -0.24641381351E+02  0.30677954126E+02  0.42827426193E+02  0.19999994049E+01 0.  0.
         13    1    3    3    0    0 -0.16788504770E+02  0.24641381351E+02 -0.23384194707E+02  0.37893050727E+02  0.10566000000E+00 0. -1.
         13    1    4    4    0    0  0.25624535913E+01 -0.29601959737E+01  0.47199270188E+01  0.61333354473E+01  0.10566000000E+00 0. -1.
        -13    1    4    4    0    0  0.81032432631E+01 -0.12273624684E+02  0.14445008398E+02  0.20614893789E+02  0.10566000000E+00 0.  1.
         14    1    4    4    0    0  0.61228079161E+01 -0.94075606925E+01  0.11513018710E+02  0.16079196957E+02  0.00000000000E+00 0. -1.
<mgrwt>
<rscale>  0 0.80390276E+02</rscale>
<asrwt>0</asrwt>
<pdfrwt beam="1">  1        1 0.56482091E-02 0.80390276E+02</pdfrwt>
<pdfrwt beam="2">  1       -2 0.67703258E-02 0.80390276E+02</pdfrwt>
<totfact> 0.12348528E+05</totfact>
</mgrwt>
</event>
<event>
 8    1  0.8577104E-014  0.8177391E+02  0.7818608E-02  0.1324091E+00
         -2   -1    0    0    0  501 -0.00000000000E+00  0.00000000000E+00  0.71456783921E+01  0.71456788471E+01  0.25500000000E-02 0.  1.
          1   -1    0    0  501    0  0.00000000000E+00 -0.00000000000E+00 -0.23395162583E+03  0.23395162588E+03  0.50400000000E-02 0. -1.
        -24    2    1    2    0    0  0.71054273576E-14  0.35527136788E-14 -0.22680594744E+03  0.24109730473E+03  0.81773911216E+02 0.  0.
         66    2    3    3    0    0  0.28034379166E+02  0.29628859130E+02 -0.10628341448E+03  0.11385938655E+03  0.20000008625E+01 0.  0.
         13    1    3    3    0    0 -0.28034379166E+02 -0.29628859130E+02 -0.12052253296E+03  0.12723791818E+03  0.10566000000E+00 0. -1.
         13    1    4    4    0    0  0.10071878271E+02  0.11327210947E+02 -0.38033757592E+02  0.40942964235E+02  0.10566000000E+00 0. -1.
        -13    1    4    4    0    0  0.12929709586E+02  0.12971438626E+02 -0.47387149396E+02  0.50803431989E+02  0.10566000000E+00 0.  1.
         14    1    4    4    0    0  0.50327913095E+01  0.53302095572E+01 -0.20862507490E+02  0.22112990324E+02  0.00000000000E+00 0. -1.
<mgrwt>
<rscale>  0 0.81773911E+02</rscale>
<asrwt>0</asrwt>
<pdfrwt beam="1">  1        1 0.35992552E-01 0.81773911E+02</pdfrwt>
<pdfrwt beam="2">  1       -2 0.10993353E-02 0.81773911E+02</pdfrwt>
<totfact> 0.16220593E+05</totfact>
</mgrwt>
</event>
<event>
 8    1  0.8577104E-014  0.8025268E+02  0.7818608E-02  0.1328336E+00
          1   -1    0    0  501    0  0.00000000000E+00  0.00000000000E+00  0.69369862083E+01  0.69369880392E+01  0.50400000000E-02 0. -1.
         -2   -1    0    0    0  501 -0.00000000000E+00 -0.00000000000E+00 -0.23210700233E+03  0.23210700234E+03  0.25500000000E-02 0.  1.
        -24    2    1    2    0    0  0.00000000000E+00  0.00000000000E+00 -0.22517001612E+03  0.23904399038E+03  0.80252683307E+02 0.  0.
         66    2    3    3    0    0 -0.33750039948E+02  0.21637155608E+02 -0.11545945993E+03  0.12223795885E+03  0.19999990846E+01 0.  0.
         13    1    3    3    0    0  0.33750039948E+02 -0.21637155608E+02 -0.10971055618E+03  0.11680603153E+03  0.10566000000E+00 0. -1.
         13    1    4    4    0    0 -0.18012878857E+02  0.10816915207E+02 -0.62511357269E+02  0.65948088759E+02  0.10566000000E+00 0. -1.
        -13    1    4    4    0    0 -0.33435511661E+01  0.24981863238E+01 -0.11185295123E+02  0.11939106345E+02  0.10566000000E+00 0.  1.
         14    1    4    4    0    0 -0.12393609925E+02  0.83220540767E+01 -0.41762807542E+02  0.44350763746E+02  0.00000000000E+00 0. -1.
<mgrwt>
<rscale>  0 0.80252683E+02</rscale>
<asrwt>0</asrwt>
<pdfrwt beam="1">  1        1 0.10672290E-02 0.80252683E+02</pdfrwt>
<pdfrwt beam="2">  1       -2 0.35708764E-01 0.80252683E+02</pdfrwt>
<totfact> 0.79172611E+04</totfact>
</mgrwt>
</event>
<event>
 8    1  0.8577104E-014  0.8118248E+02  0.7818608E-02  0.1325729E+00
         -2   -1    0    0    0  501 -0.00000000000E+00  0.00000000000E+00  0.20763178423E+02  0.20763178580E+02  0.25500000000E-02 0.  1.
          1   -1    0    0  501    0  0.00000000000E+00 -0.00000000000E+00 -0.79354360311E+02  0.79354360471E+02  0.50400000000E-02 0. -1.
        -24    2    1    2    0    0  0.00000000000E+00  0.00000000000E+00 -0.58591181888E+02  0.10011753905E+03  0.81182479826E+02 0.  0.
         66    2    3    3    0    0  0.34787348363E+02 -0.72171074022E+01 -0.51658029268E+01  0.35957360384E+02  0.20000001362E+01 0.  0.
         13    1    3    3    0    0 -0.34787348363E+02  0.72171074022E+01 -0.53425378961E+02  0.64160178667E+02  0.10566000000E+00 0. -1.
         13    1    4    4    0    0  0.16621457454E+02 -0.30572733815E+01 -0.28115024754E+01  0.17132877126E+02  0.10566000000E+00 0. -1.
        -13    1    4    4    0    0  0.14033391857E+02 -0.37273296429E+01 -0.19218111958E+01  0.14646965405E+02  0.10566000000E+00 0.  1.
        -14    1    4    4    0    0  0.41324990520E+01 -0.43250437776E+00 -0.43248925561E+00  0.41775178525E+01  0.00000000000E+00 0.  1.
<mgrwt>
<rscale>  0 0.81182480E+02</rscale>
<asrwt>0</asrwt>
<pdfrwt beam="1">  1        1 0.12208363E-01 0.81182480E+02</pdfrwt>
<pdfrwt beam="2">  1       -2 0.31943352E-02 0.81182480E+02</pdfrwt>
<totfact> 0.13595775E+05</totfact>
</mgrwt>
</event>
<event>
 8    1  0.8577104E-014  0.7949996E+02  0.7818608E-02  0.1330476E+00
          1   -1    0    0  501    0  0.00000000000E+00  0.00000000000E+00  0.13707658726E+02  0.13707659653E+02  0.50400000000E-02 0. -1.
         -2   -1    0    0    0  501 -0.00000000000E+00 -0.00000000000E+00 -0.11526846981E+03  0.11526846984E+03  0.25500000000E-02 0.  1.
        -24    2    1    2    0    0 -0.35527136788E-14  0.00000000000E+00 -0.10156081109E+03  0.12897612949E+03  0.79499959942E+02 0.  0.
         66    2    3    3    0    0  0.16792147334E+02 -0.33846516824E+02 -0.70714633748E+02  0.80200513315E+02  0.19999991679E+01 0.  0.
         13    1    3    3    0    0 -0.16792147334E+02  0.33846516824E+02 -0.30846177339E+02  0.48775616179E+02  0.10566000000E+00 0. -1.
         13    1    4    4    0    0  0.56786342216E+01 -0.10409832861E+02 -0.22968898186E+02  0.25849428519E+02  0.10566000000E+00 0. -1.
        -13    1    4    4    0    0  0.10648604380E+02 -0.22902807997E+02 -0.46582859970E+02  0.52989672545E+02  0.10566000000E+00 0.  1.
        -14    1    4    4    0    0  0.46490873246E+00 -0.53387596517E+00 -0.11628755920E+01  0.13614122513E+01  0.00000000000E+00 0.  1.
<mgrwt>
<rscale>  0 0.79499960E+02</rscale>
<asrwt>0</asrwt>
<pdfrwt beam="1">  1        1 0.21088707E-02 0.79499960E+02</pdfrwt>
<pdfrwt beam="2">  1       -2 0.17733610E-01 0.79499960E+02</pdfrwt>
<totfact> 0.10393434E+05</totfact>
</mgrwt>
</event>
<event>
 8    1  0.8577104E-014  0.8212642E+02  0.7818608E-02  0.1323123E+00
          1   -1    0    0  501    0  0.00000000000E+00  0.00000000000E+00  0.22448331880E+01  0.22448388458E+01  0.50400000000E-02 0. -1.
         -2   -1    0    0    0  501 -0.00000000000E+00 -0.00000000000E+00 -0.75114048884E+03  0.75114048885E+03  0.25500000000E-02 0.  1.
        -24    2    1    2    0    0  0.17763568394E-14 -0.17763568394E-14 -0.74889565566E+03  0.75338532769E+03  0.82126420379E+02 0.  0.
         66    2    3    3    0    0 -0.14294676142E+02  0.13195999914E+02 -0.70614951169E+03  0.70642027508E+03  0.19999984003E+01 0.  0.
         13    1    3    3    0    0  0.14294676142E+02 -0.13195999914E+02 -0.42746143962E+02  0.46965052617E+02  0.10566000000E+00 0. -1.
         13    1    4    4    0    0 -0.53816982910E+01  0.43720366081E+01 -0.28218496448E+03  0.28227015911E+03  0.10566000000E+00 0. -1.
        -13    1    4    4    0    0 -0.15918388783E+01  0.15897465694E+01 -0.74429147303E+02  0.74463214928E+02  0.10566000000E+00 0.  1.
         14    1    4    4    0    0 -0.73211389723E+01  0.72342167366E+01 -0.34953539991E+03  0.34968690104E+03  0.00000000000E+00 0. -1.
<mgrwt>
<rscale>  0 0.82126420E+02</rscale>
<asrwt>0</asrwt>
<pdfrwt beam="1">  1        1 0.34535999E-03 0.82126420E+02</pdfrwt>
<pdfrwt beam="2">  1       -2 0.11555987E+00 0.82126420E+02</pdfrwt>
<totfact> 0.33059809E+04</totfact>
</mgrwt>
</event>
<event>
 8    1  0.8577104E-014  0.8151380E+02  0.7818608E-02  0.1324810E+00
         -2   -1    0    0    0  501 -0.00000000000E+00  0.00000000000E+00  0.16935540226E+02  0.16935540417E+02  0.25500000000E-02 0.  1.
          1   -1    0    0  501    0  0.00000000000E+00 -0.00000000000E+00 -0.98085152918E+02  0.98085153048E+02  0.50400000000E-02 0. -1.
        -24    2    1    2    0    0  0.35527136788E-14 -0.35527136788E-14 -0.81149612693E+02  0.11502069347E+03  0.81513804261E+02 0.  0.
         66    2    3    3    0    0  0.21286362379E+02 -0.28770865359E+02 -0.13156059681E+02  0.38183161412E+02  0.19999980754E+01 0.  0.
         13    1    3    3    0    0 -0.21286362379E+02  0.28770865359E+02 -0.67993553012E+02  0.76837532053E+02  0.10566000000E+00 0. -1.
         13    1    4    4    0    0  0.86710281619E+01 -0.13057302389E+02 -0.51787147039E+01  0.16507880696E+02  0.10566000000E+00 0. -1.
        -13    1    4    4    0    0  0.10728048925E+02 -0.13541719648E+02 -0.68241276944E+01  0.18575496968E+02  0.10566000000E+00 0.  1.
         14    1    4    4    0    0  0.18872852920E+01 -0.21718433214E+01 -0.11532172831E+01  0.30997837486E+01  0.00000000000E+00 0. -1.
<mgrwt>
<rscale>  0 0.81513804E+02</rscale>
<asrwt>0</asrwt>
<pdfrwt beam="1">  1        1 0.15090023E-01 0.81513804E+02</pdfrwt>
<pdfrwt beam="2">  1       -2 0.26054678E-02 0.81513804E+02</pdfrwt>
<totfact> 0.13926385E+05</totfact>
</mgrwt>
</event>
<event>
 8    1  0.8577104E-014  0.8053278E+02  0.7818608E-02  0.1327546E+00
         -2   -1    0    0    0  501 -0.00000000000E+00  0.00000000000E+00  0.56943698177E+02  0.56943698234E+02  0.25500000000E-02 0.  1.
          1   -1    0    0  501    0  0.00000000000E+00 -0.00000000000E+00 -0.28473424966E+02  0.28473425412E+02  0.50400000000E-02 0. -1.
        -24    2    1    2    0    0  0.00000000000E+00  0.00000000000E+00  0.28470273211E+02  0.85417123645E+02  0.80532779383E+02 0.  0.
         66    2    3    3    0    0  0.11618363573E+02  0.23006063705E+02  0.47023168764E+02  0.53660448178E+02  0.19999896769E+01 0.  0.
         13    1    3    3    0    0 -0.11618363573E+02 -0.23006063705E+02 -0.18552895554E+02  0.31756675467E+02  0.10566000000E+00 0. -1.
         13    1    4    4    0    0  0.44599219658E+01  0.10419338997E+02  0.19468468611E+02  0.22527449105E+02  0.10566000000E+00 0. -1.
        -13    1    4    4    0    0  0.28946399522E+01  0.45670616225E+01  0.10144993554E+02  0.11496479921E+02  0.10566000000E+00 0.  1.
         14    1    4    4    0    0  0.42638016547E+01  0.80196630853E+01  0.17409706599E+02  0.19636519152E+02  0.00000000000E+00 0. -1.
<mgrwt>
<rscale>  0 0.80532779E+02</rscale>
<asrwt>0</asrwt>
<pdfrwt beam="1">  1        1 0.43805270E-02 0.80532779E+02</pdfrwt>
<pdfrwt beam="2">  1       -2 0.87605689E-02 0.80532779E+02</pdfrwt>
<totfact> 0.11754814E+05</totfact>
</mgrwt>
</event>
<event>
 8    1  0.8577104E-014  0.7912737E+02  0.7818608E-02  0.1331546E+00
          1   -1    0    0  501    0  0.00000000000E+00  0.00000000000E+00  0.10474935560E+03  0.10474935572E+03  0.50400000000E-02 0. -1.
         -2   -1    0    0    0  501 -0.00000000000E+00 -0.00000000000E+00 -0.14943147815E+02  0.14943148033E+02  0.25500000000E-02 0.  1.
        -24    2    1    2    0    0  0.00000000000E+00  0.00000000000E+00  0.89806207781E+02  0.11969250375E+03  0.79127368831E+02 0.  0.
         66    2    3    3    0    0 -0.17430476739E+02  0.18262877824E+02 -0.10969518263E+01  0.25348718495E+02  0.20000000659E+01 0.  0.
         13    1    3    3    0    0  0.17430476739E+02 -0.18262877824E+02  0.90903159607E+02  0.94343785256E+02  0.10566000000E+00 0. -1.
         13    1    4    4    0    0 -0.87973916952E+01  0.93353599744E+01  0.16476764829E+00  0.12828926647E+02  0.10566000000E+00 0.  1.
        -13    1    4    4    0    0 -0.29927567876E+01  0.24752770612E+01 -0.32517471481E+00  0.38987808800E+01  0.10566000000E+00 0. -1.
        -14    1    4    4    0    0 -0.56403282560E+01  0.64522407883E+01 -0.93654475982E+00  0.86210109682E+01  0.00000000000E+00 0.  1.
<mgrwt>
<rscale>  0 0.79127369E+02</rscale>
<asrwt>0</asrwt>
<pdfrwt beam="1">  1        1 0.16115286E-01 0.79127369E+02</pdfrwt>
<pdfrwt beam="2">  1       -2 0.22989458E-02 0.79127369E+02</pdfrwt>
<totfact> 0.15259604E+05</totfact>
</mgrwt>
</event>
<event>
 8    1  0.8577104E-014  0.7940186E+02  0.7818608E-02  0.1330757E+00
         -2   -1    0    0    0  501 -0.00000000000E+00  0.00000000000E+00  0.93922192052E+01  0.93922195514E+01  0.25500000000E-02 0.  1.
          1   -1    0    0  501    0  0.00000000000E+00 -0.00000000000E+00 -0.16781591053E+03  0.16781591060E+03  0.50400000000E-02 0. -1.
        -24    2    1    2    0    0 -0.71054273576E-14  0.00000000000E+00 -0.15842369132E+03  0.17720813015E+03  0.79401860310E+02 0.  0.
         66    2    3    3    0    0 -0.39207320774E+02 -0.14701915186E+01 -0.92424486848E+02  0.10042739285E+03  0.20000001462E+01 0.  0.
         13    1    3    3    0    0  0.39207320774E+02  0.14701915186E+01 -0.65999204473E+02  0.76780737301E+02  0.10566000000E+00 0. -1.
         13    1    4    4    0    0 -0.68084866141E+00  0.89603873748E-01 -0.20239985077E+01  0.21399340524E+01  0.10566000000E+00 0. -1.
        -13    1    4    4    0    0 -0.38382099218E+02 -0.15008231196E+01 -0.90152597125E+02  0.97994591396E+02  0.10566000000E+00 0.  1.
        -14    1    4    4    0    0 -0.14437289469E+00 -0.58972272748E-01 -0.24789121560E+00  0.29286740420E+00  0.00000000000E+00 0.  1.
<mgrwt>
<rscale>  0 0.79401860E+02</rscale>
<asrwt>0</asrwt>
<pdfrwt beam="1">  1        1 0.25817830E-01 0.79401860E+02</pdfrwt>
<pdfrwt beam="2">  1       -2 0.14449569E-02 0.79401860E+02</pdfrwt>
<totfact> 0.16448030E+05</totfact>
</mgrwt>
</event>
<event>
 8    1  0.8577104E-014  0.8867742E+02  0.7818608E-02  0.1306086E+00
         -2   -1    0    0    0  501 -0.00000000000E+00  0.00000000000E+00  0.15391270344E+02  0.15391270555E+02  0.25500000000E-02 0.  1.
          1   -1    0    0  501    0  0.00000000000E+00 -0.00000000000E+00 -0.12772961729E+03  0.12772961739E+03  0.50400000000E-02 0. -1.
        -24    2    1    2    0    0  0.00000000000E+00  0.00000000000E+00 -0.11233834695E+03  0.14312088795E+03  0.88677417484E+02 0.  0.
         66    2    3    3    0    0 -0.37113595375E+02  0.17880564326E+02 -0.29836255351E+02  0.50905163560E+02  0.20000003451E+01 0.  0.
         13    1    3    3    0    0  0.37113595375E+02 -0.17880564326E+02 -0.82502091597E+02  0.92215724387E+02  0.10566000000E+00 0. -1.
         13    1    4    4    0    0 -0.18156693312E+02  0.88961049625E+01 -0.13683759277E+02  0.24414393860E+02  0.10566000000E+00 0. -1.
        -13    1    4    4    0    0 -0.25166163736E+01  0.11418779456E+01 -0.17885337162E+01  0.32935178919E+01  0.10566000000E+00 0.  1.
        -14    1    4    4    0    0 -0.16440285689E+02  0.78425814176E+01 -0.14363962358E+02  0.23197251808E+02  0.00000000000E+00 0.  1.
<mgrwt>
<rscale>  0 0.88677417E+02</rscale>
<asrwt>0</asrwt>
<pdfrwt beam="1">  1        1 0.19650710E-01 0.88677417E+02</pdfrwt>
<pdfrwt beam="2">  1       -2 0.23678878E-02 0.88677417E+02</pdfrwt>
<totfact> 0.11611803E+05</totfact>
</mgrwt>
</event>
<event>
 8    1  0.8577104E-014  0.8193549E+02  0.7818608E-02  0.1323647E+00
          1   -1    0    0  501    0  0.00000000000E+00  0.00000000000E+00  0.11430411615E+02  0.11430412726E+02  0.50400000000E-02 0. -1.
         -2   -1    0    0    0  501 -0.00000000000E+00 -0.00000000000E+00 -0.14683251595E+03  0.14683251597E+03  0.25500000000E-02 0.  1.
        -24    2    1    2    0    0  0.00000000000E+00  0.00000000000E+00 -0.13540210433E+03  0.15826292870E+03  0.81935491345E+02 0.  0.
         66    2    3    3    0    0  0.28480595395E+02  0.13527810979E+02 -0.11819168193E+03  0.12234140608E+03  0.19999949802E+01 0.  0.
         13    1    3    3    0    0 -0.28480595395E+02 -0.13527810979E+02 -0.17210422406E+02  0.35921522621E+02  0.10566000000E+00 0. -1.
         13    1    4    4    0    0  0.13024491857E+02  0.62659719078E+01 -0.56173786844E+02  0.58003493726E+02  0.10566000000E+00 0.  1.
        -13    1    4    4    0    0  0.11479756248E+02  0.55880294567E+01 -0.44390832362E+02  0.46190562224E+02  0.10566000000E+00 0. -1.
         14    1    4    4    0    0  0.39763472909E+01  0.16738096148E+01 -0.17627062722E+02  0.18147350126E+02  0.00000000000E+00 0. -1.
<mgrwt>
<rscale>  0 0.81935491E+02</rscale>
<asrwt>0</asrwt>
<pdfrwt beam="1">  1        1 0.17585251E-02 0.81935491E+02</pdfrwt>
<pdfrwt beam="2">  1       -2 0.22589616E-01 0.81935491E+02</pdfrwt>
<totfact> 0.89489459E+04</totfact>
</mgrwt>
</event>
<event>
 8    1  0.8577104E-014  0.8084663E+02  0.7818608E-02  0.1326666E+00
         -2   -1    0    0    0  501 -0.00000000000E+00  0.00000000000E+00  0.10944294330E+02  0.10944294627E+02  0.25500000000E-02 0.  1.
          1   -1    0    0  501    0  0.00000000000E+00 -0.00000000000E+00 -0.14930560360E+03  0.14930560368E+03  0.50400000000E-02 0. -1.
        -24    2    1    2    0    0  0.88817841970E-15  0.00000000000E+00 -0.13836130927E+03  0.16024989831E+03  0.80846632618E+02 0.  0.
         66    2    3    3    0    0  0.70719513189E+01  0.33143483650E+02 -0.25636526829E+02  0.42540974502E+02  0.19999999477E+01 0.  0.
         13    1    3    3    0    0 -0.70719513189E+01 -0.33143483650E+02 -0.11272478244E+03  0.11770892381E+03  0.10566000000E+00 0. -1.
         13    1    4    4    0    0  0.92514257411E+00  0.54047457458E+01 -0.35188270445E+01  0.65161701301E+01  0.10566000000E+00 0. -1.
        -13    1    4    4    0    0  0.55036625445E+01  0.23254860631E+02 -0.18265835536E+02  0.30078742598E+02  0.10566000000E+00 0.  1.
         14    1    4    4    0    0  0.64314620025E+00  0.44838772731E+01 -0.38518642485E+01  0.59460617743E+01  0.00000000000E+00 0. -1.
<mgrwt>
<rscale>  0 0.80846633E+02</rscale>
<asrwt>0</asrwt>
<pdfrwt beam="1">  1        1 0.22970091E-01 0.80846633E+02</pdfrwt>
<pdfrwt beam="2">  1       -2 0.16837377E-02 0.80846633E+02</pdfrwt>
<totfact> 0.15337061E+05</totfact>
</mgrwt>
</event>
<event>
 8    1  0.8577104E-014  0.8014258E+02  0.7818608E-02  0.1328647E+00
         -2   -1    0    0    0  501 -0.00000000000E+00  0.00000000000E+00  0.19739490113E+03  0.19739490115E+03  0.25500000000E-02 0.  1.
          1   -1    0    0  501    0  0.00000000000E+00 -0.00000000000E+00 -0.81344970978E+01  0.81344986592E+01  0.50400000000E-02 0. -1.
        -24    2    1    2    0    0  0.00000000000E+00  0.35527136788E-14  0.18926040404E+03  0.20552939981E+03  0.80142583251E+02 0.  0.
         66    2    3    3    0    0  0.34869217900E+02  0.18364530092E+02  0.11292885385E+03  0.11962459761E+03  0.19999999718E+01 0.  0.
         13    1    3    3    0    0 -0.34869217900E+02 -0.18364530092E+02  0.76331550189E+02  0.85904802198E+02  0.10566000000E+00 0. -1.
         13    1    4    4    0    0  0.17330758536E+02  0.83084516232E+01  0.55582434690E+02  0.58811595540E+02  0.10566000000E+00 0. -1.
        -13    1    4    4    0    0  0.11407699891E+02  0.69458436341E+01  0.37047519693E+02  0.39381597733E+02  0.10566000000E+00 0.  1.
        -14    1    4    4    0    0  0.61307594736E+01  0.31102348348E+01  0.20298899465E+02  0.21431404339E+02  0.00000000000E+00 0.  1.
<mgrwt>
<rscale>  0 0.80142583E+02</rscale>
<asrwt>0</asrwt>
<pdfrwt beam="1">  1        1 0.12514612E-02 0.80142583E+02</pdfrwt>
<pdfrwt beam="2">  1       -2 0.30368446E-01 0.80142583E+02</pdfrwt>
<totfact> 0.85135694E+04</totfact>
</mgrwt>
</event>
<event>
 8    1  0.8577104E-014  0.8441020E+02  0.7818608E-02  0.1316982E+00
          1   -1    0    0  501    0  0.00000000000E+00  0.00000000000E+00  0.32745340587E+03  0.32745340591E+03  0.50400000000E-02 0. -1.
         -2   -1    0    0    0  501 -0.00000000000E+00 -0.00000000000E+00 -0.54397671076E+01  0.54397677053E+01  0.25500000000E-02 0.  1.
        -24    2    1    2    0    0  0.17763568394E-14  0.71054273576E-14  0.32201363876E+03  0.33289317361E+03  0.84410197783E+02 0.  0.
         66    2    3    3    0    0  0.11256102813E+02  0.36918429814E+02  0.22820978029E+03  0.23145922792E+03  0.20000148368E+01 0.  0.
         13    1    3    3    0    0 -0.11256102813E+02 -0.36918429814E+02  0.93803858470E+02  0.10143394569E+03  0.10566000000E+00 0. -1.
         13    1    4    4    0    0  0.46381165516E+01  0.13395056083E+02  0.79819166104E+02  0.81068181762E+02  0.10566000000E+00 0. -1.
        -13    1    4    4    0    0  0.34343264833E+01  0.11015146363E+02  0.71031551624E+02  0.71962632928E+02  0.10566000000E+00 0.  1.
         14    1    4    4    0    0  0.31836597779E+01  0.12508227368E+02  0.77359062561E+02  0.78428413230E+02  0.00000000000E+00 0. -1.
<mgrwt>
<rscale>  0 0.84410198E+02</rscale>
<asrwt>0</asrwt>
<pdfrwt beam="1">  1        1 0.50377460E-01 0.84410198E+02</pdfrwt>
<pdfrwt beam="2">  1       -2 0.83688709E-03 0.84410198E+02</pdfrwt>
<totfact> 0.15917432E+05</totfact>
</mgrwt>
</event>
<event>
 8    1  0.8577104E-014  0.7683573E+02  0.7818608E-02  0.1338279E+00
          1   -1    0    0  501    0  0.00000000000E+00  0.00000000000E+00  0.44081835541E+01  0.44081864352E+01  0.50400000000E-02 0. -1.
         -2   -1    0    0    0  501 -0.00000000000E+00 -0.00000000000E+00 -0.33481633967E+03  0.33481633968E+03  0.25500000000E-02 0.  1.
        -24    2    1    2    0    0  0.00000000000E+00  0.35527136788E-14 -0.33040815612E+03  0.33922452612E+03  0.76835730556E+02 0.  0.
         66    2    3    3    0    0  0.16613918535E+02  0.31208577305E+02 -0.23138200647E+03  0.23407612116E+03  0.19999983915E+01 0.  0.
         13    1    3    3    0    0 -0.16613918535E+02 -0.31208577305E+02 -0.99026149647E+02  0.10514840495E+03  0.10566000000E+00 0. -1.
         13    1    4    4    0    0  0.71979584721E+01  0.14201329694E+02 -0.10988761735E+03  0.11103507546E+03  0.10566000000E+00 0. -1.
        -13    1    4    4    0    0  0.61256911058E+01  0.11053299343E+02 -0.80586976099E+02  0.81571878725E+02  0.10566000000E+00 0.  1.
         14    1    4    4    0    0  0.32902689568E+01  0.59539482677E+01 -0.40907413023E+02  0.41469166980E+02  0.00000000000E+00 0. -1.
<mgrwt>
<rscale>  0 0.76835731E+02</rscale>
<asrwt>0</asrwt>
<pdfrwt beam="1">  1        1 0.67818257E-03 0.76835731E+02</pdfrwt>
<pdfrwt beam="2">  1       -2 0.51510186E-01 0.76835731E+02</pdfrwt>
<totfact> 0.73286761E+04</totfact>
</mgrwt>
</event>
<event>
 8    1  0.8577104E-014  0.8589188E+02  0.7818608E-02  0.1313117E+00
          1   -1    0    0  501    0  0.00000000000E+00  0.00000000000E+00  0.54148806608E+02  0.54148806842E+02  0.50400000000E-02 0. -1.
         -2   -1    0    0    0  501 -0.00000000000E+00 -0.00000000000E+00 -0.34060839029E+02  0.34060839124E+02  0.25500000000E-02 0.  1.
        -24    2    1    2    0    0 -0.17763568394E-14 -0.71054273576E-14  0.20087967579E+02  0.88209645967E+02  0.85891880874E+02 0.  0.
         66    2    3    3    0    0 -0.83691838612E+01 -0.37313434678E+02 -0.99705480355E+01  0.39569527023E+02  0.19999986772E+01 0.  0.
         13    1    3    3    0    0  0.83691838612E+01  0.37313434678E+02  0.30058515614E+02  0.48640118944E+02  0.10566000000E+00 0. -1.
         13    1    4    4    0    0 -0.11782860773E+01 -0.80400967306E+01 -0.23286716655E+01  0.84537204401E+01  0.10566000000E+00 0. -1.
        -13    1    4    4    0    0 -0.34673084168E+01 -0.12010460335E+02 -0.33218428231E+01  0.12935191877E+02  0.10566000000E+00 0.  1.
        -14    1    4    4    0    0 -0.37235893670E+01 -0.17262877612E+02 -0.43200335469E+01  0.18180614706E+02  0.00000000000E+00 0.  1.
<mgrwt>
<rscale>  0 0.85891881E+02</rscale>
<asrwt>0</asrwt>
<pdfrwt beam="1">  1        1 0.83305857E-02 0.85891881E+02</pdfrwt>
<pdfrwt beam="2">  1       -2 0.52401291E-02 0.85891881E+02</pdfrwt>
<totfact> 0.10928966E+05</totfact>
</mgrwt>
</event>
<event>
 8    1  0.8577104E-014  0.7346422E+02  0.7818608E-02  0.1348694E+00
         -2   -1    0    0    0  501 -0.00000000000E+00  0.00000000000E+00  0.27015318568E+02  0.27015318688E+02  0.25500000000E-02 0.  1.
          1   -1    0    0  501    0  0.00000000000E+00 -0.00000000000E+00 -0.49943806536E+02  0.49943806790E+02  0.50400000000E-02 0. -1.
        -24    2    1    2    0    0  0.00000000000E+00 -0.35527136788E-14 -0.22928487968E+02  0.76959125478E+02  0.73464218732E+02 0.  0.
         66    2    3    3    0    0  0.17902580257E+02 -0.31803237937E+02 -0.73758246739E+01  0.37287412347E+02  0.20000016954E+01 0.  0.
         13    1    3    3    0    0 -0.17902580257E+02  0.31803237937E+02 -0.15552663294E+02  0.39671713131E+02  0.10566000000E+00 0. -1.
         13    1    4    4    0    0  0.42887152544E+01 -0.78293254543E+01 -0.24884345933E+01  0.92679494152E+01  0.10566000000E+00 0. -1.
        -13    1    4    4    0    0  0.98137319332E+01 -0.17252577313E+02 -0.39957329793E+01  0.20246920864E+02  0.10566000000E+00 0.  1.
         14    1    4    4    0    0  0.38001330692E+01 -0.67213351696E+01 -0.89165710135E+00  0.77725420675E+01  0.00000000000E+00 0. -1.
<mgrwt>
<rscale>  0 0.73464219E+02</rscale>
<asrwt>0</asrwt>
<pdfrwt beam="1">  1        1 0.76836626E-02 0.73464219E+02</pdfrwt>
<pdfrwt beam="2">  1       -2 0.41562029E-02 0.73464219E+02</pdfrwt>
<totfact> 0.16643327E+05</totfact>
</mgrwt>
</event>
<event>
 8    1  0.8577104E-014  0.8733592E+02  0.7818608E-02  0.1309434E+00
         -2   -1    0    0    0  501 -0.00000000000E+00  0.00000000000E+00  0.31847243053E+02  0.31847243156E+02  0.25500000000E-02 0.  1.
          1   -1    0    0  501    0  0.00000000000E+00 -0.00000000000E+00 -0.59876158160E+02  0.59876158372E+02  0.50400000000E-02 0. -1.
        -24    2    1    2    0    0 -0.35527136788E-14 -0.71054273576E-14 -0.28028915106E+02  0.91723401527E+02  0.87335916470E+02 0.  0.
         66    2    3    3    0    0  0.24124235742E+02  0.35935604809E+02 -0.81236913073E+01  0.44083339168E+02  0.19999971474E+01 0.  0.
         13    1    3    3    0    0 -0.24124235742E+02 -0.35935604809E+02 -0.19905223799E+02  0.47640062360E+02  0.10566000000E+00 0. -1.
         13    1    4    4    0    0  0.59027704622E+01  0.86900732203E+01 -0.17576558021E+01  0.10651788097E+02  0.10566000000E+00 0. -1.
        -13    1    4    4    0    0  0.16799951725E+02  0.24358615582E+02 -0.60035550247E+01  0.30193283492E+02  0.10566000000E+00 0.  1.
         14    1    4    4    0    0  0.14215135544E+01  0.28869160065E+01 -0.36248048054E+00  0.32382675789E+01  0.00000000000E+00 0. -1.
<mgrwt>
<rscale>  0 0.87335916E+02</rscale>
<asrwt>0</asrwt>
<pdfrwt beam="1">  1        1 0.92117167E-02 0.87335916E+02</pdfrwt>
<pdfrwt beam="2">  1       -2 0.48995758E-02 0.87335916E+02</pdfrwt>
<totfact> 0.10607815E+05</totfact>
</mgrwt>
</event>
<event>
 8    1  0.8577104E-014  0.8081982E+02  0.7818608E-02  0.1326741E+00
          1   -1    0    0  501    0  0.00000000000E+00  0.00000000000E+00  0.74192862515E+02  0.74192862686E+02  0.50400000000E-02 0. -1.
         -2   -1    0    0    0  501 -0.00000000000E+00 -0.00000000000E+00 -0.22009674549E+02  0.22009674696E+02  0.25500000000E-02 0.  1.
        -24    2    1    2    0    0 -0.88817841970E-15  0.00000000000E+00  0.52183187966E+02  0.96202537382E+02  0.80819818686E+02 0.  0.
         66    2    3    3    0    0 -0.60713666300E+01 -0.39823153367E+02  0.29518359844E+02  0.49980782388E+02  0.20000008548E+01 0.  0.
         13    1    3    3    0    0  0.60713666300E+01  0.39823153367E+02  0.22664828122E+02  0.46221754994E+02  0.10566000000E+00 0. -1.
         13    1    4    4    0    0 -0.11766120063E+01 -0.57834759926E+01  0.49469058986E+01  0.77016915269E+01  0.10566000000E+00 0. -1.
        -13    1    4    4    0    0 -0.33657909802E+01 -0.20468183539E+02  0.14456068997E+02  0.25283674202E+02  0.10566000000E+00 0.  1.
        -14    1    4    4    0    0 -0.15289636436E+01 -0.13571493836E+02  0.10115384948E+02  0.16995416659E+02  0.00000000000E+00 0.  1.
<mgrwt>
<rscale>  0 0.80819819E+02</rscale>
<asrwt>0</asrwt>
<pdfrwt beam="1">  1        1 0.11414287E-01 0.80819819E+02</pdfrwt>
<pdfrwt beam="2">  1       -2 0.33861038E-02 0.80819819E+02</pdfrwt>
<totfact> 0.13614548E+05</totfact>
</mgrwt>
</event>
<event>
 8    1  0.8577104E-014  0.7197015E+02  0.7818608E-02  0.1353519E+00
          1   -1    0    0  501    0  0.00000000000E+00  0.00000000000E+00  0.72758284761E+02  0.72758284936E+02  0.50400000000E-02 0. -1.
         -2   -1    0    0    0  501 -0.00000000000E+00 -0.00000000000E+00 -0.17797638826E+02  0.17797639009E+02  0.25500000000E-02 0.  1.
        -24    2    1    2    0    0  0.35527136788E-14 -0.17763568394E-14  0.54960645935E+02  0.90555923945E+02  0.71970151868E+02 0.  0.
         66    2    3    3    0    0  0.23854854960E+02 -0.13922229319E+02  0.56469455235E+02  0.62894213153E+02  0.20000248092E+01 0.  0.
         13    1    3    3    0    0 -0.23854854960E+02  0.13922229319E+02 -0.15088092999E+01  0.27661710792E+02  0.10566000000E+00 0. -1.
         13    1    4    4    0    0  0.10129000566E+02 -0.53479206699E+01  0.23678100742E+02  0.26303241754E+02  0.10566000000E+00 0. -1.
        -13    1    4    4    0    0  0.79139387168E+01 -0.42248124022E+01  0.17643066436E+02  0.19793140811E+02  0.10566000000E+00 0.  1.
        -14    1    4    4    0    0  0.58119156771E+01 -0.43494962469E+01  0.15148288056E+02  0.16797830588E+02  0.00000000000E+00 0.  1.
<mgrwt>
<rscale>  0 0.71970152E+02</rscale>
<asrwt>0</asrwt>
<pdfrwt beam="1">  1        1 0.11193582E-01 0.71970152E+02</pdfrwt>
<pdfrwt beam="2">  1       -2 0.27380983E-02 0.71970152E+02</pdfrwt>
<totfact> 0.18589164E+05</totfact>
</mgrwt>
</event>
<event>
 8    1  0.8577104E-014  0.8054586E+02  0.7818608E-02  0.1327509E+00
         -2   -1    0    0    0  501 -0.00000000000E+00  0.00000000000E+00  0.47087298535E+01  0.47087305440E+01  0.25500000000E-02 0.  1.
          1   -1    0    0  501    0  0.00000000000E+00 -0.00000000000E+00 -0.34444719059E+03  0.34444719063E+03  0.50400000000E-02 0. -1.
        -24    2    1    2    0    0 -0.17763568394E-14  0.00000000000E+00 -0.33973846074E+03  0.34915592117E+03  0.80545860136E+02 0.  0.
         66    2    3    3    0    0  0.10330876371E+02 -0.36729178483E+02 -0.22551153752E+03  0.22872519125E+03  0.19999993173E+01 0.  0.
         13    1    3    3    0    0 -0.10330876371E+02  0.36729178483E+02 -0.11422692322E+03  0.12043072992E+03  0.10566000000E+00 0. -1.
         13    1    4    4    0    0  0.32002540323E+01 -0.12232718310E+02 -0.70663566697E+02  0.71786014275E+02  0.10566000000E+00 0. -1.
        -13    1    4    4    0    0  0.41289147082E+01 -0.14941101404E+02 -0.96866322197E+02  0.98098827658E+02  0.10566000000E+00 0.  1.
        -14    1    4    4    0    0  0.30017076307E+01 -0.95553587693E+01 -0.57981648627E+02  0.58840349314E+02  0.00000000000E+00 0.  1.
<mgrwt>
<rscale>  0 0.80545860E+02</rscale>
<asrwt>0</asrwt>
<pdfrwt beam="1">  1        1 0.52991856E-01 0.80545860E+02</pdfrwt>
<pdfrwt beam="2">  1       -2 0.72442030E-03 0.80545860E+02</pdfrwt>
<totfact> 0.18181860E+05</totfact>
</mgrwt>
</event>
<event>
 8    1  0.8577104E-014  0.7803831E+02  0.7818608E-02  0.1334712E+00
         -2   -1    0    0    0  501 -0.00000000000E+00  0.00000000000E+00  0.25919440117E+02  0.25919440242E+02  0.25500000000E-02 0.  1.
          1   -1    0    0  501    0  0.00000000000E+00 -0.00000000000E+00 -0.58739485737E+02  0.58739485954E+02  0.50400000000E-02 0. -1.
        -24    2    1    2    0    0  0.00000000000E+00  0.00000000000E+00 -0.32820045621E+02  0.84658926196E+02  0.78038313604E+02 0.  0.
         66    2    3    3    0    0 -0.33302598303E+02 -0.10742241682E+02  0.22444599193E+01  0.35121167639E+02  0.20000014814E+01 0.  0.
         13    1    3    3    0    0  0.33302598303E+02  0.10742241682E+02 -0.35064505540E+02  0.49537758557E+02  0.10566000000E+00 0. -1.
         13    1    4    4    0    0 -0.10437002589E+02 -0.26414265647E+01  0.33878391530E+00  0.10771912361E+02  0.10566000000E+00 0. -1.
        -13    1    4    4    0    0 -0.20546268735E+02 -0.69904561739E+01  0.17018526089E+01  0.21769774982E+02  0.10566000000E+00 0.  1.
         14    1    4    4    0    0 -0.23193269786E+01 -0.11103589432E+01  0.20382339507E+00  0.25794802951E+01  0.00000000000E+00 0. -1.
<mgrwt>
<rscale>  0 0.78038314E+02</rscale>
<asrwt>0</asrwt>
<pdfrwt beam="1">  1        1 0.90368440E-02 0.78038314E+02</pdfrwt>
<pdfrwt beam="2">  1       -2 0.39876062E-02 0.78038314E+02</pdfrwt>
<totfact> 0.14448289E+05</totfact>
</mgrwt>
</event>
<event>
 8    1  0.8577104E-014  0.7722322E+02  0.7818608E-02  0.1337121E+00
         -2   -1    0    0    0  501 -0.00000000000E+00  0.00000000000E+00  0.80348177180E+02  0.80348177221E+02  0.25500000000E-02 0.  1.
          1   -1    0    0  501    0  0.00000000000E+00 -0.00000000000E+00 -0.18554950506E+02  0.18554951191E+02  0.50400000000E-02 0. -1.
        -24    2    1    2    0    0  0.35527136788E-14  0.35527136788E-14  0.61793226674E+02  0.98903128411E+02  0.77223221551E+02 0.  0.
         66    2    3    3    0    0  0.28804685959E+02  0.24285908029E+02  0.41581828231E+02  0.56147695387E+02  0.19999990635E+01 0.  0.
         13    1    3    3    0    0 -0.28804685959E+02 -0.24285908029E+02  0.20211398443E+02  0.42755433024E+02  0.10566000000E+00 0. -1.
         13    1    4    4    0    0  0.20982111945E+02  0.17769902228E+02  0.29637384743E+02  0.40427765030E+02  0.10566000000E+00 0. -1.
        -13    1    4    4    0    0  0.77984917863E+01  0.63880886434E+01  0.11710562079E+02  0.15452267759E+02  0.10566000000E+00 0.  1.
         14    1    4    4    0    0  0.24082227459E-01  0.12791715772E+00  0.23388140910E+00  0.26766259814E+00  0.00000000000E+00 0. -1.
<mgrwt>
<rscale>  0 0.77223222E+02</rscale>
<asrwt>0</asrwt>
<pdfrwt beam="1">  1        1 0.28546079E-02 0.77223222E+02</pdfrwt>
<pdfrwt beam="2">  1       -2 0.12361258E-01 0.77223222E+02</pdfrwt>
<totfact> 0.12216797E+05</totfact>
</mgrwt>
</event>
<event>
 8    1  0.8577104E-014  0.7960468E+02  0.7818608E-02  0.1330177E+00
          1   -1    0    0  501    0  0.00000000000E+00  0.00000000000E+00  0.29662763585E+02  0.29662764013E+02  0.50400000000E-02 0. -1.
         -2   -1    0    0    0  501 -0.00000000000E+00 -0.00000000000E+00 -0.53407904840E+02  0.53407904901E+02  0.25500000000E-02 0.  1.
        -24    2    1    2    0    0  0.17763568394E-14  0.00000000000E+00 -0.23745141255E+02  0.83070668914E+02  0.79604675118E+02 0.  0.
         66    2    3    3    0    0  0.10034372319E+02 -0.33868526897E+02 -0.30964431482E+02  0.47016611480E+02  0.19999990213E+01 0.  0.
         13    1    3    3    0    0 -0.10034372319E+02  0.33868526897E+02  0.72192902267E+01  0.36054057434E+02  0.10566000000E+00 0. -1.
         13    1    4    4    0    0  0.24485100267E+01 -0.63713195188E+01 -0.63678522829E+01  0.93353961081E+01  0.10566000000E+00 0. -1.
        -13    1    4    4    0    0  0.16053274053E+01 -0.48247920736E+01 -0.48138751230E+01  0.70028745788E+01  0.10566000000E+00 0.  1.
        -14    1    4    4    0    0  0.59805348866E+01 -0.22672415305E+02 -0.19782704076E+02  0.30678340794E+02  0.00000000000E+00 0.  1.
<mgrwt>
<rscale>  0 0.79604675E+02</rscale>
<asrwt>0</asrwt>
<pdfrwt beam="1">  1        1 0.45635021E-02 0.79604675E+02</pdfrwt>
<pdfrwt beam="2">  1       -2 0.82166008E-02 0.79604675E+02</pdfrwt>
<totfact> 0.12243712E+05</totfact>
</mgrwt>
</event>
<event>
 8    1  0.8577104E-014  0.8031680E+02  0.7818608E-02  0.1328155E+00
         -2   -1    0    0    0  501 -0.00000000000E+00  0.00000000000E+00  0.81106558427E+01  0.81106562435E+01  0.25500000000E-02 0.  1.
          1   -1    0    0  501    0  0.00000000000E+00 -0.00000000000E+00 -0.19883684634E+03  0.19883684640E+03  0.50400000000E-02 0. -1.
        -24    2    1    2    0    0  0.00000000000E+00  0.00000000000E+00 -0.19072619049E+03  0.20694750264E+03  0.80316804657E+02 0.  0.
         66    2    3    3    0    0 -0.25668928946E+01  0.39883255671E+02 -0.10486441724E+03  0.11223996180E+03  0.20000000096E+01 0.  0.
         13    1    3    3    0    0  0.25668928946E+01 -0.39883255671E+02 -0.85861773252E+02  0.94707540841E+02  0.10566000000E+00 0. -1.
         13    1    4    4    0    0 -0.11384512804E+01  0.11000939515E+02 -0.27573144073E+02  0.29708688621E+02  0.10566000000E+00 0. -1.
        -13    1    4    4    0    0 -0.12935041186E+01  0.22076983907E+02 -0.60287511432E+02  0.64215742385E+02  0.10566000000E+00 0.  1.
         14    1    4    4    0    0 -0.13493749563E+00  0.68053322499E+01 -0.17003761737E+02  0.18315530797E+02  0.00000000000E+00 0. -1.
<mgrwt>
<rscale>  0 0.80316805E+02</rscale>
<asrwt>0</asrwt>
<pdfrwt beam="1">  1        1 0.30590281E-01 0.80316805E+02</pdfrwt>
<pdfrwt beam="2">  1       -2 0.12477934E-02 0.80316805E+02</pdfrwt>
<totfact> 0.16481155E+05</totfact>
</mgrwt>
</event>
<event>
 8    1  0.1184076E-013  0.8120632E+02  0.7818608E-02  0.1325663E+00
         -2   -1    0    0    0  501 -0.00000000000E+00  0.00000000000E+00  0.12168520141E+02  0.12168520408E+02  0.25500000000E-02 0.  1.
          1   -1    0    0  501    0  0.00000000000E+00 -0.00000000000E+00 -0.13548207618E+03  0.13548207628E+03  0.50400000000E-02 0. -1.
        -24    2    1    2    0    0  0.00000000000E+00  0.00000000000E+00 -0.12331355604E+03  0.14765059669E+03  0.81206315011E+02 0.  0.
         66    2    3    3    0    0 -0.16493976939E+02 -0.12647898883E+02  0.16725259766E+01  0.20947982332E+02  0.19999998120E+01 0.  0.
         13    1    3    3    0    0  0.16493976939E+02  0.12647898883E+02 -0.12498608202E+03  0.12670261435E+03  0.10566000000E+00 0. -1.
         13    1    4    4    0    0 -0.37353990897E+01 -0.23083171982E+01  0.22960465032E+00  0.43983425262E+01  0.10566000000E+00 0. -1.
        -13    1    4    4    0    0 -0.11241795486E+02 -0.85863277645E+01  0.15370289427E+01  0.14229427684E+02  0.10566000000E+00 0.  1.
         14    1    4    4    0    0 -0.15167823633E+01 -0.17532539198E+01 -0.94107616417E-01  0.23202121214E+01  0.00000000000E+00 0. -1.
<mgrwt>
<rscale>  0 0.81206315E+02</rscale>
<asrwt>0</asrwt>
<pdfrwt beam="1">  1        1 0.20843395E-01 0.81206315E+02</pdfrwt>
<pdfrwt beam="2">  1       -2 0.18720801E-02 0.81206315E+02</pdfrwt>
<totfact> 0.14888126E+05</totfact>
</mgrwt>
</event>
<event>
 8    1  0.8577104E-014  0.7920594E+02  0.7818608E-02  0.1331320E+00
         -2   -1    0    0    0  501 -0.00000000000E+00  0.00000000000E+00  0.17678570486E+02  0.17678570670E+02  0.25500000000E-02 0.  1.
          1   -1    0    0  501    0  0.00000000000E+00 -0.00000000000E+00 -0.88717303503E+02  0.88717303646E+02  0.50400000000E-02 0. -1.
        -24    2    1    2    0    0  0.00000000000E+00  0.00000000000E+00 -0.71038733017E+02  0.10639587432E+03  0.79205937168E+02 0.  0.
         66    2    3    3    0    0  0.39084590544E+02  0.40577331403E+00 -0.43889805068E+02  0.58805483239E+02  0.20000000206E+01 0.  0.
         13    1    3    3    0    0 -0.39084590544E+02 -0.40577331403E+00 -0.27148927949E+02  0.47590391077E+02  0.10566000000E+00 0. -1.
         13    1    4    4    0    0  0.63048363811E+01  0.27893667211E+00 -0.67223133127E+01  0.92211402641E+01  0.10566000000E+00 0. -1.
        -13    1    4    4    0    0  0.30933431945E+02  0.26916950204E+00 -0.34512064414E+02  0.46346989312E+02  0.10566000000E+00 0.  1.
        -14    1    4    4    0    0  0.18463222180E+01 -0.14233286012E+00 -0.26554273405E+01  0.32373536626E+01  0.00000000000E+00 0.  1.
<mgrwt>
<rscale>  0 0.79205937E+02</rscale>
<asrwt>0</asrwt>
<pdfrwt beam="1">  1        1 0.13648816E-01 0.79205937E+02</pdfrwt>
<pdfrwt beam="2">  1       -2 0.27197801E-02 0.79205937E+02</pdfrwt>
<totfact> 0.14804766E+05</totfact>
</mgrwt>
</event>
<event>
 8    1  0.8577104E-014  0.7776563E+02  0.7818608E-02  0.1335515E+00
          1   -1    0    0  501    0  0.00000000000E+00  0.00000000000E+00  0.10584669685E+03  0.10584669697E+03  0.50400000000E-02 0. -1.
         -2   -1    0    0    0  501 -0.00000000000E+00 -0.00000000000E+00 -0.14283612334E+02  0.14283612561E+02  0.25500000000E-02 0.  1.
        -24    2    1    2    0    0  0.00000000000E+00  0.00000000000E+00  0.91563084515E+02  0.12013030953E+03  0.77765627509E+02 0.  0.
         66    2    3    3    0    0 -0.17189019927E+02 -0.18377715560E+02  0.73245165643E-01  0.25242983172E+02  0.19999998210E+01 0.  0.
         13    1    3    3    0    0  0.17189019927E+02  0.18377715560E+02  0.91489839349E+02  0.94887326358E+02  0.10566000000E+00 0. -1.
         13    1    4    4    0    0 -0.75904495468E+01 -0.88217616756E+01  0.69048482841E+00  0.11658745075E+02  0.10566000000E+00 0. -1.
        -13    1    4    4    0    0 -0.35375644478E+01 -0.37611394517E+01  0.12527912857E+00  0.51659840392E+01  0.10566000000E+00 0.  1.
        -14    1    4    4    0    0 -0.60610059321E+01 -0.57948144331E+01 -0.74251879133E+00  0.84182540576E+01  0.00000000000E+00 0.  1.
<mgrwt>
<rscale>  0 0.77765628E+02</rscale>
<asrwt>0</asrwt>
<pdfrwt beam="1">  1        1 0.16284106E-01 0.77765628E+02</pdfrwt>
<pdfrwt beam="2">  1       -2 0.21974790E-02 0.77765628E+02</pdfrwt>
<totfact> 0.16017570E+05</totfact>
</mgrwt>
</event>
<event>
 8    1  0.8577104E-014  0.7965705E+02  0.7818608E-02  0.1330028E+00
          1   -1    0    0  501    0  0.00000000000E+00  0.00000000000E+00  0.28499002349E+02  0.28499002795E+02  0.50400000000E-02 0. -1.
         -2   -1    0    0    0  501 -0.00000000000E+00 -0.00000000000E+00 -0.55661994806E+02  0.55661994865E+02  0.25500000000E-02 0.  1.
        -24    2    1    2    0    0  0.88817841970E-15 -0.35527136788E-14 -0.27162992458E+02  0.84160997659E+02  0.79657048450E+02 0.  0.
         66    2    3    3    0    0  0.76912051143E+01 -0.31443915231E+02 -0.38060598165E+02  0.50004835473E+02  0.19999992112E+01 0.  0.
         13    1    3    3    0    0 -0.76912051143E+01  0.31443915231E+02  0.10897605707E+02  0.34156162187E+02  0.10566000000E+00 0. -1.
         13    1    4    4    0    0  0.57678916133E+00 -0.21400949939E+01 -0.33793564385E+01  0.40427597373E+01  0.10566000000E+00 0. -1.
        -13    1    4    4    0    0  0.11797630175E+01 -0.47069931286E+01 -0.52711971073E+01  0.71654942655E+01  0.10566000000E+00 0.  1.
        -14    1    4    4    0    0  0.59346529355E+01 -0.24596827108E+02 -0.29410044619E+02  0.38796581470E+02  0.00000000000E+00 0.  1.
<mgrwt>
<rscale>  0 0.79657048E+02</rscale>
<asrwt>0</asrwt>
<pdfrwt beam="1">  1        1 0.43844619E-02 0.79657048E+02</pdfrwt>
<pdfrwt beam="2">  1       -2 0.85633839E-02 0.79657048E+02</pdfrwt>
<totfact> 0.12133690E+05</totfact>
</mgrwt>
</event>
<event>
 8    1  0.8577104E-014  0.8119880E+02  0.7818608E-02  0.1325683E+00
         -2   -1    0    0    0  501 -0.00000000000E+00  0.00000000000E+00  0.12066136159E+02  0.12066136429E+02  0.25500000000E-02 0.  1.
          1   -1    0    0  501    0  0.00000000000E+00 -0.00000000000E+00 -0.13660637469E+03  0.13660637478E+03  0.50400000000E-02 0. -1.
        -24    2    1    2    0    0  0.00000000000E+00  0.00000000000E+00 -0.12454023853E+03  0.14867251121E+03  0.81198796645E+02 0.  0.
         66    2    3    3    0    0  0.30571802699E+02  0.11275494758E+02 -0.18040182256E+02  0.37299062613E+02  0.19999984179E+01 0.  0.
         13    1    3    3    0    0 -0.30571802699E+02 -0.11275494758E+02 -0.10650005627E+03  0.11137344860E+03  0.10566000000E+00 0. -1.
         13    1    4    4    0    0  0.48237290065E+01  0.13578520325E+01 -0.28451967687E+01  0.57635433857E+01  0.10566000000E+00 0. -1.
        -13    1    4    4    0    0  0.10844397783E+02  0.47745101290E+01 -0.70814746975E+01  0.13804179011E+02  0.10566000000E+00 0.  1.
         14    1    4    4    0    0  0.14903675909E+02  0.51431325961E+01 -0.81135107899E+01  0.17731340216E+02  0.00000000000E+00 0. -1.
<mgrwt>
<rscale>  0 0.81198797E+02</rscale>
<asrwt>0</asrwt>
<pdfrwt beam="1">  1        1 0.21016364E-01 0.81198797E+02</pdfrwt>
<pdfrwt beam="2">  1       -2 0.18563288E-02 0.81198797E+02</pdfrwt>
<totfact> 0.14914215E+05</totfact>
</mgrwt>
</event>
<event>
 8    1  0.8577104E-014  0.7806022E+02  0.7818608E-02  0.1334648E+00
          1   -1    0    0  501    0  0.00000000000E+00  0.00000000000E+00  0.39214330963E+02  0.39214331287E+02  0.50400000000E-02 0. -1.
         -2   -1    0    0    0  501 -0.00000000000E+00 -0.00000000000E+00 -0.38846752619E+02  0.38846752703E+02  0.25500000000E-02 0.  1.
        -24    2    1    2    0    0  0.00000000000E+00  0.00000000000E+00  0.36757834362E+00  0.78061083990E+02  0.78060218548E+02 0.  0.
         66    2    3    3    0    0 -0.21923552166E+01  0.30381166311E+02 -0.24178684247E+02  0.38941372091E+02  0.20000001430E+01 0.  0.
         13    1    3    3    0    0  0.21923552166E+01 -0.30381166311E+02  0.24546262591E+02  0.39119711899E+02  0.10566000000E+00 0. -1.
         13    1    4    4    0    0 -0.60023258175E+00  0.62224716978E+01 -0.42678917041E+01  0.75700394197E+01  0.10566000000E+00 0. -1.
        -13    1    4    4    0    0 -0.88729893236E+00  0.20076792027E+02 -0.16291987110E+02  0.25870927419E+02  0.10566000000E+00 0.  1.
         14    1    4    4    0    0 -0.70482370245E+00  0.40819025869E+01 -0.36188054327E+01  0.55004052524E+01  0.00000000000E+00 0. -1.
<mgrwt>
<rscale>  0 0.78060219E+02</rscale>
<asrwt>0</asrwt>
<pdfrwt beam="1">  1        1 0.60329740E-02 0.78060219E+02</pdfrwt>
<pdfrwt beam="2">  1       -2 0.59764235E-02 0.78060219E+02</pdfrwt>
<totfact> 0.13561836E+05</totfact>
</mgrwt>
</event>
<event>
 8    1  0.8577104E-014  0.8055261E+02  0.7818608E-02  0.1327490E+00
          1   -1    0    0  501    0  0.00000000000E+00  0.00000000000E+00  0.25075108632E+02  0.25075109139E+02  0.50400000000E-02 0. -1.
         -2   -1    0    0    0  501 -0.00000000000E+00 -0.00000000000E+00 -0.64692874238E+02  0.64692874288E+02  0.25500000000E-02 0.  1.
        -24    2    1    2    0    0  0.00000000000E+00  0.00000000000E+00 -0.39617765606E+02  0.89767983426E+02  0.80552613222E+02 0.  0.
         66    2    3    3    0    0 -0.39228652859E+02  0.10495495181E+01 -0.98418947766E+01  0.40507427126E+02  0.20000000702E+01 0.  0.
         13    1    3    3    0    0  0.39228652859E+02 -0.10495495181E+01 -0.29775870829E+02  0.49260556300E+02  0.10566000000E+00 0. -1.
         13    1    4    4    0    0 -0.68990172042E+01 -0.26997906721E+00 -0.19205216816E+01  0.71672096834E+01  0.10566000000E+00 0. -1.
        -13    1    4    4    0    0 -0.96158600158E+01  0.78008831095E+00 -0.18642289457E+01  0.98264853948E+01  0.10566000000E+00 0.  1.
        -14    1    4    4    0    0 -0.22713775639E+02  0.53944027437E+00 -0.60571441492E+01  0.23513732048E+02  0.00000000000E+00 0.  1.
<mgrwt>
<rscale>  0 0.80552613E+02</rscale>
<asrwt>0</asrwt>
<pdfrwt beam="1">  1        1 0.38577091E-02 0.80552613E+02</pdfrwt>
<pdfrwt beam="2">  1       -2 0.99527498E-02 0.80552613E+02</pdfrwt>
<totfact> 0.11469064E+05</totfact>
</mgrwt>
</event>
<event>
 8    1  0.8577104E-014  0.7861480E+02  0.7818608E-02  0.1333029E+00
         -2   -1    0    0    0  501 -0.00000000000E+00  0.00000000000E+00  0.18024801670E+03  0.18024801672E+03  0.25500000000E-02 0.  1.
          1   -1    0    0  501    0  0.00000000000E+00 -0.00000000000E+00 -0.85719197414E+01  0.85719212231E+01  0.50400000000E-02 0. -1.
        -24    2    1    2    0    0  0.00000000000E+00  0.00000000000E+00  0.17167609696E+03  0.18881993794E+03  0.78614799479E+02 0.  0.
         66    2    3    3    0    0  0.34813695489E+02 -0.16315999313E+02  0.10523703946E+03  0.11205819778E+03  0.19999970778E+01 0.  0.
         13    1    3    3    0    0 -0.34813695489E+02  0.16315999313E+02  0.66439057499E+02  0.76761740161E+02  0.10566000000E+00 0. -1.
         13    1    4    4    0    0  0.44066476333E+01 -0.23671271244E+01  0.13264768082E+02  0.14176990883E+02  0.10566000000E+00 0. -1.
        -13    1    4    4    0    0  0.20468015560E+02 -0.90415892238E+01  0.59431934915E+02  0.63504771855E+02  0.10566000000E+00 0.  1.
        -14    1    4    4    0    0  0.99390322959E+01 -0.49072829651E+01  0.32540336464E+02  0.34376435043E+02  0.00000000000E+00 0.  1.
<mgrwt>
<rscale>  0 0.78614799E+02</rscale>
<asrwt>0</asrwt>
<pdfrwt beam="1">  1        1 0.13187572E-02 0.78614799E+02</pdfrwt>
<pdfrwt beam="2">  1       -2 0.27730461E-01 0.78614799E+02</pdfrwt>
<totfact> 0.92681811E+04</totfact>
</mgrwt>
</event>
<event>
 8    1  0.8577104E-014  0.7953293E+02  0.7818608E-02  0.1330382E+00
         -2   -1    0    0    0  501 -0.00000000000E+00  0.00000000000E+00  0.16056515705E+03  0.16056515707E+03  0.25500000000E-02 0.  1.
          1   -1    0    0  501    0  0.00000000000E+00 -0.00000000000E+00 -0.98487837148E+01  0.98487850044E+01  0.50400000000E-02 0. -1.
        -24    2    1    2    0    0  0.00000000000E+00  0.00000000000E+00  0.15071637334E+03  0.17041394207E+03  0.79532926905E+02 0.  0.
         66    2    3    3    0    0  0.21442465818E+02 -0.33045589108E+02  0.86657627424E+02  0.95212051197E+02  0.20000006231E+01 0.  0.
         13    1    3    3    0    0 -0.21442465818E+02  0.33045589108E+02  0.64058745911E+02  0.75201890878E+02  0.10566000000E+00 0. -1.
         13    1    4    4    0    0  0.22078249158E+01 -0.30624561718E+01  0.75269125063E+01  0.84213243956E+01  0.10566000000E+00 0. -1.
        -13    1    4    4    0    0  0.19029220120E+02 -0.29732940356E+02  0.78037259754E+02  0.85650359220E+02  0.10566000000E+00 0.  1.
        -14    1    4    4    0    0  0.20542078207E+00 -0.25019258065E+00  0.10934551641E+01  0.11403675816E+01  0.00000000000E+00 0.  1.
<mgrwt>
<rscale>  0 0.79532927E+02</rscale>
<asrwt>0</asrwt>
<pdfrwt beam="1">  1        1 0.15151977E-02 0.79532927E+02</pdfrwt>
<pdfrwt beam="2">  1       -2 0.24702331E-01 0.79532927E+02</pdfrwt>
<totfact> 0.93772242E+04</totfact>
</mgrwt>
</event>
<event>
 8    1  0.8577104E-014  0.8026203E+02  0.7818608E-02  0.1328309E+00
          1   -1    0    0  501    0  0.00000000000E+00  0.00000000000E+00  0.39266310746E+03  0.39266310749E+03  0.50400000000E-02 0. -1.
         -2   -1    0    0    0  501 -0.00000000000E+00 -0.00000000000E+00 -0.41014761692E+01  0.41014769619E+01  0.25500000000E-02 0.  1.
        -24    2    1    2    0    0  0.00000000000E+00  0.00000000000E+00  0.38856163129E+03  0.39676458445E+03  0.80262034399E+02 0.  0.
         66    2    3    3    0    0  0.57367628049E+01  0.37780001786E+02  0.25459145502E+03  0.25745105935E+03  0.20000024109E+01 0.  0.
         13    1    3    3    0    0 -0.57367628049E+01 -0.37780001786E+02  0.13397017627E+03  0.13931352510E+03  0.10566000000E+00 0. -1.
         13    1    4    4    0    0  0.45555917025E+00  0.62913179216E+01  0.45449542696E+02  0.45885295147E+02  0.10566000000E+00 0. -1.
        -13    1    4    4    0    0  0.40164621010E+01  0.25101871850E+02  0.16718173937E+03  0.16910346265E+03  0.10566000000E+00 0.  1.
         14    1    4    4    0    0  0.12647415337E+01  0.63868120148E+01  0.41960172957E+02  0.42462301556E+02  0.00000000000E+00 0. -1.
<mgrwt>
<rscale>  0 0.80262034E+02</rscale>
<asrwt>0</asrwt>
<pdfrwt beam="1">  1        1 0.60409705E-01 0.80262034E+02</pdfrwt>
<pdfrwt beam="2">  1       -2 0.63099643E-03 0.80262034E+02</pdfrwt>
<totfact> 0.18773627E+05</totfact>
</mgrwt>
</event>
<event>
 8    1  0.8577104E-014  0.7966598E+02  0.7818608E-02  0.1330002E+00
         -2   -1    0    0    0  501 -0.00000000000E+00  0.00000000000E+00  0.19029161287E+02  0.19029161457E+02  0.25500000000E-02 0.  1.
          1   -1    0    0  501    0  0.00000000000E+00 -0.00000000000E+00 -0.83380816774E+02  0.83380816926E+02  0.50400000000E-02 0. -1.
        -24    2    1    2    0    0  0.00000000000E+00  0.00000000000E+00 -0.64351655487E+02  0.10240997838E+03  0.79665978363E+02 0.  0.
         66    2    3    3    0    0 -0.27865831935E+02  0.28427637526E+02 -0.31985197894E+02  0.51104677431E+02  0.20000015634E+01 0.  0.
         13    1    3    3    0    0  0.27865831935E+02 -0.28427637526E+02 -0.32366457594E+02  0.51305300953E+02  0.10566000000E+00 0. -1.
         13    1    4    4    0    0 -0.21135040030E+01  0.23270026362E+01 -0.21817702528E+01  0.38279401656E+01  0.10566000000E+00 0. -1.
        -13    1    4    4    0    0 -0.20780959185E+02  0.21555303573E+02 -0.23686322838E+02  0.38177643071E+02  0.10566000000E+00 0.  1.
         14    1    4    4    0    0 -0.49713687461E+01  0.45453313165E+01 -0.61171048027E+01  0.90990941942E+01  0.00000000000E+00 0. -1.
<mgrwt>
<rscale>  0 0.79665978E+02</rscale>
<asrwt>0</asrwt>
<pdfrwt beam="1">  1        1 0.12827818E-01 0.79665978E+02</pdfrwt>
<pdfrwt beam="2">  1       -2 0.29275633E-02 0.79665978E+02</pdfrwt>
<totfact> 0.14427733E+05</totfact>
</mgrwt>
</event>
<event>
 8    1  0.8577104E-014  0.7774856E+02  0.7818608E-02  0.1335565E+00
         -2   -1    0    0    0  501 -0.00000000000E+00  0.00000000000E+00  0.11967705900E+03  0.11967705903E+03  0.25500000000E-02 0.  1.
          1   -1    0    0  501    0  0.00000000000E+00 -0.00000000000E+00 -0.12627395182E+02  0.12627396188E+02  0.50400000000E-02 0. -1.
        -24    2    1    2    0    0  0.00000000000E+00  0.00000000000E+00  0.10704966382E+03  0.13230445521E+03  0.77748558483E+02 0.  0.
         66    2    3    3    0    0 -0.10368586025E+02  0.10293040520E+02  0.11481532866E+03  0.11575842929E+03  0.19999993902E+01 0.  0.
         13    1    3    3    0    0  0.10368586025E+02 -0.10293040520E+02 -0.77656648435E+01  0.16546025922E+02  0.10566000000E+00 0. -1.
         13    1    4    4    0    0 -0.26926992987E+01  0.29562494571E+01  0.38013397164E+02  0.38223285683E+02  0.10566000000E+00 0. -1.
        -13    1    4    4    0    0 -0.36149299147E+01  0.34124483231E+01  0.38229238588E+02  0.38551243416E+02  0.10566000000E+00 0.  1.
        -14    1    4    4    0    0 -0.40609568112E+01  0.39243427398E+01  0.38572692907E+02  0.38983900193E+02  0.00000000000E+00 0.  1.
<mgrwt>
<rscale>  0 0.77748558E+02</rscale>
<asrwt>0</asrwt>
<pdfrwt beam="1">  1        1 0.19426763E-02 0.77748558E+02</pdfrwt>
<pdfrwt beam="2">  1       -2 0.18411855E-01 0.77748558E+02</pdfrwt>
<totfact> 0.10891109E+05</totfact>
</mgrwt>
</event>
<event>
 8    1  0.8577104E-014  0.8131122E+02  0.7818608E-02  0.1325371E+00
          1   -1    0    0  501    0  0.00000000000E+00  0.00000000000E+00  0.54408601621E+02  0.54408601855E+02  0.50400000000E-02 0. -1.
         -2   -1    0    0    0  501 -0.00000000000E+00 -0.00000000000E+00 -0.30378995903E+02  0.30378996010E+02  0.25500000000E-02 0.  1.
        -24    2    1    2    0    0 -0.17763568394E-14  0.00000000000E+00  0.24029605719E+02  0.84787597864E+02  0.81311221862E+02 0.  0.
         66    2    3    3    0    0 -0.12434499588E+02  0.28908700967E+01 -0.28200413889E+02  0.31019949392E+02  0.20000017110E+01 0.  0.
         13    1    3    3    0    0  0.12434499588E+02 -0.28908700967E+01  0.52230019608E+02  0.53767648472E+02  0.10566000000E+00 0. -1.
         13    1    4    4    0    0 -0.10498344038E+01  0.60729717641E+00 -0.30358463204E+01  0.32708544836E+01  0.10566000000E+00 0. -1.
        -13    1    4    4    0    0 -0.99913386607E+01  0.20863005249E+01 -0.23051113012E+02  0.25210007402E+02  0.10566000000E+00 0.  1.
        -14    1    4    4    0    0 -0.13933265235E+01  0.19727239541E+00 -0.21134545573E+01  0.25390875064E+01  0.00000000000E+00 0.  1.
<mgrwt>
<rscale>  0 0.81311222E+02</rscale>
<asrwt>0</asrwt>
<pdfrwt beam="1">  1        1 0.83705540E-02 0.81311222E+02</pdfrwt>
<pdfrwt beam="2">  1       -2 0.46736918E-02 0.81311222E+02</pdfrwt>
<totfact> 0.12744896E+05</totfact>
</mgrwt>
</event>
<event>
 8    1  0.8577104E-014  0.7255918E+02  0.7818608E-02  0.1351601E+00
          1   -1    0    0  501    0  0.00000000000E+00  0.00000000000E+00  0.45438156231E+01  0.45438184182E+01  0.50400000000E-02 0. -1.
         -2   -1    0    0    0  501 -0.00000000000E+00 -0.00000000000E+00 -0.28967023212E+03  0.28967023213E+03  0.25500000000E-02 0.  1.
        -24    2    1    2    0    0  0.35527136788E-14  0.00000000000E+00 -0.28512641650E+03  0.29421405055E+03  0.72559176927E+02 0.  0.
         66    2    3    3    0    0  0.27945284712E+02  0.21628268466E+02 -0.10985907788E+03  0.11541983341E+03  0.20000040246E+01 0.  0.
         13    1    3    3    0    0 -0.27945284712E+02 -0.21628268466E+02 -0.17526733861E+03  0.17879421714E+03  0.10566000000E+00 0. -1.
         13    1    4    4    0    0  0.47470136118E+01  0.33127356734E+01 -0.19391552584E+02  0.20237386974E+02  0.10566000000E+00 0.  1.
        -13    1    4    4    0    0  0.45663500817E+01  0.30078512845E+01 -0.17268753774E+02  0.18114075835E+02  0.10566000000E+00 0.  1.
         14    1    4    4    0    0  0.18631921019E+02  0.15307681508E+02 -0.73198771527E+02  0.77068370600E+02  0.00000000000E+00 0. -1.
<mgrwt>
<rscale>  0 0.72559177E+02</rscale>
<asrwt>0</asrwt>
<pdfrwt beam="1">  1        1 0.69904900E-03 0.72559177E+02</pdfrwt>
<pdfrwt beam="2">  1       -2 0.44564637E-01 0.72559177E+02</pdfrwt>
<totfact> 0.92048734E+04</totfact>
</mgrwt>
</event>
<event>
 8    1  0.8577104E-014  0.7951812E+02  0.7818608E-02  0.1330425E+00
         -2   -1    0    0    0  501 -0.00000000000E+00  0.00000000000E+00  0.58981870994E+02  0.58981871049E+02  0.25500000000E-02 0.  1.
          1   -1    0    0  501    0  0.00000000000E+00 -0.00000000000E+00 -0.26801163720E+02  0.26801164194E+02  0.50400000000E-02 0. -1.
        -24    2    1    2    0    0 -0.17763568394E-14 -0.88817841970E-15  0.32180707274E+02  0.85783035243E+02  0.79518118784E+02 0.  0.
         66    2    3    3    0    0 -0.14416544360E+02 -0.49507854725E+01  0.55685201795E+02  0.57768405943E+02  0.19999995277E+01 0.  0.
         13    1    3    3    0    0  0.14416544360E+02  0.49507854725E+01 -0.23504494522E+02  0.28014629300E+02  0.10566000000E+00 0. -1.
         13    1    4    4    0    0 -0.31596261827E+00 -0.29576939256E-01  0.82029123232E+00  0.88586054935E+00  0.10566000000E+00 0. -1.
        -13    1    4    4    0    0 -0.56309489482E+01 -0.23661206414E+01  0.19951525046E+02  0.20865776492E+02  0.10566000000E+00 0.  1.
        -14    1    4    4    0    0 -0.84696327938E+01 -0.25550878919E+01  0.34913385517E+02  0.36016768901E+02  0.00000000000E+00 0.  1.
<mgrwt>
<rscale>  0 0.79518119E+02</rscale>
<asrwt>0</asrwt>
<pdfrwt beam="1">  1        1 0.41232560E-02 0.79518119E+02</pdfrwt>
<pdfrwt beam="2">  1       -2 0.90741339E-02 0.79518119E+02</pdfrwt>
<totfact> 0.12059425E+05</totfact>
</mgrwt>
</event>
<event>
 8    1  0.8577104E-014  0.7937906E+02  0.7818608E-02  0.1330823E+00
         -2   -1    0    0    0  501 -0.00000000000E+00  0.00000000000E+00  0.18174706373E+03  0.18174706374E+03  0.25500000000E-02 0.  1.
          1   -1    0    0  501    0  0.00000000000E+00 -0.00000000000E+00 -0.86673135556E+01  0.86673150210E+01  0.50400000000E-02 0. -1.
        -24    2    1    2    0    0 -0.35527136788E-14  0.88817841970E-15  0.17307975017E+03  0.19041437876E+03  0.79379063495E+02 0.  0.
         66    2    3    3    0    0 -0.26046035305E+02  0.71315707670E+01  0.15628372818E+03  0.15861229117E+03  0.19999898946E+01 0.  0.
         13    1    3    3    0    0  0.26046035305E+02 -0.71315707670E+01  0.16796021991E+02  0.31802087596E+02  0.10566000000E+00 0. -1.
         13    1    4    4    0    0 -0.13101911057E+02  0.37118349906E+01  0.83494886640E+02  0.84598138581E+02  0.10566000000E+00 0. -1.
        -13    1    4    4    0    0 -0.48675808981E+01  0.16701890661E+01  0.27542376492E+02  0.28019217373E+02  0.10566000000E+00 0.  1.
        -14    1    4    4    0    0 -0.80765433495E+01  0.17495467104E+01  0.45246465046E+02  0.45994935214E+02  0.00000000000E+00 0.  1.
<mgrwt>
<rscale>  0 0.79379063E+02</rscale>
<asrwt>0</asrwt>
<pdfrwt beam="1">  1        1 0.13334330E-02 0.79379063E+02</pdfrwt>
<pdfrwt beam="2">  1       -2 0.27961086E-01 0.79379063E+02</pdfrwt>
<totfact> 0.90118927E+04</totfact>
</mgrwt>
</event>
<event>
 8    1  0.8577104E-014  0.8143960E+02  0.7818608E-02  0.1325015E+00
          1   -1    0    0  501    0  0.00000000000E+00  0.00000000000E+00  0.81624395945E+02  0.81624396101E+02  0.50400000000E-02 0. -1.
         -2   -1    0    0    0  501 -0.00000000000E+00 -0.00000000000E+00 -0.20313803477E+02  0.20313803637E+02  0.25500000000E-02 0.  1.
        -24    2    1    2    0    0  0.35527136788E-14  0.00000000000E+00  0.61310592468E+02  0.10193819974E+03  0.81439596125E+02 0.  0.
         66    2    3    3    0    0 -0.24214954998E+02  0.11332964587E+01 -0.10240852927E+02  0.26391731200E+02  0.20000001615E+01 0.  0.
         13    1    3    3    0    0  0.24214954998E+02 -0.11332964587E+01  0.71551445395E+02  0.75546468538E+02  0.10566000000E+00 0. -1.
         13    1    4    4    0    0 -0.21200955899E+02  0.73919011161E+00 -0.90947486207E+01  0.23081433005E+02  0.10566000000E+00 0. -1.
        -13    1    4    4    0    0 -0.28548045328E+01  0.50858750684E+00 -0.11286019320E+01  0.31134348442E+01  0.10566000000E+00 0.  1.
         14    1    4    4    0    0 -0.15919456596E+00 -0.11448115974E+00 -0.17502374504E-01  0.19686335078E+00  0.00000000000E+00 0. -1.
<mgrwt>
<rscale>  0 0.81439596E+02</rscale>
<asrwt>0</asrwt>
<pdfrwt beam="1">  1        1 0.12557600E-01 0.81439596E+02</pdfrwt>
<pdfrwt beam="2">  1       -2 0.31252005E-02 0.81439596E+02</pdfrwt>
<totfact> 0.13541020E+05</totfact>
</mgrwt>
</event>
<event>
 8    1  0.8577104E-014  0.8001393E+02  0.7818608E-02  0.1329012E+00
          1   -1    0    0  501    0  0.00000000000E+00  0.00000000000E+00  0.30875615905E+03  0.30875615909E+03  0.50400000000E-02 0. -1.
         -2   -1    0    0    0  501 -0.00000000000E+00 -0.00000000000E+00 -0.51838870776E+01  0.51838877047E+01  0.25500000000E-02 0.  1.
        -24    2    1    2    0    0  0.00000000000E+00  0.00000000000E+00  0.30357227197E+03  0.31394004680E+03  0.80013927986E+02 0.  0.
         66    2    3    3    0    0 -0.39454815863E+02  0.51815704141E+01  0.13667413980E+03  0.14236344917E+03  0.20000005765E+01 0.  0.
         13    1    3    3    0    0  0.39454815863E+02 -0.51815704141E+01  0.16689813217E+03  0.17157659763E+03  0.10566000000E+00 0. -1.
         13    1    4    4    0    0 -0.46949876719E+01  0.40448927822E-01  0.15695488857E+02  0.16383042448E+02  0.10566000000E+00 0. -1.
        -13    1    4    4    0    0 -0.14812293914E+02  0.24918679479E+01  0.52426180773E+02  0.54535576015E+02  0.10566000000E+00 0.  1.
        -14    1    4    4    0    0 -0.19947534277E+02  0.26492535383E+01  0.68552470172E+02  0.71444830707E+02  0.00000000000E+00 0.  1.
<mgrwt>
<rscale>  0 0.80013928E+02</rscale>
<asrwt>0</asrwt>
<pdfrwt beam="1">  1        1 0.47500942E-01 0.80013928E+02</pdfrwt>
<pdfrwt beam="2">  1       -2 0.79752123E-03 0.80013928E+02</pdfrwt>
<totfact> 0.18131927E+05</totfact>
</mgrwt>
</event>
<event>
 8    1  0.8577104E-014  0.8080164E+02  0.7818608E-02  0.1326792E+00
          1   -1    0    0  501    0  0.00000000000E+00  0.00000000000E+00  0.44996550668E+01  0.44996578894E+01  0.50400000000E-02 0. -1.
         -2   -1    0    0    0  501 -0.00000000000E+00 -0.00000000000E+00 -0.36274463266E+03  0.36274463267E+03  0.25500000000E-02 0.  1.
        -24    2    1    2    0    0  0.22204460493E-15  0.00000000000E+00 -0.35824497759E+03  0.36724429056E+03  0.80801639692E+02 0.  0.
         66    2    3    3    0    0 -0.18418315108E+01 -0.19213811452E+02 -0.34041380638E+03  0.34096645342E+03  0.19999724439E+01 0.  0.
         13    1    3    3    0    0  0.18418315108E+01  0.19213811452E+02 -0.17831171214E+02  0.26277837140E+02  0.10566000000E+00 0. -1.
         13    1    4    4    0    0 -0.69847375138E+00 -0.71412948625E+01 -0.12851913547E+03  0.12871932762E+03  0.10566000000E+00 0.  1.
        -13    1    4    4    0    0 -0.12743507417E+01 -0.95289310108E+01 -0.17580198881E+03  0.17606468961E+03  0.10566000000E+00 0.  1.
        -14    1    4    4    0    0  0.13099298219E+00 -0.25435855787E+01 -0.36092682103E+02  0.36182436183E+02  0.00000000000E+00 0.  1.
<mgrwt>
<rscale>  0 0.80801640E+02</rscale>
<asrwt>0</asrwt>
<pdfrwt beam="1">  1        1 0.69225513E-03 0.80801640E+02</pdfrwt>
<pdfrwt beam="2">  1       -2 0.55806844E-01 0.80801640E+02</pdfrwt>
<totfact> 0.61317541E+04</totfact>
</mgrwt>
</event>
<event>
 8    1  0.8577104E-014  0.8012788E+02  0.7818608E-02  0.1328689E+00
          1   -1    0    0  501    0  0.00000000000E+00  0.00000000000E+00  0.16398986610E+03  0.16398986618E+03  0.50400000000E-02 0. -1.
         -2   -1    0    0    0  501 -0.00000000000E+00 -0.00000000000E+00 -0.97879167246E+01  0.97879170567E+01  0.25500000000E-02 0.  1.
        -24    2    1    2    0    0  0.00000000000E+00  0.00000000000E+00  0.15420194938E+03  0.17377778324E+03  0.80127877513E+02 0.  0.
         66    2    3    3    0    0 -0.52348273374E+01 -0.24201053143E+02  0.89098896412E+01  0.26390917550E+02  0.20000013070E+01 0.  0.
         13    1    3    3    0    0  0.52348273374E+01  0.24201053143E+02  0.14529205974E+03  0.14738686569E+03  0.10566000000E+00 0. -1.
         13    1    4    4    0    0  0.50659074378E-01 -0.51741508898E+00  0.29938411706E+00  0.60916303341E+00  0.10566000000E+00 0. -1.
        -13    1    4    4    0    0 -0.39316042324E+01 -0.15789267142E+02  0.62599031517E+01  0.17434334523E+02  0.10566000000E+00 0.  1.
        -14    1    4    4    0    0 -0.13538821793E+01 -0.78943709112E+01  0.23506023724E+01  0.83474199938E+01  0.00000000000E+00 0.  1.
<mgrwt>
<rscale>  0 0.80127878E+02</rscale>
<asrwt>0</asrwt>
<pdfrwt beam="1">  1        1 0.25229207E-01 0.80127878E+02</pdfrwt>
<pdfrwt beam="2">  1       -2 0.15058336E-02 0.80127878E+02</pdfrwt>
<totfact> 0.15984446E+05</totfact>
</mgrwt>
</event>
<event>
 8    1  0.8577104E-014  0.8009853E+02  0.7818608E-02  0.1328772E+00
          1   -1    0    0  501    0  0.00000000000E+00  0.00000000000E+00  0.16833903593E+03  0.16833903601E+03  0.50400000000E-02 0. -1.
         -2   -1    0    0    0  501 -0.00000000000E+00 -0.00000000000E+00 -0.95280552868E+01  0.95280556281E+01  0.25500000000E-02 0.  1.
        -24    2    1    2    0    0  0.00000000000E+00  0.00000000000E+00  0.15881098065E+03  0.17786709164E+03  0.80098531281E+02 0.  0.
         66    2    3    3    0    0 -0.22394316855E+02 -0.32127367734E+02  0.61107574092E+02  0.72607222734E+02  0.19999992249E+01 0.  0.
         13    1    3    3    0    0  0.22394316855E+02  0.32127367734E+02  0.97703406555E+02  0.10525986890E+03  0.10566000000E+00 0. -1.
         13    1    4    4    0    0 -0.30276384476E+01 -0.36858740708E+01  0.76936344090E+01  0.90529242066E+01  0.10566000000E+00 0. -1.
        -13    1    4    4    0    0 -0.32313623902E+01 -0.40760877943E+01  0.74485977403E+01  0.90856462036E+01  0.10566000000E+00 0. -1.
        -14    1    4    4    0    0 -0.16135316017E+02 -0.24365405869E+02  0.45965341942E+02  0.54468652324E+02  0.00000000000E+00 0.  1.
<mgrwt>
<rscale>  0 0.80098531E+02</rscale>
<asrwt>0</asrwt>
<pdfrwt beam="1">  1        1 0.25898312E-01 0.80098531E+02</pdfrwt>
<pdfrwt beam="2">  1       -2 0.14658548E-02 0.80098531E+02</pdfrwt>
<totfact> 0.16079084E+05</totfact>
</mgrwt>
</event>
<event>
 8    1  0.8577104E-014  0.8029766E+02  0.7818608E-02  0.1328209E+00
          1   -1    0    0  501    0  0.00000000000E+00  0.00000000000E+00  0.38613668715E+02  0.38613669044E+02  0.50400000000E-02 0. -1.
         -2   -1    0    0    0  501 -0.00000000000E+00 -0.00000000000E+00 -0.41745026753E+02  0.41745026831E+02  0.25500000000E-02 0.  1.
        -24    2    1    2    0    0  0.00000000000E+00 -0.17763568394E-14 -0.31313580383E+01  0.80358695874E+02  0.80297662478E+02 0.  0.
         66    2    3    3    0    0  0.36059071203E+02  0.11818068671E+02 -0.14614975039E+02  0.40712662195E+02  0.20000011215E+01 0.  0.
         13    1    3    3    0    0 -0.36059071203E+02 -0.11818068671E+02  0.11483617000E+02  0.39646033680E+02  0.10566000000E+00 0. -1.
         13    1    4    4    0    0  0.43795533438E+01  0.16658553799E+01 -0.22036327741E+01  0.51790658498E+01  0.10566000000E+00 0. -1.
        -13    1    4    4    0    0  0.10919334643E+02  0.36071803937E+01 -0.49853313545E+01  0.12534285468E+02  0.10566000000E+00 0.  1.
        -14    1    4    4    0    0  0.20760183216E+02  0.65450328972E+01 -0.74260109102E+01  0.22999310877E+02  0.00000000000E+00 0.  1.
<mgrwt>
<rscale>  0 0.80297662E+02</rscale>
<asrwt>0</asrwt>
<pdfrwt beam="1">  1        1 0.59405645E-02 0.80297662E+02</pdfrwt>
<pdfrwt beam="2">  1       -2 0.64223118E-02 0.80297662E+02</pdfrwt>
<totfact> 0.12492914E+05</totfact>
</mgrwt>
</event>
<event>
 8    1  0.8577104E-014  0.8541650E+02  0.7818608E-02  0.1314347E+00
          1   -1    0    0  501    0  0.00000000000E+00  0.00000000000E+00  0.40513922045E+02  0.40513922358E+02  0.50400000000E-02 0. -1.
         -2   -1    0    0    0  501 -0.00000000000E+00 -0.00000000000E+00 -0.45021431027E+02  0.45021431100E+02  0.25500000000E-02 0.  1.
        -24    2    1    2    0    0  0.00000000000E+00  0.00000000000E+00 -0.45075089828E+01  0.85535353458E+02  0.85416503405E+02 0.  0.
         66    2    3    3    0    0 -0.27521252418E+02  0.23558468558E+02 -0.24860029989E+02  0.43982290385E+02  0.20000002610E+01 0.  0.
         13    1    3    3    0    0  0.27521252418E+02 -0.23558468558E+02  0.20352521006E+02  0.41553063073E+02  0.10566000000E+00 0. -1.
         13    1    4    4    0    0 -0.84163331150E+01  0.77970978802E+01 -0.75155272890E+01  0.13715819805E+02  0.10566000000E+00 0. -1.
        -13    1    4    4    0    0 -0.93949343593E+01  0.79510958969E+01 -0.78255494161E+01  0.14585441552E+02  0.10566000000E+00 0.  1.
         14    1    4    4    0    0 -0.97099849434E+01  0.78102747806E+01 -0.95189532834E+01  0.15681029027E+02  0.00000000000E+00 0. -1.
<mgrwt>
<rscale>  0 0.85416503E+02</rscale>
<asrwt>0</asrwt>
<pdfrwt beam="1">  1        1 0.62329111E-02 0.85416503E+02</pdfrwt>
<pdfrwt beam="2">  1       -2 0.69263740E-02 0.85416503E+02</pdfrwt>
<totfact> 0.10568330E+05</totfact>
</mgrwt>
</event>
<event>
 8    1  0.8577104E-014  0.8013896E+02  0.7818608E-02  0.1328658E+00
          1   -1    0    0  501    0  0.00000000000E+00  0.00000000000E+00  0.36126969085E+02  0.36126969437E+02  0.50400000000E-02 0. -1.
         -2   -1    0    0    0  501 -0.00000000000E+00 -0.00000000000E+00 -0.44442232070E+02  0.44442232143E+02  0.25500000000E-02 0.  1.
        -24    2    1    2    0    0  0.00000000000E+00  0.00000000000E+00 -0.83152629847E+01  0.80569201580E+02  0.80138958345E+02 0.  0.
         66    2    3    3    0    0  0.12371605510E+02 -0.27023147027E+02 -0.31141791079E+02  0.43094294682E+02  0.19999961153E+01 0.  0.
         13    1    3    3    0    0 -0.12371605510E+02  0.27023147027E+02  0.22826528094E+02  0.37474906897E+02  0.10566000000E+00 0. -1.
         13    1    4    4    0    0  0.67415020095E+01 -0.13638228162E+02 -0.15652338332E+02  0.21827871542E+02  0.10566000000E+00 0. -1.
        -13    1    4    4    0    0  0.46681939809E+01 -0.98660613497E+01 -0.11921704378E+02  0.16163830020E+02  0.10566000000E+00 0.  1.
         14    1    4    4    0    0  0.96190951964E+00 -0.35188575149E+01 -0.35677483679E+01  0.51025931203E+01  0.00000000000E+00 0. -1.
<mgrwt>
<rscale>  0 0.80138958E+02</rscale>
<asrwt>0</asrwt>
<pdfrwt beam="1">  1        1 0.55579953E-02 0.80138958E+02</pdfrwt>
<pdfrwt beam="2">  1       -2 0.68372665E-02 0.80138958E+02</pdfrwt>
<totfact> 0.12425254E+05</totfact>
</mgrwt>
</event>
<event>
 8    1  0.8577104E-014  0.8185216E+02  0.7818608E-02  0.1323876E+00
          1   -1    0    0  501    0  0.00000000000E+00  0.00000000000E+00  0.50301846171E+02  0.50301846424E+02  0.50400000000E-02 0. -1.
         -2   -1    0    0    0  501 -0.00000000000E+00 -0.00000000000E+00 -0.33297866796E+02  0.33297866894E+02  0.25500000000E-02 0.  1.
        -24    2    1    2    0    0 -0.35527136788E-14  0.35527136788E-14  0.17003979375E+02  0.83599713317E+02  0.81852164004E+02 0.  0.
         66    2    3    3    0    0 -0.27185451432E+02  0.30176953220E+02  0.13430967938E+02  0.42826255653E+02  0.19999995706E+01 0.  0.
         13    1    3    3    0    0  0.27185451432E+02 -0.30176953220E+02  0.35730114374E+01  0.40773457665E+02  0.10566000000E+00 0. -1.
         13    1    4    4    0    0 -0.20805890346E+01  0.19255907984E+01  0.77860256234E+00  0.29417913998E+01  0.10566000000E+00 0. -1.
        -13    1    4    4    0    0 -0.21832505396E+02  0.23914056937E+02  0.11150829441E+02  0.34247519214E+02  0.10566000000E+00 0.  1.
        -14    1    4    4    0    0 -0.32723570015E+01  0.43373054841E+01  0.15015359348E+01  0.56369450389E+01  0.00000000000E+00 0.  1.
<mgrwt>
<rscale>  0 0.81852164E+02</rscale>
<asrwt>0</asrwt>
<pdfrwt beam="1">  1        1 0.77387456E-02 0.81852164E+02</pdfrwt>
<pdfrwt beam="2">  1       -2 0.51227488E-02 0.81852164E+02</pdfrwt>
<totfact> 0.12355945E+05</totfact>
</mgrwt>
</event>
<event>
 8    1  0.8577104E-014  0.8108756E+02  0.7818608E-02  0.1325993E+00
          1   -1    0    0  501    0  0.00000000000E+00  0.00000000000E+00  0.10796112851E+03  0.10796112863E+03  0.50400000000E-02 0. -1.
         -2   -1    0    0    0  501 -0.00000000000E+00 -0.00000000000E+00 -0.15225831659E+02  0.15225831872E+02  0.25500000000E-02 0.  1.
        -24    2    1    2    0    0  0.00000000000E+00  0.00000000000E+00  0.92735296851E+02  0.12318696050E+03  0.81087557338E+02 0.  0.
         66    2    3    3    0    0  0.16397173804E+02  0.33001819088E+02  0.20802787381E+02  0.42364411329E+02  0.20000031303E+01 0.  0.
         13    1    3    3    0    0 -0.16397173804E+02 -0.33001819088E+02  0.71932509470E+02  0.80822549171E+02  0.10566000000E+00 0. -1.
         13    1    4    4    0    0  0.23762454395E+01  0.51681788562E+01  0.38720887228E+01  0.68819219838E+01  0.10566000000E+00 0. -1.
        -13    1    4    4    0    0  0.82859050700E+01  0.16824982502E+02  0.10721247912E+02  0.21603068760E+02  0.10566000000E+00 0.  1.
        -14    1    4    4    0    0  0.57350232944E+01  0.11008657730E+02  0.62094507463E+01  0.13879420585E+02  0.00000000000E+00 0.  1.
<mgrwt>
<rscale>  0 0.81087557E+02</rscale>
<asrwt>0</asrwt>
<pdfrwt beam="1">  1        1 0.16609404E-01 0.81087557E+02</pdfrwt>
<pdfrwt beam="2">  1       -2 0.23424358E-02 0.81087557E+02</pdfrwt>
<totfact> 0.14358484E+05</totfact>
</mgrwt>
</event>
<event>
 8    1  0.8577104E-014  0.8061884E+02  0.7818608E-02  0.1327304E+00
         -2   -1    0    0    0  501 -0.00000000000E+00  0.00000000000E+00  0.15997360440E+03  0.15997360442E+03  0.25500000000E-02 0.  1.
          1   -1    0    0  501    0  0.00000000000E+00 -0.00000000000E+00 -0.10156983043E+02  0.10156984294E+02  0.50400000000E-02 0. -1.
        -24    2    1    2    0    0  0.00000000000E+00 -0.17763568394E-14  0.14981662135E+03  0.17013058871E+03  0.80618838873E+02 0.  0.
         66    2    3    3    0    0 -0.54256729858E+01  0.12128322169E+02  0.15521011367E+03  0.15579060791E+03  0.19999999320E+01 0.  0.
         13    1    3    3    0    0  0.54256729858E+01 -0.12128322169E+02 -0.53934923203E+01  0.14339980803E+02  0.10566000000E+00 0. -1.
         13    1    4    4    0    0 -0.45091250543E+01  0.87152749640E+01  0.11024795558E+03  0.11068383396E+03  0.10566000000E+00 0. -1.
        -13    1    4    4    0    0 -0.88347316495E+00  0.23815306453E+01  0.28964220314E+02  0.29075581430E+02  0.10566000000E+00 0.  1.
         14    1    4    4    0    0 -0.33074766566E-01  0.10315165594E+01  0.15997937777E+02  0.16031192515E+02  0.00000000000E+00 0. -1.
<mgrwt>
<rscale>  0 0.80618839E+02</rscale>
<asrwt>0</asrwt>
<pdfrwt beam="1">  1        1 0.15626130E-02 0.80618839E+02</pdfrwt>
<pdfrwt beam="2">  1       -2 0.24611322E-01 0.80618839E+02</pdfrwt>
<totfact> 0.90668901E+04</totfact>
</mgrwt>
</event>
<event>
 8    1  0.8577104E-014  0.7869820E+02  0.7818608E-02  0.1332787E+00
         -2   -1    0    0    0  501 -0.00000000000E+00  0.00000000000E+00  0.12674785784E+02  0.12674786041E+02  0.25500000000E-02 0.  1.
          1   -1    0    0  501    0  0.00000000000E+00 -0.00000000000E+00 -0.12215998729E+03  0.12215998740E+03  0.50400000000E-02 0. -1.
        -24    2    1    2    0    0  0.00000000000E+00  0.00000000000E+00 -0.10948520151E+03  0.13483477344E+03  0.78698200605E+02 0.  0.
         66    2    3    3    0    0  0.34461363635E+02 -0.94193230908E+01 -0.82932444690E+02  0.90322198924E+02  0.20000013156E+01 0.  0.
         13    1    3    3    0    0 -0.34461363635E+02  0.94193230908E+01 -0.26552756820E+02  0.44512574514E+02  0.10566000000E+00 0. -1.
         13    1    4    4    0    0  0.72775421922E+01 -0.19255584088E+01 -0.18236025103E+02  0.19729018504E+02  0.10566000000E+00 0. -1.
        -13    1    4    4    0    0  0.24990622516E+02 -0.70501627776E+01 -0.60515315831E+02  0.65850972834E+02  0.10566000000E+00 0.  1.
        -14    1    4    4    0    0  0.21931989269E+01 -0.44360190446E+00 -0.41811037558E+01  0.47422075871E+01  0.00000000000E+00 0.  1.
<mgrwt>
<rscale>  0 0.78698201E+02</rscale>
<asrwt>0</asrwt>
<pdfrwt beam="1">  1        1 0.18793843E-01 0.78698201E+02</pdfrwt>
<pdfrwt beam="2">  1       -2 0.19499672E-02 0.78698201E+02</pdfrwt>
<totfact> 0.15898810E+05</totfact>
</mgrwt>
</event>
<event>
 8    1  0.8577104E-014  0.8037620E+02  0.7818608E-02  0.1327987E+00
          1   -1    0    0  501    0  0.00000000000E+00  0.00000000000E+00  0.30438344066E+02  0.30438344483E+02  0.50400000000E-02 0. -1.
         -2   -1    0    0    0  501 -0.00000000000E+00 -0.00000000000E+00 -0.53060813589E+02  0.53060813651E+02  0.25500000000E-02 0.  1.
        -24    2    1    2    0    0  0.00000000000E+00  0.00000000000E+00 -0.22622469523E+02  0.83499158134E+02  0.80376198478E+02 0.  0.
         66    2    3    3    0    0  0.38446767470E+02 -0.11358095059E+02 -0.87909820547E+01  0.41090651182E+02  0.19999991887E+01 0.  0.
         13    1    3    3    0    0 -0.38446767470E+02  0.11358095059E+02 -0.13831487469E+02  0.42408506952E+02  0.10566000000E+00 0. -1.
         13    1    4    4    0    0  0.17586682419E+02 -0.60708802662E+01 -0.36066813917E+01  0.18951683313E+02  0.10566000000E+00 0. -1.
        -13    1    4    4    0    0  0.18627063466E+02 -0.47283300390E+01 -0.45075548289E+01  0.19739650779E+02  0.10566000000E+00 0.  1.
        -14    1    4    4    0    0  0.22330215854E+01 -0.55888475413E+00 -0.67674583409E+00  0.23993170889E+01  0.00000000000E+00 0.  1.
<mgrwt>
<rscale>  0 0.80376198E+02</rscale>
<asrwt>0</asrwt>
<pdfrwt beam="1">  1        1 0.46828222E-02 0.80376198E+02</pdfrwt>
<pdfrwt beam="2">  1       -2 0.81632021E-02 0.80376198E+02</pdfrwt>
<totfact> 0.11963522E+05</totfact>
</mgrwt>
</event>
<event>
 8    1  0.8577104E-014  0.7992799E+02  0.7818608E-02  0.1329256E+00
         -2   -1    0    0    0  501 -0.00000000000E+00  0.00000000000E+00  0.24638082866E+02  0.24638082998E+02  0.25500000000E-02 0.  1.
          1   -1    0    0  501    0  0.00000000000E+00 -0.00000000000E+00 -0.64823268914E+02  0.64823269110E+02  0.50400000000E-02 0. -1.
        -24    2    1    2    0    0  0.71054273576E-14  0.00000000000E+00 -0.40185186048E+02  0.89461352108E+02  0.79927994741E+02 0.  0.
         66    2    3    3    0    0  0.33099885981E+02  0.70769159380E+01  0.36232379490E+01  0.34100044607E+02  0.19999994636E+01 0.  0.
         13    1    3    3    0    0 -0.33099885981E+02 -0.70769159380E+01 -0.43808423997E+02  0.55361307501E+02  0.10566000000E+00 0. -1.
         13    1    4    4    0    0  0.86654986592E+01  0.17203430077E+01  0.90335417073E+00  0.88813095808E+01  0.10566000000E+00 0. -1.
        -13    1    4    4    0    0  0.21966097486E+01  0.82592317467E+00 -0.89873184015E-01  0.23508476563E+01  0.10566000000E+00 0.  1.
        -14    1    4    4    0    0  0.22237777573E+02  0.45306497557E+01  0.28097569623E+01  0.22867887370E+02  0.00000000000E+00 0.  1.
<mgrwt>
<rscale>  0 0.79927995E+02</rscale>
<asrwt>0</asrwt>
<pdfrwt beam="1">  1        1 0.99728106E-02 0.79927995E+02</pdfrwt>
<pdfrwt beam="2">  1       -2 0.37904743E-02 0.79927995E+02</pdfrwt>
<totfact> 0.13737547E+05</totfact>
</mgrwt>
</event>
<event>
 8    1  0.8577104E-014  0.8072158E+02  0.7818608E-02  0.1327016E+00
          1   -1    0    0  501    0  0.00000000000E+00  0.00000000000E+00  0.61470274876E+01  0.61470295538E+01  0.50400000000E-02 0. -1.
         -2   -1    0    0    0  501 -0.00000000000E+00 -0.00000000000E+00 -0.26500499661E+03  0.26500499662E+03  0.25500000000E-02 0.  1.
        -24    2    1    2    0    0  0.00000000000E+00  0.00000000000E+00 -0.25885796912E+03  0.27115202617E+03  0.80721577792E+02 0.  0.
         66    2    3    3    0    0 -0.37882451708E+02 -0.10930970513E+02 -0.15809455951E+03  0.16294924365E+03  0.19999996400E+01 0.  0.
         13    1    3    3    0    0  0.37882451708E+02  0.10930970513E+02 -0.10076340962E+03  0.10820278252E+03  0.10566000000E+00 0. -1.
         13    1    4    4    0    0 -0.11681013641E+02 -0.42934955008E+01 -0.49390297843E+02  0.50934201362E+02  0.10566000000E+00 0.  1.
        -13    1    4    4    0    0 -0.60431201956E+01 -0.16283109451E+01 -0.24671119607E+02  0.25452819194E+02  0.10566000000E+00 0.  1.
         14    1    4    4    0    0 -0.20158317871E+02 -0.50091640672E+01 -0.84033142055E+02  0.86562223098E+02  0.00000000000E+00 0. -1.
<mgrwt>
<rscale>  0 0.80721578E+02</rscale>
<asrwt>0</asrwt>
<pdfrwt beam="1">  1        1 0.94569691E-03 0.80721578E+02</pdfrwt>
<pdfrwt beam="2">  1       -2 0.40769991E-01 0.80721578E+02</pdfrwt>
<totfact> 0.73237180E+04</totfact>
</mgrwt>
</event>
<event>
 8    1  0.8577104E-014  0.7896165E+02  0.7818608E-02  0.1332024E+00
         -2   -1    0    0    0  501 -0.00000000000E+00  0.00000000000E+00  0.19278478390E+03  0.19278478392E+03  0.25500000000E-02 0.  1.
          1   -1    0    0  501    0  0.00000000000E+00 -0.00000000000E+00 -0.80853650068E+01  0.80853665776E+01  0.50400000000E-02 0. -1.
        -24    2    1    2    0    0  0.00000000000E+00 -0.71054273576E-14  0.18469941889E+03  0.20087015049E+03  0.78961649047E+02 0.  0.
         66    2    3    3    0    0 -0.13828039619E+02 -0.36931681256E+02  0.89224546718E+02  0.97571427652E+02  0.19999991888E+01 0.  0.
         13    1    3    3    0    0  0.13828039619E+02  0.36931681256E+02  0.95474872174E+02  0.10329872284E+03  0.10566000000E+00 0. -1.
         13    1    4    4    0    0 -0.24345499551E+01 -0.60934975068E+01  0.15869792379E+02  0.17173212266E+02  0.10566000000E+00 0. -1.
        -13    1    4    4    0    0 -0.90641535723E+01 -0.22698898561E+02  0.54617998270E+02  0.59837578284E+02  0.10566000000E+00 0.  1.
         14    1    4    4    0    0 -0.23293360919E+01 -0.81392851880E+01  0.18736756070E+02  0.20560637102E+02  0.00000000000E+00 0. -1.
<mgrwt>
<rscale>  0 0.78961649E+02</rscale>
<asrwt>0</asrwt>
<pdfrwt beam="1">  1        1 0.12439025E-02 0.78961649E+02</pdfrwt>
<pdfrwt beam="2">  1       -2 0.29659196E-01 0.78961649E+02</pdfrwt>
<totfact> 0.89293792E+04</totfact>
</mgrwt>
</event>
<event>
 8    1  0.8577104E-014  0.7908666E+02  0.7818608E-02  0.1331664E+00
         -2   -1    0    0    0  501 -0.00000000000E+00  0.00000000000E+00  0.57638500009E+03  0.57638500010E+03  0.25500000000E-02 0.  1.
          1   -1    0    0  501    0  0.00000000000E+00 -0.00000000000E+00 -0.27128978873E+01  0.27129025689E+01  0.50400000000E-02 0. -1.
        -24    2    1    2    0    0  0.35527136788E-14  0.17763568394E-14  0.57367210220E+03  0.57909790267E+03  0.79086661485E+02 0.  0.
         66    2    3    3    0    0 -0.21289569711E+02 -0.13858681387E+02  0.50867630888E+03  0.50931414279E+03  0.20000009812E+01 0.  0.
         13    1    3    3    0    0  0.21289569711E+02  0.13858681387E+02  0.64995793323E+02  0.69783759872E+02  0.10566000000E+00 0. -1.
         13    1    4    4    0    0 -0.85766257617E+01 -0.60067836914E+01  0.22255604079E+03  0.22280224958E+03  0.10566000000E+00 0. -1.
        -13    1    4    4    0    0 -0.75604706096E+01 -0.48829993448E+01  0.18071426687E+03  0.18093828178E+03  0.10566000000E+00 0.  1.
        -14    1    4    4    0    0 -0.51524733399E+01 -0.29688983505E+01  0.10540600122E+03  0.10557361144E+03  0.00000000000E+00 0.  1.
<mgrwt>
<rscale>  0 0.79086661E+02</rscale>
<asrwt>0</asrwt>
<pdfrwt beam="1">  1        1 0.41736946E-03 0.79086661E+02</pdfrwt>
<pdfrwt beam="2">  1       -2 0.88674575E-01 0.79086661E+02</pdfrwt>
<totfact> 0.46320093E+04</totfact>
</mgrwt>
</event>
<event>
 8    1  0.8577104E-014  0.8238784E+02  0.7818608E-02  0.1322408E+00
          1   -1    0    0  501    0  0.00000000000E+00  0.00000000000E+00  0.10529557354E+03  0.10529557367E+03  0.50400000000E-02 0. -1.
         -2   -1    0    0    0  501 -0.00000000000E+00 -0.00000000000E+00 -0.16115957550E+02  0.16115957752E+02  0.25500000000E-02 0.  1.
        -24    2    1    2    0    0  0.00000000000E+00  0.00000000000E+00  0.89179615995E+02  0.12141153142E+03  0.82387839226E+02 0.  0.
         66    2    3    3    0    0  0.34569974657E+02 -0.16573421452E+02  0.22502660052E+02  0.44498664717E+02  0.20000014430E+01 0.  0.
         13    1    3    3    0    0 -0.34569974657E+02  0.16573421452E+02  0.66676955943E+02  0.76912866701E+02  0.10566000000E+00 0. -1.
         13    1    4    4    0    0  0.10940864597E+02 -0.51232328484E+01  0.64864850550E+01  0.13712610450E+02  0.10566000000E+00 0. -1.
        -13    1    4    4    0    0  0.46318240922E+01 -0.18760800354E+01  0.25838168795E+01  0.56267881089E+01  0.10566000000E+00 0.  1.
        -14    1    4    4    0    0  0.18997285967E+02 -0.95741085681E+01  0.13432358117E+02  0.25159266158E+02  0.00000000000E+00 0.  1.
<mgrwt>
<rscale>  0 0.82387839E+02</rscale>
<asrwt>0</asrwt>
<pdfrwt beam="1">  1        1 0.16199319E-01 0.82387839E+02</pdfrwt>
<pdfrwt beam="2">  1       -2 0.24793782E-02 0.82387839E+02</pdfrwt>
<totfact> 0.13694623E+05</totfact>
</mgrwt>
</event>
<event>
 8    1  0.8577104E-014  0.7961526E+02  0.7818608E-02  0.1330147E+00
         -2   -1    0    0    0  501 -0.00000000000E+00  0.00000000000E+00  0.23289841782E+03  0.23289841784E+03  0.25500000000E-02 0.  1.
          1   -1    0    0  501    0  0.00000000000E+00 -0.00000000000E+00 -0.68040278884E+01  0.68040297551E+01  0.50400000000E-02 0. -1.
        -24    2    1    2    0    0  0.35527136788E-14  0.00000000000E+00  0.22609438993E+03  0.23970244759E+03  0.79615263748E+02 0.  0.
         66    2    3    3    0    0 -0.28277568876E+02 -0.19336277831E+02  0.17401686708E+03  0.17736792993E+03  0.19999989437E+01 0.  0.
         13    1    3    3    0    0  0.28277568876E+02  0.19336277831E+02  0.52077522850E+02  0.62334517662E+02  0.10566000000E+00 0. -1.
         13    1    4    4    0    0 -0.10557204413E+02 -0.71019090688E+01  0.63984229422E+02  0.65237140160E+02  0.10566000000E+00 0. -1.
        -13    1    4    4    0    0 -0.17142092190E+02 -0.11453929980E+02  0.10538253332E+03  0.10738032096E+03  0.10566000000E+00 0.  1.
         14    1    4    4    0    0 -0.57827227393E+00 -0.78043878228E+00  0.46501043433E+01  0.47504688105E+01  0.00000000000E+00 0. -1.
<mgrwt>
<rscale>  0 0.79615264E+02</rscale>
<asrwt>0</asrwt>
<pdfrwt beam="1">  1        1 0.10467736E-02 0.79615264E+02</pdfrwt>
<pdfrwt beam="2">  1       -2 0.35830530E-01 0.79615264E+02</pdfrwt>
<totfact> 0.80695002E+04</totfact>
</mgrwt>
</event>
<event>
 8    1  0.8577104E-014  0.7814476E+02  0.7818608E-02  0.1334400E+00
          1   -1    0    0  501    0  0.00000000000E+00  0.00000000000E+00  0.58424497060E+02  0.58424497278E+02  0.50400000000E-02 0. -1.
         -2   -1    0    0    0  501 -0.00000000000E+00 -0.00000000000E+00 -0.26130318327E+02  0.26130318451E+02  0.25500000000E-02 0.  1.
        -24    2    1    2    0    0 -0.35527136788E-14  0.00000000000E+00  0.32294178733E+02  0.84554815729E+02  0.78144755953E+02 0.  0.
         66    2    3    3    0    0 -0.24227868883E+02 -0.75937090101E+01 -0.15940351104E+02  0.30045779049E+02  0.19999995406E+01 0.  0.
         13    1    3    3    0    0  0.24227868883E+02  0.75937090101E+01  0.48234529837E+02  0.54509036680E+02  0.10566000000E+00 0. -1.
         13    1    4    4    0    0 -0.45703851292E+01 -0.15202565837E+01 -0.25796199155E+01  0.54649065183E+01  0.10566000000E+00 0. -1.
        -13    1    4    4    0    0 -0.37207336771E+01 -0.53235711541E+00 -0.24579940302E+01  0.44922335071E+01  0.10566000000E+00 0.  1.
        -14    1    4    4    0    0 -0.15936750077E+02 -0.55410953110E+01 -0.10902737159E+02  0.20088639023E+02  0.00000000000E+00 0.  1.
<mgrwt>
<rscale>  0 0.78144756E+02</rscale>
<asrwt>0</asrwt>
<pdfrwt beam="1">  1        1 0.89883840E-02 0.78144756E+02</pdfrwt>
<pdfrwt beam="2">  1       -2 0.40200491E-02 0.78144756E+02</pdfrwt>
<totfact> 0.14382388E+05</totfact>
</mgrwt>
</event>
<event>
 8    1  0.8577104E-014  0.8245469E+02  0.7818608E-02  0.1322226E+00
          1   -1    0    0  501    0  0.00000000000E+00  0.00000000000E+00  0.73415652051E+02  0.73415652224E+02  0.50400000000E-02 0. -1.
         -2   -1    0    0    0  501 -0.00000000000E+00 -0.00000000000E+00 -0.23151654662E+02  0.23151654802E+02  0.25500000000E-02 0.  1.
        -24    2    1    2    0    0  0.00000000000E+00  0.00000000000E+00  0.50263997389E+02  0.96567307026E+02  0.82454686663E+02 0.  0.
         66    2    3    3    0    0  0.34350397753E+02 -0.28282673282E+01 -0.12949396785E+01  0.34548889782E+02  0.19999986296E+01 0.  0.
         13    1    3    3    0    0 -0.34350397753E+02  0.28282673282E+01  0.51558937068E+02  0.62018417244E+02  0.10566000000E+00 0. -1.
         13    1    4    4    0    0  0.23515771541E+01 -0.51473788143E-03 -0.42437868191E+00  0.23918981328E+01  0.10566000000E+00 0. -1.
        -13    1    4    4    0    0  0.10362596914E+02 -0.12024549698E+01 -0.74826588627E+00  0.10459463592E+02  0.10566000000E+00 0.  1.
        -14    1    4    4    0    0  0.21636223685E+02 -0.16252976205E+01 -0.12229511029E+00  0.21697528057E+02  0.00000000000E+00 0.  1.
<mgrwt>
<rscale>  0 0.82454687E+02</rscale>
<asrwt>0</asrwt>
<pdfrwt beam="1">  1        1 0.11294716E-01 0.82454687E+02</pdfrwt>
<pdfrwt beam="2">  1       -2 0.35617930E-02 0.82454687E+02</pdfrwt>
<totfact> 0.12865597E+05</totfact>
</mgrwt>
</event>
<event>
 8    1  0.8577104E-014  0.8032422E+02  0.7818608E-02  0.1328134E+00
         -2   -1    0    0    0  501 -0.00000000000E+00  0.00000000000E+00  0.10894681754E+03  0.10894681757E+03  0.25500000000E-02 0.  1.
          1   -1    0    0  501    0  0.00000000000E+00 -0.00000000000E+00 -0.14805342596E+02  0.14805343454E+02  0.50400000000E-02 0. -1.
        -24    2    1    2    0    0 -0.35527136788E-14  0.35527136788E-14  0.94141474949E+02  0.12375216103E+03  0.80324218350E+02 0.  0.
         66    2    3    3    0    0 -0.22968147019E+02  0.29380013384E+02  0.24234213598E+02  0.44519861316E+02  0.19999947368E+01 0.  0.
         13    1    3    3    0    0  0.22968147019E+02 -0.29380013384E+02  0.69907261351E+02  0.79232299711E+02  0.10566000000E+00 0. -1.
         13    1    4    4    0    0 -0.72645439801E+01  0.88068490965E+01  0.80866693575E+01  0.13990696036E+02  0.10566000000E+00 0. -1.
        -13    1    4    4    0    0 -0.40462503349E+01  0.47415785335E+01  0.43291340082E+01  0.75899455900E+01  0.10566000000E+00 0.  1.
        -14    1    4    4    0    0 -0.11657352704E+02  0.15831585754E+02  0.11818410232E+02  0.22939219690E+02  0.00000000000E+00 0.  1.
<mgrwt>
<rscale>  0 0.80324218E+02</rscale>
<asrwt>0</asrwt>
<pdfrwt beam="1">  1        1 0.22777451E-02 0.80324218E+02</pdfrwt>
<pdfrwt beam="2">  1       -2 0.16761049E-01 0.80324218E+02</pdfrwt>
<totfact> 0.10276018E+05</totfact>
</mgrwt>
</event>
<event>
 8    1  0.8577104E-014  0.7928462E+02  0.7818608E-02  0.1331094E+00
          1   -1    0    0  501    0  0.00000000000E+00  0.00000000000E+00  0.34626958782E+02  0.34626959149E+02  0.50400000000E-02 0. -1.
         -2   -1    0    0    0  501 -0.00000000000E+00 -0.00000000000E+00 -0.45384078015E+02  0.45384078087E+02  0.25500000000E-02 0.  1.
        -24    2    1    2    0    0 -0.35527136788E-14  0.00000000000E+00 -0.10757119233E+02  0.80011037236E+02  0.79284616827E+02 0.  0.
         66    2    3    3    0    0  0.29511654288E+02  0.25077990969E+02 -0.13804959118E+02  0.41163336379E+02  0.19999989499E+01 0.  0.
         13    1    3    3    0    0 -0.29511654288E+02 -0.25077990969E+02  0.30478398852E+01  0.38847700856E+02  0.10566000000E+00 0. -1.
         13    1    4    4    0    0  0.10611658363E+02  0.82002714158E+01 -0.44831851162E+01  0.14140787013E+02  0.10566000000E+00 0. -1.
        -13    1    4    4    0    0  0.87671826160E+01  0.82285605758E+01 -0.39246484643E+01  0.12648586078E+02  0.10566000000E+00 0.  1.
        -14    1    4    4    0    0  0.10132813308E+02  0.86491589773E+01 -0.53971255378E+01  0.14373963289E+02  0.00000000000E+00 0.  1.
<mgrwt>
<rscale>  0 0.79284617E+02</rscale>
<asrwt>0</asrwt>
<pdfrwt beam="1">  1        1 0.53272245E-02 0.79284617E+02</pdfrwt>
<pdfrwt beam="2">  1       -2 0.69821659E-02 0.79284617E+02</pdfrwt>
<totfact> 0.12718674E+05</totfact>
</mgrwt>
</event>
<event>
 8    1  0.8577104E-014  0.8572958E+02  0.7818608E-02  0.1313536E+00
          1   -1    0    0  501    0  0.00000000000E+00  0.00000000000E+00  0.53807661133E+02  0.53807661370E+02  0.50400000000E-02 0. -1.
         -2   -1    0    0    0  501 -0.00000000000E+00 -0.00000000000E+00 -0.34147375246E+02  0.34147375341E+02  0.25500000000E-02 0.  1.
        -24    2    1    2    0    0 -0.71054273576E-14 -0.88817841970E-15  0.19660285887E+02  0.87955036711E+02  0.85729584401E+02 0.  0.
         66    2    3    3    0    0  0.38508404397E+02 -0.62104556260E+01 -0.83421989864E+01  0.39938192880E+02  0.19999995659E+01 0.  0.
         13    1    3    3    0    0 -0.38508404397E+02  0.62104556260E+01  0.28002484874E+02  0.48016843831E+02  0.10566000000E+00 0. -1.
         13    1    4    4    0    0  0.85277337027E+01 -0.81356349213E+00 -0.16211547795E+01  0.87191418450E+01  0.10566000000E+00 0. -1.
        -13    1    4    4    0    0  0.18373578712E+02 -0.28631670931E+01 -0.45084844399E+01  0.19134359578E+02  0.10566000000E+00 0.  1.
         14    1    4    4    0    0  0.11607091983E+02 -0.25337250408E+01 -0.22125597670E+01  0.12084691457E+02  0.00000000000E+00 0. -1.
<mgrwt>
<rscale>  0 0.85729584E+02</rscale>
<asrwt>0</asrwt>
<pdfrwt beam="1">  1        1 0.82781018E-02 0.85729584E+02</pdfrwt>
<pdfrwt beam="2">  1       -2 0.52534424E-02 0.85729584E+02</pdfrwt>
<totfact> 0.10975501E+05</totfact>
</mgrwt>
</event>
<event>
 8    1  0.8577104E-014  0.7966476E+02  0.7818608E-02  0.1330005E+00
          1   -1    0    0  501    0  0.00000000000E+00  0.00000000000E+00  0.83687272713E+02  0.83687272865E+02  0.50400000000E-02 0. -1.
         -2   -1    0    0    0  501 -0.00000000000E+00 -0.00000000000E+00 -0.18958899498E+02  0.18958899669E+02  0.25500000000E-02 0.  1.
        -24    2    1    2    0    0  0.35527136788E-14  0.00000000000E+00  0.64728373215E+02  0.10264617253E+03  0.79664762830E+02 0.  0.
         66    2    3    3    0    0 -0.26157280686E+02 -0.17784431056E+02  0.12437725786E+01  0.31718075119E+02  0.19999995401E+01 0.  0.
         13    1    3    3    0    0  0.26157280686E+02  0.17784431056E+02  0.63484600637E+02  0.70928097415E+02  0.10566000000E+00 0. -1.
         13    1    4    4    0    0 -0.18435030935E+01 -0.17122362600E+01  0.39598159361E+00  0.25491610628E+01  0.10566000000E+00 0. -1.
        -13    1    4    4    0    0 -0.22816133223E+02 -0.15227133850E+02  0.93838093973E+00  0.27446917193E+02  0.10566000000E+00 0.  1.
        -14    1    4    4    0    0 -0.14976443688E+01 -0.84506094569E+00 -0.90589954712E-01  0.17219968633E+01  0.00000000000E+00 0.  1.
<mgrwt>
<rscale>  0 0.79664763E+02</rscale>
<asrwt>0</asrwt>
<pdfrwt beam="1">  1        1 0.12874965E-01 0.79664763E+02</pdfrwt>
<pdfrwt beam="2">  1       -2 0.29167538E-02 0.79664763E+02</pdfrwt>
<totfact> 0.14436902E+05</totfact>
</mgrwt>
</event>
<event>
 8    1  0.8577104E-014  0.7870916E+02  0.7818608E-02  0.1332755E+00
         -2   -1    0    0    0  501 -0.00000000000E+00  0.00000000000E+00  0.72921101610E+01  0.72921106068E+01  0.25500000000E-02 0.  1.
          1   -1    0    0  501    0  0.00000000000E+00 -0.00000000000E+00 -0.21239161206E+03  0.21239161212E+03  0.50400000000E-02 0. -1.
        -24    2    1    2    0    0  0.00000000000E+00  0.00000000000E+00 -0.20509950190E+03  0.21968372273E+03  0.78709163074E+02 0.  0.
         66    2    3    3    0    0 -0.12258419760E+02 -0.36954815615E+02 -0.87113110116E+02  0.95439096838E+02  0.19999997572E+01 0.  0.
         13    1    3    3    0    0  0.12258419760E+02  0.36954815615E+02 -0.11798639179E+03  0.12424462589E+03  0.10566000000E+00 0. -1.
         13    1    4    4    0    0 -0.38292386679E+01 -0.12059307877E+02 -0.28058521525E+02  0.30779567402E+02  0.10566000000E+00 0. -1.
        -13    1    4    4    0    0 -0.84605406096E+01 -0.24434440891E+02 -0.57726088561E+02  0.63252945494E+02  0.10566000000E+00 0.  1.
         14    1    4    4    0    0  0.31359517968E-01 -0.46106684787E+00 -0.13285000297E+01  0.14065839422E+01  0.00000000000E+00 0. -1.
<mgrwt>
<rscale>  0 0.78709163E+02</rscale>
<asrwt>0</asrwt>
<pdfrwt beam="1">  1        1 0.32675628E-01 0.78709163E+02</pdfrwt>
<pdfrwt beam="2">  1       -2 0.11218633E-02 0.78709163E+02</pdfrwt>
<totfact> 0.17613043E+05</totfact>
</mgrwt>
</event>
<event>
 8    1  0.8577104E-014  0.7863645E+02  0.7818608E-02  0.1332966E+00
          1   -1    0    0  501    0  0.00000000000E+00  0.00000000000E+00  0.12189782968E+03  0.12189782979E+03  0.50400000000E-02 0. -1.
         -2   -1    0    0    0  501 -0.00000000000E+00 -0.00000000000E+00 -0.12682118522E+02  0.12682118779E+02  0.25500000000E-02 0.  1.
        -24    2    1    2    0    0  0.00000000000E+00  0.00000000000E+00  0.10921571116E+03  0.13457994857E+03  0.78636448240E+02 0.  0.
         66    2    3    3    0    0 -0.33958262014E+02  0.41627506347E+01  0.21571222620E+02  0.40494564008E+02  0.20000042544E+01 0.  0.
         13    1    3    3    0    0  0.33958262014E+02 -0.41627506347E+01  0.87644488541E+02  0.94085384559E+02  0.10566000000E+00 0. -1.
         13    1    4    4    0    0 -0.16602935806E+02  0.21206847058E+01  0.11103512752E+02  0.20086162910E+02  0.10566000000E+00 0. -1.
        -13    1    4    4    0    0 -0.70792661578E+01  0.48444838259E+00  0.48306125521E+01  0.85846771187E+01  0.10566000000E+00 0.  1.
        -14    1    4    4    0    0 -0.10276060051E+02  0.15576175463E+01  0.56370973159E+01  0.11823723979E+02  0.00000000000E+00 0.  1.
<mgrwt>
<rscale>  0 0.78636448E+02</rscale>
<asrwt>0</asrwt>
<pdfrwt beam="1">  1        1 0.18753512E-01 0.78636448E+02</pdfrwt>
<pdfrwt beam="2">  1       -2 0.19510952E-02 0.78636448E+02</pdfrwt>
<totfact> 0.15926309E+05</totfact>
</mgrwt>
</event>
<event>
 8    1  0.8577104E-014  0.7742665E+02  0.7818608E-02  0.1336517E+00
          1   -1    0    0  501    0  0.00000000000E+00  0.00000000000E+00  0.46403438591E+01  0.46403465962E+01  0.50400000000E-02 0. -1.
         -2   -1    0    0    0  501 -0.00000000000E+00 -0.00000000000E+00 -0.32297633967E+03  0.32297633968E+03  0.25500000000E-02 0.  1.
        -24    2    1    2    0    0  0.00000000000E+00 -0.17763568394E-14 -0.31833599582E+03  0.32761668628E+03  0.77426654957E+02 0.  0.
         66    2    3    3    0    0 -0.14783612509E+02  0.11616385663E+02 -0.30234129232E+03  0.30293192745E+03  0.20000030233E+01 0.  0.
         13    1    3    3    0    0  0.14783612509E+02 -0.11616385663E+02 -0.15994703500E+02  0.24684758836E+02  0.10566000000E+00 0. -1.
         13    1    4    4    0    0 -0.46541850121E+01  0.42501489651E+01 -0.10551989104E+03  0.10570801186E+03  0.10566000000E+00 0. -1.
        -13    1    4    4    0    0 -0.21354910267E+01  0.14732270254E+01 -0.33189249256E+02  0.33290661604E+02  0.10566000000E+00 0. -1.
        -14    1    4    4    0    0 -0.79939364699E+01  0.58930096725E+01 -0.16363215202E+03  0.16393325398E+03  0.00000000000E+00 0.  1.
<mgrwt>
<rscale>  0 0.77426655E+02</rscale>
<asrwt>0</asrwt>
<pdfrwt beam="1">  1        1 0.71389952E-03 0.77426655E+02</pdfrwt>
<pdfrwt beam="2">  1       -2 0.49688650E-01 0.77426655E+02</pdfrwt>
<totfact> 0.73370639E+04</totfact>
</mgrwt>
</event>
<event>
 8    1  0.8577104E-014  0.8002179E+02  0.7818608E-02  0.1328990E+00
          1   -1    0    0  501    0  0.00000000000E+00  0.00000000000E+00  0.71434879306E+01  0.71434897085E+01  0.50400000000E-02 0. -1.
         -2   -1    0    0    0  501 -0.00000000000E+00 -0.00000000000E+00 -0.22410220936E+03  0.22410220938E+03  0.25500000000E-02 0.  1.
        -24    2    1    2    0    0  0.00000000000E+00  0.00000000000E+00 -0.21695872143E+03  0.23124569908E+03  0.80021787909E+02 0.  0.
         66    2    3    3    0    0 -0.22778202930E+01  0.39808892350E+02 -0.11718265324E+03  0.12379705403E+03  0.19999979396E+01 0.  0.
         13    1    3    3    0    0  0.22778202930E+01 -0.39808892350E+02 -0.99776068190E+02  0.10744864505E+03  0.10566000000E+00 0. -1.
         13    1    4    4    0    0 -0.14743748027E+01  0.15819261423E+02 -0.45973262188E+02  0.48641287126E+02  0.10566000000E+00 0. -1.
        -13    1    4    4    0    0 -0.86258339240E+00  0.89756671227E+01 -0.27172056517E+02  0.28629328839E+02  0.10566000000E+00 0.  1.
         14    1    4    4    0    0  0.59137902170E-01  0.15013963804E+02 -0.44037334536E+02  0.46526438070E+02  0.00000000000E+00 0. -1.
<mgrwt>
<rscale>  0 0.80021788E+02</rscale>
<asrwt>0</asrwt>
<pdfrwt beam="1">  1        1 0.10989985E-02 0.80021788E+02</pdfrwt>
<pdfrwt beam="2">  1       -2 0.34477258E-01 0.80021788E+02</pdfrwt>
<totfact> 0.81022646E+04</totfact>
</mgrwt>
</event>
<event>
 8    1  0.8577104E-014  0.8335734E+02  0.7818608E-02  0.1319785E+00
          1   -1    0    0  501    0  0.00000000000E+00  0.00000000000E+00  0.11635798952E+02  0.11635800044E+02  0.50400000000E-02 0. -1.
         -2   -1    0    0    0  501 -0.00000000000E+00 -0.00000000000E+00 -0.14929027397E+03  0.14929027399E+03  0.25500000000E-02 0.  1.
        -24    2    1    2    0    0  0.00000000000E+00  0.00000000000E+00 -0.13765447502E+03  0.16092607404E+03  0.83357344080E+02 0.  0.
         66    2    3    3    0    0  0.12470952119E+02 -0.24219511718E+02 -0.12970217846E+03  0.13254721608E+03  0.19999992249E+01 0.  0.
         13    1    3    3    0    0 -0.12470952119E+02  0.24219511718E+02 -0.79522965560E+01  0.28378857961E+02  0.10566000000E+00 0. -1.
         13    1    4    4    0    0  0.67455365239E+00 -0.10138843075E+01 -0.76308036844E+01  0.77280859807E+01  0.10566000000E+00 0. -1.
        -13    1    4    4    0    0  0.33127187052E+01 -0.61742126721E+01 -0.31269285192E+02  0.32044880524E+02  0.10566000000E+00 0.  1.
         14    1    4    4    0    0  0.84836797614E+01 -0.17031414738E+02 -0.90802089587E+02  0.92774249572E+02  0.00000000000E+00 0. -1.
<mgrwt>
<rscale>  0 0.83357344E+02</rscale>
<asrwt>0</asrwt>
<pdfrwt beam="1">  1        1 0.17901231E-02 0.83357344E+02</pdfrwt>
<pdfrwt beam="2">  1       -2 0.22967733E-01 0.83357344E+02</pdfrwt>
<totfact> 0.85144928E+04</totfact>
</mgrwt>
</event>
<event>
 8    1  0.8577104E-014  0.8043223E+02  0.7818608E-02  0.1327829E+00
         -2   -1    0    0    0  501 -0.00000000000E+00  0.00000000000E+00  0.11500494848E+03  0.11500494851E+03  0.25500000000E-02 0.  1.
          1   -1    0    0  501    0  0.00000000000E+00 -0.00000000000E+00 -0.14063184068E+02  0.14063184971E+02  0.50400000000E-02 0. -1.
        -24    2    1    2    0    0 -0.17763568394E-14  0.00000000000E+00  0.10094176441E+03  0.12906813348E+03  0.80432227853E+02 0.  0.
         66    2    3    3    0    0 -0.15095704954E+02  0.16956402807E+02  0.10372160563E+03  0.10619591047E+03  0.20000056167E+01 0.  0.
         13    1    3    3    0    0  0.15095704954E+02 -0.16956402807E+02 -0.27798412150E+01  0.22872223010E+02  0.10566000000E+00 0. -1.
         13    1    4    4    0    0 -0.10904091910E+01  0.89203065542E+00  0.56636261008E+01  0.58371684522E+01  0.10566000000E+00 0. -1.
        -13    1    4    4    0    0 -0.55441759485E+01  0.54013708790E+01  0.37241432370E+02  0.38037457110E+02  0.10566000000E+00 0.  1.
        -14    1    4    4    0    0 -0.84611198145E+01  0.10663001272E+02  0.60816547158E+02  0.62321284910E+02  0.00000000000E+00 0.  1.
<mgrwt>
<rscale>  0 0.80432228E+02</rscale>
<asrwt>0</asrwt>
<pdfrwt beam="1">  1        1 0.21635668E-02 0.80432228E+02</pdfrwt>
<pdfrwt beam="2">  1       -2 0.17693070E-01 0.80432228E+02</pdfrwt>
<totfact> 0.10093485E+05</totfact>
</mgrwt>
</event>
<event>
 8    1  0.8577104E-014  0.7870362E+02  0.7818608E-02  0.1332771E+00
          1   -1    0    0  501    0  0.00000000000E+00  0.00000000000E+00  0.14481079891E+03  0.14481079900E+03  0.50400000000E-02 0. -1.
         -2   -1    0    0    0  501 -0.00000000000E+00 -0.00000000000E+00 -0.10693711171E+02  0.10693711475E+02  0.25500000000E-02 0.  1.
        -24    2    1    2    0    0  0.00000000000E+00  0.00000000000E+00  0.13411708774E+03  0.15550451047E+03  0.78703618427E+02 0.  0.
         66    2    3    3    0    0 -0.34205738486E+02  0.19206310810E+02  0.72564809547E+02  0.82514038252E+02  0.20000009116E+01 0.  0.
         13    1    3    3    0    0  0.34205738486E+02 -0.19206310810E+02  0.61552278192E+02  0.72990472221E+02  0.10566000000E+00 0. -1.
         13    1    4    4    0    0 -0.61022095941E+00  0.24800712032E+00  0.16960375393E+01  0.18225214735E+01  0.10566000000E+00 0.  1.
        -13    1    4    4    0    0 -0.94211779160E+01  0.52787608183E+01  0.19109437553E+02  0.21950072363E+02  0.10566000000E+00 0. -1.
        -14    1    4    4    0    0 -0.24174339611E+02  0.13679542872E+02  0.51759334455E+02  0.58741444416E+02  0.00000000000E+00 0.  1.
<mgrwt>
<rscale>  0 0.78703618E+02</rscale>
<asrwt>0</asrwt>
<pdfrwt beam="1">  1        1 0.22278584E-01 0.78703618E+02</pdfrwt>
<pdfrwt beam="2">  1       -2 0.16451864E-02 0.78703618E+02</pdfrwt>
<totfact> 0.16386456E+05</totfact>
</mgrwt>
</event>
<event>
 8    1  0.8577104E-014  0.7966210E+02  0.7818608E-02  0.1330013E+00
          1   -1    0    0  501    0  0.00000000000E+00  0.00000000000E+00  0.19024824328E+02  0.19024824996E+02  0.50400000000E-02 0. -1.
         -2   -1    0    0    0  501 -0.00000000000E+00 -0.00000000000E+00 -0.83391694918E+02  0.83391694957E+02  0.25500000000E-02 0.  1.
        -24    2    1    2    0    0  0.71054273576E-14  0.17763568394E-14 -0.64366870590E+02  0.10241651995E+03  0.79662095941E+02 0.  0.
         66    2    3    3    0    0  0.35340379425E+02  0.10609513276E+02 -0.51402455368E+02  0.63306528699E+02  0.19999920373E+01 0.  0.
         13    1    3    3    0    0 -0.35340379425E+02 -0.10609513276E+02 -0.12964415222E+02  0.39109991254E+02  0.10566000000E+00 0. -1.
         13    1    4    4    0    0  0.10513457511E+02  0.40058255568E+01 -0.15136366343E+02  0.18860015306E+02  0.10566000000E+00 0. -1.
        -13    1    4    4    0    0  0.58625130475E+01  0.17604230691E+01 -0.87543615384E+01  0.10682610102E+02  0.10566000000E+00 0.  1.
        -14    1    4    4    0    0  0.18964408866E+02  0.48432646503E+01 -0.27511727487E+02  0.33763903291E+02  0.00000000000E+00 0.  1.
<mgrwt>
<rscale>  0 0.79662096E+02</rscale>
<asrwt>0</asrwt>
<pdfrwt beam="1">  1        1 0.29268962E-02 0.79662096E+02</pdfrwt>
<pdfrwt beam="2">  1       -2 0.12829491E-01 0.79662096E+02</pdfrwt>
<totfact> 0.11195224E+05</totfact>
</mgrwt>
</event>
<event>
 8    1  0.8577104E-014  0.7766111E+02  0.7818608E-02  0.1335823E+00
          1   -1    0    0  501    0  0.00000000000E+00  0.00000000000E+00  0.58571234121E+02  0.58571234338E+02  0.50400000000E-02 0. -1.
         -2   -1    0    0    0  501 -0.00000000000E+00 -0.00000000000E+00 -0.25743213853E+02  0.25743213979E+02  0.25500000000E-02 0.  1.
        -24    2    1    2    0    0 -0.88817841970E-15 -0.71054273576E-14  0.32828020268E+02  0.84314448318E+02  0.77661105325E+02 0.  0.
         66    2    3    3    0    0 -0.52089945101E+01 -0.36499474621E+02  0.32859250080E+01  0.37069429238E+02  0.20000023639E+01 0.  0.
         13    1    3    3    0    0  0.52089945101E+01  0.36499474621E+02  0.29542095260E+02  0.47245019080E+02  0.10566000000E+00 0. -1.
         13    1    4    4    0    0 -0.90903867784E+00 -0.89390520370E+01  0.15218767965E+01  0.91137410353E+01  0.10566000000E+00 0. -1.
        -13    1    4    4    0    0 -0.26290511122E+01 -0.17024531183E+02  0.81344045111E+00  0.17245852288E+02  0.10566000000E+00 0.  1.
         14    1    4    4    0    0 -0.16709047201E+01 -0.10535891401E+02  0.95060776036E+00  0.10709835915E+02  0.00000000000E+00 0. -1.
<mgrwt>
<rscale>  0 0.77661105E+02</rscale>
<asrwt>0</asrwt>
<pdfrwt beam="1">  1        1 0.90109590E-02 0.77661105E+02</pdfrwt>
<pdfrwt beam="2">  1       -2 0.39604945E-02 0.77661105E+02</pdfrwt>
<totfact> 0.14635483E+05</totfact>
</mgrwt>
</event>
<event>
 8    1  0.8577104E-014  0.7942258E+02  0.7818608E-02  0.1330698E+00
          1   -1    0    0  501    0  0.00000000000E+00  0.00000000000E+00  0.15743429817E+02  0.15743430623E+02  0.50400000000E-02 0. -1.
         -2   -1    0    0    0  501 -0.00000000000E+00 -0.00000000000E+00 -0.10016791287E+03  0.10016791290E+03  0.25500000000E-02 0.  1.
        -24    2    1    2    0    0  0.00000000000E+00  0.00000000000E+00 -0.84424483050E+02  0.11591134352E+03  0.79422580032E+02 0.  0.
         66    2    3    3    0    0  0.13954165844E+02  0.78275117023E+01 -0.95242267553E+02  0.96597506270E+02  0.20000013052E+01 0.  0.
         13    1    3    3    0    0 -0.13954165844E+02 -0.78275117023E+01  0.10817784502E+02  0.19313837253E+02  0.10566000000E+00 0. -1.
         13    1    4    4    0    0  0.10910801855E+02  0.65981991186E+01 -0.76374889883E+02  0.77432014034E+02  0.10566000000E+00 0. -1.
        -13    1    4    4    0    0  0.30793752785E+01  0.12074696864E+01 -0.18320319834E+02  0.18616815464E+02  0.10566000000E+00 0.  1.
        -14    1    4    4    0    0 -0.36011289282E-01  0.21842897257E-01 -0.54705783563E+00  0.54867677246E+00  0.00000000000E+00 0.  1.
<mgrwt>
<rscale>  0 0.79422580E+02</rscale>
<asrwt>0</asrwt>
<pdfrwt beam="1">  1        1 0.24220663E-02 0.79422580E+02</pdfrwt>
<pdfrwt beam="2">  1       -2 0.15410448E-01 0.79422580E+02</pdfrwt>
<totfact> 0.10806856E+05</totfact>
</mgrwt>
</event>
<event>
 8    1  0.8577104E-014  0.7973191E+02  0.7818608E-02  0.1329814E+00
          1   -1    0    0  501    0  0.00000000000E+00  0.00000000000E+00  0.14587969682E+02  0.14587970553E+02  0.50400000000E-02 0. -1.
         -2   -1    0    0    0  501 -0.00000000000E+00 -0.00000000000E+00 -0.10894554717E+03  0.10894554720E+03  0.25500000000E-02 0.  1.
        -24    2    1    2    0    0 -0.71054273576E-14  0.44408920985E-15 -0.94357577492E+02  0.12353351776E+03  0.79731910670E+02 0.  0.
         66    2    3    3    0    0 -0.35885162538E+02  0.24813444061E+01 -0.73746711162E+02  0.82076058412E+02  0.19999992063E+01 0.  0.
         13    1    3    3    0    0  0.35885162538E+02 -0.24813444061E+01 -0.20610866330E+02  0.41457459345E+02  0.10566000000E+00 0. -1.
         13    1    4    4    0    0 -0.15092225002E+02  0.14688361367E+01 -0.31091319172E+02  0.34592109317E+02  0.10566000000E+00 0. -1.
        -13    1    4    4    0    0 -0.94590956148E+01  0.66955688777E+00 -0.20899717347E+02  0.22950645862E+02  0.10566000000E+00 0.  1.
         14    1    4    4    0    0 -0.11333841921E+02  0.34295138163E+00 -0.21755674643E+02  0.24533303233E+02  0.00000000000E+00 0. -1.
<mgrwt>
<rscale>  0 0.79731911E+02</rscale>
<asrwt>0</asrwt>
<pdfrwt beam="1">  1        1 0.22443032E-02 0.79731911E+02</pdfrwt>
<pdfrwt beam="2">  1       -2 0.16760853E-01 0.79731911E+02</pdfrwt>
<totfact> 0.10472859E+05</totfact>
</mgrwt>
</event>
<event>
 8    1  0.8577104E-014  0.8749815E+02  0.7818608E-02  0.1309026E+00
          1   -1    0    0  501    0  0.00000000000E+00  0.00000000000E+00  0.10165563738E+02  0.10165564987E+02  0.50400000000E-02 0. -1.
         -2   -1    0    0    0  501 -0.00000000000E+00 -0.00000000000E+00 -0.18828090616E+03  0.18828090618E+03  0.25500000000E-02 0.  1.
        -24    2    1    2    0    0  0.00000000000E+00  0.88817841970E-15 -0.17811534243E+03  0.19844647117E+03  0.87498152618E+02 0.  0.
         66    2    3    3    0    0  0.37749080399E+02 -0.53439620872E+01 -0.40544042673E+02  0.55689948790E+02  0.19999995522E+01 0.  0.
         13    1    3    3    0    0 -0.37749080399E+02  0.53439620872E+01 -0.13757129975E+03  0.14275652238E+03  0.10566000000E+00 0. -1.
         13    1    4    4    0    0  0.15411452387E+02 -0.24899486351E+01 -0.17886647178E+02  0.23741440988E+02  0.10566000000E+00 0.  1.
        -13    1    4    4    0    0  0.79829147300E+01 -0.12378450371E+01 -0.81140900219E+01  0.11450275492E+02  0.10566000000E+00 0. -1.
        -14    1    4    4    0    0  0.14354713282E+02 -0.16161684150E+01 -0.14543305473E+02  0.20498232310E+02  0.00000000000E+00 0.  1.
<mgrwt>
<rscale>  0 0.87498153E+02</rscale>
<asrwt>0</asrwt>
<pdfrwt beam="1">  1        1 0.15639331E-02 0.87498153E+02</pdfrwt>
<pdfrwt beam="2">  1       -2 0.28966291E-01 0.87498153E+02</pdfrwt>
<totfact> 0.69122945E+04</totfact>
</mgrwt>
</event>
<event>
 8    1  0.8577104E-014  0.7649803E+02  0.7818608E-02  0.1339294E+00
          1   -1    0    0  501    0  0.00000000000E+00  0.00000000000E+00  0.96334289386E+02  0.96334289517E+02  0.50400000000E-02 0. -1.
         -2   -1    0    0    0  501 -0.00000000000E+00 -0.00000000000E+00 -0.15186567174E+02  0.15186567388E+02  0.25500000000E-02 0.  1.
        -24    2    1    2    0    0 -0.41633363423E-16  0.00000000000E+00  0.81147722211E+02  0.11152085691E+03  0.76498030726E+02 0.  0.
         66    2    3    3    0    0 -0.11731449432E+00 -0.17091950248E+02 -0.92389624627E+01  0.19532202951E+02  0.19999996923E+01 0.  0.
         13    1    3    3    0    0  0.11731449432E+00  0.17091950248E+02  0.90386684674E+02  0.91988653955E+02  0.10566000000E+00 0. -1.
         13    1    4    4    0    0 -0.34685000411E+00 -0.14352513751E+01 -0.60521193581E+00  0.15992801374E+01  0.10566000000E+00 0. -1.
        -13    1    4    4    0    0 -0.36279901219E+00 -0.14641705589E+01 -0.77986614973E+00  0.17014034783E+01  0.10566000000E+00 0.  1.
        -14    1    4    4    0    0  0.59233452197E+00 -0.14192528314E+02 -0.78538843771E+01  0.16231519336E+02  0.00000000000E+00 0.  1.
<mgrwt>
<rscale>  0 0.76498031E+02</rscale>
<asrwt>0</asrwt>
<pdfrwt beam="1">  1        1 0.14820660E-01 0.76498031E+02</pdfrwt>
<pdfrwt beam="2">  1       -2 0.23363950E-02 0.76498031E+02</pdfrwt>
<totfact> 0.16482363E+05</totfact>
</mgrwt>
</event>
<event>
 8    1  0.8577104E-014  0.7761870E+02  0.7818608E-02  0.1335948E+00
          1   -1    0    0  501    0  0.00000000000E+00  0.00000000000E+00  0.13215749009E+02  0.13215749970E+02  0.50400000000E-02 0. -1.
         -2   -1    0    0    0  501 -0.00000000000E+00 -0.00000000000E+00 -0.11396747216E+03  0.11396747219E+03  0.25500000000E-02 0.  1.
        -24    2    1    2    0    0  0.35527136788E-14  0.00000000000E+00 -0.10075172315E+03  0.12718322216E+03  0.77618698009E+02 0.  0.
         66    2    3    3    0    0  0.18272443204E+02  0.78924078443E+01 -0.10495121603E+03  0.10684067594E+03  0.20000015349E+01 0.  0.
         13    1    3    3    0    0 -0.18272443204E+02 -0.78924078443E+01  0.41994928802E+01  0.20342546220E+02  0.10566000000E+00 0. -1.
         13    1    4    4    0    0  0.31300391738E+01  0.66146792721E+00 -0.17981597301E+02  0.18264273612E+02  0.10566000000E+00 0. -1.
        -13    1    4    4    0    0  0.10583529013E+02  0.47028748868E+01 -0.60022698037E+02  0.61129890907E+02  0.10566000000E+00 0.  1.
         14    1    4    4    0    0  0.45588750173E+01  0.25280650303E+01 -0.26946920694E+02  0.27446511419E+02  0.00000000000E+00 0. -1.
<mgrwt>
<rscale>  0 0.77618698E+02</rscale>
<asrwt>0</asrwt>
<pdfrwt beam="1">  1        1 0.20331923E-02 0.77618698E+02</pdfrwt>
<pdfrwt beam="2">  1       -2 0.17533457E-01 0.77618698E+02</pdfrwt>
<totfact> 0.11085407E+05</totfact>
</mgrwt>
</event>
<event>
 8    1  0.8577104E-014  0.7967643E+02  0.7818608E-02  0.1329972E+00
          1   -1    0    0  501    0  0.00000000000E+00  0.00000000000E+00  0.19346567381E+03  0.19346567387E+03  0.50400000000E-02 0. -1.
         -2   -1    0    0    0  501 -0.00000000000E+00 -0.00000000000E+00 -0.82034363986E+01  0.82034367950E+01  0.25500000000E-02 0.  1.
        -24    2    1    2    0    0  0.00000000000E+00  0.00000000000E+00  0.18526223741E+03  0.20166911067E+03  0.79676430567E+02 0.  0.
         66    2    3    3    0    0  0.36903105054E+02 -0.25181116005E+01  0.55412601102E+02  0.66653855005E+02  0.19999943856E+01 0.  0.
         13    1    3    3    0    0 -0.36903105054E+02  0.25181116005E+01  0.12984963631E+03  0.13501525566E+03  0.10566000000E+00 0. -1.
         13    1    4    4    0    0  0.25888518124E+01 -0.53694099100E+00  0.37568514289E+01  0.45951665942E+01  0.10566000000E+00 0. -1.
        -13    1    4    4    0    0  0.12912170089E+02 -0.13454127419E+01  0.19390724258E+02  0.23335501348E+02  0.10566000000E+00 0.  1.
        -14    1    4    4    0    0  0.21402083152E+02 -0.63575786763E+00  0.32265025415E+02  0.38723187063E+02  0.00000000000E+00 0.  1.
<mgrwt>
<rscale>  0 0.79676431E+02</rscale>
<asrwt>0</asrwt>
<pdfrwt beam="1">  1        1 0.29763948E-01 0.79676431E+02</pdfrwt>
<pdfrwt beam="2">  1       -2 0.12620672E-02 0.79676431E+02</pdfrwt>
<totfact> 0.16746262E+05</totfact>
</mgrwt>
</event>
<event>
 8    1  0.8577104E-014  0.8127394E+02  0.7818608E-02  0.1325475E+00
          1   -1    0    0  501    0  0.00000000000E+00  0.00000000000E+00  0.38386472166E+02  0.38386472497E+02  0.50400000000E-02 0. -1.
         -2   -1    0    0    0  501 -0.00000000000E+00 -0.00000000000E+00 -0.43019403936E+02  0.43019404012E+02  0.25500000000E-02 0.  1.
        -24    2    1    2    0    0  0.17763568394E-14 -0.35527136788E-14 -0.46329317701E+01  0.81405876509E+02  0.81273936003E+02 0.  0.
         66    2    3    3    0    0 -0.11361275322E+02  0.30806572876E+02 -0.26257181200E+02  0.42089940341E+02  0.20000009929E+01 0.  0.
         13    1    3    3    0    0  0.11361275322E+02 -0.30806572876E+02  0.21624249430E+02  0.39315936168E+02  0.10566000000E+00 0. -1.
         13    1    4    4    0    0 -0.10222077148E+01  0.19845402504E+01 -0.20924832671E+01  0.30615288462E+01  0.10566000000E+00 0. -1.
        -13    1    4    4    0    0 -0.98025680632E+01  0.27976094259E+02 -0.23292361985E+02  0.37700099224E+02  0.10566000000E+00 0.  1.
        -14    1    4    4    0    0 -0.53649954377E+00  0.84593836658E+00 -0.87233594841E+00  0.13283122703E+01  0.00000000000E+00 0.  1.
<mgrwt>
<rscale>  0 0.81273936E+02</rscale>
<asrwt>0</asrwt>
<pdfrwt beam="1">  1        1 0.59056111E-02 0.81273936E+02</pdfrwt>
<pdfrwt beam="2">  1       -2 0.66183699E-02 0.81273936E+02</pdfrwt>
<totfact> 0.12061084E+05</totfact>
</mgrwt>
</event>
<event>
 8    1  0.8577104E-014  0.7497286E+02  0.7818608E-02  0.1343955E+00
          1   -1    0    0  501    0  0.00000000000E+00  0.00000000000E+00  0.10378067479E+02  0.10378068703E+02  0.50400000000E-02 0. -1.
         -2   -1    0    0    0  501 -0.00000000000E+00 -0.00000000000E+00 -0.13540404925E+03  0.13540404927E+03  0.25500000000E-02 0.  1.
        -24    2    1    2    0    0  0.00000000000E+00  0.00000000000E+00 -0.12502598177E+03  0.14578211797E+03  0.74972860449E+02 0.  0.
         66    2    3    3    0    0 -0.25278544972E+02 -0.23101896947E+02 -0.92080271792E+02  0.98262296338E+02  0.19999874892E+01 0.  0.
         13    1    3    3    0    0  0.25278544972E+02  0.23101896947E+02 -0.32945709977E+02  0.47519821637E+02  0.10566000000E+00 0. -1.
         13    1    4    4    0    0 -0.39186056801E+00 -0.42070468707E+00 -0.19786233976E+01  0.20631678855E+01  0.10566000000E+00 0. -1.
        -13    1    4    4    0    0 -0.49715189523E+01 -0.52442445255E+01 -0.20145481753E+02  0.21402562941E+02  0.10566000000E+00 0.  1.
        -14    1    4    4    0    0 -0.19915165451E+02 -0.17436947735E+02 -0.69956166640E+02  0.74796565511E+02  0.00000000000E+00 0.  1.
<mgrwt>
<rscale>  0 0.74972860E+02</rscale>
<asrwt>0</asrwt>
<pdfrwt beam="1">  1        1 0.15966260E-02 0.74972860E+02</pdfrwt>
<pdfrwt beam="2">  1       -2 0.20831391E-01 0.74972860E+02</pdfrwt>
<totfact> 0.11531641E+05</totfact>
</mgrwt>
</event>
<event>
 8    1  0.8577104E-014  0.7697983E+02  0.7818608E-02  0.1337847E+00
          1   -1    0    0  501    0  0.00000000000E+00  0.00000000000E+00  0.28031741063E+02  0.28031741516E+02  0.50400000000E-02 0. -1.
         -2   -1    0    0    0  501 -0.00000000000E+00 -0.00000000000E+00 -0.52849856898E+02  0.52849856959E+02  0.25500000000E-02 0.  1.
        -24    2    1    2    0    0 -0.88817841970E-15  0.00000000000E+00 -0.24818115834E+02  0.80881598475E+02  0.76979829166E+02 0.  0.
         66    2    3    3    0    0 -0.43372895986E+01  0.37459789547E+02 -0.44556883354E+01  0.38025005848E+02  0.19999993095E+01 0.  0.
         13    1    3    3    0    0  0.43372895986E+01 -0.37459789547E+02 -0.20362427499E+02  0.42856592628E+02  0.10566000000E+00 0. -1.
         13    1    4    4    0    0 -0.52454852783E+00  0.32464168811E+01 -0.36418076916E+00  0.33103119780E+01  0.10566000000E+00 0.  1.
        -13    1    4    4    0    0 -0.36013920813E+01  0.32882024637E+02 -0.42762058276E+01  0.33354080252E+02  0.10566000000E+00 0.  1.
        -14    1    4    4    0    0 -0.21134898950E+00  0.13313480288E+01  0.18469826132E+00  0.13606136178E+01  0.00000000000E+00 0.  1.
<mgrwt>
<rscale>  0 0.76979829E+02</rscale>
<asrwt>0</asrwt>
<pdfrwt beam="1">  1        1 0.43125756E-02 0.76979829E+02</pdfrwt>
<pdfrwt beam="2">  1       -2 0.81307472E-02 0.76979829E+02</pdfrwt>
<totfact> 0.13347329E+05</totfact>
</mgrwt>
</event>
<event>
 8    1  0.8577104E-014  0.8018432E+02  0.7818608E-02  0.1328529E+00
          1   -1    0    0  501    0  0.00000000000E+00  0.00000000000E+00  0.47239942384E+02  0.47239942653E+02  0.50400000000E-02 0. -1.
         -2   -1    0    0    0  501 -0.00000000000E+00 -0.00000000000E+00 -0.34025889920E+02  0.34025890015E+02  0.25500000000E-02 0.  1.
        -24    2    1    2    0    0  0.00000000000E+00  0.00000000000E+00  0.13214052464E+02  0.81265832668E+02  0.80184315029E+02 0.  0.
         66    2    3    3    0    0 -0.34490755985E+02 -0.70642347705E+01 -0.12774343825E+02  0.37505993008E+02  0.19999975209E+01 0.  0.
         13    1    3    3    0    0  0.34490755985E+02  0.70642347705E+01  0.25988396290E+02  0.43759839660E+02  0.10566000000E+00 0. -1.
         13    1    4    4    0    0 -0.10765153433E+01 -0.10935995567E+00 -0.94039731381E-01  0.10912618342E+01  0.10566000000E+00 0. -1.
        -13    1    4    4    0    0 -0.15179501853E+02 -0.34544537127E+01 -0.57884257771E+01  0.16609261391E+02  0.10566000000E+00 0.  1.
        -14    1    4    4    0    0 -0.18234738789E+02 -0.35004211022E+01 -0.68918783166E+01  0.19805469783E+02  0.00000000000E+00 0.  1.
<mgrwt>
<rscale>  0 0.80184315E+02</rscale>
<asrwt>0</asrwt>
<pdfrwt beam="1">  1        1 0.72676835E-02 0.80184315E+02</pdfrwt>
<pdfrwt beam="2">  1       -2 0.52347523E-02 0.80184315E+02</pdfrwt>
<totfact> 0.12956403E+05</totfact>
</mgrwt>
</event>
<event>
 8    1  0.8577104E-014  0.8206271E+02  0.7818608E-02  0.1323298E+00
         -2   -1    0    0    0  501 -0.00000000000E+00  0.00000000000E+00  0.17986123589E+02  0.17986123770E+02  0.25500000000E-02 0.  1.
          1   -1    0    0  501    0  0.00000000000E+00 -0.00000000000E+00 -0.93603941733E+02  0.93603941869E+02  0.50400000000E-02 0. -1.
        -24    2    1    2    0    0 -0.17763568394E-14  0.00000000000E+00 -0.75617818144E+02  0.11159006564E+03  0.82062709732E+02 0.  0.
         66    2    3    3    0    0 -0.10857034890E+02 -0.33099693384E+02 -0.84108065764E+01  0.35891594872E+02  0.20000016186E+01 0.  0.
         13    1    3    3    0    0  0.10857034890E+02  0.33099693384E+02 -0.67207011567E+02  0.75698470767E+02  0.10566000000E+00 0. -1.
         13    1    4    4    0    0 -0.71336334595E+01 -0.21249916885E+02 -0.51350947179E+01  0.22996261778E+02  0.10566000000E+00 0. -1.
        -13    1    4    4    0    0 -0.34804860051E+01 -0.11094325552E+02 -0.27666684266E+01  0.11952550376E+02  0.10566000000E+00 0.  1.
         14    1    4    4    0    0 -0.24291542496E+00 -0.75545094693E+00 -0.50904343190E+00  0.94278271752E+00  0.00000000000E+00 0. -1.
<mgrwt>
<rscale>  0 0.82062710E+02</rscale>
<asrwt>0</asrwt>
<pdfrwt beam="1">  1        1 0.14400606E-01 0.82062710E+02</pdfrwt>
<pdfrwt beam="2">  1       -2 0.27670960E-02 0.82062710E+02</pdfrwt>
<totfact> 0.13567541E+05</totfact>
</mgrwt>
</event>
<event>
 8    1  0.8577104E-014  0.8012073E+02  0.7818608E-02  0.1328709E+00
         -2   -1    0    0    0  501 -0.00000000000E+00  0.00000000000E+00  0.22026915191E+02  0.22026915339E+02  0.25500000000E-02 0.  1.
          1   -1    0    0  501    0  0.00000000000E+00 -0.00000000000E+00 -0.72857807052E+02  0.72857807226E+02  0.50400000000E-02 0. -1.
        -24    2    1    2    0    0 -0.22204460493E-15  0.35527136788E-14 -0.50830891861E+02  0.94884722565E+02  0.80120727711E+02 0.  0.
         66    2    3    3    0    0  0.15473485978E+01  0.26681066132E+02  0.98702787302E+01  0.28560391790E+02  0.19999998323E+01 0.  0.
         13    1    3    3    0    0 -0.15473485978E+01 -0.26681066132E+02 -0.60701170591E+02  0.66324330775E+02  0.10566000000E+00 0. -1.
         13    1    4    4    0    0 -0.20295245367E+00  0.64256215087E+01  0.22270667864E+01  0.68044685302E+01  0.10566000000E+00 0.  1.
        -13    1    4    4    0    0 -0.14983791236E+00  0.37424204868E+01  0.14464516107E+01  0.40164099390E+01  0.10566000000E+00 0. -1.
        -14    1    4    4    0    0  0.19001389638E+01  0.16513024137E+02  0.61967603332E+01  0.17739513321E+02  0.00000000000E+00 0.  1.
<mgrwt>
<rscale>  0 0.80120728E+02</rscale>
<asrwt>0</asrwt>
<pdfrwt beam="1">  1        1 0.11208893E-01 0.80120728E+02</pdfrwt>
<pdfrwt beam="2">  1       -2 0.33887562E-02 0.80120728E+02</pdfrwt>
<totfact> 0.13901518E+05</totfact>
</mgrwt>
</event>
<event>
 8    1  0.8577104E-014  0.8051523E+02  0.7818608E-02  0.1327596E+00
         -2   -1    0    0    0  501 -0.00000000000E+00  0.00000000000E+00  0.23134409772E+02  0.23134409913E+02  0.25500000000E-02 0.  1.
          1   -1    0    0  501    0  0.00000000000E+00 -0.00000000000E+00 -0.70054753631E+02  0.70054753812E+02  0.50400000000E-02 0. -1.
        -24    2    1    2    0    0  0.35527136788E-14  0.55511151231E-16 -0.46920343859E+02  0.93189163725E+02  0.80515225691E+02 0.  0.
         66    2    3    3    0    0  0.16150156731E+02  0.20642388676E+00  0.19174048192E+02  0.25149836878E+02  0.19999994112E+01 0.  0.
         13    1    3    3    0    0 -0.16150156731E+02 -0.20642388676E+00 -0.66094392051E+02  0.68039326847E+02  0.10566000000E+00 0. -1.
         13    1    4    4    0    0 -0.21307866307E-02 -0.28850901005E-01  0.80817685596E-01  0.13613393642E+00  0.10566000000E+00 0. -1.
        -13    1    4    4    0    0  0.12827594969E+02  0.24175278255E+00  0.15402742563E+02  0.20046477985E+02  0.10566000000E+00 0.  1.
         14    1    4    4    0    0  0.33246925485E+01 -0.64779947868E-02  0.36904879437E+01  0.49672249566E+01  0.00000000000E+00 0. -1.
<mgrwt>
<rscale>  0 0.80515226E+02</rscale>
<asrwt>0</asrwt>
<pdfrwt beam="1">  1        1 0.10777654E-01 0.80515226E+02</pdfrwt>
<pdfrwt beam="2">  1       -2 0.35591400E-02 0.80515226E+02</pdfrwt>
<totfact> 0.13630530E+05</totfact>
</mgrwt>
</event>
<event>
 8    1  0.8577104E-014  0.8071401E+02  0.7818608E-02  0.1327037E+00
         -2   -1    0    0    0  501 -0.00000000000E+00  0.00000000000E+00  0.20673187378E+02  0.20673187536E+02  0.25500000000E-02 0.  1.
          1   -1    0    0  501    0  0.00000000000E+00 -0.00000000000E+00 -0.78782623855E+02  0.78782624016E+02  0.50400000000E-02 0. -1.
        -24    2    1    2    0    0 -0.71054273576E-14  0.00000000000E+00 -0.58109436476E+02  0.99455811552E+02  0.80714012686E+02 0.  0.
         66    2    3    3    0    0  0.25071282290E+02  0.20739637003E+02  0.29372424153E+00  0.32600429685E+02  0.20000007703E+01 0.  0.
         13    1    3    3    0    0 -0.25071282290E+02 -0.20739637003E+02 -0.58403160718E+02  0.66855381867E+02  0.10566000000E+00 0. -1.
         13    1    4    4    0    0  0.10750328628E+01  0.59633406844E+00 -0.23470036487E+00  0.12560088671E+01  0.10566000000E+00 0. -1.
        -13    1    4    4    0    0  0.77645195572E+01  0.61380830932E+01 -0.37862855995E-01  0.98983041802E+01  0.10566000000E+00 0.  1.
         14    1    4    4    0    0  0.16231729870E+02  0.14005219841E+02  0.56628746240E+00  0.21446116638E+02  0.00000000000E+00 0. -1.
<mgrwt>
<rscale>  0 0.80714013E+02</rscale>
<asrwt>0</asrwt>
<pdfrwt beam="1">  1        1 0.12120404E-01 0.80714013E+02</pdfrwt>
<pdfrwt beam="2">  1       -2 0.31804904E-02 0.80714013E+02</pdfrwt>
<totfact> 0.13796082E+05</totfact>
</mgrwt>
</event>
<event>
 8    1  0.8577104E-014  0.7801764E+02  0.7818608E-02  0.1334773E+00
          1   -1    0    0  501    0  0.00000000000E+00  0.00000000000E+00  0.20360376448E+03  0.20360376454E+03  0.50400000000E-02 0. -1.
         -2   -1    0    0    0  501 -0.00000000000E+00 -0.00000000000E+00 -0.74737712808E+01  0.74737717158E+01  0.25500000000E-02 0.  1.
        -24    2    1    2    0    0  0.00000000000E+00  0.00000000000E+00  0.19612999320E+03  0.21107753626E+03  0.78017639546E+02 0.  0.
         66    2    3    3    0    0  0.28563635960E+02  0.26327574143E+02  0.10696292129E+03  0.11381603135E+03  0.20000006457E+01 0.  0.
         13    1    3    3    0    0 -0.28563635960E+02 -0.26327574143E+02  0.89167071911E+02  0.97261504907E+02  0.10566000000E+00 0. -1.
         13    1    4    4    0    0  0.11146085635E+02  0.94508286340E+01  0.38382034814E+02  0.41070003012E+02  0.10566000000E+00 0. -1.
        -13    1    4    4    0    0  0.55033061978E+01  0.50315334077E+01  0.20476154759E+02  0.21791897239E+02  0.10566000000E+00 0.  1.
        -14    1    4    4    0    0  0.11914244127E+02  0.11845212101E+02  0.48104731713E+02  0.50954131098E+02  0.00000000000E+00 0.  1.
<mgrwt>
<rscale>  0 0.78017640E+02</rscale>
<asrwt>0</asrwt>
<pdfrwt beam="1">  1        1 0.31323657E-01 0.78017640E+02</pdfrwt>
<pdfrwt beam="2">  1       -2 0.11498110E-02 0.78017640E+02</pdfrwt>
<totfact> 0.17882408E+05</totfact>
</mgrwt>
</event>
<event>
 8    1  0.8577104E-014  0.7882020E+02  0.7818608E-02  0.1332433E+00
          1   -1    0    0  501    0  0.00000000000E+00  0.00000000000E+00  0.14682790099E+03  0.14682790108E+03  0.50400000000E-02 0. -1.
         -2   -1    0    0    0  501 -0.00000000000E+00 -0.00000000000E+00 -0.10578070891E+02  0.10578071198E+02  0.25500000000E-02 0.  1.
        -24    2    1    2    0    0  0.00000000000E+00  0.00000000000E+00  0.13624983010E+03  0.15740597228E+03  0.78820199860E+02 0.  0.
         66    2    3    3    0    0  0.31889489915E+02  0.45445506601E+01  0.22912396458E+02  0.39579924492E+02  0.20000009147E+01 0.  0.
         13    1    3    3    0    0 -0.31889489915E+02 -0.45445506601E+01  0.11333743364E+03  0.11782604779E+03  0.10566000000E+00 0. -1.
         13    1    4    4    0    0  0.23164016267E+02  0.39137188645E+01  0.16148649323E+02  0.28507523287E+02  0.10566000000E+00 0.  1.
        -13    1    4    4    0    0  0.71713418928E+01  0.66885060147E+00  0.53717625458E+01  0.89856831991E+01  0.10566000000E+00 0. -1.
         14    1    4    4    0    0  0.15541317545E+01 -0.38018805918E-01  0.13919845892E+01  0.20867180060E+01  0.00000000000E+00 0. -1.
<mgrwt>
<rscale>  0 0.78820200E+02</rscale>
<asrwt>0</asrwt>
<pdfrwt beam="1">  1        1 0.22588910E-01 0.78820200E+02</pdfrwt>
<pdfrwt beam="2">  1       -2 0.16273954E-02 0.78820200E+02</pdfrwt>
<totfact> 0.16363094E+05</totfact>
</mgrwt>
</event>
<event>
 8    1  0.8577104E-014  0.8020531E+02  0.7818608E-02  0.1328470E+00
          1   -1    0    0  501    0  0.00000000000E+00  0.00000000000E+00  0.23624915419E+03  0.23624915424E+03  0.50400000000E-02 0. -1.
         -2   -1    0    0    0  501 -0.00000000000E+00 -0.00000000000E+00 -0.68073169691E+01  0.68073174468E+01  0.25500000000E-02 0.  1.
        -24    2    1    2    0    0  0.00000000000E+00 -0.71054273576E-14  0.22944183722E+03  0.24305647169E+03  0.80205310069E+02 0.  0.
         66    2    3    3    0    0  0.81496561349E+01 -0.39231570627E+02  0.11228406845E+03  0.11923608978E+03  0.20000123451E+01 0.  0.
         13    1    3    3    0    0 -0.81496561349E+01  0.39231570627E+02  0.11715776876E+03  0.12382038190E+03  0.10566000000E+00 0. -1.
         13    1    4    4    0    0  0.11417039890E+01 -0.51266584510E+01  0.16160841053E+02  0.16993235785E+02  0.10566000000E+00 0. -1.
        -13    1    4    4    0    0  0.38204342535E+01 -0.16477169880E+02  0.48091757410E+02  0.50979614945E+02  0.10566000000E+00 0.  1.
         14    1    4    4    0    0  0.31875178923E+01 -0.17627742296E+02  0.48031469991E+02  0.51263239054E+02  0.00000000000E+00 0. -1.
<mgrwt>
<rscale>  0 0.80205310E+02</rscale>
<asrwt>0</asrwt>
<pdfrwt beam="1">  1        1 0.36346019E-01 0.80205310E+02</pdfrwt>
<pdfrwt beam="2">  1       -2 0.10472797E-02 0.80205310E+02</pdfrwt>
<totfact> 0.17107751E+05</totfact>
</mgrwt>
</event>
<event>
 8    1  0.8926183E-014  0.7841453E+02  0.7818608E-02  0.1333612E+00
         -2   -1    0    0    0  501 -0.00000000000E+00  0.00000000000E+00  0.46480259134E+01  0.46480266129E+01  0.25500000000E-02 0.  1.
          1   -1    0    0  501    0  0.00000000000E+00 -0.00000000000E+00 -0.33072311186E+03  0.33072311190E+03  0.50400000000E-02 0. -1.
        -24    2    1    2    0    0  0.00000000000E+00 -0.71054273576E-14 -0.32607508595E+03  0.33537113852E+03  0.78414532272E+02 0.  0.
         66    2    3    3    0    0 -0.11277863033E+02  0.35772486900E+02 -0.11469077078E+03  0.12068485373E+03  0.20000006457E+01 0.  0.
         13    1    3    3    0    0  0.11277863033E+02 -0.35772486900E+02 -0.21138431517E+03  0.21468628479E+03  0.10566000000E+00 0. -1.
         13    1    4    4    0    0 -0.28326809126E+01  0.11053961854E+02 -0.34492563885E+02  0.36331285158E+02  0.10566000000E+00 0. -1.
        -13    1    4    4    0    0 -0.69866242399E+01  0.21687096598E+02 -0.69852298723E+02  0.73474470927E+02  0.10566000000E+00 0.  1.
         14    1    4    4    0    0 -0.14585578801E+01  0.30314284489E+01 -0.10345908176E+02  0.10879097642E+02  0.00000000000E+00 0. -1.
<mgrwt>
<rscale>  0 0.78414532E+02</rscale>
<asrwt>0</asrwt>
<pdfrwt beam="1">  1        1 0.50880461E-01 0.78414532E+02</pdfrwt>
<pdfrwt beam="2">  1       -2 0.71508122E-03 0.78414532E+02</pdfrwt>
<totfact> 0.19367132E+05</totfact>
</mgrwt>
</event>
<event>
 8    1  0.8577104E-014  0.8019773E+02  0.7818608E-02  0.1328491E+00
          1   -1    0    0  501    0  0.00000000000E+00  0.00000000000E+00  0.54608435808E+02  0.54608436040E+02  0.50400000000E-02 0. -1.
         -2   -1    0    0    0  501 -0.00000000000E+00 -0.00000000000E+00 -0.29444517163E+02  0.29444517274E+02  0.25500000000E-02 0.  1.
        -24    2    1    2    0    0  0.00000000000E+00  0.00000000000E+00  0.25163918644E+02  0.84052953314E+02  0.80197731634E+02 0.  0.
         66    2    3    3    0    0 -0.21796972011E+02  0.10341350728E+02 -0.20946273145E+02  0.32012464513E+02  0.20000004545E+01 0.  0.
         13    1    3    3    0    0  0.21796972011E+02 -0.10341350728E+02  0.46110191790E+02  0.52040488801E+02  0.10566000000E+00 0. -1.
         13    1    4    4    0    0 -0.96732086891E+01  0.42389186400E+01 -0.86307461710E+01  0.13639660593E+02  0.10566000000E+00 0. -1.
        -13    1    4    4    0    0 -0.91928121926E+01  0.48524159118E+01 -0.10083244052E+02  0.14482289558E+02  0.10566000000E+00 0.  1.
         14    1    4    4    0    0 -0.29309511290E+01  0.12500161767E+01 -0.22322829224E+01  0.38905143629E+01  0.00000000000E+00 0. -1.
<mgrwt>
<rscale>  0 0.80197732E+02</rscale>
<asrwt>0</asrwt>
<pdfrwt beam="1">  1        1 0.84012978E-02 0.80197732E+02</pdfrwt>
<pdfrwt beam="2">  1       -2 0.45299258E-02 0.80197732E+02</pdfrwt>
<totfact> 0.13249462E+05</totfact>
</mgrwt>
</event>
<event>
 8    1  0.8577104E-014  0.7925951E+02  0.7818608E-02  0.1331166E+00
         -2   -1    0    0    0  501 -0.00000000000E+00  0.00000000000E+00  0.70485917050E+01  0.70485921663E+01  0.25500000000E-02 0.  1.
          1   -1    0    0  501    0  0.00000000000E+00 -0.00000000000E+00 -0.22281296313E+03  0.22281296318E+03  0.50400000000E-02 0. -1.
        -24    2    1    2    0    0  0.00000000000E+00  0.71054273576E-14 -0.21576437142E+03  0.22986155535E+03  0.79259514589E+02 0.  0.
         66    2    3    3    0    0 -0.21474836475E+01 -0.38081902709E+02 -0.77030839755E+02  0.85980191119E+02  0.19999979115E+01 0.  0.
         13    1    3    3    0    0  0.21474836475E+01  0.38081902709E+02 -0.13873353167E+03  0.14388136423E+03  0.10566000000E+00 0. -1.
         13    1    4    4    0    0 -0.27950415184E-01 -0.49774301099E+01 -0.11222003963E+02  0.12276812645E+02  0.10566000000E+00 0. -1.
        -13    1    4    4    0    0 -0.12475329444E+01 -0.16754124083E+02 -0.34347174807E+02  0.38236064043E+02  0.10566000000E+00 0.  1.
        -14    1    4    4    0    0 -0.87200028791E+00 -0.16350348516E+02 -0.31461660984E+02  0.35467314431E+02  0.00000000000E+00 0.  1.
<mgrwt>
<rscale>  0 0.79259515E+02</rscale>
<asrwt>0</asrwt>
<pdfrwt beam="1">  1        1 0.34278912E-01 0.79259515E+02</pdfrwt>
<pdfrwt beam="2">  1       -2 0.10843989E-02 0.79259515E+02</pdfrwt>
<totfact> 0.17452973E+05</totfact>
</mgrwt>
</event>
<event>
 8    1  0.8577104E-014  0.7918851E+02  0.7818608E-02  0.1331370E+00
          1   -1    0    0  501    0  0.00000000000E+00  0.00000000000E+00  0.93754474639E+01  0.93754488186E+01  0.50400000000E-02 0. -1.
         -2   -1    0    0    0  501 -0.00000000000E+00 -0.00000000000E+00 -0.16721386344E+03  0.16721386346E+03  0.25500000000E-02 0.  1.
        -24    2    1    2    0    0  0.00000000000E+00  0.00000000000E+00 -0.15783841598E+03  0.17658931228E+03  0.79188507076E+02 0.  0.
         66    2    3    3    0    0 -0.46375679518E+01 -0.29101954551E+02 -0.13785411146E+03  0.14098293102E+03  0.19999993977E+01 0.  0.
         13    1    3    3    0    0  0.46375679518E+01  0.29101954551E+02 -0.19984304517E+02  0.35606381258E+02  0.10566000000E+00 0. -1.
         13    1    4    4    0    0 -0.36986112688E+01 -0.20229054297E+02 -0.92647475430E+02  0.94902372102E+02  0.10566000000E+00 0. -1.
        -13    1    4    4    0    0 -0.83074092257E+00 -0.72404669996E+01 -0.36185793369E+02  0.36912562884E+02  0.10566000000E+00 0.  1.
         14    1    4    4    0    0 -0.10821576041E+00 -0.16324332545E+01 -0.90208426606E+01  0.91679960345E+01  0.00000000000E+00 0. -1.
<mgrwt>
<rscale>  0 0.79188507E+02</rscale>
<asrwt>0</asrwt>
<pdfrwt beam="1">  1        1 0.14423768E-02 0.79188507E+02</pdfrwt>
<pdfrwt beam="2">  1       -2 0.25725208E-01 0.79188507E+02</pdfrwt>
<totfact> 0.93489441E+04</totfact>
</mgrwt>
</event>
<event>
 8    1  0.8577104E-014  0.7965187E+02  0.7818608E-02  0.1330042E+00
          1   -1    0    0  501    0  0.00000000000E+00  0.00000000000E+00  0.43290425284E+02  0.43290425578E+02  0.50400000000E-02 0. -1.
         -2   -1    0    0    0  501 -0.00000000000E+00 -0.00000000000E+00 -0.36638700145E+02  0.36638700233E+02  0.25500000000E-02 0.  1.
        -24    2    1    2    0    0  0.35527136788E-14  0.00000000000E+00  0.66517251395E+01  0.79929125811E+02  0.79651865676E+02 0.  0.
         66    2    3    3    0    0 -0.16656152453E+02  0.27708257887E+02  0.26623520136E+02  0.41928353068E+02  0.19999992225E+01 0.  0.
         13    1    3    3    0    0  0.16656152453E+02 -0.27708257887E+02 -0.19971794996E+02  0.38000772743E+02  0.10566000000E+00 0. -1.
         13    1    4    4    0    0 -0.61233868778E+01  0.11478919828E+02  0.10625709545E+02  0.16798164622E+02  0.10566000000E+00 0.  1.
        -13    1    4    4    0    0 -0.82858386878E+01  0.12843602465E+02  0.12033708506E+02  0.19453394343E+02  0.10566000000E+00 0. -1.
        -14    1    4    4    0    0 -0.22469268878E+01  0.33857355935E+01  0.39641020850E+01  0.56767941030E+01  0.00000000000E+00 0.  1.
<mgrwt>
<rscale>  0 0.79651866E+02</rscale>
<asrwt>0</asrwt>
<pdfrwt beam="1">  1        1 0.66600655E-02 0.79651866E+02</pdfrwt>
<pdfrwt beam="2">  1       -2 0.56367231E-02 0.79651866E+02</pdfrwt>
<totfact> 0.13018383E+05</totfact>
</mgrwt>
</event>
<event>
 8    1  0.8577104E-014  0.7856620E+02  0.7818608E-02  0.1333170E+00
         -2   -1    0    0    0  501 -0.00000000000E+00  0.00000000000E+00  0.10339288289E+03  0.10339288292E+03  0.25500000000E-02 0.  1.
          1   -1    0    0  501    0  0.00000000000E+00 -0.00000000000E+00 -0.14925222017E+02  0.14925222868E+02  0.50400000000E-02 0. -1.
        -24    2    1    2    0    0  0.00000000000E+00  0.00000000000E+00  0.88467660876E+02  0.11831810579E+03  0.78566195894E+02 0.  0.
         66    2    3    3    0    0  0.99940823773E+00  0.15787882137E+02  0.98370469353E+02  0.99654429333E+02  0.20000014151E+01 0.  0.
         13    1    3    3    0    0 -0.99940823773E+00 -0.15787882137E+02 -0.99028084771E+01  0.18663676459E+02  0.10566000000E+00 0. -1.
         13    1    4    4    0    0  0.14488467791E+00  0.11451480422E+02  0.68851845240E+02  0.69797887879E+02  0.10566000000E+00 0. -1.
        -13    1    4    4    0    0  0.28290317076E+00  0.29262178129E+01  0.18230896820E+02  0.18466714591E+02  0.10566000000E+00 0.  1.
         14    1    4    4    0    0  0.57162038906E+00  0.14101839021E+01  0.11287727293E+02  0.11389826862E+02  0.00000000000E+00 0. -1.
<mgrwt>
<rscale>  0 0.78566196E+02</rscale>
<asrwt>0</asrwt>
<pdfrwt beam="1">  1        1 0.22961881E-02 0.78566196E+02</pdfrwt>
<pdfrwt beam="2">  1       -2 0.15906597E-01 0.78566196E+02</pdfrwt>
<totfact> 0.11022986E+05</totfact>
</mgrwt>
</event>
<event>
 8    1  0.8577104E-014  0.7875498E+02  0.7818608E-02  0.1332622E+00
          1   -1    0    0  501    0  0.00000000000E+00  0.00000000000E+00  0.84205725096E+02  0.84205725246E+02  0.50400000000E-02 0. -1.
         -2   -1    0    0    0  501 -0.00000000000E+00 -0.00000000000E+00 -0.18414268603E+02  0.18414268780E+02  0.25500000000E-02 0.  1.
        -24    2    1    2    0    0  0.35527136788E-14 -0.35527136788E-14  0.65791456492E+02  0.10261999403E+03  0.78754983503E+02 0.  0.
         66    2    3    3    0    0  0.30884556249E+02 -0.24108464538E+02  0.28127826421E+02  0.48272647529E+02  0.20000008060E+01 0.  0.
         13    1    3    3    0    0 -0.30884556249E+02  0.24108464538E+02  0.37663630071E+02  0.54347346497E+02  0.10566000000E+00 0. -1.
         13    1    4    4    0    0  0.14564669546E+02 -0.11767893681E+02  0.12647520798E+02  0.22596102917E+02  0.10566000000E+00 0.  1.
        -13    1    4    4    0    0  0.47190493854E+01 -0.34949646786E+01  0.50069654320E+01  0.77178411541E+01  0.10566000000E+00 0. -1.
         14    1    4    4    0    0  0.11600837318E+02 -0.88456061789E+01  0.10473340192E+02  0.17958703459E+02  0.00000000000E+00 0. -1.
<mgrwt>
<rscale>  0 0.78754984E+02</rscale>
<asrwt>0</asrwt>
<pdfrwt beam="1">  1        1 0.12954727E-01 0.78754984E+02</pdfrwt>
<pdfrwt beam="2">  1       -2 0.28329644E-02 0.78754984E+02</pdfrwt>
<totfact> 0.14909027E+05</totfact>
</mgrwt>
</event>
<event>
 8    1  0.8577104E-014  0.7691771E+02  0.7818608E-02  0.1338033E+00
          1   -1    0    0  501    0  0.00000000000E+00  0.00000000000E+00  0.91599356935E+02  0.91599357074E+02  0.50400000000E-02 0. -1.
         -2   -1    0    0    0  501 -0.00000000000E+00 -0.00000000000E+00 -0.16147313086E+02  0.16147313287E+02  0.25500000000E-02 0.  1.
        -24    2    1    2    0    0  0.35527136788E-14  0.00000000000E+00  0.75452043849E+02  0.10774667036E+03  0.76917709617E+02 0.  0.
         66    2    3    3    0    0  0.22947200414E+02 -0.17055128060E+02  0.17743044851E+01  0.28715841934E+02  0.20000053923E+01 0.  0.
         13    1    3    3    0    0 -0.22947200414E+02  0.17055128060E+02  0.73677739364E+02  0.79030828427E+02  0.10566000000E+00 0. -1.
         13    1    4    4    0    0  0.10850135161E+02 -0.89210416402E+01  0.76593954774E+00  0.14067986508E+02  0.10566000000E+00 0.  1.
        -13    1    4    4    0    0  0.28617971095E+01 -0.21619807663E+01  0.63178968509E+00  0.36434003035E+01  0.10566000000E+00 0. -1.
         14    1    4    4    0    0  0.92352681433E+01 -0.59721056537E+01  0.37657525224E+00  0.11004455122E+02  0.00000000000E+00 0. -1.
<mgrwt>
<rscale>  0 0.76917710E+02</rscale>
<asrwt>0</asrwt>
<pdfrwt beam="1">  1        1 0.14092209E-01 0.76917710E+02</pdfrwt>
<pdfrwt beam="2">  1       -2 0.24842020E-02 0.76917710E+02</pdfrwt>
<totfact> 0.16108948E+05</totfact>
</mgrwt>
</event>
<event>
 8    1  0.8577104E-014  0.8610968E+02  0.7818608E-02  0.1312556E+00
         -2   -1    0    0    0  501 -0.00000000000E+00  0.00000000000E+00  0.23663828360E+02  0.23663828497E+02  0.25500000000E-02 0.  1.
          1   -1    0    0  501    0  0.00000000000E+00 -0.00000000000E+00 -0.78335558539E+02  0.78335558701E+02  0.50400000000E-02 0. -1.
        -24    2    1    2    0    0  0.00000000000E+00  0.00000000000E+00 -0.54671730179E+02  0.10199938720E+03  0.86109679526E+02 0.  0.
         66    2    3    3    0    0  0.17751205774E+02  0.47875082052E+01  0.18734883053E+02  0.26325299351E+02  0.20000004179E+01 0.  0.
         13    1    3    3    0    0 -0.17751205774E+02 -0.47875082052E+01 -0.73406613232E+02  0.75674087847E+02  0.10566000000E+00 0. -1.
         13    1    4    4    0    0  0.45617701026E+01  0.63214291790E+00  0.54234480505E+01  0.71157785189E+01  0.10566000000E+00 0. -1.
        -13    1    4    4    0    0  0.41172528320E+01  0.94175547794E+00  0.41021347264E+01  0.58887475419E+01  0.10566000000E+00 0.  1.
        -14    1    4    4    0    0  0.90721828392E+01  0.32136098093E+01  0.92093002762E+01  0.13320773290E+02  0.00000000000E+00 0.  1.
<mgrwt>
<rscale>  0 0.86109680E+02</rscale>
<asrwt>0</asrwt>
<pdfrwt beam="1">  1        1 0.12051624E-01 0.86109680E+02</pdfrwt>
<pdfrwt beam="2">  1       -2 0.36405890E-02 0.86109680E+02</pdfrwt>
<totfact> 0.11542142E+05</totfact>
</mgrwt>
</event>
<event>
 8    1  0.8577104E-014  0.7544176E+02  0.7818608E-02  0.1342508E+00
          1   -1    0    0  501    0  0.00000000000E+00  0.00000000000E+00  0.17258945353E+03  0.17258945360E+03  0.50400000000E-02 0. -1.
         -2   -1    0    0    0  501 -0.00000000000E+00 -0.00000000000E+00 -0.82442170627E+01  0.82442174571E+01  0.25500000000E-02 0.  1.
        -24    2    1    2    0    0  0.17763568394E-14  0.00000000000E+00  0.16434523646E+03  0.18083367106E+03  0.75441764558E+02 0.  0.
         66    2    3    3    0    0  0.13872604912E+02  0.27557942002E+02  0.30321486962E+02  0.43304525313E+02  0.20000016579E+01 0.  0.
         13    1    3    3    0    0 -0.13872604912E+02 -0.27557942002E+02  0.13402374950E+03  0.13752914574E+03  0.10566000000E+00 0. -1.
         13    1    4    4    0    0  0.15117469120E+01  0.22466509052E+01  0.25701816467E+01  0.37349453475E+01  0.10566000000E+00 0. -1.
        -13    1    4    4    0    0  0.10476569990E+02  0.21243735028E+02  0.22567836997E+02  0.32716558918E+02  0.10566000000E+00 0.  1.
        -14    1    4    4    0    0  0.18842880102E+01  0.40675560685E+01  0.51834683183E+01  0.68530210479E+01  0.00000000000E+00 0.  1.
<mgrwt>
<rscale>  0 0.75441765E+02</rscale>
<asrwt>0</asrwt>
<pdfrwt beam="1">  1        1 0.26552224E-01 0.75441765E+02</pdfrwt>
<pdfrwt beam="2">  1       -2 0.12683411E-02 0.75441765E+02</pdfrwt>
<totfact> 0.18939131E+05</totfact>
</mgrwt>
</event>
<event>
 8    1  0.8577104E-014  0.7912626E+02  0.7818608E-02  0.1331549E+00
         -2   -1    0    0    0  501 -0.00000000000E+00  0.00000000000E+00  0.94170035892E+02  0.94170035927E+02  0.25500000000E-02 0.  1.
          1   -1    0    0  501    0  0.00000000000E+00 -0.00000000000E+00 -0.16621437264E+02  0.16621438029E+02  0.50400000000E-02 0. -1.
        -24    2    1    2    0    0 -0.71054273576E-14 -0.17763568394E-14  0.77548598628E+02  0.11079147396E+03  0.79126263352E+02 0.  0.
         66    2    3    3    0    0  0.35801050676E+02  0.11910209609E+02  0.55346573724E+02  0.67013518357E+02  0.20000243194E+01 0.  0.
         13    1    3    3    0    0 -0.35801050676E+02 -0.11910209609E+02  0.22202024904E+02  0.43777955598E+02  0.10566000000E+00 0. -1.
         13    1    4    4    0    0  0.17838093136E+02  0.64668320936E+01  0.28690682048E+02  0.34397440086E+02  0.10566000000E+00 0. -1.
        -13    1    4    4    0    0  0.94237783208E+01  0.30064277596E+01  0.14852532145E+02  0.17845309772E+02  0.10566000000E+00 0.  1.
         14    1    4    4    0    0  0.85391792195E+01  0.24369497560E+01  0.11803359530E+02  0.14770768499E+02  0.00000000000E+00 0. -1.
<mgrwt>
<rscale>  0 0.79126263E+02</rscale>
<asrwt>0</asrwt>
<pdfrwt beam="1">  1        1 0.25571442E-02 0.79126263E+02</pdfrwt>
<pdfrwt beam="2">  1       -2 0.14487698E-01 0.79126263E+02</pdfrwt>
<totfact> 0.11075831E+05</totfact>
</mgrwt>
</event>
<event>
 8    1  0.8577104E-014  0.8572177E+02  0.7818608E-02  0.1313556E+00
         -2   -1    0    0    0  501 -0.00000000000E+00  0.00000000000E+00  0.42926256708E+01  0.42926264282E+01  0.25500000000E-02 0.  1.
          1   -1    0    0  501    0  0.00000000000E+00 -0.00000000000E+00 -0.42795605098E+03  0.42795605101E+03  0.50400000000E-02 0. -1.
        -24    2    1    2    0    0  0.17763568394E-14  0.00000000000E+00 -0.42366342531E+03  0.43224867744E+03  0.85721766210E+02 0.  0.
         66    2    3    3    0    0  0.10238119189E+02  0.40206854015E+02 -0.26570039403E+03  0.26892770325E+03  0.19999985080E+01 0.  0.
         13    1    3    3    0    0 -0.10238119189E+02 -0.40206854015E+02 -0.15796303129E+03  0.16332097420E+03  0.10566000000E+00 0. -1.
         13    1    4    4    0    0  0.17323223252E+01  0.94118343575E+01 -0.63297933244E+02  0.64017365485E+02  0.10566000000E+00 0. -1.
        -13    1    4    4    0    0  0.56349475651E+01  0.20149278468E+02 -0.13520373820E+03  0.13681304047E+03  0.10566000000E+00 0.  1.
        -14    1    4    4    0    0  0.28708492990E+01  0.10645741189E+02 -0.67198722586E+02  0.68097297291E+02  0.00000000000E+00 0.  1.
<mgrwt>
<rscale>  0 0.85721766E+02</rscale>
<asrwt>0</asrwt>
<pdfrwt beam="1">  1        1 0.65839359E-01 0.85721766E+02</pdfrwt>
<pdfrwt beam="2">  1       -2 0.66040435E-03 0.85721766E+02</pdfrwt>
<totfact> 0.16004143E+05</totfact>
</mgrwt>
</event>
<event>
 8    1  0.8577104E-014  0.8227343E+02  0.7818608E-02  0.1322721E+00
         -2   -1    0    0    0  501 -0.00000000000E+00  0.00000000000E+00  0.11093214208E+02  0.11093214501E+02  0.25500000000E-02 0.  1.
          1   -1    0    0  501    0  0.00000000000E+00 -0.00000000000E+00 -0.15254634534E+03  0.15254634543E+03  0.50400000000E-02 0. -1.
        -24    2    1    2    0    0  0.00000000000E+00  0.00000000000E+00 -0.14145313113E+03  0.16363955993E+03  0.82273429888E+02 0.  0.
         66    2    3    3    0    0  0.18369265353E+02 -0.32075660494E+02 -0.34969706222E+02  0.50923062240E+02  0.20000022272E+01 0.  0.
         13    1    3    3    0    0 -0.18369265353E+02  0.32075660494E+02 -0.10648342491E+03  0.11271649769E+03  0.10566000000E+00 0. -1.
         13    1    4    4    0    0  0.40312026163E+01 -0.80064265735E+01 -0.81536672163E+01  0.12118040853E+02  0.10566000000E+00 0. -1.
        -13    1    4    4    0    0  0.41049743412E+01 -0.68641728455E+01 -0.68346045220E+01  0.10520963178E+02  0.10566000000E+00 0.  1.
        -14    1    4    4    0    0  0.10233088395E+02 -0.17205061075E+02 -0.19981434484E+02  0.28284058209E+02  0.00000000000E+00 0.  1.
<mgrwt>
<rscale>  0 0.82273430E+02</rscale>
<asrwt>0</asrwt>
<pdfrwt beam="1">  1        1 0.23468667E-01 0.82273430E+02</pdfrwt>
<pdfrwt beam="2">  1       -2 0.17066485E-02 0.82273430E+02</pdfrwt>
<totfact> 0.14693722E+05</totfact>
</mgrwt>
</event>
<event>
 8    1  0.8577104E-014  0.8042744E+02  0.7818608E-02  0.1327843E+00
          1   -1    0    0  501    0  0.00000000000E+00  0.00000000000E+00  0.15561935195E+02  0.15561936011E+02  0.50400000000E-02 0. -1.
         -2   -1    0    0    0  501 -0.00000000000E+00 -0.00000000000E+00 -0.10391658611E+03  0.10391658614E+03  0.25500000000E-02 0.  1.
        -24    2    1    2    0    0 -0.88817841970E-15  0.00000000000E+00 -0.88354650912E+02  0.11947852215E+03  0.80427438832E+02 0.  0.
         66    2    3    3    0    0 -0.67058835087E+01  0.26048553853E+02 -0.88563482646E+02  0.92579622427E+02  0.19999997468E+01 0.  0.
         13    1    3    3    0    0  0.67058835087E+01 -0.26048553853E+02  0.20883173409E+00  0.26898899721E+02  0.10566000000E+00 0. -1.
         13    1    4    4    0    0 -0.13227070942E+01  0.81388205836E+01 -0.25596232808E+02  0.26891787827E+02  0.10566000000E+00 0. -1.
        -13    1    4    4    0    0 -0.30793551716E+01  0.11035868096E+02 -0.38921002976E+02  0.40572508545E+02  0.10566000000E+00 0.  1.
         14    1    4    4    0    0 -0.23038212429E+01  0.68738651733E+01 -0.24046246862E+02  0.25115326056E+02  0.00000000000E+00 0. -1.
<mgrwt>
<rscale>  0 0.80427439E+02</rscale>
<asrwt>0</asrwt>
<pdfrwt beam="1">  1        1 0.23941440E-02 0.80427439E+02</pdfrwt>
<pdfrwt beam="2">  1       -2 0.15987167E-01 0.80427439E+02</pdfrwt>
<totfact> 0.10368278E+05</totfact>
</mgrwt>
</event>
<event>
 8    1  0.8577104E-014  0.7938571E+02  0.7818608E-02  0.1330804E+00
         -2   -1    0    0    0  501 -0.00000000000E+00  0.00000000000E+00  0.37963681422E+02  0.37963681508E+02  0.25500000000E-02 0.  1.
          1   -1    0    0  501    0  0.00000000000E+00 -0.00000000000E+00 -0.41500787292E+02  0.41500787598E+02  0.50400000000E-02 0. -1.
        -24    2    1    2    0    0  0.71054273576E-14  0.35527136788E-14 -0.35371058700E+01  0.79464469106E+02  0.79385708615E+02 0.  0.
         66    2    3    3    0    0  0.34216242638E+02  0.19728520658E+02  0.19152765417E+01  0.39593358943E+02  0.20000001453E+01 0.  0.
         13    1    3    3    0    0 -0.34216242638E+02 -0.19728520658E+02 -0.54523824118E+01  0.39871110162E+02  0.10566000000E+00 0. -1.
         13    1    4    4    0    0  0.54041137853E+01  0.32490723002E+01 -0.33716050667E+00  0.63155172281E+01  0.10566000000E+00 0. -1.
        -13    1    4    4    0    0  0.38482162645E+01  0.19576126119E+01  0.16267749662E+00  0.43218796328E+01  0.10566000000E+00 0.  1.
         14    1    4    4    0    0  0.24963912588E+02  0.14521835746E+02  0.20897595518E+01  0.28955962082E+02  0.00000000000E+00 0. -1.
<mgrwt>
<rscale>  0 0.79385709E+02</rscale>
<asrwt>0</asrwt>
<pdfrwt beam="1">  1        1 0.63847366E-02 0.79385709E+02</pdfrwt>
<pdfrwt beam="2">  1       -2 0.58405664E-02 0.79385709E+02</pdfrwt>
<totfact> 0.13052980E+05</totfact>
</mgrwt>
</event>
<event>
 8    1  0.8577104E-014  0.7992326E+02  0.7818608E-02  0.1329269E+00
          1   -1    0    0  501    0  0.00000000000E+00  0.00000000000E+00  0.71206065573E+02  0.71206065751E+02  0.50400000000E-02 0. -1.
         -2   -1    0    0    0  501 -0.00000000000E+00 -0.00000000000E+00 -0.22426907656E+02  0.22426907801E+02  0.25500000000E-02 0.  1.
        -24    2    1    2    0    0  0.35527136788E-14  0.71054273576E-14  0.48779157917E+02  0.93632973552E+02  0.79923260001E+02 0.  0.
         66    2    3    3    0    0  0.19408664378E+02  0.27369760280E+02 -0.96988345878E+00  0.33626487965E+02  0.19999970511E+01 0.  0.
         13    1    3    3    0    0 -0.19408664378E+02 -0.27369760280E+02  0.49749041376E+02  0.60006485587E+02  0.10566000000E+00 0. -1.
         13    1    4    4    0    0  0.30332803720E+01  0.37607589758E+01  0.43954059897E+00  0.48526753305E+01  0.10566000000E+00 0. -1.
        -13    1    4    4    0    0  0.11317092521E+02  0.16708817769E+02 -0.81103821398E+00  0.20197280049E+02  0.10566000000E+00 0.  1.
        -14    1    4    4    0    0  0.50582914847E+01  0.69001835357E+01 -0.59838584376E+00  0.85765325854E+01  0.00000000000E+00 0.  1.
<mgrwt>
<rscale>  0 0.79923260E+02</rscale>
<asrwt>0</asrwt>
<pdfrwt beam="1">  1        1 0.10954779E-01 0.79923260E+02</pdfrwt>
<pdfrwt beam="2">  1       -2 0.34502935E-02 0.79923260E+02</pdfrwt>
<totfact> 0.13944784E+05</totfact>
</mgrwt>
</event>
<event>
 8    1  0.8577104E-014  0.7999502E+02  0.7818608E-02  0.1329066E+00
          1   -1    0    0  501    0  0.00000000000E+00  0.00000000000E+00  0.19224857881E+03  0.19224857887E+03  0.50400000000E-02 0. -1.
         -2   -1    0    0    0  501 -0.00000000000E+00 -0.00000000000E+00 -0.83215221814E+01  0.83215225721E+01  0.25500000000E-02 0.  1.
        -24    2    1    2    0    0 -0.11102230246E-15  0.71054273576E-14  0.18392705663E+03  0.20057010144E+03  0.79995021312E+02 0.  0.
         66    2    3    3    0    0  0.49100308781E+00 -0.38183244119E+02  0.62397263116E+02  0.73182099302E+02  0.19999995977E+01 0.  0.
         13    1    3    3    0    0 -0.49100308781E+00  0.38183244119E+02  0.12152979351E+03  0.12738800214E+03  0.10566000000E+00 0. -1.
         13    1    4    4    0    0 -0.23245133663E+00 -0.38133349510E+01  0.53098940880E+01  0.65423005383E+01  0.10566000000E+00 0. -1.
        -13    1    4    4    0    0  0.46336642327E+00 -0.18222330337E+02  0.30090183563E+02  0.35180937200E+02  0.10566000000E+00 0.  1.
         14    1    4    4    0    0  0.26008800117E+00 -0.16147578831E+02  0.26997185465E+02  0.31458861564E+02  0.00000000000E+00 0. -1.
<mgrwt>
<rscale>  0 0.79995021E+02</rscale>
<asrwt>0</asrwt>
<pdfrwt beam="1">  1        1 0.29576703E-01 0.79995021E+02</pdfrwt>
<pdfrwt beam="2">  1       -2 0.12802343E-02 0.79995021E+02</pdfrwt>
<totfact> 0.16549489E+05</totfact>
</mgrwt>
</event>
