<event>
 8    1  0.2561077E-024  0.7852908E+02  0.7818608E-02  0.1333278E+00
          2   -1    0    0  501    0  0.00000000000E+00  0.00000000000E+00  0.29637763715E+02  0.29637763825E+02  0.25500000000E-02 0. -1.
         -1   -1    0    0    0  501 -0.00000000000E+00 -0.00000000000E+00 -0.52018236544E+02  0.52018236788E+02  0.50400000000E-02 0.  1.
         24    2    1    2    0    0  0.00000000000E+00  0.00000000000E+00 -0.22380472828E+02  0.81656000613E+02  0.78529082970E+02 0.  0.
         66    2    3    3    0    0  0.44294325854E+01 -0.36243004186E+02  0.37457017518E+01  0.36758746936E+02  0.19999923089E+01 0.  0.
        -13    1    3    3    0    0 -0.44294325854E+01  0.36243004186E+02 -0.26126174580E+02  0.44897253677E+02  0.10566000000E+00 0.  1.
         13    1    4    4    0    0  0.25739955031E+01 -0.21984183993E+02  0.15691679458E+01  0.22190161126E+02  0.10566000000E+00 0. -1.
        -13    1    4    4    0    0  0.37007506602E+00 -0.57773275323E+01  0.69923664674E+00  0.58322006905E+01  0.10566000000E+00 0.  1.
        -14    1    4    4    0    0  0.14853620163E+01 -0.84814926608E+01  0.14772971592E+01  0.87363851203E+01  0.00000000000E+00 0.  1.
<mgrwt>
<rscale>  0 0.78529083E+02</rscale>
<asrwt>0</asrwt>
<pdfrwt beam="1">  1        2 0.45596560E-02 0.78529083E+02</pdfrwt>
<pdfrwt beam="2">  1       -1 0.80028057E-02 0.78529083E+02</pdfrwt>
<totfact> 0.14138973E+05</totfact>
</mgrwt>
</event>
<event>
 8    1  0.2561077E-024  0.7809427E+02  0.7818608E-02  0.1334548E+00
          2   -1    0    0  501    0  0.00000000000E+00  0.00000000000E+00  0.63123453444E+03  0.63123453445E+03  0.25500000000E-02 0. -1.
         -1   -1    0    0    0  501 -0.00000000000E+00 -0.00000000000E+00 -0.24153894778E+01  0.24153947361E+01  0.50400000000E-02 0.  1.
         24    2    1    2    0    0 -0.17763568394E-14 -0.71054273576E-14  0.62881914496E+03  0.63364992918E+03  0.78094274313E+02 0.  0.
         66    2    3    3    0    0  0.10958711652E+02  0.29111815238E+02  0.50578052654E+03  0.50674010319E+03  0.19999999658E+01 0.  0.
        -13    1    3    3    0    0 -0.10958711652E+02 -0.29111815238E+02  0.12303861842E+03  0.12690982600E+03  0.10566000000E+00 0.  1.
         13    1    4    4    0    0  0.39486158681E+01  0.11088716493E+02  0.20295465434E+03  0.20329573060E+03  0.10566000000E+00 0. -1.
        -13    1    4    4    0    0  0.33286701364E+01  0.78713933048E+01  0.12718254071E+03  0.12746940300E+03  0.10566000000E+00 0.  1.
         14    1    4    4    0    0  0.36814256473E+01  0.10151705439E+02  0.17564333150E+03  0.17597496958E+03  0.00000000000E+00 0. -1.
<mgrwt>
<rscale>  0 0.78094274E+02</rscale>
<asrwt>0</asrwt>
<pdfrwt beam="1">  1        2 0.97113011E-01 0.78094274E+02</pdfrwt>
<pdfrwt beam="2">  1       -1 0.37159876E-03 0.78094274E+02</pdfrwt>
<totfact> 0.34716941E+05</totfact>
</mgrwt>
</event>
<event>
 8    1  0.2561077E-024  0.7947690E+02  0.7818608E-02  0.1330542E+00
         -1   -1    0    0    0  501 -0.00000000000E+00  0.00000000000E+00  0.23163511475E+02  0.23163512023E+02  0.50400000000E-02 0.  1.
          2   -1    0    0  501    0  0.00000000000E+00 -0.00000000000E+00 -0.68173794748E+02  0.68173794796E+02  0.25500000000E-02 0. -1.
         24    2    1    2    0    0  0.00000000000E+00  0.00000000000E+00 -0.45010283273E+02  0.91337306818E+02  0.79476902409E+02 0.  0.
         66    2    3    3    0    0 -0.53040818037E+01 -0.21266097054E+02 -0.60578841981E+02  0.64452899592E+02  0.20000005889E+01 0.  0.
        -13    1    3    3    0    0  0.53040818037E+01  0.21266097054E+02  0.15568558707E+02  0.26884407227E+02  0.10566000000E+00 0.  1.
         13    1    4    4    0    0 -0.14137695840E+01 -0.78052844896E+01 -0.19950762219E+02  0.21470102179E+02  0.10566000000E+00 0.  1.
        -13    1    4    4    0    0 -0.10214205987E+01 -0.25932002184E+01 -0.83968904426E+01  0.88479896334E+01  0.10566000000E+00 0.  1.
         14    1    4    4    0    0 -0.28688916210E+01 -0.10867612346E+02 -0.32231189319E+02  0.34134807780E+02  0.00000000000E+00 0. -1.
<mgrwt>
<rscale>  0 0.79476902E+02</rscale>
<asrwt>0</asrwt>
<pdfrwt beam="1">  1        2 0.10488276E-01 0.79476902E+02</pdfrwt>
<pdfrwt beam="2">  1       -1 0.35636172E-02 0.79476902E+02</pdfrwt>
<totfact> 0.16330663E+05</totfact>
</mgrwt>
</event>
<event>
 8    1  0.2561077E-024  0.8091858E+02  0.7818608E-02  0.1326465E+00
         -1   -1    0    0    0  501 -0.00000000000E+00  0.00000000000E+00  0.66773433915E+01  0.66773452935E+01  0.50400000000E-02 0.  1.
          2   -1    0    0  501    0  0.00000000000E+00 -0.00000000000E+00 -0.24515049020E+03  0.24515049022E+03  0.25500000000E-02 0. -1.
         24    2    1    2    0    0  0.00000000000E+00  0.00000000000E+00 -0.23847314681E+03  0.25182783551E+03  0.80918582460E+02 0.  0.
         66    2    3    3    0    0  0.48991669374E+01  0.38191921133E+02 -0.15771887255E+03  0.16236338083E+03  0.19999995022E+01 0.  0.
        -13    1    3    3    0    0 -0.48991669374E+01 -0.38191921133E+02 -0.80754274261E+02  0.89464454684E+02  0.10566000000E+00 0.  1.
         13    1    4    4    0    0  0.23492045049E+01  0.15465541796E+02 -0.65611054857E+02  0.67450155139E+02  0.10566000000E+00 0. -1.
        -13    1    4    4    0    0  0.16423839368E+01  0.11658437851E+02 -0.45113415616E+02  0.46624543223E+02  0.10566000000E+00 0.  1.
         14    1    4    4    0    0  0.90757849567E+00  0.11067941486E+02 -0.46994402078E+02  0.48288682464E+02  0.00000000000E+00 0. -1.
<mgrwt>
<rscale>  0 0.80918582E+02</rscale>
<asrwt>0</asrwt>
<pdfrwt beam="1">  1        2 0.37715453E-01 0.80918582E+02</pdfrwt>
<pdfrwt beam="2">  1       -1 0.10272839E-02 0.80918582E+02</pdfrwt>
<totfact> 0.23000188E+05</totfact>
</mgrwt>
</event>
<event>
 8    1  0.2561077E-024  0.8108034E+02  0.7818608E-02  0.1326013E+00
          2   -1    0    0  501    0  0.00000000000E+00  0.00000000000E+00  0.46249614662E+03  0.46249614663E+03  0.25500000000E-02 0. -1.
         -1   -1    0    0    0  501 -0.00000000000E+00 -0.00000000000E+00 -0.35535528155E+01  0.35535563896E+01  0.50400000000E-02 0.  1.
         24    2    1    2    0    0  0.71054273576E-14 -0.17763568394E-14  0.45894259381E+03  0.46604970302E+03  0.81080338393E+02 0.  0.
         66    2    3    3    0    0 -0.36688582886E+02  0.72458643570E+01  0.31920295153E+03  0.32139240644E+03  0.19999976461E+01 0.  0.
        -13    1    3    3    0    0  0.36688582886E+02 -0.72458643570E+01  0.13973964228E+03  0.14465729658E+03  0.10566000000E+00 0.  1.
         13    1    4    4    0    0 -0.63517337009E+01  0.67196176677E+00  0.57498364673E+02  0.57852131834E+02  0.10566000000E+00 0. -1.
        -13    1    4    4    0    0 -0.55837777555E+01  0.10201805812E+01  0.45936309276E+02  0.46285797135E+02  0.10566000000E+00 0.  1.
         14    1    4    4    0    0 -0.24753071429E+02  0.55537220091E+01  0.21576827758E+03  0.21725447747E+03  0.00000000000E+00 0. -1.
<mgrwt>
<rscale>  0 0.81080338E+02</rscale>
<asrwt>0</asrwt>
<pdfrwt beam="1">  1        2 0.71153206E-01 0.81080338E+02</pdfrwt>
<pdfrwt beam="2">  1       -1 0.54670107E-03 0.81080338E+02</pdfrwt>
<totfact> 0.28667205E+05</totfact>
</mgrwt>
</event>
<event>
 8    1  0.2561077E-024  0.8050603E+02  0.7818608E-02  0.1327622E+00
         -1   -1    0    0    0  501 -0.00000000000E+00  0.00000000000E+00  0.18468428008E+01  0.18468496778E+01  0.50400000000E-02 0.  1.
          2   -1    0    0  501    0  0.00000000000E+00 -0.00000000000E+00 -0.87733626032E+03  0.87733626033E+03  0.25500000000E-02 0. -1.
         24    2    1    2    0    0  0.00000000000E+00  0.00000000000E+00 -0.87548941752E+03  0.87918311000E+03  0.80506029115E+02 0.  0.
         66    2    3    3    0    0 -0.91658200185E+01 -0.16370086046E+02 -0.82663008921E+03  0.82684538842E+03  0.19999963850E+01 0.  0.
        -13    1    3    3    0    0  0.91658200185E+01  0.16370086046E+02 -0.48859328306E+02  0.52337721581E+02  0.10566000000E+00 0.  1.
         13    1    4    4    0    0 -0.47318626900E+01 -0.72340747884E+01 -0.35367528633E+03  0.35378092330E+03  0.10566000000E+00 0. -1.
        -13    1    4    4    0    0 -0.15989196929E+01 -0.30695495377E+01 -0.17778338662E+03  0.17781710379E+03  0.10566000000E+00 0.  1.
        -14    1    4    4    0    0 -0.28350376356E+01 -0.60664617198E+01 -0.29517141626E+03  0.29524736133E+03  0.00000000000E+00 0.  1.
<mgrwt>
<rscale>  0 0.80506029E+02</rscale>
<asrwt>0</asrwt>
<pdfrwt beam="1">  1        2 0.13497448E+00 0.80506029E+02</pdfrwt>
<pdfrwt beam="2">  1       -1 0.28413089E-03 0.80506029E+02</pdfrwt>
<totfact> 0.34276046E+05</totfact>
</mgrwt>
</event>
<event>
 8    1  0.2561077E-024  0.7630888E+02  0.7818608E-02  0.1339865E+00
          2   -1    0    0  501    0  0.00000000000E+00  0.00000000000E+00  0.99722239054E+02  0.99722239087E+02  0.25500000000E-02 0. -1.
         -1   -1    0    0    0  501 -0.00000000000E+00 -0.00000000000E+00 -0.14598160565E+02  0.14598161435E+02  0.50400000000E-02 0.  1.
         24    2    1    2    0    0 -0.71054273576E-14 -0.88817841970E-15  0.85124078489E+02  0.11432040052E+03  0.76308880459E+02 0.  0.
         66    2    3    3    0    0  0.22935186074E+02  0.58695105145E+01  0.87366965196E+02  0.90539828225E+02  0.19999933844E+01 0.  0.
        -13    1    3    3    0    0 -0.22935186074E+02 -0.58695105145E+01 -0.22428867079E+01  0.23780572296E+02  0.10566000000E+00 0.  1.
         13    1    4    4    0    0  0.19654024459E+02  0.52390324184E+01  0.74761301551E+02  0.77478974644E+02  0.10566000000E+00 0. -1.
        -13    1    4    4    0    0  0.31328962977E+01  0.42744006056E+00  0.11525985761E+02  0.11952290827E+02  0.10566000000E+00 0.  1.
        -14    1    4    4    0    0  0.14826531725E+00  0.20303803553E+00  0.10796778836E+01  0.11085627545E+01  0.00000000000E+00 0.  1.
<mgrwt>
<rscale>  0 0.76308880E+02</rscale>
<asrwt>0</asrwt>
<pdfrwt beam="1">  1        2 0.15341884E-01 0.76308880E+02</pdfrwt>
<pdfrwt beam="2">  1       -1 0.22458708E-02 0.76308880E+02</pdfrwt>
<totfact> 0.20094493E+05</totfact>
</mgrwt>
</event>
<event>
 8    1  0.2561077E-024  0.7126209E+02  0.7818608E-02  0.1355853E+00
         -1   -1    0    0    0  501 -0.00000000000E+00  0.00000000000E+00  0.10393435241E+02  0.10393436463E+02  0.50400000000E-02 0.  1.
          2   -1    0    0  501    0  0.00000000000E+00 -0.00000000000E+00 -0.12215126264E+03  0.12215126267E+03  0.25500000000E-02 0. -1.
         24    2    1    2    0    0  0.35527136788E-14  0.35527136788E-14 -0.11175782740E+03  0.13254469913E+03  0.71262088678E+02 0.  0.
         66    2    3    3    0    0 -0.27822973573E+02 -0.21669186854E+02 -0.46830845434E+02  0.58658329153E+02  0.19999944132E+01 0.  0.
        -13    1    3    3    0    0  0.27822973573E+02  0.21669186854E+02 -0.64926981970E+02  0.73886369982E+02  0.10566000000E+00 0.  1.
         13    1    4    4    0    0 -0.20947559993E+02 -0.16573600757E+02 -0.36529652010E+02  0.45253852341E+02  0.10566000000E+00 0. -1.
        -13    1    4    4    0    0 -0.60501352303E+01 -0.45549969844E+01 -0.93656101802E+01  0.12044830921E+02  0.10566000000E+00 0.  1.
         14    1    4    4    0    0 -0.82527834978E+00 -0.54058911266E+00 -0.93558324308E+00  0.13596458907E+01  0.00000000000E+00 0. -1.
<mgrwt>
<rscale>  0 0.71262089E+02</rscale>
<asrwt>0</asrwt>
<pdfrwt beam="1">  1        2 0.18792501E-01 0.71262089E+02</pdfrwt>
<pdfrwt beam="2">  1       -1 0.15989902E-02 0.71262089E+02</pdfrwt>
<totfact> 0.25511648E+05</totfact>
</mgrwt>
</event>
<event>
 8    1  0.2765154E-024  0.8065527E+02  0.7818608E-02  0.1327202E+00
         -1   -1    0    0    0  501 -0.00000000000E+00  0.00000000000E+00  0.36875308369E+01  0.36875342812E+01  0.50400000000E-02 0.  1.
          2   -1    0    0  501    0  0.00000000000E+00 -0.00000000000E+00 -0.44103147999E+03  0.44103147999E+03  0.25500000000E-02 0. -1.
         24    2    1    2    0    0  0.35527136788E-14 -0.44408920985E-15 -0.43734394915E+03  0.44471901427E+03  0.80655265172E+02 0.  0.
         66    2    3    3    0    0 -0.24156743911E+02  0.24292142858E+01 -0.39618192621E+03  0.39693018027E+03  0.20000002070E+01 0.  0.
        -13    1    3    3    0    0  0.24156743911E+02 -0.24292142858E+01 -0.41162022943E+02  0.47788834001E+02  0.10566000000E+00 0.  1.
         13    1    4    4    0    0 -0.34270793576E+00  0.36300505081E-02 -0.67021842645E+01  0.67117732275E+01  0.10566000000E+00 0.  1.
        -13    1    4    4    0    0 -0.16920415515E+01 -0.23518512224E+00 -0.25680962614E+02  0.25737935454E+02  0.10566000000E+00 0.  1.
         14    1    4    4    0    0 -0.22121994424E+02  0.26607693575E+01 -0.36379877933E+03  0.36448047159E+03  0.00000000000E+00 0. -1.
<mgrwt>
<rscale>  0 0.80655265E+02</rscale>
<asrwt>0</asrwt>
<pdfrwt beam="1">  1        2 0.67850955E-01 0.80655265E+02</pdfrwt>
<pdfrwt beam="2">  1       -1 0.56731305E-03 0.80655265E+02</pdfrwt>
<totfact> 0.28603919E+05</totfact>
</mgrwt>
</event>
<event>
 8    1  0.2561077E-024  0.8074360E+02  0.7818608E-02  0.1326954E+00
         -1   -1    0    0    0  501 -0.00000000000E+00  0.00000000000E+00  0.41078163619E+02  0.41078163928E+02  0.50400000000E-02 0.  1.
          2   -1    0    0  501    0  0.00000000000E+00 -0.00000000000E+00 -0.39677585510E+02  0.39677585592E+02  0.25500000000E-02 0. -1.
         24    2    1    2    0    0 -0.88817841970E-15 -0.71054273576E-14  0.14005781088E+01  0.80755749520E+02  0.80743603223E+02 0.  0.
         66    2    3    3    0    0  0.74241746637E+01  0.28725368775E+02 -0.26645893952E+02  0.39928296259E+02  0.19999992223E+01 0.  0.
        -13    1    3    3    0    0 -0.74241746637E+01 -0.28725368775E+02  0.28046472061E+02  0.40827453261E+02  0.10566000000E+00 0.  1.
         13    1    4    4    0    0  0.14641049494E+01  0.55419073258E+01 -0.51474937151E+01  0.77048163958E+01  0.10566000000E+00 0. -1.
        -13    1    4    4    0    0  0.53967164418E+01  0.18394242375E+02 -0.17570400265E+02  0.26003900293E+02  0.10566000000E+00 0.  1.
        -14    1    4    4    0    0  0.56335327243E+00  0.47892190740E+01 -0.39279999720E+01  0.62195795701E+01  0.00000000000E+00 0.  1.
<mgrwt>
<rscale>  0 0.80743603E+02</rscale>
<asrwt>0</asrwt>
<pdfrwt beam="1">  1        2 0.61042440E-02 0.80743603E+02</pdfrwt>
<pdfrwt beam="2">  1       -1 0.63197175E-02 0.80743603E+02</pdfrwt>
<totfact> 0.13871776E+05</totfact>
</mgrwt>
</event>
<event>
 8    1  0.2561077E-024  0.7787731E+02  0.7818608E-02  0.1335186E+00
          2   -1    0    0  501    0  0.00000000000E+00  0.00000000000E+00  0.54760552581E+02  0.54760552640E+02  0.25500000000E-02 0. -1.
         -1   -1    0    0    0  501 -0.00000000000E+00 -0.00000000000E+00 -0.27688157385E+02  0.27688157843E+02  0.50400000000E-02 0.  1.
         24    2    1    2    0    0  0.71054273576E-14  0.00000000000E+00  0.27072395196E+02  0.82448710483E+02  0.77877309139E+02 0.  0.
         66    2    3    3    0    0  0.38612596485E+02  0.45334762041E+01  0.15293996928E+02  0.41825726304E+02  0.20000062688E+01 0.  0.
        -13    1    3    3    0    0 -0.38612596485E+02 -0.45334762041E+01  0.11778398268E+02  0.40622984179E+02  0.10566000000E+00 0.  1.
         13    1    4    4    0    0  0.21812447229E+02  0.31802534211E+01  0.89825354371E+01  0.23803234504E+02  0.10566000000E+00 0.  1.
        -13    1    4    4    0    0  0.14767345729E+02  0.98984188600E+00  0.57864279965E+01  0.15891765158E+02  0.10566000000E+00 0. -1.
        -14    1    4    4    0    0  0.20328035275E+01  0.36338089696E+00  0.52503349402E+00  0.21307266431E+01  0.00000000000E+00 0.  1.
<mgrwt>
<rscale>  0 0.77877309E+02</rscale>
<asrwt>0</asrwt>
<pdfrwt beam="1">  1        2 0.84247004E-02 0.77877309E+02</pdfrwt>
<pdfrwt beam="2">  1       -1 0.42597166E-02 0.77877309E+02</pdfrwt>
<totfact> 0.16405203E+05</totfact>
</mgrwt>
</event>
<event>
 8    1  0.2561077E-024  0.7886493E+02  0.7818608E-02  0.1332304E+00
         -1   -1    0    0    0  501 -0.00000000000E+00  0.00000000000E+00  0.13245175892E+01  0.13245271782E+01  0.50400000000E-02 0.  1.
          2   -1    0    0  501    0  0.00000000000E+00 -0.00000000000E+00 -0.11739472916E+04  0.11739472916E+04  0.25500000000E-02 0. -1.
         24    2    1    2    0    0  0.00000000000E+00 -0.17763568394E-14 -0.11726227740E+04  0.11752718187E+04  0.78864934488E+02 0.  0.
         66    2    3    3    0    0 -0.11215478192E+02  0.15034858921E+02 -0.11031518748E+04  0.11033131436E+04  0.20000018400E+01 0.  0.
        -13    1    3    3    0    0  0.11215478192E+02 -0.15034858921E+02 -0.69470899139E+02  0.71958675121E+02  0.10566000000E+00 0.  1.
         13    1    4    4    0    0 -0.39185422090E+01  0.58657376601E+01 -0.39565336449E+03  0.39571625927E+03  0.10566000000E+00 0. -1.
        -13    1    4    4    0    0 -0.64062449863E+01  0.73408996899E+01 -0.60058405485E+03  0.60066308934E+03  0.10566000000E+00 0.  1.
        -14    1    4    4    0    0 -0.89069099676E+00  0.18282215711E+01 -0.10691445550E+03  0.10693379503E+03  0.00000000000E+00 0.  1.
<mgrwt>
<rscale>  0 0.78864934E+02</rscale>
<asrwt>0</asrwt>
<pdfrwt beam="1">  1        2 0.18060644E+00 0.78864934E+02</pdfrwt>
<pdfrwt beam="2">  1       -1 0.20377361E-03 0.78864934E+02</pdfrwt>
<totfact> 0.36441027E+05</totfact>
</mgrwt>
</event>
<event>
 8    1  0.2561077E-024  0.8251624E+02  0.7818608E-02  0.1322059E+00
         -1   -1    0    0    0  501 -0.00000000000E+00  0.00000000000E+00  0.69369674336E+02  0.69369674519E+02  0.50400000000E-02 0.  1.
          2   -1    0    0  501    0  0.00000000000E+00 -0.00000000000E+00 -0.24538567130E+02  0.24538567262E+02  0.25500000000E-02 0. -1.
         24    2    1    2    0    0  0.00000000000E+00 -0.35527136788E-14  0.44831107206E+02  0.93908241781E+02  0.82516239014E+02 0.  0.
         66    2    3    3    0    0  0.71567048651E+01  0.27535022329E+02 -0.11538697056E+02  0.30765848131E+02  0.20000005676E+01 0.  0.
        -13    1    3    3    0    0 -0.71567048651E+01 -0.27535022329E+02  0.56369804262E+02  0.63142393650E+02  0.10566000000E+00 0.  1.
         13    1    4    4    0    0  0.47699773077E+01  0.16384753903E+02 -0.73007884903E+01  0.18561398670E+02  0.10566000000E+00 0. -1.
        -13    1    4    4    0    0  0.23408272839E+01  0.11093274116E+02 -0.41155687203E+01  0.12061893422E+02  0.10566000000E+00 0.  1.
        -14    1    4    4    0    0  0.45900273533E-01  0.56994310132E-01 -0.12233984562E+00  0.14255603924E+00  0.00000000000E+00 0.  1.
<mgrwt>
<rscale>  0 0.82516239E+02</rscale>
<asrwt>0</asrwt>
<pdfrwt beam="1">  1        2 0.37751642E-02 0.82516239E+02</pdfrwt>
<pdfrwt beam="2">  1       -1 0.10672258E-01 0.82516239E+02</pdfrwt>
<totfact> 0.11842751E+05</totfact>
</mgrwt>
</event>
<event>
 8    1  0.2561077E-024  0.7502618E+02  0.7818608E-02  0.1343790E+00
          2   -1    0    0  501    0  0.00000000000E+00  0.00000000000E+00  0.16655795941E+03  0.16655795943E+03  0.25500000000E-02 0. -1.
         -1   -1    0    0    0  501 -0.00000000000E+00 -0.00000000000E+00 -0.84489025936E+01  0.84489040968E+01  0.50400000000E-02 0.  1.
         24    2    1    2    0    0  0.00000000000E+00  0.22204460493E-15  0.15810905682E+03  0.17500686353E+03  0.75026184990E+02 0.  0.
         66    2    3    3    0    0 -0.30773898489E+02 -0.17784046022E+01  0.12886856270E+03  0.13251906280E+03  0.19999999063E+01 0.  0.
        -13    1    3    3    0    0  0.30773898489E+02  0.17784046022E+01  0.29240494117E+02  0.42487800736E+02  0.10566000000E+00 0.  1.
         13    1    4    4    0    0 -0.17384334003E+02 -0.13426344788E+01  0.70847203623E+02  0.72961326477E+02  0.10566000000E+00 0. -1.
        -13    1    4    4    0    0 -0.13399561143E+02 -0.46334306514E+00  0.57942878293E+02  0.59473954254E+02  0.10566000000E+00 0.  1.
        -14    1    4    4    0    0  0.99966575005E-02  0.27572941732E-01  0.78480787526E-01  0.83782064236E-01  0.00000000000E+00 0.  1.
<mgrwt>
<rscale>  0 0.75026185E+02</rscale>
<asrwt>0</asrwt>
<pdfrwt beam="1">  1        2 0.25624298E-01 0.75026185E+02</pdfrwt>
<pdfrwt beam="2">  1       -1 0.12998315E-02 0.75026185E+02</pdfrwt>
<totfact> 0.24552891E+05</totfact>
</mgrwt>
</event>
<event>
 8    1  0.2561077E-024  0.8124375E+02  0.7818608E-02  0.1325558E+00
          2   -1    0    0  501    0  0.00000000000E+00  0.00000000000E+00  0.26276549178E+03  0.26276549180E+03  0.25500000000E-02 0. -1.
         -1   -1    0    0    0  501 -0.00000000000E+00 -0.00000000000E+00 -0.62798827602E+01  0.62798847826E+01  0.50400000000E-02 0.  1.
         24    2    1    2    0    0  0.00000000000E+00  0.00000000000E+00  0.25648560902E+03  0.26904537658E+03  0.81243750665E+02 0.  0.
         66    2    3    3    0    0 -0.32738761643E+02  0.19438613153E+02  0.17497080210E+03  0.17907670922E+03  0.20000001776E+01 0.  0.
        -13    1    3    3    0    0  0.32738761643E+02 -0.19438613153E+02  0.81514806918E+02  0.89968667358E+02  0.10566000000E+00 0.  1.
         13    1    4    4    0    0 -0.91295777397E+01  0.58411655020E+01  0.49767267808E+02  0.50933883744E+02  0.10566000000E+00 0. -1.
        -13    1    4    4    0    0 -0.39754482866E+01  0.28434077357E+01  0.20927468060E+02  0.21490910639E+02  0.10566000000E+00 0.  1.
        -14    1    4    4    0    0 -0.19633735617E+02  0.10754039915E+02  0.10427606624E+03  0.10665191484E+03  0.00000000000E+00 0.  1.
<mgrwt>
<rscale>  0 0.81243751E+02</rscale>
<asrwt>0</asrwt>
<pdfrwt beam="1">  1        2 0.40425456E-01 0.81243751E+02</pdfrwt>
<pdfrwt beam="2">  1       -1 0.96613608E-03 0.81243751E+02</pdfrwt>
<totfact> 0.23334162E+05</totfact>
</mgrwt>
</event>
<event>
 8    1  0.2561077E-024  0.7875316E+02  0.7818608E-02  0.1332627E+00
         -1   -1    0    0    0  501 -0.00000000000E+00  0.00000000000E+00  0.59437662350E+01  0.59437683719E+01  0.50400000000E-02 0.  1.
          2   -1    0    0  501    0  0.00000000000E+00 -0.00000000000E+00 -0.26086403206E+03  0.26086403207E+03  0.25500000000E-02 0. -1.
         24    2    1    2    0    0 -0.55511151231E-16  0.71054273576E-14 -0.25492026582E+03  0.26680780044E+03  0.78753161521E+02 0.  0.
         66    2    3    3    0    0  0.18410133716E+00 -0.37734036556E+02 -0.89722045321E+02  0.97354695929E+02  0.19999986744E+01 0.  0.
        -13    1    3    3    0    0 -0.18410133716E+00  0.37734036556E+02 -0.16519822050E+03  0.16945310451E+03  0.10566000000E+00 0.  1.
         13    1    4    4    0    0  0.64320337964E+00 -0.14613579982E+02 -0.34867833165E+02  0.37812000530E+02  0.10566000000E+00 0. -1.
        -13    1    4    4    0    0 -0.74204423486E+00 -0.21465898386E+02 -0.50691523129E+02  0.55054310497E+02  0.10566000000E+00 0.  1.
        -14    1    4    4    0    0  0.28294219238E+00 -0.16545581881E+01 -0.41626890279E+01  0.44883849016E+01  0.00000000000E+00 0.  1.
<mgrwt>
<rscale>  0 0.78753162E+02</rscale>
<asrwt>0</asrwt>
<pdfrwt beam="1">  1        2 0.40132919E-01 0.78753162E+02</pdfrwt>
<pdfrwt beam="2">  1       -1 0.91442595E-03 0.78753162E+02</pdfrwt>
<totfact> 0.25256527E+05</totfact>
</mgrwt>
</event>
<event>
 8    1  0.2561077E-024  0.7927091E+02  0.7818608E-02  0.1331133E+00
          2   -1    0    0  501    0  0.00000000000E+00  0.00000000000E+00  0.15851236316E+03  0.15851236318E+03  0.25500000000E-02 0. -1.
         -1   -1    0    0    0  501 -0.00000000000E+00 -0.00000000000E+00 -0.99107032570E+01  0.99107045385E+01  0.50400000000E-02 0.  1.
         24    2    1    2    0    0  0.00000000000E+00  0.35527136788E-14  0.14860165991E+03  0.16842306772E+03  0.79270905218E+02 0.  0.
         66    2    3    3    0    0  0.12910350192E+01 -0.25412442752E+02  0.13884456667E+03  0.14117107604E+03  0.19999998866E+01 0.  0.
        -13    1    3    3    0    0 -0.12910350192E+01  0.25412442752E+02  0.97570932374E+01  0.27251991680E+02  0.10566000000E+00 0.  1.
         13    1    4    4    0    0  0.11028557438E+00 -0.90515431031E+01  0.48029883809E+02  0.48875592049E+02  0.10566000000E+00 0. -1.
        -13    1    4    4    0    0  0.60676658679E+00 -0.10875306195E+02  0.63851372810E+02  0.64773832867E+02  0.10566000000E+00 0.  1.
        -14    1    4    4    0    0  0.57398285808E+00 -0.54855934535E+01  0.26963310049E+02  0.27521651125E+02  0.00000000000E+00 0.  1.
<mgrwt>
<rscale>  0 0.79270905E+02</rscale>
<asrwt>0</asrwt>
<pdfrwt beam="1">  1        2 0.24386515E-01 0.79270905E+02</pdfrwt>
<pdfrwt beam="2">  1       -1 0.15247238E-02 0.79270905E+02</pdfrwt>
<totfact> 0.20892995E+05</totfact>
</mgrwt>
</event>
<event>
 8    1  0.2561077E-024  0.8058845E+02  0.7818608E-02  0.1327390E+00
          2   -1    0    0  501    0  0.00000000000E+00  0.00000000000E+00  0.84456456494E+02  0.84456456533E+02  0.25500000000E-02 0. -1.
         -1   -1    0    0    0  501 -0.00000000000E+00 -0.00000000000E+00 -0.19224399753E+02  0.19224400413E+02  0.50400000000E-02 0.  1.
         24    2    1    2    0    0  0.00000000000E+00  0.00000000000E+00  0.65232056742E+02  0.10368085695E+03  0.80588453704E+02 0.  0.
         66    2    3    3    0    0 -0.22540926645E+02 -0.23608848598E+02  0.62976453591E+02  0.70961290694E+02  0.19999909631E+01 0.  0.
        -13    1    3    3    0    0  0.22540926645E+02  0.23608848598E+02  0.22556031505E+01  0.32719566252E+02  0.10566000000E+00 0.  1.
         13    1    4    4    0    0 -0.39478712412E+01 -0.43638597907E+01  0.11242119283E+02  0.12689577204E+02  0.10566000000E+00 0. -1.
        -13    1    4    4    0    0 -0.69506419880E+01 -0.70619362009E+01  0.21006630599E+02  0.23226537842E+02  0.10566000000E+00 0.  1.
        -14    1    4    4    0    0 -0.11642413416E+02 -0.12183052607E+02  0.30727703709E+02  0.35045175647E+02  0.00000000000E+00 0.  1.
<mgrwt>
<rscale>  0 0.80588454E+02</rscale>
<asrwt>0</asrwt>
<pdfrwt beam="1">  1        2 0.12993301E-01 0.80588454E+02</pdfrwt>
<pdfrwt beam="2">  1       -1 0.29576001E-02 0.80588454E+02</pdfrwt>
<totfact> 0.16601389E+05</totfact>
</mgrwt>
</event>
<event>
 8    1  0.2561077E-024  0.8022956E+02  0.7818608E-02  0.1328401E+00
          2   -1    0    0  501    0  0.00000000000E+00  0.00000000000E+00  0.54075406629E+03  0.54075406629E+03  0.25500000000E-02 0. -1.
         -1   -1    0    0    0  501 -0.00000000000E+00 -0.00000000000E+00 -0.29758344092E+01  0.29758386772E+01  0.50400000000E-02 0.  1.
         24    2    1    2    0    0  0.00000000000E+00  0.00000000000E+00  0.53777823188E+03  0.54372990497E+03  0.80229563612E+02 0.  0.
         66    2    3    3    0    0  0.24208924717E+02  0.23716564796E+02  0.41419547274E+03  0.41558445245E+03  0.19999993948E+01 0.  0.
        -13    1    3    3    0    0 -0.24208924717E+02 -0.23716564796E+02  0.12358275914E+03  0.12814545252E+03  0.10566000000E+00 0.  1.
         13    1    4    4    0    0  0.31288136437E+01  0.33350863325E+01  0.60242520004E+02  0.60415930483E+02  0.10566000000E+00 0. -1.
        -13    1    4    4    0    0  0.14771274344E+02  0.15185076862E+02  0.25706807548E+03  0.25793949620E+03  0.10566000000E+00 0.  1.
         14    1    4    4    0    0  0.63088367294E+01  0.51964016017E+01  0.96884877252E+02  0.97229025762E+02  0.00000000000E+00 0. -1.
<mgrwt>
<rscale>  0 0.80229564E+02</rscale>
<asrwt>0</asrwt>
<pdfrwt beam="1">  1        2 0.83192889E-01 0.80229564E+02</pdfrwt>
<pdfrwt beam="2">  1       -1 0.45782125E-03 0.80229564E+02</pdfrwt>
<totfact> 0.30970760E+05</totfact>
</mgrwt>
</event>
<event>
 8    1  0.2561077E-024  0.8024161E+02  0.7818608E-02  0.1328367E+00
         -1   -1    0    0    0  501 -0.00000000000E+00  0.00000000000E+00  0.24518580502E+01  0.24518632303E+01  0.50400000000E-02 0.  1.
          2   -1    0    0  501    0  0.00000000000E+00 -0.00000000000E+00 -0.65651320680E+03  0.65651320681E+03  0.25500000000E-02 0. -1.
         24    2    1    2    0    0 -0.71054273576E-14  0.22204460493E-15 -0.65406134875E+03  0.65896507004E+03  0.80241607649E+02 0.  0.
         66    2    3    3    0    0 -0.32800025007E+02  0.19935219439E+01 -0.51591132926E+03  0.51696065173E+03  0.20000010776E+01 0.  0.
        -13    1    3    3    0    0  0.32800025007E+02 -0.19935219439E+01 -0.13815001949E+03  0.14200441831E+03  0.10566000000E+00 0.  1.
         13    1    4    4    0    0 -0.60627571084E+00  0.18018615046E+00 -0.11520473389E+02  0.11538306133E+02  0.10566000000E+00 0.  1.
        -13    1    4    4    0    0 -0.36884174300E+01 -0.21579196582E+00 -0.58483812186E+02  0.58600498642E+02  0.10566000000E+00 0.  1.
         14    1    4    4    0    0 -0.28505331866E+02  0.20291277593E+01 -0.44590704368E+03  0.44682184695E+03  0.00000000000E+00 0. -1.
<mgrwt>
<rscale>  0 0.80241608E+02</rscale>
<asrwt>0</asrwt>
<pdfrwt beam="1">  1        2 0.10100189E+00 0.80241608E+02</pdfrwt>
<pdfrwt beam="2">  1       -1 0.37720985E-03 0.80241608E+02</pdfrwt>
<totfact> 0.32682892E+05</totfact>
</mgrwt>
</event>
<event>
 8    1  0.2561077E-024  0.7618789E+02  0.7818608E-02  0.1340231E+00
         -1   -1    0    0    0  501 -0.00000000000E+00  0.00000000000E+00  0.94232974043E+02  0.94232974178E+02  0.50400000000E-02 0.  1.
          2   -1    0    0  501    0  0.00000000000E+00 -0.00000000000E+00 -0.15399583969E+02  0.15399584180E+02  0.25500000000E-02 0. -1.
         24    2    1    2    0    0  0.35527136788E-14  0.00000000000E+00  0.78833390074E+02  0.10963255836E+03  0.76187889204E+02 0.  0.
         66    2    3    3    0    0  0.25040518874E+02 -0.18574457378E+02  0.80125865803E+01  0.32252745590E+02  0.20000005086E+01 0.  0.
        -13    1    3    3    0    0 -0.25040518874E+02  0.18574457378E+02  0.70820803494E+02  0.77379812768E+02  0.10566000000E+00 0.  1.
         13    1    4    4    0    0  0.10776424757E+02 -0.76554295169E+01  0.40301542712E+01  0.13819921820E+02  0.10566000000E+00 0. -1.
        -13    1    4    4    0    0  0.72052466454E+00 -0.85901080936E+00  0.27411466611E+00  0.11590333251E+01  0.10566000000E+00 0.  1.
         14    1    4    4    0    0  0.13543569453E+02 -0.10060017051E+02  0.37083176429E+01  0.17273790445E+02  0.00000000000E+00 0. -1.
<mgrwt>
<rscale>  0 0.76187889E+02</rscale>
<asrwt>0</asrwt>
<pdfrwt beam="1">  1        2 0.23691667E-02 0.76187889E+02</pdfrwt>
<pdfrwt beam="2">  1       -1 0.14497381E-01 0.76187889E+02</pdfrwt>
<totfact> 0.13552990E+05</totfact>
</mgrwt>
</event>
<event>
 8    1  0.2561077E-024  0.7919670E+02  0.7818608E-02  0.1331347E+00
          2   -1    0    0  501    0  0.00000000000E+00  0.00000000000E+00  0.34268799392E+03  0.34268799393E+03  0.25500000000E-02 0. -1.
         -1   -1    0    0    0  501 -0.00000000000E+00 -0.00000000000E+00 -0.45756751483E+01  0.45756779240E+01  0.50400000000E-02 0.  1.
         24    2    1    2    0    0 -0.35527136788E-14 -0.44408920985E-15  0.33811231878E+03  0.34726367186E+03  0.79196702482E+02 0.  0.
         66    2    3    3    0    0 -0.19265024251E+02  0.39259409585E+01  0.31975354302E+03  0.32036367217E+03  0.20000006377E+01 0.  0.
        -13    1    3    3    0    0  0.19265024251E+02 -0.39259409585E+01  0.18358775759E+02  0.26899999688E+02  0.10566000000E+00 0.  1.
         13    1    4    4    0    0 -0.98533879328E-01  0.76538357490E-01  0.16600038985E+01  0.16680359780E+01  0.10566000000E+00 0.  1.
        -13    1    4    4    0    0 -0.12891811853E+01  0.10385981665E+00  0.17968703466E+02  0.18015500084E+02  0.10566000000E+00 0.  1.
         14    1    4    4    0    0 -0.17877309186E+02  0.37455427844E+01  0.30012483565E+03  0.30068013611E+03  0.00000000000E+00 0. -1.
<mgrwt>
<rscale>  0 0.79196702E+02</rscale>
<asrwt>0</asrwt>
<pdfrwt beam="1">  1        2 0.52721246E-01 0.79196702E+02</pdfrwt>
<pdfrwt beam="2">  1       -1 0.70395002E-03 0.79196702E+02</pdfrwt>
<totfact> 0.27462398E+05</totfact>
</mgrwt>
</event>
<event>
 8    1  0.2561077E-024  0.8024529E+02  0.7818608E-02  0.1328357E+00
          2   -1    0    0  501    0  0.00000000000E+00  0.00000000000E+00  0.50808579568E+01  0.50808585967E+01  0.25500000000E-02 0. -1.
         -1   -1    0    0    0  501 -0.00000000000E+00 -0.00000000000E+00 -0.31684145476E+03  0.31684145480E+03  0.50400000000E-02 0.  1.
         24    2    1    2    0    0  0.17763568394E-14  0.00000000000E+00 -0.31176059680E+03  0.32192231340E+03  0.80245287361E+02 0.  0.
         66    2    3    3    0    0 -0.14983115592E+02  0.35275260943E+02 -0.20327168242E+03  0.20686279186E+03  0.19999990704E+01 0.  0.
        -13    1    3    3    0    0  0.14983115592E+02 -0.35275260943E+02 -0.10848891439E+03  0.11505952154E+03  0.10566000000E+00 0.  1.
         13    1    4    4    0    0 -0.26873108887E+01  0.58178049965E+01 -0.33929746758E+02  0.34529804139E+02  0.10566000000E+00 0. -1.
        -13    1    4    4    0    0 -0.10669696343E+02  0.25927329289E+02 -0.14557035121E+03  0.14824576601E+03  0.10566000000E+00 0.  1.
        -14    1    4    4    0    0 -0.16261083610E+01  0.35301266575E+01 -0.23771584445E+02  0.24087221709E+02  0.00000000000E+00 0.  1.
<mgrwt>
<rscale>  0 0.80245287E+02</rscale>
<asrwt>0</asrwt>
<pdfrwt beam="1">  1        2 0.78167076E-03 0.80245287E+02</pdfrwt>
<pdfrwt beam="2">  1       -1 0.48744824E-01 0.80245287E+02</pdfrwt>
<totfact> 0.83838025E+04</totfact>
</mgrwt>
</event>
<event>
 8    1  0.2561077E-024  0.8096971E+02  0.7818608E-02  0.1326322E+00
          2   -1    0    0  501    0  0.00000000000E+00  0.00000000000E+00  0.23255691242E+02  0.23255691382E+02  0.25500000000E-02 0. -1.
         -1   -1    0    0    0  501 -0.00000000000E+00 -0.00000000000E+00 -0.70478378213E+02  0.70478378393E+02  0.50400000000E-02 0.  1.
         24    2    1    2    0    0 -0.88817841970E-15  0.35527136788E-14 -0.47222686971E+02  0.93734069775E+02  0.80969708359E+02 0.  0.
         66    2    3    3    0    0 -0.53775958883E+01  0.29424434080E+02  0.79145593972E+01  0.31005743163E+02  0.20000000366E+01 0.  0.
        -13    1    3    3    0    0  0.53775958883E+01 -0.29424434080E+02 -0.55137246368E+02  0.62728326612E+02  0.10566000000E+00 0.  1.
         13    1    4    4    0    0 -0.27510218238E+01  0.11644201114E+02  0.24429901894E+01  0.12212080320E+02  0.10566000000E+00 0. -1.
        -13    1    4    4    0    0 -0.24039777393E+00  0.25479931241E+01  0.76587179733E+00  0.26735339339E+01  0.10566000000E+00 0.  1.
         14    1    4    4    0    0 -0.23861762906E+01  0.15232239842E+02  0.47056974106E+01  0.16120128908E+02  0.00000000000E+00 0. -1.
<mgrwt>
<rscale>  0 0.80969708E+02</rscale>
<asrwt>0</asrwt>
<pdfrwt beam="1">  1        2 0.35777987E-02 0.80969708E+02</pdfrwt>
<pdfrwt beam="2">  1       -1 0.10842827E-01 0.80969708E+02</pdfrwt>
<totfact> 0.12364502E+05</totfact>
</mgrwt>
</event>
<event>
 8    1  0.2561077E-024  0.8805898E+02  0.7818608E-02  0.1307621E+00
         -1   -1    0    0    0  501 -0.00000000000E+00  0.00000000000E+00  0.81770379527E+02  0.81770379682E+02  0.50400000000E-02 0.  1.
          2   -1    0    0  501    0  0.00000000000E+00 -0.00000000000E+00 -0.23707803671E+02  0.23707803808E+02  0.25500000000E-02 0. -1.
         24    2    1    2    0    0  0.00000000000E+00  0.00000000000E+00  0.58062575856E+02  0.10547818349E+03  0.88058982945E+02 0.  0.
         66    2    3    3    0    0  0.76261416032E+01 -0.39858785925E+02  0.86583977960E+01  0.41543335207E+02  0.19999991244E+01 0.  0.
        -13    1    3    3    0    0 -0.76261416032E+01  0.39858785925E+02  0.49404178060E+02  0.63934848284E+02  0.10566000000E+00 0.  1.
         13    1    4    4    0    0  0.43498299428E+01 -0.21407438289E+02  0.40528139749E+01  0.22217918439E+02  0.10566000000E+00 0. -1.
        -13    1    4    4    0    0  0.57966503960E+00 -0.16604060442E+01  0.47909306711E+00  0.18258296723E+01  0.10566000000E+00 0.  1.
         14    1    4    4    0    0  0.26966466208E+01 -0.16790941592E+02  0.41264907540E+01  0.17499587095E+02  0.00000000000E+00 0. -1.
<mgrwt>
<rscale>  0 0.88058983E+02</rscale>
<asrwt>0</asrwt>
<pdfrwt beam="1">  1        2 0.36473544E-02 0.88058983E+02</pdfrwt>
<pdfrwt beam="2">  1       -1 0.12580059E-01 0.88058983E+02</pdfrwt>
<totfact> 0.97547301E+04</totfact>
</mgrwt>
</event>
<event>
 8    1  0.2561077E-024  0.7915294E+02  0.7818608E-02  0.1331473E+00
          2   -1    0    0  501    0  0.00000000000E+00  0.00000000000E+00  0.62376540792E+03  0.62376540793E+03  0.25500000000E-02 0. -1.
         -1   -1    0    0    0  501 -0.00000000000E+00 -0.00000000000E+00 -0.25110325808E+01  0.25110376388E+01  0.50400000000E-02 0.  1.
         24    2    1    2    0    0  0.00000000000E+00  0.00000000000E+00  0.62125437534E+03  0.62627644557E+03  0.79152936712E+02 0.  0.
         66    2    3    3    0    0 -0.12074159961E+02  0.20809828047E+02  0.55920575341E+03  0.55972663768E+03  0.19999997216E+01 0.  0.
        -13    1    3    3    0    0  0.12074159961E+02 -0.20809828047E+02  0.62048621929E+02  0.66549807884E+02  0.10566000000E+00 0.  1.
         13    1    4    4    0    0 -0.31481687161E+01  0.67276317948E+01  0.17971945525E+03  0.17987291557E+03  0.10566000000E+00 0. -1.
        -13    1    4    4    0    0 -0.15332582079E+01  0.18444738429E+01  0.57928863663E+02  0.57978594100E+02  0.10566000000E+00 0.  1.
         14    1    4    4    0    0 -0.73927330368E+01  0.12237722410E+02  0.32155743450E+03  0.32187512801E+03  0.00000000000E+00 0. -1.
<mgrwt>
<rscale>  0 0.79152937E+02</rscale>
<asrwt>0</asrwt>
<pdfrwt beam="1">  1        2 0.95963875E-01 0.79152937E+02</pdfrwt>
<pdfrwt beam="2">  1       -1 0.38631323E-03 0.79152937E+02</pdfrwt>
<totfact> 0.33418391E+05</totfact>
</mgrwt>
</event>
<event>
 8    1  0.2561077E-024  0.7990958E+02  0.7818608E-02  0.1329308E+00
         -1   -1    0    0    0  501 -0.00000000000E+00  0.00000000000E+00  0.25841421257E+02  0.25841421749E+02  0.50400000000E-02 0.  1.
          2   -1    0    0  501    0  0.00000000000E+00 -0.00000000000E+00 -0.61776214534E+02  0.61776214586E+02  0.25500000000E-02 0. -1.
         24    2    1    2    0    0  0.00000000000E+00  0.00000000000E+00 -0.35934793276E+02  0.87617636335E+02  0.79909579082E+02 0.  0.
         66    2    3    3    0    0  0.84128910592E+01  0.35121729459E+02 -0.36652834042E+02  0.51495076034E+02  0.19999990714E+01 0.  0.
        -13    1    3    3    0    0 -0.84128910592E+01 -0.35121729459E+02  0.71804076590E+00  0.36122560301E+02  0.10566000000E+00 0.  1.
         13    1    4    4    0    0  0.40567182629E+01  0.14829228752E+02 -0.15070639404E+02  0.21529011230E+02  0.10566000000E+00 0. -1.
        -13    1    4    4    0    0  0.25117793622E+01  0.91736430308E+01 -0.10240464271E+02  0.13976517254E+02  0.10566000000E+00 0.  1.
        -14    1    4    4    0    0  0.18443934341E+01  0.11118857675E+02 -0.11341730366E+02  0.15989547550E+02  0.00000000000E+00 0.  1.
<mgrwt>
<rscale>  0 0.79909579E+02</rscale>
<asrwt>0</asrwt>
<pdfrwt beam="1">  1        2 0.95040330E-02 0.79909579E+02</pdfrwt>
<pdfrwt beam="2">  1       -1 0.39756033E-02 0.79909579E+02</pdfrwt>
<totfact> 0.15720212E+05</totfact>
</mgrwt>
</event>
<event>
 8    1  0.2561077E-024  0.7910032E+02  0.7818608E-02  0.1331624E+00
         -1   -1    0    0    0  501 -0.00000000000E+00  0.00000000000E+00  0.19625152222E+01  0.19625216939E+01  0.50400000000E-02 0.  1.
          2   -1    0    0  501    0  0.00000000000E+00 -0.00000000000E+00 -0.79704474515E+03  0.79704474515E+03  0.25500000000E-02 0. -1.
         24    2    1    2    0    0  0.71054273576E-14 -0.35527136788E-14 -0.79508222993E+03  0.79900726685E+03  0.79100316870E+02 0.  0.
         66    2    3    3    0    0  0.25819670305E+02 -0.16817085291E+02 -0.64783527817E+03  0.64857074968E+03  0.19999908703E+01 0.  0.
        -13    1    3    3    0    0 -0.25819670305E+02  0.16817085291E+02 -0.14724695176E+03  0.15043651717E+03  0.10566000000E+00 0.  1.
         13    1    4    4    0    0  0.35584897402E+01 -0.22329665297E+01 -0.84499550040E+02  0.84603984007E+02  0.10566000000E+00 0. -1.
        -13    1    4    4    0    0  0.32204624037E+00 -0.30012086884E+00 -0.14425897687E+02  0.14432999495E+02  0.10566000000E+00 0.  1.
        -14    1    4    4    0    0  0.21939134325E+02 -0.14283997892E+02 -0.54890983044E+03  0.54953376618E+03  0.00000000000E+00 0.  1.
<mgrwt>
<rscale>  0 0.79100317E+02</rscale>
<asrwt>0</asrwt>
<pdfrwt beam="1">  1        2 0.12262201E+00 0.79100317E+02</pdfrwt>
<pdfrwt beam="2">  1       -1 0.30192655E-03 0.79100317E+02</pdfrwt>
<totfact> 0.35366965E+05</totfact>
</mgrwt>
</event>
<event>
 8    1  0.2561077E-024  0.7998686E+02  0.7818608E-02  0.1329089E+00
          2   -1    0    0  501    0  0.00000000000E+00  0.00000000000E+00  0.15974708275E+02  0.15974708479E+02  0.25500000000E-02 0. -1.
         -1   -1    0    0    0  501 -0.00000000000E+00 -0.00000000000E+00 -0.10012541231E+03  0.10012541244E+03  0.50400000000E-02 0.  1.
         24    2    1    2    0    0  0.35527136788E-14  0.00000000000E+00 -0.84150704034E+02  0.11610012091E+03  0.79986855714E+02 0.  0.
         66    2    3    3    0    0 -0.28192293129E+02 -0.27430282145E+02 -0.31813034477E+02  0.50628993010E+02  0.20000000514E+01 0.  0.
        -13    1    3    3    0    0  0.28192293129E+02  0.27430282145E+02 -0.52337669557E+02  0.65471127905E+02  0.10566000000E+00 0.  1.
         13    1    4    4    0    0 -0.17469023245E+02 -0.16246418224E+02 -0.18596852832E+02  0.30248421075E+02  0.10566000000E+00 0. -1.
        -13    1    4    4    0    0 -0.37019031982E+01 -0.35611646391E+01 -0.47776982430E+01  0.70159493593E+01  0.10566000000E+00 0.  1.
         14    1    4    4    0    0 -0.70213666855E+01 -0.76226992819E+01 -0.84384834020E+01  0.13364622576E+02  0.00000000000E+00 0. -1.
<mgrwt>
<rscale>  0 0.79986856E+02</rscale>
<asrwt>0</asrwt>
<pdfrwt beam="1">  1        2 0.24576475E-02 0.79986856E+02</pdfrwt>
<pdfrwt beam="2">  1       -1 0.15403909E-01 0.79986856E+02</pdfrwt>
<totfact> 0.11854671E+05</totfact>
</mgrwt>
</event>
<event>
 8    1  0.2561077E-024  0.8049362E+02  0.7818608E-02  0.1327656E+00
         -1   -1    0    0    0  501 -0.00000000000E+00  0.00000000000E+00  0.43619029079E+03  0.43619029082E+03  0.50400000000E-02 0.  1.
          2   -1    0    0  501    0  0.00000000000E+00 -0.00000000000E+00 -0.37135296363E+01  0.37135305118E+01  0.25500000000E-02 0. -1.
         24    2    1    2    0    0  0.00000000000E+00  0.00000000000E+00  0.43247676116E+03  0.43990382133E+03  0.80493621385E+02 0.  0.
         66    2    3    3    0    0 -0.32410599619E+02 -0.22590112961E+02  0.25764663328E+03  0.26066558616E+03  0.19999989663E+01 0.  0.
        -13    1    3    3    0    0  0.32410599619E+02  0.22590112961E+02  0.17483012788E+03  0.17923823517E+03  0.10566000000E+00 0.  1.
         13    1    4    4    0    0 -0.13657109442E+02 -0.94368337260E+01  0.11183731180E+03  0.11306266380E+03  0.10566000000E+00 0. -1.
        -13    1    4    4    0    0 -0.17462806117E+02 -0.12439732155E+02  0.13459601862E+03  0.13629305164E+03  0.10566000000E+00 0.  1.
        -14    1    4    4    0    0 -0.12906840605E+01 -0.71354707925E+00  0.11213302861E+02  0.11309870726E+02  0.00000000000E+00 0.  1.
<mgrwt>
<rscale>  0 0.80493621E+02</rscale>
<asrwt>0</asrwt>
<pdfrwt beam="1">  1        2 0.57131248E-03 0.80493621E+02</pdfrwt>
<pdfrwt beam="2">  1       -1 0.67106180E-01 0.80493621E+02</pdfrwt>
<totfact> 0.71236586E+04</totfact>
</mgrwt>
</event>
<event>
 8    1  0.2561077E-024  0.8020300E+02  0.7818608E-02  0.1328476E+00
          2   -1    0    0  501    0  0.00000000000E+00  0.00000000000E+00  0.19340747719E+02  0.19340747887E+02  0.25500000000E-02 0. -1.
         -1   -1    0    0    0  501 -0.00000000000E+00 -0.00000000000E+00 -0.83147271054E+02  0.83147271207E+02  0.50400000000E-02 0.  1.
         24    2    1    2    0    0  0.00000000000E+00  0.00000000000E+00 -0.63806523335E+02  0.10248801909E+03  0.80203002673E+02 0.  0.
         66    2    3    3    0    0 -0.30654918790E+02 -0.12613109898E+02 -0.31411389783E+01  0.33356878423E+02  0.19999991885E+01 0.  0.
        -13    1    3    3    0    0  0.30654918790E+02  0.12613109898E+02 -0.60665384357E+02  0.69131140671E+02  0.10566000000E+00 0.  1.
         13    1    4    4    0    0 -0.84808949071E+01 -0.30159613605E+01 -0.10915731207E+01  0.90677614254E+01  0.10566000000E+00 0. -1.
        -13    1    4    4    0    0 -0.18682278112E+02 -0.75172388915E+01 -0.17112610830E+01  0.20210788568E+02  0.10566000000E+00 0.  1.
        -14    1    4    4    0    0 -0.34917457705E+01 -0.20799096458E+01 -0.33830477467E+00  0.40783284298E+01  0.00000000000E+00 0.  1.
<mgrwt>
<rscale>  0 0.80203003E+02</rscale>
<asrwt>0</asrwt>
<pdfrwt beam="1">  1        2 0.29754997E-02 0.80203003E+02</pdfrwt>
<pdfrwt beam="2">  1       -1 0.12791888E-01 0.80203003E+02</pdfrwt>
<totfact> 0.12241880E+05</totfact>
</mgrwt>
</event>
<event>
 8    1  0.2561077E-024  0.7866829E+02  0.7818608E-02  0.1332874E+00
         -1   -1    0    0    0  501 -0.00000000000E+00  0.00000000000E+00  0.74263572089E+01  0.74263589192E+01  0.50400000000E-02 0.  1.
          2   -1    0    0  501    0  0.00000000000E+00 -0.00000000000E+00 -0.20833560312E+03  0.20833560313E+03  0.25500000000E-02 0. -1.
         24    2    1    2    0    0  0.00000000000E+00  0.00000000000E+00 -0.20090924591E+03  0.21576196205E+03  0.78668285713E+02 0.  0.
         66    2    3    3    0    0  0.34573317045E+02 -0.46379506920E+01 -0.15021754119E+03  0.15422754137E+03  0.19999989203E+01 0.  0.
        -13    1    3    3    0    0 -0.34573317045E+02  0.46379506920E+01 -0.50691704715E+02  0.61534420685E+02  0.10566000000E+00 0.  1.
         13    1    4    4    0    0  0.12811638070E+02 -0.15123946446E+01 -0.54712406962E+02  0.56212845928E+02  0.10566000000E+00 0. -1.
        -13    1    4    4    0    0  0.11754201575E+02 -0.15376830048E+01 -0.54764204256E+02  0.56032624028E+02  0.10566000000E+00 0.  1.
         14    1    4    4    0    0  0.10007477400E+02 -0.15878730426E+01 -0.40740929975E+02  0.41982071411E+02  0.00000000000E+00 0. -1.
<mgrwt>
<rscale>  0 0.78668286E+02</rscale>
<asrwt>0</asrwt>
<pdfrwt beam="1">  1        2 0.32051627E-01 0.78668286E+02</pdfrwt>
<pdfrwt beam="2">  1       -1 0.11425168E-02 0.78668286E+02</pdfrwt>
<totfact> 0.23386492E+05</totfact>
</mgrwt>
</event>
<event>
 8    1  0.2561077E-024  0.8058227E+02  0.7818608E-02  0.1327407E+00
          2   -1    0    0  501    0  0.00000000000E+00  0.00000000000E+00  0.26468850811E+03  0.26468850812E+03  0.25500000000E-02 0. -1.
         -1   -1    0    0    0  501 -0.00000000000E+00 -0.00000000000E+00 -0.61331537101E+01  0.61331557809E+01  0.50400000000E-02 0.  1.
         24    2    1    2    0    0 -0.35527136788E-14  0.00000000000E+00  0.25855535440E+03  0.27082166390E+03  0.80582270695E+02 0.  0.
         66    2    3    3    0    0 -0.28279693071E+02  0.22118784597E+02  0.19062981384E+03  0.19399151425E+03  0.20000004451E+01 0.  0.
        -13    1    3    3    0    0  0.28279693071E+02 -0.22118784597E+02  0.67925540559E+02  0.76830149659E+02  0.10566000000E+00 0.  1.
         13    1    4    4    0    0 -0.14774800351E+02  0.11922701259E+02  0.10400666904E+03  0.10572532289E+03  0.10566000000E+00 0. -1.
        -13    1    4    4    0    0 -0.75377905476E+01  0.54799041415E+01  0.45262516613E+02  0.46212056976E+02  0.10566000000E+00 0.  1.
        -14    1    4    4    0    0 -0.59671021728E+01  0.47161791965E+01  0.41360628189E+02  0.42054134384E+02  0.00000000000E+00 0.  1.
<mgrwt>
<rscale>  0 0.80582271E+02</rscale>
<asrwt>0</asrwt>
<pdfrwt beam="1">  1        2 0.40721308E-01 0.80582271E+02</pdfrwt>
<pdfrwt beam="2">  1       -1 0.94356229E-03 0.80582271E+02</pdfrwt>
<totfact> 0.23904265E+05</totfact>
</mgrwt>
</event>
<event>
 8    1  0.2561077E-024  0.7388618E+02  0.7818608E-02  0.1347355E+00
          2   -1    0    0  501    0  0.00000000000E+00  0.00000000000E+00  0.16995855797E+03  0.16995855799E+03  0.25500000000E-02 0. -1.
         -1   -1    0    0    0  501 -0.00000000000E+00 -0.00000000000E+00 -0.80301440659E+01  0.80301456476E+01  0.50400000000E-02 0.  1.
         24    2    1    2    0    0  0.00000000000E+00  0.00000000000E+00  0.16192841390E+03  0.17798870363E+03  0.73886178631E+02 0.  0.
         66    2    3    3    0    0 -0.15196385847E+02  0.29368470832E+02  0.12055889186E+03  0.12502753163E+03  0.20000093979E+01 0.  0.
        -13    1    3    3    0    0  0.15196385847E+02 -0.29368470832E+02  0.41369522037E+02  0.52961171998E+02  0.10566000000E+00 0.  1.
         13    1    4    4    0    0 -0.46258900956E+00  0.11150815658E+01  0.43140461243E+01  0.44810214783E+01  0.10566000000E+00 0.  1.
        -13    1    4    4    0    0 -0.17097144027E+01  0.46775684129E+01  0.18130834073E+02  0.18802688047E+02  0.10566000000E+00 0.  1.
         14    1    4    4    0    0 -0.13024082435E+02  0.23575820853E+02  0.98114011666E+02  0.10174382211E+03  0.00000000000E+00 0. -1.
<mgrwt>
<rscale>  0 0.73886179E+02</rscale>
<asrwt>0</asrwt>
<pdfrwt beam="1">  1        2 0.26147468E-01 0.73886179E+02</pdfrwt>
<pdfrwt beam="2">  1       -1 0.12354070E-02 0.73886179E+02</pdfrwt>
<totfact> 0.25729282E+05</totfact>
</mgrwt>
</event>
<event>
 8    1  0.2561077E-024  0.8039839E+02  0.7818608E-02  0.1327925E+00
         -1   -1    0    0    0  501 -0.00000000000E+00  0.00000000000E+00  0.39270784739E+01  0.39270817080E+01  0.50400000000E-02 0.  1.
          2   -1    0    0  501    0  0.00000000000E+00 -0.00000000000E+00 -0.41149534262E+03  0.41149534263E+03  0.25500000000E-02 0. -1.
         24    2    1    2    0    0  0.00000000000E+00  0.00000000000E+00 -0.40756826415E+03  0.41542242434E+03  0.80398387434E+02 0.  0.
         66    2    3    3    0    0 -0.31533278275E+02 -0.24858875598E+02 -0.21056492229E+03  0.21436860268E+03  0.19999955993E+01 0.  0.
        -13    1    3    3    0    0  0.31533278275E+02  0.24858875598E+02 -0.19700334186E+03  0.20105382166E+03  0.10566000000E+00 0.  1.
         13    1    4    4    0    0 -0.13095843038E+02 -0.11322086272E+02 -0.89202098449E+02  0.90866474974E+02  0.10566000000E+00 0.  1.
        -13    1    4    4    0    0 -0.91539799848E+01 -0.71885982093E+01 -0.62417770307E+02  0.63493783223E+02  0.10566000000E+00 0. -1.
         14    1    4    4    0    0 -0.92834552527E+01 -0.63481911173E+01 -0.58945053530E+02  0.60008344483E+02  0.00000000000E+00 0. -1.
<mgrwt>
<rscale>  0 0.80398387E+02</rscale>
<asrwt>0</asrwt>
<pdfrwt beam="1">  1        2 0.63306942E-01 0.80398387E+02</pdfrwt>
<pdfrwt beam="2">  1       -1 0.60416650E-03 0.80398387E+02</pdfrwt>
<totfact> 0.28165830E+05</totfact>
</mgrwt>
</event>
<event>
 8    1  0.2561077E-024  0.8009657E+02  0.7818608E-02  0.1328778E+00
         -1   -1    0    0    0  501 -0.00000000000E+00  0.00000000000E+00  0.68008270359E+01  0.68008289034E+01  0.50400000000E-02 0.  1.
          2   -1    0    0  501    0  0.00000000000E+00 -0.00000000000E+00 -0.23583377460E+03  0.23583377462E+03  0.25500000000E-02 0. -1.
         24    2    1    2    0    0  0.00000000000E+00 -0.17763568394E-14 -0.22903294757E+03  0.24263460352E+03  0.80096565183E+02 0.  0.
         66    2    3    3    0    0 -0.24764619573E+02 -0.12002166971E+02 -0.20262041534E+03  0.20449051594E+03  0.20000006942E+01 0.  0.
        -13    1    3    3    0    0  0.24764619573E+02  0.12002166971E+02 -0.26412532229E+02  0.38144087581E+02  0.10566000000E+00 0.  1.
         13    1    4    4    0    0 -0.29121212132E+01 -0.15436741034E+01 -0.22022746806E+02  0.22268271612E+02  0.10566000000E+00 0. -1.
        -13    1    4    4    0    0 -0.12993769186E+02 -0.66942486167E+01 -0.11366825625E+03  0.11460425230E+03  0.10566000000E+00 0.  1.
         14    1    4    4    0    0 -0.88587291729E+01 -0.37642442514E+01 -0.66929412281E+02  0.67617992026E+02  0.00000000000E+00 0. -1.
<mgrwt>
<rscale>  0 0.80096565E+02</rscale>
<asrwt>0</asrwt>
<pdfrwt beam="1">  1        2 0.36282113E-01 0.80096565E+02</pdfrwt>
<pdfrwt beam="2">  1       -1 0.10462814E-02 0.80096565E+02</pdfrwt>
<totfact> 0.23302098E+05</totfact>
</mgrwt>
</event>
<event>
 8    1  0.2561077E-024  0.8043058E+02  0.7818608E-02  0.1327834E+00
         -1   -1    0    0    0  501 -0.00000000000E+00  0.00000000000E+00  0.13083298699E+01  0.13083395775E+01  0.50400000000E-02 0.  1.
          2   -1    0    0  501    0  0.00000000000E+00 -0.00000000000E+00 -0.12361281794E+04  0.12361281794E+04  0.25500000000E-02 0. -1.
         24    2    1    2    0    0  0.00000000000E+00  0.00000000000E+00 -0.12348198495E+04  0.12374365190E+04  0.80430576972E+02 0.  0.
         66    2    3    3    0    0  0.10025662192E+02 -0.24949119190E+02 -0.10773644036E+04  0.10777017354E+04  0.20000020113E+01 0.  0.
        -13    1    3    3    0    0 -0.10025662192E+02  0.24949119190E+02 -0.15745544595E+03  0.15973478355E+03  0.10566000000E+00 0.  1.
         13    1    4    4    0    0  0.53232359531E+01 -0.12984211682E+02 -0.54550803791E+03  0.54568851663E+03  0.10566000000E+00 0. -1.
        -13    1    4    4    0    0  0.30816776555E+01 -0.64949606240E+01 -0.28063848019E+03  0.28073056296E+03  0.10566000000E+00 0.  1.
        -14    1    4    4    0    0  0.16207485835E+01 -0.54699468847E+01 -0.25121788545E+03  0.25128265582E+03  0.00000000000E+00 0.  1.
<mgrwt>
<rscale>  0 0.80430577E+02</rscale>
<asrwt>0</asrwt>
<pdfrwt beam="1">  1        2 0.19017263E+00 0.80430577E+02</pdfrwt>
<pdfrwt beam="2">  1       -1 0.20128325E-03 0.80430577E+02</pdfrwt>
<totfact> 0.34425155E+05</totfact>
</mgrwt>
</event>
<event>
 8    1  0.2561077E-024  0.8012784E+02  0.7818608E-02  0.1328689E+00
          2   -1    0    0  501    0  0.00000000000E+00  0.00000000000E+00  0.15413062348E+02  0.15413062559E+02  0.25500000000E-02 0. -1.
         -1   -1    0    0    0  501 -0.00000000000E+00 -0.00000000000E+00 -0.10414009880E+03  0.10414009893E+03  0.50400000000E-02 0.  1.
         24    2    1    2    0    0 -0.35527136788E-14  0.17763568394E-14 -0.88727036456E+02  0.11955316148E+03  0.80127844241E+02 0.  0.
         66    2    3    3    0    0  0.24200941304E+02  0.99334823062E+01  0.83376172856E+00  0.26249853042E+02  0.19999988502E+01 0.  0.
        -13    1    3    3    0    0 -0.24200941304E+02 -0.99334823062E+01 -0.89560798185E+02  0.93303308442E+02  0.10566000000E+00 0.  1.
         13    1    4    4    0    0  0.39632914582E+01  0.16128057095E+01 -0.14142204466E+00  0.42825209479E+01  0.10566000000E+00 0. -1.
        -13    1    4    4    0    0  0.57509942434E+01  0.20632257528E+01 -0.42138715256E+00  0.61253217436E+01  0.10566000000E+00 0.  1.
         14    1    4    4    0    0  0.14486655602E+02  0.62574508439E+01  0.13965709258E+01  0.15842010351E+02  0.00000000000E+00 0. -1.
<mgrwt>
<rscale>  0 0.80127844E+02</rscale>
<asrwt>0</asrwt>
<pdfrwt beam="1">  1        2 0.23712405E-02 0.80127844E+02</pdfrwt>
<pdfrwt beam="2">  1       -1 0.16021553E-01 0.80127844E+02</pdfrwt>
<totfact> 0.11702995E+05</totfact>
</mgrwt>
</event>
<event>
 8    1  0.2561077E-024  0.7987684E+02  0.7818608E-02  0.1329401E+00
          2   -1    0    0  501    0  0.00000000000E+00  0.00000000000E+00  0.10349548311E+02  0.10349548626E+02  0.25500000000E-02 0. -1.
         -1   -1    0    0    0  501 -0.00000000000E+00 -0.00000000000E+00 -0.15412048776E+03  0.15412048784E+03  0.50400000000E-02 0.  1.
         24    2    1    2    0    0  0.00000000000E+00  0.00000000000E+00 -0.14377093945E+03  0.16447003647E+03  0.79876841862E+02 0.  0.
         66    2    3    3    0    0 -0.34681397351E+02 -0.10169806896E+02 -0.37057196831E+02  0.51802124790E+02  0.20000002998E+01 0.  0.
        -13    1    3    3    0    0  0.34681397351E+02  0.10169806896E+02 -0.10671374262E+03  0.11266791168E+03  0.10566000000E+00 0.  1.
         13    1    4    4    0    0 -0.23525357051E+02 -0.64614876078E+01 -0.24982131115E+02  0.34918638083E+02  0.10566000000E+00 0. -1.
        -13    1    4    4    0    0 -0.93668407417E+01 -0.28724158704E+01 -0.10461584934E+02  0.14333331845E+02  0.10566000000E+00 0.  1.
        -14    1    4    4    0    0 -0.17891995579E+01 -0.83590341815E+00 -0.16134807826E+01  0.25501548617E+01  0.00000000000E+00 0.  1.
<mgrwt>
<rscale>  0 0.79876842E+02</rscale>
<asrwt>0</asrwt>
<pdfrwt beam="1">  1        2 0.15922383E-02 0.79876842E+02</pdfrwt>
<pdfrwt beam="2">  1       -1 0.23710843E-01 0.79876842E+02</pdfrwt>
<totfact> 0.10754293E+05</totfact>
</mgrwt>
</event>
<event>
 8    1  0.2561077E-024  0.7877865E+02  0.7818608E-02  0.1332554E+00
          2   -1    0    0  501    0  0.00000000000E+00  0.00000000000E+00  0.74180033656E+01  0.74180038039E+01  0.25500000000E-02 0. -1.
         -1   -1    0    0    0  501 -0.00000000000E+00 -0.00000000000E+00 -0.20915587122E+03  0.20915587128E+03  0.50400000000E-02 0.  1.
         24    2    1    2    0    0  0.71054273576E-14  0.00000000000E+00 -0.20173786785E+03  0.21657387508E+03  0.78778652202E+02 0.  0.
         66    2    3    3    0    0  0.39004452801E+02 -0.17803139426E+01 -0.11467872072E+03  0.12115991846E+03  0.19999994546E+01 0.  0.
        -13    1    3    3    0    0 -0.39004452801E+02  0.17803139426E+01 -0.87059147131E+02  0.95413956627E+02  0.10566000000E+00 0.  1.
         13    1    4    4    0    0  0.12177603265E+02 -0.13160925635E+01 -0.36602302202E+02  0.38597484522E+02  0.10566000000E+00 0. -1.
        -13    1    4    4    0    0  0.94702669017E+01 -0.22917916988E+00 -0.26363080008E+02  0.28013597231E+02  0.10566000000E+00 0.  1.
        -14    1    4    4    0    0  0.17356582634E+02 -0.23504220923E+00 -0.51713338513E+02  0.54548836703E+02  0.00000000000E+00 0.  1.
<mgrwt>
<rscale>  0 0.78778652E+02</rscale>
<asrwt>0</asrwt>
<pdfrwt beam="1">  1        2 0.11412315E-02 0.78778652E+02</pdfrwt>
<pdfrwt beam="2">  1       -1 0.32177822E-01 0.78778652E+02</pdfrwt>
<totfact> 0.10217050E+05</totfact>
</mgrwt>
</event>
<event>
 8    1  0.2561077E-024  0.7750073E+02  0.7818608E-02  0.1336297E+00
         -1   -1    0    0    0  501 -0.00000000000E+00  0.00000000000E+00  0.64435533806E+01  0.64435553517E+01  0.50400000000E-02 0.  1.
          2   -1    0    0  501    0  0.00000000000E+00 -0.00000000000E+00 -0.23303767932E+03  0.23303767934E+03  0.25500000000E-02 0. -1.
         24    2    1    2    0    0  0.00000000000E+00  0.71054273576E-14 -0.22659412594E+03  0.23948123469E+03  0.77500734554E+02 0.  0.
         66    2    3    3    0    0 -0.73497410673E+01  0.32050009246E+02 -0.17657606969E+03  0.17962274405E+03  0.20000014256E+01 0.  0.
        -13    1    3    3    0    0  0.73497410673E+01 -0.32050009246E+02 -0.50018056249E+02  0.59858490638E+02  0.10566000000E+00 0.  1.
         13    1    4    4    0    0 -0.54002128530E+01  0.23752020904E+02 -0.12853700775E+03  0.13082467015E+03  0.10566000000E+00 0. -1.
        -13    1    4    4    0    0 -0.18475071253E+01  0.63104139319E+01 -0.36030500316E+02  0.36625711237E+02  0.10566000000E+00 0.  1.
        -14    1    4    4    0    0 -0.10202108899E+00  0.19875744102E+01 -0.12008561627E+02  0.12172362659E+02  0.00000000000E+00 0.  1.
<mgrwt>
<rscale>  0 0.77500735E+02</rscale>
<asrwt>0</asrwt>
<pdfrwt beam="1">  1        2 0.35851944E-01 0.77500735E+02</pdfrwt>
<pdfrwt beam="2">  1       -1 0.99131624E-03 0.77500735E+02</pdfrwt>
<totfact> 0.25301752E+05</totfact>
</mgrwt>
</event>
<event>
 8    1  0.2561077E-024  0.8029429E+02  0.7818608E-02  0.1328218E+00
         -1   -1    0    0    0  501 -0.00000000000E+00  0.00000000000E+00  0.19468872363E+02  0.19468873015E+02  0.50400000000E-02 0.  1.
          2   -1    0    0  501    0  0.00000000000E+00 -0.00000000000E+00 -0.82788210135E+02  0.82788210175E+02  0.25500000000E-02 0. -1.
         24    2    1    2    0    0  0.00000000000E+00  0.00000000000E+00 -0.63319337773E+02  0.10225708319E+03  0.80294287010E+02 0.  0.
         66    2    3    3    0    0 -0.24041472945E+02  0.13757663546E+02 -0.68645004179E+02  0.74049998719E+02  0.19999959713E+01 0.  0.
        -13    1    3    3    0    0  0.24041472945E+02 -0.13757663546E+02  0.53256664068E+01  0.28207084471E+02  0.10566000000E+00 0.  1.
         13    1    4    4    0    0 -0.14902896265E+02  0.90073276094E+01 -0.41686624515E+02  0.45177583991E+02  0.10566000000E+00 0. -1.
        -13    1    4    4    0    0 -0.38053518616E+01  0.15121720275E+01 -0.10411496746E+02  0.11188288321E+02  0.10566000000E+00 0.  1.
         14    1    4    4    0    0 -0.53332248184E+01  0.32381639089E+01 -0.16546882918E+02  0.17684126407E+02  0.00000000000E+00 0. -1.
<mgrwt>
<rscale>  0 0.80294287E+02</rscale>
<asrwt>0</asrwt>
<pdfrwt beam="1">  1        2 0.12736648E-01 0.80294287E+02</pdfrwt>
<pdfrwt beam="2">  1       -1 0.29952112E-02 0.80294287E+02</pdfrwt>
<totfact> 0.16678417E+05</totfact>
</mgrwt>
</event>
<event>
 8    1  0.2561077E-024  0.7968297E+02  0.7818608E-02  0.1329954E+00
         -1   -1    0    0    0  501 -0.00000000000E+00  0.00000000000E+00  0.10986756692E+01  0.10986872292E+01  0.50400000000E-02 0.  1.
          2   -1    0    0  501    0  0.00000000000E+00 -0.00000000000E+00 -0.14447718799E+04  0.14447718799E+04  0.25500000000E-02 0. -1.
         24    2    1    2    0    0  0.00000000000E+00  0.00000000000E+00 -0.14436732042E+04  0.14458705671E+04  0.79682973607E+02 0.  0.
         66    2    3    3    0    0  0.94881248230E+01  0.10680453642E+02 -0.13966610261E+04  0.13967355220E+04  0.19999998821E+01 0.  0.
        -13    1    3    3    0    0 -0.94881248230E+01 -0.10680453642E+02 -0.47012178050E+02  0.49135045046E+02  0.10566000000E+00 0.  1.
         13    1    4    4    0    0  0.33415556779E+01  0.24718141348E+01 -0.39742577433E+03  0.39744752248E+03  0.10566000000E+00 0. -1.
        -13    1    4    4    0    0  0.48940501675E+01  0.61951866205E+01 -0.76526519702E+03  0.76530592903E+03  0.10566000000E+00 0.  1.
        -14    1    4    4    0    0  0.12525189776E+01  0.20134528867E+01 -0.23397005479E+03  0.23398207054E+03  0.00000000000E+00 0.  1.
<mgrwt>
<rscale>  0 0.79682974E+02</rscale>
<asrwt>0</asrwt>
<pdfrwt beam="1">  1        2 0.22227108E+00 0.79682974E+02</pdfrwt>
<pdfrwt beam="2">  1       -1 0.16902907E-03 0.79682974E+02</pdfrwt>
<totfact> 0.34040346E+05</totfact>
</mgrwt>
</event>
<event>
 8    1  0.2561077E-024  0.7946163E+02  0.7818608E-02  0.1330586E+00
          2   -1    0    0  501    0  0.00000000000E+00  0.00000000000E+00  0.52751013553E+03  0.52751013554E+03  0.25500000000E-02 0. -1.
         -1   -1    0    0    0  501 -0.00000000000E+00 -0.00000000000E+00 -0.29924285045E+01  0.29924327488E+01  0.50400000000E-02 0.  1.
         24    2    1    2    0    0 -0.71054273576E-14  0.17763568394E-14  0.52451770703E+03  0.53050256829E+03  0.79461625793E+02 0.  0.
         66    2    3    3    0    0 -0.35743653155E+02  0.13367037016E+02  0.33563371652E+03  0.33780212860E+03  0.20000014217E+01 0.  0.
        -13    1    3    3    0    0  0.35743653155E+02 -0.13367037016E+02  0.18888399051E+03  0.19270043968E+03  0.10566000000E+00 0.  1.
         13    1    4    4    0    0 -0.68982913732E+01  0.27814164059E+01  0.65048638667E+02  0.65472584014E+02  0.10566000000E+00 0. -1.
        -13    1    4    4    0    0 -0.15109461015E+02  0.47519309982E+01  0.14313859839E+03  0.14401231257E+03  0.10566000000E+00 0.  1.
        -14    1    4    4    0    0 -0.13735900767E+02  0.58336896121E+01  0.12744647946E+03  0.12831723201E+03  0.00000000000E+00 0.  1.
<mgrwt>
<rscale>  0 0.79461626E+02</rscale>
<asrwt>0</asrwt>
<pdfrwt beam="1">  1        2 0.81155362E-01 0.79461626E+02</pdfrwt>
<pdfrwt beam="2">  1       -1 0.46037419E-03 0.79461626E+02</pdfrwt>
<totfact> 0.31516411E+05</totfact>
</mgrwt>
</event>
<event>
 8    1  0.2561077E-024  0.8148643E+02  0.7818608E-02  0.1324885E+00
         -1   -1    0    0    0  501 -0.00000000000E+00  0.00000000000E+00  0.42778068261E+02  0.42778068557E+02  0.50400000000E-02 0.  1.
          2   -1    0    0  501    0  0.00000000000E+00 -0.00000000000E+00 -0.38805150837E+02  0.38805150921E+02  0.25500000000E-02 0. -1.
         24    2    1    2    0    0  0.00000000000E+00  0.00000000000E+00  0.39729174238E+01  0.81583219478E+02  0.81486426032E+02 0.  0.
         66    2    3    3    0    0  0.29634319675E+02 -0.89104689287E+00 -0.25956387747E+02  0.39455303090E+02  0.20000024610E+01 0.  0.
        -13    1    3    3    0    0 -0.29634319675E+02  0.89104689287E+00  0.29929305171E+02  0.42127916388E+02  0.10566000000E+00 0.  1.
         13    1    4    4    0    0  0.49371735063E+01 -0.28633355330E+00 -0.41109759186E+01  0.64318703480E+01  0.10566000000E+00 0. -1.
        -13    1    4    4    0    0  0.11670386284E+02  0.20555858889E+00 -0.11261221465E+02  0.16219323144E+02  0.10566000000E+00 0.  1.
        -14    1    4    4    0    0  0.13026759885E+02 -0.81027192846E+00 -0.10584190364E+02  0.16804109597E+02  0.00000000000E+00 0.  1.
<mgrwt>
<rscale>  0 0.81486426E+02</rscale>
<asrwt>0</asrwt>
<pdfrwt beam="1">  1        2 0.59700232E-02 0.81486426E+02</pdfrwt>
<pdfrwt beam="2">  1       -1 0.65812413E-02 0.81486426E+02</pdfrwt>
<totfact> 0.13461996E+05</totfact>
</mgrwt>
</event>
<event>
 8    1  0.2561077E-024  0.7965467E+02  0.7818608E-02  0.1330034E+00
          2   -1    0    0  501    0  0.00000000000E+00  0.00000000000E+00  0.33383706931E+03  0.33383706932E+03  0.25500000000E-02 0. -1.
         -1   -1    0    0    0  501 -0.00000000000E+00 -0.00000000000E+00 -0.47514684466E+01  0.47514711196E+01  0.50400000000E-02 0.  1.
         24    2    1    2    0    0  0.00000000000E+00 -0.35527136788E-14  0.32908560086E+03  0.33858854044E+03  0.79654673568E+02 0.  0.
         66    2    3    3    0    0 -0.43907507622E+01 -0.30814900511E+02  0.27009244107E+03  0.27188740962E+03  0.20000005964E+01 0.  0.
        -13    1    3    3    0    0  0.43907507622E+01  0.30814900511E+02  0.58993159790E+02  0.66701130813E+02  0.10566000000E+00 0.  1.
         13    1    4    4    0    0 -0.13217386267E+01 -0.80354777830E+01  0.72565923215E+02  0.73021505547E+02  0.10566000000E+00 0. -1.
        -13    1    4    4    0    0 -0.16004754763E+01 -0.94516397151E+01  0.88644721416E+02  0.89161610652E+02  0.10566000000E+00 0.  1.
         14    1    4    4    0    0 -0.14685366592E+01 -0.13327783013E+02  0.10888179644E+03  0.10970429343E+03  0.00000000000E+00 0. -1.
<mgrwt>
<rscale>  0 0.79654674E+02</rscale>
<asrwt>0</asrwt>
<pdfrwt beam="1">  1        2 0.51359537E-01 0.79654674E+02</pdfrwt>
<pdfrwt beam="2">  1       -1 0.73099552E-03 0.79654674E+02</pdfrwt>
<totfact> 0.26798744E+05</totfact>
</mgrwt>
</event>
<event>
 8    1  0.2561077E-024  0.7999274E+02  0.7818608E-02  0.1329072E+00
         -1   -1    0    0    0  501 -0.00000000000E+00  0.00000000000E+00  0.18278315505E+01  0.18278384990E+01  0.50400000000E-02 0.  1.
          2   -1    0    0  501    0  0.00000000000E+00 -0.00000000000E+00 -0.87519374115E+03  0.87519374115E+03  0.25500000000E-02 0. -1.
         24    2    1    2    0    0  0.00000000000E+00  0.00000000000E+00 -0.87336590960E+03  0.87702157965E+03  0.79992744208E+02 0.  0.
         66    2    3    3    0    0 -0.48902710872E+01  0.99722402915E+01 -0.85793294553E+03  0.85800716744E+03  0.20000067721E+01 0.  0.
        -13    1    3    3    0    0  0.48902710872E+01 -0.99722402915E+01 -0.15432964069E+02  0.19014412211E+02  0.10566000000E+00 0.  1.
         13    1    4    4    0    0 -0.34540261827E+01  0.64888660411E+01 -0.52388919811E+03  0.52394077790E+03  0.10566000000E+00 0. -1.
        -13    1    4    4    0    0 -0.11137831605E+01  0.14659284322E+01 -0.16417895438E+03  0.16418931051E+03  0.10566000000E+00 0.  1.
         14    1    4    4    0    0 -0.32246174393E+00  0.20174458182E+01 -0.16986479304E+03  0.16987707904E+03  0.00000000000E+00 0. -1.
<mgrwt>
<rscale>  0 0.79992744E+02</rscale>
<asrwt>0</asrwt>
<pdfrwt beam="1">  1        2 0.13464486E+00 0.79992744E+02</pdfrwt>
<pdfrwt beam="2">  1       -1 0.28120609E-03 0.79992744E+02</pdfrwt>
<totfact> 0.34839613E+05</totfact>
</mgrwt>
</event>
<event>
 8    1  0.2561077E-024  0.7937843E+02  0.7818608E-02  0.1330825E+00
         -1   -1    0    0    0  501 -0.00000000000E+00  0.00000000000E+00  0.10823626804E+03  0.10823626816E+03  0.50400000000E-02 0.  1.
          2   -1    0    0  501    0  0.00000000000E+00 -0.00000000000E+00 -0.14553658313E+02  0.14553658537E+02  0.25500000000E-02 0. -1.
         24    2    1    2    0    0  0.00000000000E+00  0.00000000000E+00  0.93682609731E+02  0.12278992670E+03  0.79378427375E+02 0.  0.
         66    2    3    3    0    0 -0.18909569601E+02 -0.33827074439E+02  0.59940687784E+02  0.71405383805E+02  0.19999991804E+01 0.  0.
        -13    1    3    3    0    0  0.18909569601E+02  0.33827074439E+02  0.33741921947E+02  0.51384542893E+02  0.10566000000E+00 0.  1.
         13    1    4    4    0    0 -0.15825773052E+02 -0.29218704768E+02  0.51510009249E+02  0.61298287235E+02  0.10566000000E+00 0. -1.
        -13    1    4    4    0    0 -0.17556875519E+01 -0.29087915570E+01  0.55527260405E+01  0.65105635407E+01  0.10566000000E+00 0.  1.
         14    1    4    4    0    0 -0.13281089967E+01 -0.16995781145E+01  0.28779524946E+01  0.35965330300E+01  0.00000000000E+00 0. -1.
<mgrwt>
<rscale>  0 0.79378427E+02</rscale>
<asrwt>0</asrwt>
<pdfrwt beam="1">  1        2 0.22390244E-02 0.79378427E+02</pdfrwt>
<pdfrwt beam="2">  1       -1 0.16651733E-01 0.79378427E+02</pdfrwt>
<totfact> 0.11880558E+05</totfact>
</mgrwt>
</event>
<event>
 8    1  0.2561077E-024  0.7824220E+02  0.7818608E-02  0.1334115E+00
          2   -1    0    0  501    0  0.00000000000E+00  0.00000000000E+00  0.29131633572E+03  0.29131633574E+03  0.25500000000E-02 0. -1.
         -1   -1    0    0    0  501 -0.00000000000E+00 -0.00000000000E+00 -0.52536017061E+01  0.52536041236E+01  0.50400000000E-02 0.  1.
         24    2    1    2    0    0 -0.35527136788E-14  0.00000000000E+00  0.28606273402E+03  0.29656993986E+03  0.78242197272E+02 0.  0.
         66    2    3    3    0    0 -0.19340201795E+02 -0.24750815836E+02  0.23135313506E+03  0.23348430225E+03  0.20000015346E+01 0.  0.
        -13    1    3    3    0    0  0.19340201795E+02  0.24750815836E+02  0.54709598958E+02  0.63085637607E+02  0.10566000000E+00 0.  1.
         13    1    4    4    0    0 -0.14088904208E+01 -0.22497647129E+01  0.17878485584E+02  0.18074784212E+02  0.10566000000E+00 0. -1.
        -13    1    4    4    0    0 -0.46506790629E+01 -0.60852479505E+01  0.61419876575E+02  0.61895649774E+02  0.10566000000E+00 0.  1.
         14    1    4    4    0    0 -0.13280632312E+02 -0.16415803173E+02  0.15205477290E+03  0.15351386827E+03  0.00000000000E+00 0. -1.
<mgrwt>
<rscale>  0 0.78242197E+02</rscale>
<asrwt>0</asrwt>
<pdfrwt beam="1">  1        2 0.44817899E-01 0.78242197E+02</pdfrwt>
<pdfrwt beam="2">  1       -1 0.80824658E-03 0.78242197E+02</pdfrwt>
<totfact> 0.26736581E+05</totfact>
</mgrwt>
</event>
<event>
 8    1  0.2561077E-024  0.7817764E+02  0.7818608E-02  0.1334304E+00
          2   -1    0    0  501    0  0.00000000000E+00  0.00000000000E+00  0.31760901657E+03  0.31760901658E+03  0.25500000000E-02 0. -1.
         -1   -1    0    0    0  501 -0.00000000000E+00 -0.00000000000E+00 -0.48107433191E+01  0.48107459592E+01  0.50400000000E-02 0.  1.
         24    2    1    2    0    0 -0.71054273576E-14  0.17763568394E-14  0.31279827326E+03  0.32241976254E+03  0.78177640840E+02 0.  0.
         66    2    3    3    0    0 -0.34347428310E+02  0.15741638838E+02  0.19740895885E+03  0.20100209469E+03  0.20000023864E+01 0.  0.
        -13    1    3    3    0    0  0.34347428310E+02 -0.15741638838E+02  0.11538931440E+03  0.12141766785E+03  0.10566000000E+00 0.  1.
         13    1    4    4    0    0 -0.12329374781E+02  0.52554382533E+01  0.73543459439E+02  0.74754830640E+02  0.10566000000E+00 0. -1.
        -13    1    4    4    0    0 -0.36333836247E+01  0.14162366043E+01  0.20835094364E+02  0.21197158392E+02  0.10566000000E+00 0. -1.
         14    1    4    4    0    0 -0.18384669904E+02  0.90699639804E+01  0.10303040505E+03  0.10505010566E+03  0.00000000000E+00 0. -1.
<mgrwt>
<rscale>  0 0.78177641E+02</rscale>
<asrwt>0</asrwt>
<pdfrwt beam="1">  1        2 0.48862931E-01 0.78177641E+02</pdfrwt>
<pdfrwt beam="2">  1       -1 0.74011448E-03 0.78177641E+02</pdfrwt>
<totfact> 0.27643304E+05</totfact>
</mgrwt>
</event>
<event>
 8    1  0.2561077E-024  0.8054547E+02  0.7818608E-02  0.1327511E+00
          2   -1    0    0  501    0  0.00000000000E+00  0.00000000000E+00  0.35559982258E+03  0.35559982259E+03  0.25500000000E-02 0. -1.
         -1   -1    0    0    0  501 -0.00000000000E+00 -0.00000000000E+00 -0.45610049716E+01  0.45610077563E+01  0.50400000000E-02 0.  1.
         24    2    1    2    0    0  0.00000000000E+00  0.00000000000E+00  0.35103881761E+03  0.36016083035E+03  0.80545466957E+02 0.  0.
         66    2    3    3    0    0 -0.26709706433E+02  0.30053269426E+02  0.18372642731E+03  0.18808510709E+03  0.19999994544E+01 0.  0.
        -13    1    3    3    0    0  0.26709706433E+02 -0.30053269426E+02  0.16731239031E+03  0.17207572326E+03  0.10566000000E+00 0.  1.
         13    1    4    4    0    0 -0.12607196951E+02  0.14539983618E+02  0.87215842793E+02  0.89313867549E+02  0.10566000000E+00 0. -1.
        -13    1    4    4    0    0 -0.11755858042E+02  0.13648570666E+02  0.82760865815E+02  0.84698617191E+02  0.10566000000E+00 0.  1.
         14    1    4    4    0    0 -0.23466514406E+01  0.18647151420E+01  0.13749718700E+02  0.14072622352E+02  0.00000000000E+00 0. -1.
<mgrwt>
<rscale>  0 0.80545467E+02</rscale>
<asrwt>0</asrwt>
<pdfrwt beam="1">  1        2 0.54707675E-01 0.80545467E+02</pdfrwt>
<pdfrwt beam="2">  1       -1 0.70169316E-03 0.80545467E+02</pdfrwt>
<totfact> 0.26624896E+05</totfact>
</mgrwt>
</event>
<event>
 8    1  0.2561077E-024  0.8028611E+02  0.7818608E-02  0.1328241E+00
         -1   -1    0    0    0  501 -0.00000000000E+00  0.00000000000E+00  0.28972764152E+01  0.28972807989E+01  0.50400000000E-02 0.  1.
          2   -1    0    0  501    0  0.00000000000E+00 -0.00000000000E+00 -0.55619953232E+03  0.55619953233E+03  0.25500000000E-02 0. -1.
         24    2    1    2    0    0  0.00000000000E+00  0.35527136788E-14 -0.55330225591E+03  0.55909681313E+03  0.80286113725E+02 0.  0.
         66    2    3    3    0    0  0.11149834005E+02  0.19799407683E+02 -0.50706267529E+03  0.50757550372E+03  0.19999914844E+01 0.  0.
        -13    1    3    3    0    0 -0.11149834005E+02 -0.19799407683E+02 -0.46239580622E+02  0.51521309407E+02  0.10566000000E+00 0.  1.
         13    1    4    4    0    0  0.24192382519E+01  0.40132222012E+01 -0.94997485135E+02  0.95113048591E+02  0.10566000000E+00 0. -1.
        -13    1    4    4    0    0  0.67053052058E+01  0.12934728566E+02 -0.32229053956E+03  0.32261970085E+03  0.10566000000E+00 0.  1.
        -14    1    4    4    0    0  0.20252905470E+01  0.28514569154E+01 -0.89774650590E+02  0.89842754282E+02  0.00000000000E+00 0.  1.
<mgrwt>
<rscale>  0 0.80286114E+02</rscale>
<asrwt>0</asrwt>
<pdfrwt beam="1">  1        2 0.85569074E-01 0.80286114E+02</pdfrwt>
<pdfrwt beam="2">  1       -1 0.44573561E-03 0.80286114E+02</pdfrwt>
<totfact> 0.31177151E+05</totfact>
</mgrwt>
</event>
<event>
 8    1  0.2561077E-024  0.8018828E+02  0.7818608E-02  0.1328518E+00
          2   -1    0    0  501    0  0.00000000000E+00  0.00000000000E+00  0.47653949480E+03  0.47653949481E+03  0.25500000000E-02 0. -1.
         -1   -1    0    0    0  501 -0.00000000000E+00 -0.00000000000E+00 -0.33733597817E+01  0.33733635468E+01  0.50400000000E-02 0.  1.
         24    2    1    2    0    0  0.00000000000E+00  0.00000000000E+00  0.47316613502E+03  0.47991285836E+03  0.80188280222E+02 0.  0.
         66    2    3    3    0    0 -0.33328955538E+02 -0.18759252952E+02  0.30824943280E+03  0.31061944831E+03  0.20000000839E+01 0.  0.
        -13    1    3    3    0    0  0.33328955538E+02  0.18759252952E+02  0.16491670222E+03  0.16929341004E+03  0.10566000000E+00 0.  1.
         13    1    4    4    0    0 -0.20834266864E+02 -0.10715717168E+02  0.19069480490E+03  0.19212863672E+03  0.10566000000E+00 0. -1.
        -13    1    4    4    0    0 -0.23685837629E+01 -0.16385520431E+01  0.23506469224E+02  0.23682489338E+02  0.10566000000E+00 0.  1.
         14    1    4    4    0    0 -0.10126104911E+02 -0.64049837415E+01  0.94048158678E+02  0.94808322251E+02  0.00000000000E+00 0. -1.
<mgrwt>
<rscale>  0 0.80188280E+02</rscale>
<asrwt>0</asrwt>
<pdfrwt beam="1">  1        2 0.73313774E-01 0.80188280E+02</pdfrwt>
<pdfrwt beam="2">  1       -1 0.51897868E-03 0.80188280E+02</pdfrwt>
<totfact> 0.29799261E+05</totfact>
</mgrwt>
</event>
<event>
 8    1  0.2561077E-024  0.7881238E+02  0.7818608E-02  0.1332456E+00
          2   -1    0    0  501    0  0.00000000000E+00  0.00000000000E+00  0.42408150509E+02  0.42408150585E+02  0.25500000000E-02 0. -1.
         -1   -1    0    0    0  501 -0.00000000000E+00 -0.00000000000E+00 -0.36616732939E+02  0.36616733286E+02  0.50400000000E-02 0.  1.
         24    2    1    2    0    0  0.00000000000E+00 -0.35527136788E-14  0.57914175699E+01  0.79024883871E+02  0.78812383249E+02 0.  0.
         66    2    3    3    0    0 -0.21692835721E+02  0.29247434523E+02  0.17933046690E+02  0.40639706139E+02  0.20000009297E+01 0.  0.
        -13    1    3    3    0    0  0.21692835721E+02 -0.29247434523E+02 -0.12141629120E+02  0.38385177732E+02  0.10566000000E+00 0.  1.
         13    1    4    4    0    0 -0.13797241081E+02  0.19698450540E+02  0.12499572650E+02  0.27104304005E+02  0.10566000000E+00 0. -1.
        -13    1    4    4    0    0 -0.19641325194E+01  0.21881925662E+01  0.12028636234E+01  0.31786865515E+01  0.10566000000E+00 0.  1.
        -14    1    4    4    0    0 -0.59314621208E+01  0.73607914166E+01  0.42306104164E+01  0.10356715583E+02  0.00000000000E+00 0.  1.
<mgrwt>
<rscale>  0 0.78812383E+02</rscale>
<asrwt>0</asrwt>
<pdfrwt beam="1">  1        2 0.65243308E-02 0.78812383E+02</pdfrwt>
<pdfrwt beam="2">  1       -1 0.56333436E-02 0.78812383E+02</pdfrwt>
<totfact> 0.15035419E+05</totfact>
</mgrwt>
</event>
<event>
 8    1  0.2561077E-024  0.7850313E+02  0.7818608E-02  0.1333354E+00
         -1   -1    0    0    0  501 -0.00000000000E+00  0.00000000000E+00  0.27009276171E+01  0.27009323195E+01  0.50400000000E-02 0.  1.
          2   -1    0    0  501    0  0.00000000000E+00 -0.00000000000E+00 -0.57042766655E+03  0.57042766656E+03  0.25500000000E-02 0. -1.
         24    2    1    2    0    0 -0.35527136788E-14  0.00000000000E+00 -0.56772673894E+03  0.57312859888E+03  0.78503125730E+02 0.  0.
         66    2    3    3    0    0  0.20401707856E+02  0.28733638724E+02 -0.40982894472E+03  0.41134610211E+03  0.20000285809E+01 0.  0.
        -13    1    3    3    0    0 -0.20401707856E+02 -0.28733638724E+02 -0.15789779422E+03  0.16178249677E+03  0.10566000000E+00 0.  1.
         13    1    4    4    0    0  0.20254780868E+01  0.33018177750E+01 -0.45879270522E+02  0.46042623619E+02  0.10566000000E+00 0. -1.
        -13    1    4    4    0    0  0.11732595945E+02  0.15011791788E+02 -0.22522921959E+03  0.22603367055E+03  0.10566000000E+00 0.  1.
        -14    1    4    4    0    0  0.66436338250E+01  0.10420029161E+02 -0.13872045460E+03  0.13926980794E+03  0.00000000000E+00 0.  1.
<mgrwt>
<rscale>  0 0.78503126E+02</rscale>
<asrwt>0</asrwt>
<pdfrwt beam="1">  1        2 0.87758007E-01 0.78503126E+02</pdfrwt>
<pdfrwt beam="2">  1       -1 0.41552814E-03 0.78503126E+02</pdfrwt>
<totfact> 0.33299699E+05</totfact>
</mgrwt>
</event>
<event>
 8    1  0.2561077E-024  0.7806613E+02  0.7818608E-02  0.1334631E+00
          2   -1    0    0  501    0  0.00000000000E+00  0.00000000000E+00  0.13579516194E+03  0.13579516197E+03  0.25500000000E-02 0. -1.
         -1   -1    0    0    0  501 -0.00000000000E+00 -0.00000000000E+00 -0.11219691974E+02  0.11219693106E+02  0.50400000000E-02 0.  1.
         24    2    1    2    0    0  0.44408920985E-15  0.00000000000E+00  0.12457546997E+03  0.14701485507E+03  0.78066125137E+02 0.  0.
         66    2    3    3    0    0 -0.27043630530E+01  0.22406669139E+02  0.12224305732E+03  0.12432512801E+03  0.19999972258E+01 0.  0.
        -13    1    3    3    0    0  0.27043630530E+01 -0.22406669139E+02  0.23324126442E+01  0.22689727063E+02  0.10566000000E+00 0.  1.
         13    1    4    4    0    0 -0.14094887530E+00  0.44405491139E+01  0.25312652563E+02  0.25699803245E+02  0.10566000000E+00 0. -1.
        -13    1    4    4    0    0 -0.42422702203E+00  0.56052524301E+01  0.27096115377E+02  0.27673262474E+02  0.10566000000E+00 0.  1.
        -14    1    4    4    0    0 -0.21391871556E+01  0.12360867595E+02  0.69834289384E+02  0.70952062290E+02  0.00000000000E+00 0.  1.
<mgrwt>
<rscale>  0 0.78066125E+02</rscale>
<asrwt>0</asrwt>
<pdfrwt beam="1">  1        2 0.20891566E-01 0.78066125E+02</pdfrwt>
<pdfrwt beam="2">  1       -1 0.17261064E-02 0.78066125E+02</pdfrwt>
<totfact> 0.20710379E+05</totfact>
</mgrwt>
</event>
<event>
 8    1  0.2561077E-024  0.7805301E+02  0.7818608E-02  0.1334669E+00
          2   -1    0    0  501    0  0.00000000000E+00  0.00000000000E+00  0.83221865640E+03  0.83221865640E+03  0.25500000000E-02 0. -1.
         -1   -1    0    0    0  501 -0.00000000000E+00 -0.00000000000E+00 -0.18301260261E+01  0.18301329659E+01  0.50400000000E-02 0.  1.
         24    2    1    2    0    0 -0.35527136788E-14  0.55511151231E-16  0.83038853037E+03  0.83404878937E+03  0.78053005533E+02 0.  0.
         66    2    3    3    0    0  0.25140060013E+02 -0.82219693305E-01  0.73407721848E+03  0.73451030766E+03  0.19999988990E+01 0.  0.
        -13    1    3    3    0    0 -0.25140060013E+02  0.82219693305E-01  0.96311311889E+02  0.99538481702E+02  0.10566000000E+00 0.  1.
         13    1    4    4    0    0  0.76382548694E+01  0.49835488295E+00  0.22729189244E+03  0.22742077045E+03  0.10566000000E+00 0. -1.
        -13    1    4    4    0    0  0.17357692528E+01 -0.43190738824E+00  0.54945179466E+02  0.54974388123E+02  0.10566000000E+00 0.  1.
         14    1    4    4    0    0  0.15766035891E+02 -0.14866718802E+00  0.45184014657E+03  0.45211514910E+03  0.00000000000E+00 0. -1.
<mgrwt>
<rscale>  0 0.78053006E+02</rscale>
<asrwt>0</asrwt>
<pdfrwt beam="1">  1        2 0.12803368E+00 0.78053006E+02</pdfrwt>
<pdfrwt beam="2">  1       -1 0.28155829E-03 0.78053006E+02</pdfrwt>
<totfact> 0.36870005E+05</totfact>
</mgrwt>
</event>
<event>
 8    1  0.2561077E-024  0.7757609E+02  0.7818608E-02  0.1336074E+00
          2   -1    0    0  501    0  0.00000000000E+00  0.00000000000E+00  0.16533459052E+03  0.16533459054E+03  0.25500000000E-02 0. -1.
         -1   -1    0    0    0  501 -0.00000000000E+00 -0.00000000000E+00 -0.90998036180E+01  0.90998050137E+01  0.50400000000E-02 0.  1.
         24    2    1    2    0    0  0.00000000000E+00  0.00000000000E+00  0.15623478690E+03  0.17443439555E+03  0.77576089832E+02 0.  0.
         66    2    3    3    0    0 -0.98666954343E+01  0.36771801815E+02  0.61800895369E+02  0.72614514775E+02  0.20000000406E+01 0.  0.
        -13    1    3    3    0    0  0.98666954343E+01 -0.36771801815E+02  0.94433891529E+02  0.10181988077E+03  0.10566000000E+00 0.  1.
         13    1    4    4    0    0 -0.65680522643E+01  0.23782708913E+02  0.40528091586E+02  0.47447802114E+02  0.10566000000E+00 0. -1.
        -13    1    4    4    0    0 -0.76743193543E+00  0.16226351004E+01  0.26314250097E+01  0.31870767267E+01  0.10566000000E+00 0.  1.
         14    1    4    4    0    0 -0.25312112346E+01  0.11366457801E+02  0.18641378773E+02  0.21979635935E+02  0.00000000000E+00 0. -1.
<mgrwt>
<rscale>  0 0.77576090E+02</rscale>
<asrwt>0</asrwt>
<pdfrwt beam="1">  1        2 0.25436089E-01 0.77576090E+02</pdfrwt>
<pdfrwt beam="2">  1       -1 0.13999700E-02 0.77576090E+02</pdfrwt>
<totfact> 0.22429567E+05</totfact>
</mgrwt>
</event>
<event>
 8    1  0.2561077E-024  0.7920719E+02  0.7818608E-02  0.1331316E+00
          2   -1    0    0  501    0  0.00000000000E+00  0.00000000000E+00  0.86490051515E+02  0.86490051552E+02  0.25500000000E-02 0. -1.
         -1   -1    0    0    0  501 -0.00000000000E+00 -0.00000000000E+00 -0.18134394583E+02  0.18134395283E+02  0.50400000000E-02 0.  1.
         24    2    1    2    0    0  0.00000000000E+00  0.00000000000E+00  0.68355656931E+02  0.10462444684E+03  0.79207190590E+02 0.  0.
         66    2    3    3    0    0  0.21786388912E+02 -0.33555647866E+01  0.77619340066E+02  0.80713496497E+02  0.20000018954E+01 0.  0.
        -13    1    3    3    0    0 -0.21786388912E+02  0.33555647866E+01 -0.92636831347E+01  0.23910950339E+02  0.10566000000E+00 0.  1.
         13    1    4    4    0    0  0.92085422252E+00 -0.36467234490E+00  0.27185392385E+01  0.28952682165E+01  0.10566000000E+00 0. -1.
        -13    1    4    4    0    0  0.51256936457E+01 -0.12071798716E+01  0.18483698651E+02  0.19219477060E+02  0.10566000000E+00 0.  1.
         14    1    4    4    0    0  0.15739841044E+02 -0.17837125700E+01  0.56417102176E+02  0.58598751220E+02  0.00000000000E+00 0. -1.
<mgrwt>
<rscale>  0 0.79207191E+02</rscale>
<asrwt>0</asrwt>
<pdfrwt beam="1">  1        2 0.13306162E-01 0.79207191E+02</pdfrwt>
<pdfrwt beam="2">  1       -1 0.27899069E-02 0.79207191E+02</pdfrwt>
<totfact> 0.17501097E+05</totfact>
</mgrwt>
</event>
<event>
 8    1  0.2561077E-024  0.8118135E+02  0.7818608E-02  0.1325732E+00
         -1   -1    0    0    0  501 -0.00000000000E+00  0.00000000000E+00  0.13523575201E+01  0.13523669116E+01  0.50400000000E-02 0.  1.
          2   -1    0    0  501    0  0.00000000000E+00 -0.00000000000E+00 -0.12183148477E+04  0.12183148477E+04  0.25500000000E-02 0. -1.
         24    2    1    2    0    0  0.00000000000E+00  0.35527136788E-14 -0.12169624901E+04  0.12196672146E+04  0.81181351922E+02 0.  0.
         66    2    3    3    0    0  0.91954904479E+01  0.22555441274E+02 -0.10962134929E+04  0.10964858992E+04  0.20000005774E+01 0.  0.
        -13    1    3    3    0    0 -0.91954904479E+01 -0.22555441274E+02 -0.12074899722E+03  0.12318131542E+03  0.10566000000E+00 0.  1.
         13    1    4    4    0    0  0.23754711271E+01  0.53248726880E+01 -0.26907515671E+03  0.26913834408E+03  0.10566000000E+00 0. -1.
        -13    1    4    4    0    0  0.39894686589E+01  0.10926035597E+02 -0.48547039149E+03  0.48560972631E+03  0.10566000000E+00 0.  1.
        -14    1    4    4    0    0  0.28305506618E+01  0.63045329888E+01 -0.34166794472E+03  0.34173782876E+03  0.00000000000E+00 0.  1.
<mgrwt>
<rscale>  0 0.81181352E+02</rscale>
<asrwt>0</asrwt>
<pdfrwt beam="1">  1        2 0.18743218E+00 0.81181352E+02</pdfrwt>
<pdfrwt beam="2">  1       -1 0.20805670E-03 0.81181352E+02</pdfrwt>
<totfact> 0.33668533E+05</totfact>
</mgrwt>
</event>
<event>
 8    1  0.2561077E-024  0.7933118E+02  0.7818608E-02  0.1330960E+00
         -1   -1    0    0    0  501 -0.00000000000E+00  0.00000000000E+00  0.14992024673E+01  0.14992109390E+01  0.50400000000E-02 0.  1.
          2   -1    0    0  501    0  0.00000000000E+00 -0.00000000000E+00 -0.10494609366E+04  0.10494609366E+04  0.25500000000E-02 0. -1.
         24    2    1    2    0    0 -0.17763568394E-14  0.00000000000E+00 -0.10479617341E+04  0.10509601475E+04  0.79331176187E+02 0.  0.
         66    2    3    3    0    0 -0.10623734126E+02  0.14500636482E+02 -0.99235863513E+03  0.99252344702E+03  0.19999955499E+01 0.  0.
        -13    1    3    3    0    0  0.10623734126E+02 -0.14500636482E+02 -0.55603099005E+02  0.58436700525E+02  0.10566000000E+00 0.  1.
         13    1    4    4    0    0 -0.29884890355E+01  0.34242065181E+01 -0.27395771662E+03  0.27399543412E+03  0.10566000000E+00 0. -1.
        -13    1    4    4    0    0 -0.73009187108E+01  0.10813479730E+02 -0.68374079074E+03  0.68386527536E+03  0.10566000000E+00 0.  1.
        -14    1    4    4    0    0 -0.33432637994E+00  0.26295023397E+00 -0.34660127770E+02  0.34662737543E+02  0.00000000000E+00 0.  1.
<mgrwt>
<rscale>  0 0.79331176E+02</rscale>
<asrwt>0</asrwt>
<pdfrwt beam="1">  1        2 0.16145494E+00 0.79331176E+02</pdfrwt>
<pdfrwt beam="2">  1       -1 0.23064802E-03 0.79331176E+02</pdfrwt>
<totfact> 0.36049426E+05</totfact>
</mgrwt>
</event>
<event>
 8    1  0.2561077E-024  0.7798768E+02  0.7818608E-02  0.1334861E+00
         -1   -1    0    0    0  501 -0.00000000000E+00  0.00000000000E+00  0.26266096064E+01  0.26266144418E+01  0.50400000000E-02 0.  1.
          2   -1    0    0  501    0  0.00000000000E+00 -0.00000000000E+00 -0.57889001395E+03  0.57889001396E+03  0.25500000000E-02 0. -1.
         24    2    1    2    0    0 -0.35527136788E-14 -0.88817841970E-15 -0.57626340435E+03  0.58151662840E+03  0.77987677983E+02 0.  0.
         66    2    3    3    0    0  0.31645579249E+02  0.54638268885E+01 -0.45290861136E+03  0.45405011434E+03  0.19999991362E+01 0.  0.
        -13    1    3    3    0    0 -0.31645579249E+02 -0.54638268885E+01 -0.12335479299E+03  0.12746651406E+03  0.10566000000E+00 0.  1.
         13    1    4    4    0    0  0.12824038643E+02  0.22099296638E+01 -0.17407601819E+03  0.17456176852E+03  0.10566000000E+00 0. -1.
        -13    1    4    4    0    0  0.43084445600E+01  0.28767623982E+00 -0.61349067721E+02  0.61500932728E+02  0.10566000000E+00 0.  1.
        -14    1    4    4    0    0  0.14513096046E+02  0.29662209849E+01 -0.21748352545E+03  0.21798741309E+03  0.00000000000E+00 0.  1.
<mgrwt>
<rscale>  0 0.77987678E+02</rscale>
<asrwt>0</asrwt>
<pdfrwt beam="1">  1        2 0.89059901E-01 0.77987678E+02</pdfrwt>
<pdfrwt beam="2">  1       -1 0.40409462E-03 0.77987678E+02</pdfrwt>
<totfact> 0.34018960E+05</totfact>
</mgrwt>
</event>
<event>
 8    1  0.2561077E-024  0.7930879E+02  0.7818608E-02  0.1331024E+00
          2   -1    0    0  501    0  0.00000000000E+00  0.00000000000E+00  0.68990291377E+03  0.68990291377E+03  0.25500000000E-02 0. -1.
         -1   -1    0    0    0  501 -0.00000000000E+00 -0.00000000000E+00 -0.22792617211E+01  0.22792672934E+01  0.50400000000E-02 0.  1.
         24    2    1    2    0    0  0.00000000000E+00  0.00000000000E+00  0.68762365205E+03  0.69218218107E+03  0.79308794791E+02 0.  0.
         66    2    3    3    0    0  0.18499349017E+02 -0.25112593780E+02  0.55738525764E+03  0.55826086528E+03  0.19999968348E+01 0.  0.
        -13    1    3    3    0    0 -0.18499349017E+02  0.25112593780E+02  0.13023839441E+03  0.13392131579E+03  0.10566000000E+00 0.  1.
         13    1    4    4    0    0  0.61272283973E+01 -0.81018121406E+01  0.17451618633E+03  0.17481159213E+03  0.10566000000E+00 0. -1.
        -13    1    4    4    0    0  0.67147175568E+01 -0.10268794953E+02  0.21575175002E+03  0.21610035720E+03  0.10566000000E+00 0.  1.
        -14    1    4    4    0    0  0.56574030625E+01 -0.67419866864E+01  0.16711732130E+03  0.16734891596E+03  0.00000000000E+00 0.  1.
<mgrwt>
<rscale>  0 0.79308795E+02</rscale>
<asrwt>0</asrwt>
<pdfrwt beam="1">  1        2 0.10613900E+00 0.79308795E+02</pdfrwt>
<pdfrwt beam="2">  1       -1 0.35065578E-03 0.79308795E+02</pdfrwt>
<totfact> 0.34099720E+05</totfact>
</mgrwt>
</event>
<event>
 8    1  0.2561077E-024  0.7939178E+02  0.7818608E-02  0.1330786E+00
         -1   -1    0    0    0  501 -0.00000000000E+00  0.00000000000E+00  0.35645047549E+01  0.35645083180E+01  0.50400000000E-02 0.  1.
          2   -1    0    0  501    0  0.00000000000E+00 -0.00000000000E+00 -0.44207066580E+03  0.44207066580E+03  0.25500000000E-02 0. -1.
         24    2    1    2    0    0  0.00000000000E+00  0.00000000000E+00 -0.43850616104E+03  0.44563517412E+03  0.79391782592E+02 0.  0.
         66    2    3    3    0    0 -0.22816957365E+02 -0.22205296815E+02 -0.35223068001E+03  0.35367236348E+03  0.19999996923E+01 0.  0.
        -13    1    3    3    0    0  0.22816957365E+02  0.22205296815E+02 -0.86275481036E+02  0.91962810646E+02  0.10566000000E+00 0.  1.
         13    1    4    4    0    0 -0.10627404723E+02 -0.10354706749E+02 -0.16561042283E+03  0.16627382535E+03  0.10566000000E+00 0. -1.
        -13    1    4    4    0    0 -0.47945977414E+01 -0.54883583939E+01 -0.84067007967E+02  0.84382363311E+02  0.10566000000E+00 0.  1.
        -14    1    4    4    0    0 -0.73949549003E+01 -0.63622316720E+01 -0.10255324921E+03  0.10301617481E+03  0.00000000000E+00 0.  1.
<mgrwt>
<rscale>  0 0.79391783E+02</rscale>
<asrwt>0</asrwt>
<pdfrwt beam="1">  1        2 0.68010828E-01 0.79391783E+02</pdfrwt>
<pdfrwt beam="2">  1       -1 0.54838597E-03 0.79391783E+02</pdfrwt>
<totfact> 0.29830802E+05</totfact>
</mgrwt>
</event>
<event>
 8    1  0.2561077E-024  0.7861101E+02  0.7818608E-02  0.1333040E+00
         -1   -1    0    0    0  501 -0.00000000000E+00  0.00000000000E+00  0.10296382411E+03  0.10296382423E+03  0.50400000000E-02 0.  1.
          2   -1    0    0  501    0  0.00000000000E+00 -0.00000000000E+00 -0.15004519007E+02  0.15004519223E+02  0.25500000000E-02 0. -1.
         24    2    1    2    0    0  0.00000000000E+00 -0.35527136788E-14  0.87959305098E+02  0.11796834345E+03  0.78611008793E+02 0.  0.
         66    2    3    3    0    0  0.19170269164E+02 -0.24493716684E+02  0.80085911311E+01  0.32180411872E+02  0.19999998894E+01 0.  0.
        -13    1    3    3    0    0 -0.19170269164E+02  0.24493716684E+02  0.79950713967E+02  0.85787931580E+02  0.10566000000E+00 0.  1.
         13    1    4    4    0    0  0.66805986939E+00 -0.74585582691E+00  0.21219482371E+00  0.10289779310E+01  0.10566000000E+00 0.  1.
        -13    1    4    4    0    0  0.64008179656E+01 -0.80971580880E+01  0.35655097078E+01  0.10920552332E+02  0.10566000000E+00 0.  1.
         14    1    4    4    0    0  0.12101391329E+02 -0.15650702769E+02  0.42308865996E+01  0.20230881609E+02  0.00000000000E+00 0. -1.
<mgrwt>
<rscale>  0 0.78611009E+02</rscale>
<asrwt>0</asrwt>
<pdfrwt beam="1">  1        2 0.23083874E-02 0.78611009E+02</pdfrwt>
<pdfrwt beam="2">  1       -1 0.15840589E-01 0.78611009E+02</pdfrwt>
<totfact> 0.12304971E+05</totfact>
</mgrwt>
</event>
<event>
 8    1  0.2561077E-024  0.7949663E+02  0.7818608E-02  0.1330486E+00
         -1   -1    0    0    0  501 -0.00000000000E+00  0.00000000000E+00  0.15023547309E+02  0.15023548154E+02  0.50400000000E-02 0.  1.
          2   -1    0    0  501    0  0.00000000000E+00 -0.00000000000E+00 -0.10516348153E+03  0.10516348156E+03  0.25500000000E-02 0. -1.
         24    2    1    2    0    0  0.00000000000E+00  0.00000000000E+00 -0.90139934225E+02  0.12018702972E+03  0.79496631190E+02 0.  0.
         66    2    3    3    0    0  0.15630581567E+02 -0.14529833177E+02 -0.95750881119E+02  0.98120652096E+02  0.20000000986E+01 0.  0.
        -13    1    3    3    0    0 -0.15630581567E+02  0.14529833177E+02  0.56109468943E+01  0.22066377622E+02  0.10566000000E+00 0.  1.
         13    1    4    4    0    0  0.22337674197E+01 -0.24187212198E+01 -0.14265805442E+02  0.14641184998E+02  0.10566000000E+00 0. -1.
        -13    1    4    4    0    0  0.74860951027E+01 -0.60735369124E+01 -0.40361567886E+02  0.41496949246E+02  0.10566000000E+00 0.  1.
         14    1    4    4    0    0  0.59107190451E+01 -0.60375750450E+01 -0.41123507792E+02  0.41982517852E+02  0.00000000000E+00 0. -1.
<mgrwt>
<rscale>  0 0.79496631E+02</rscale>
<asrwt>0</asrwt>
<pdfrwt beam="1">  1        2 0.16178997E-01 0.79496631E+02</pdfrwt>
<pdfrwt beam="2">  1       -1 0.23113151E-02 0.79496631E+02</pdfrwt>
<totfact> 0.18285891E+05</totfact>
</mgrwt>
</event>
<event>
 8    1  0.2561077E-024  0.7955931E+02  0.7818608E-02  0.1330307E+00
          2   -1    0    0  501    0  0.00000000000E+00  0.00000000000E+00  0.11273463349E+04  0.11273463349E+04  0.25500000000E-02 0. -1.
         -1   -1    0    0    0  501 -0.00000000000E+00 -0.00000000000E+00 -0.14036643950E+01  0.14036734433E+01  0.50400000000E-02 0.  1.
         24    2    1    2    0    0  0.00000000000E+00  0.00000000000E+00  0.11259426705E+04  0.11287500083E+04  0.79559311695E+02 0.  0.
         66    2    3    3    0    0  0.24588626315E+02  0.86079904423E+01  0.98935801339E+03  0.98970297398E+03  0.19999988817E+01 0.  0.
        -13    1    3    3    0    0 -0.24588626315E+02 -0.86079904423E+01  0.13658465707E+03  0.13904703432E+03  0.10566000000E+00 0.  1.
         13    1    4    4    0    0  0.19375614770E+02  0.61882515639E+01  0.77337007404E+03  0.77363750652E+03  0.10566000000E+00 0. -1.
        -13    1    4    4    0    0  0.43725021076E+01  0.22429263342E+01  0.17828152520E+03  0.17834927218E+03  0.10566000000E+00 0.  1.
         14    1    4    4    0    0  0.84050943701E+00  0.17681254426E+00  0.37706414145E+02  0.37716195281E+02  0.00000000000E+00 0. -1.
<mgrwt>
<rscale>  0 0.79559312E+02</rscale>
<asrwt>0</asrwt>
<pdfrwt beam="1">  1        2 0.17343727E+00 0.79559312E+02</pdfrwt>
<pdfrwt beam="2">  1       -1 0.21594984E-03 0.79559312E+02</pdfrwt>
<totfact> 0.35724061E+05</totfact>
</mgrwt>
</event>
<event>
 8    1  0.2561077E-024  0.8030715E+02  0.7818608E-02  0.1328182E+00
         -1   -1    0    0    0  501 -0.00000000000E+00  0.00000000000E+00  0.22185870274E+02  0.22185870846E+02  0.50400000000E-02 0.  1.
          2   -1    0    0  501    0  0.00000000000E+00 -0.00000000000E+00 -0.72672805876E+02  0.72672805921E+02  0.25500000000E-02 0. -1.
         24    2    1    2    0    0 -0.22204460493E-15  0.00000000000E+00 -0.50486935602E+02  0.94858676767E+02  0.80307147200E+02 0.  0.
         66    2    3    3    0    0 -0.14164082539E+01  0.34037529324E+02 -0.50308979973E+02  0.60791060955E+02  0.20000028132E+01 0.  0.
        -13    1    3    3    0    0  0.14164082539E+01 -0.34037529324E+02 -0.17795562907E+00  0.34067615812E+02  0.10566000000E+00 0.  1.
         13    1    4    4    0    0 -0.48489456536E+00  0.11696162629E+02 -0.18506631718E+02  0.21898445711E+02  0.10566000000E+00 0. -1.
        -13    1    4    4    0    0 -0.10408847237E+01  0.15010604197E+02 -0.20834950688E+02  0.25700350457E+02  0.10566000000E+00 0.  1.
        -14    1    4    4    0    0  0.10937103523E+00  0.73307624983E+01 -0.10967397567E+02  0.13192264788E+02  0.00000000000E+00 0.  1.
<mgrwt>
<rscale>  0 0.80307147E+02</rscale>
<asrwt>0</asrwt>
<pdfrwt beam="1">  1        2 0.11180432E-01 0.80307147E+02</pdfrwt>
<pdfrwt beam="2">  1       -1 0.34132109E-02 0.80307147E+02</pdfrwt>
<totfact> 0.16127986E+05</totfact>
</mgrwt>
</event>
<event>
 8    1  0.2561077E-024  0.7856908E+02  0.7818608E-02  0.1333162E+00
          2   -1    0    0  501    0  0.00000000000E+00  0.00000000000E+00  0.32741383857E+03  0.32741383858E+03  0.25500000000E-02 0. -1.
         -1   -1    0    0    0  501 -0.00000000000E+00 -0.00000000000E+00 -0.47135285782E+01  0.47135312727E+01  0.50400000000E-02 0.  1.
         24    2    1    2    0    0  0.00000000000E+00 -0.11102230246E-15  0.32270030999E+03  0.33212736985E+03  0.78569076210E+02 0.  0.
         66    2    3    3    0    0  0.38628747502E+02 -0.77746271265E+00  0.13201978152E+03  0.13757182589E+03  0.19999965087E+01 0.  0.
        -13    1    3    3    0    0 -0.38628747502E+02  0.77746271265E+00  0.19068052847E+03  0.19455554396E+03  0.10566000000E+00 0.  1.
         13    1    4    4    0    0  0.16920097298E+02 -0.25871930340E+00  0.57197209301E+02  0.59648038895E+02  0.10566000000E+00 0. -1.
        -13    1    4    4    0    0  0.15356134560E+02 -0.59956538351E+00  0.55115109280E+02  0.57217626500E+02  0.10566000000E+00 0.  1.
        -14    1    4    4    0    0  0.63525156439E+01  0.80821974254E-01  0.19707462937E+02  0.20706160499E+02  0.00000000000E+00 0.  1.
<mgrwt>
<rscale>  0 0.78569076E+02</rscale>
<asrwt>0</asrwt>
<pdfrwt beam="1">  1        2 0.50371388E-01 0.78569076E+02</pdfrwt>
<pdfrwt beam="2">  1       -1 0.72515804E-03 0.78569076E+02</pdfrwt>
<totfact> 0.27584857E+05</totfact>
</mgrwt>
</event>
<event>
 8    1  0.2561077E-024  0.7173826E+02  0.7818608E-02  0.1354280E+00
          2   -1    0    0  501    0  0.00000000000E+00  0.00000000000E+00  0.37460799515E+03  0.37460799516E+03  0.25500000000E-02 0. -1.
         -1   -1    0    0    0  501 -0.00000000000E+00 -0.00000000000E+00 -0.34345074900E+01  0.34345111880E+01  0.50400000000E-02 0.  1.
         24    2    1    2    0    0  0.00000000000E+00  0.00000000000E+00  0.37117348766E+03  0.37804250635E+03  0.71738264986E+02 0.  0.
         66    2    3    3    0    0 -0.14599438123E+02  0.16317531593E+02  0.33526372599E+03  0.33598388561E+03  0.19999990020E+01 0.  0.
        -13    1    3    3    0    0  0.14599438123E+02 -0.16317531593E+02  0.35909761668E+02  0.42058620732E+02  0.10566000000E+00 0.  1.
         13    1    4    4    0    0 -0.18177592643E+01  0.24282355783E+01  0.38013939890E+02  0.38134910079E+02  0.10566000000E+00 0. -1.
        -13    1    4    4    0    0 -0.46849650641E+01  0.54357395447E+01  0.11160683865E+03  0.11183735405E+03  0.10566000000E+00 0. -1.
         14    1    4    4    0    0 -0.80967137947E+01  0.84535564696E+01  0.18564294745E+03  0.18601162149E+03  0.00000000000E+00 0. -1.
<mgrwt>
<rscale>  0 0.71738265E+02</rscale>
<asrwt>0</asrwt>
<pdfrwt beam="1">  1        2 0.57631956E-01 0.71738265E+02</pdfrwt>
<pdfrwt beam="2">  1       -1 0.52838645E-03 0.71738265E+02</pdfrwt>
<totfact> 0.36648759E+05</totfact>
</mgrwt>
</event>
<event>
 8    1  0.2561077E-024  0.7841695E+02  0.7818608E-02  0.1333605E+00
          2   -1    0    0  501    0  0.00000000000E+00  0.00000000000E+00  0.75847325591E+03  0.75847325592E+03  0.25500000000E-02 0. -1.
         -1   -1    0    0    0  501 -0.00000000000E+00 -0.00000000000E+00 -0.20268377424E+01  0.20268440087E+01  0.50400000000E-02 0.  1.
         24    2    1    2    0    0  0.00000000000E+00  0.17763568394E-14  0.75644641817E+03  0.76050009992E+03  0.78416952403E+02 0.  0.
         66    2    3    3    0    0 -0.66002212580E+01 -0.14380316300E+02  0.72610979206E+03  0.72628492105E+03  0.20000012933E+01 0.  0.
        -13    1    3    3    0    0  0.66002212580E+01  0.14380316300E+02  0.30336626111E+02  0.34215178874E+02  0.10566000000E+00 0.  1.
         13    1    4    4    0    0 -0.46519223567E+01 -0.82135379887E+01  0.42333811564E+03  0.42344335384E+03  0.10566000000E+00 0. -1.
        -13    1    4    4    0    0 -0.88738834848E+00 -0.33162732157E+01  0.17493966030E+03  0.17497337237E+03  0.10566000000E+00 0.  1.
         14    1    4    4    0    0 -0.10609105528E+01 -0.28505050955E+01  0.12783201611E+03  0.12786819485E+03  0.00000000000E+00 0. -1.
<mgrwt>
<rscale>  0 0.78416952E+02</rscale>
<asrwt>0</asrwt>
<pdfrwt beam="1">  1        2 0.11668826E+00 0.78416952E+02</pdfrwt>
<pdfrwt beam="2">  1       -1 0.31182150E-03 0.78416952E+02</pdfrwt>
<totfact> 0.35840851E+05</totfact>
</mgrwt>
</event>
<event>
 8    1  0.2561077E-024  0.8032490E+02  0.7818608E-02  0.1328132E+00
         -1   -1    0    0    0  501 -0.00000000000E+00  0.00000000000E+00  0.69336684853E+01  0.69336703171E+01  0.50400000000E-02 0.  1.
          2   -1    0    0  501    0  0.00000000000E+00 -0.00000000000E+00 -0.23263618854E+03  0.23263618855E+03  0.25500000000E-02 0. -1.
         24    2    1    2    0    0  0.00000000000E+00  0.35527136788E-14 -0.22570252006E+03  0.23956985887E+03  0.80324900999E+02 0.  0.
         66    2    3    3    0    0  0.32399375887E+02 -0.22377916683E+02 -0.13612464269E+03  0.14171947313E+03  0.20000007765E+01 0.  0.
        -13    1    3    3    0    0 -0.32399375887E+02  0.22377916683E+02 -0.89577877361E+02  0.97850385740E+02  0.10566000000E+00 0.  1.
         13    1    4    4    0    0  0.15936751389E+02 -0.10321362731E+02 -0.67507060249E+02  0.70126492290E+02  0.10566000000E+00 0. -1.
        -13    1    4    4    0    0  0.69951978732E+01 -0.56496574045E+01 -0.29839414959E+02  0.31164936567E+02  0.10566000000E+00 0.  1.
        -14    1    4    4    0    0  0.94674266249E+01 -0.64068965475E+01 -0.38778167486E+02  0.40428044275E+02  0.00000000000E+00 0.  1.
<mgrwt>
<rscale>  0 0.80324901E+02</rscale>
<asrwt>0</asrwt>
<pdfrwt beam="1">  1        2 0.35790177E-01 0.80324901E+02</pdfrwt>
<pdfrwt beam="2">  1       -1 0.10667186E-02 0.80324901E+02</pdfrwt>
<totfact> 0.23016031E+05</totfact>
</mgrwt>
</event>
<event>
 8    1  0.2561077E-024  0.7819102E+02  0.7818608E-02  0.1334265E+00
          2   -1    0    0  501    0  0.00000000000E+00  0.00000000000E+00  0.13896137447E+03  0.13896137450E+03  0.25500000000E-02 0. -1.
         -1   -1    0    0    0  501 -0.00000000000E+00 -0.00000000000E+00 -0.10999162097E+02  0.10999163251E+02  0.50400000000E-02 0.  1.
         24    2    1    2    0    0  0.35527136788E-14  0.00000000000E+00  0.12796221238E+03  0.14996053775E+03  0.78191016653E+02 0.  0.
         66    2    3    3    0    0  0.22369959170E+02  0.31238590502E+02  0.77609906247E+02  0.86623104057E+02  0.19999997445E+01 0.  0.
        -13    1    3    3    0    0 -0.22369959170E+02 -0.31238590502E+02  0.50352306128E+02  0.63337433689E+02  0.10566000000E+00 0.  1.
         13    1    4    4    0    0  0.10159077965E+01  0.17818781023E+01  0.41603262445E+01  0.46396806699E+01  0.10566000000E+00 0.  1.
        -13    1    4    4    0    0  0.14210178592E+02  0.18332178832E+02  0.46162110955E+02  0.51661877707E+02  0.10566000000E+00 0. -1.
         14    1    4    4    0    0  0.71438727821E+01  0.11124533568E+02  0.27287469047E+02  0.30321545680E+02  0.00000000000E+00 0. -1.
<mgrwt>
<rscale>  0 0.78191017E+02</rscale>
<asrwt>0</asrwt>
<pdfrwt beam="1">  1        2 0.21378672E-01 0.78191017E+02</pdfrwt>
<pdfrwt beam="2">  1       -1 0.16921789E-02 0.78191017E+02</pdfrwt>
<totfact> 0.20771764E+05</totfact>
</mgrwt>
</event>
<event>
 8    1  0.2561077E-024  0.8145021E+02  0.7818608E-02  0.1324986E+00
         -1   -1    0    0    0  501 -0.00000000000E+00  0.00000000000E+00  0.17849665810E+01  0.17849736964E+01  0.50400000000E-02 0.  1.
          2   -1    0    0  501    0  0.00000000000E+00 -0.00000000000E+00 -0.92916629822E+03  0.92916629822E+03  0.25500000000E-02 0. -1.
         24    2    1    2    0    0 -0.44408920985E-15  0.00000000000E+00 -0.92738133164E+03  0.93095127192E+03  0.81450208205E+02 0.  0.
         66    2    3    3    0    0 -0.29563807289E+01 -0.20534234833E+02 -0.86419403025E+03  0.86444532325E+03  0.19999969214E+01 0.  0.
        -13    1    3    3    0    0  0.29563807289E+01  0.20534234833E+02 -0.63187301390E+02  0.66505948668E+02  0.10566000000E+00 0.  1.
         13    1    4    4    0    0 -0.24891124687E+01 -0.16590314509E+02 -0.70605516256E+03  0.70625444279E+03  0.10566000000E+00 0. -1.
        -13    1    4    4    0    0 -0.32003234876E+00 -0.48685343869E+00 -0.20754661805E+02  0.20763106647E+02  0.10566000000E+00 0.  1.
         14    1    4    4    0    0 -0.14723591140E+00 -0.34570668855E+01 -0.13738420589E+03  0.13742777382E+03  0.00000000000E+00 0. -1.
<mgrwt>
<rscale>  0 0.81450208E+02</rscale>
<asrwt>0</asrwt>
<pdfrwt beam="1">  1        2 0.14294827E+00 0.81450208E+02</pdfrwt>
<pdfrwt beam="2">  1       -1 0.27461153E-03 0.81450208E+02</pdfrwt>
<totfact> 0.33459474E+05</totfact>
</mgrwt>
</event>
<event>
 8    1  0.2561077E-024  0.8310979E+02  0.7818608E-02  0.1320451E+00
          2   -1    0    0  501    0  0.00000000000E+00  0.00000000000E+00  0.65160982336E+03  0.65160982337E+03  0.25500000000E-02 0. -1.
         -1   -1    0    0    0  501 -0.00000000000E+00 -0.00000000000E+00 -0.26500640292E+01  0.26500688219E+01  0.50400000000E-02 0.  1.
         24    2    1    2    0    0  0.00000000000E+00  0.00000000000E+00  0.64895975934E+03  0.65425989219E+03  0.83109790601E+02 0.  0.
         66    2    3    3    0    0  0.23834442349E+02 -0.15468985923E+02  0.56311080234E+03  0.56383077769E+03  0.19999988975E+01 0.  0.
        -13    1    3    3    0    0 -0.23834442349E+02  0.15468985923E+02  0.85848956998E+02  0.90429114500E+02  0.10566000000E+00 0.  1.
         13    1    4    4    0    0  0.16867573163E+02 -0.11555001524E+02  0.39643830928E+03  0.39696520919E+03  0.10566000000E+00 0. -1.
        -13    1    4    4    0    0  0.69284224118E+01 -0.39466621563E+01  0.16565608071E+03  0.16584790448E+03  0.10566000000E+00 0.  1.
         14    1    4    4    0    0  0.38446774399E-01  0.32677757642E-01  0.10164123512E+01  0.10176640201E+01  0.00000000000E+00 0. -1.
<mgrwt>
<rscale>  0 0.83109791E+02</rscale>
<asrwt>0</asrwt>
<pdfrwt beam="1">  1        2 0.10024771E+00 0.83109791E+02</pdfrwt>
<pdfrwt beam="2">  1       -1 0.40770233E-03 0.83109791E+02</pdfrwt>
<totfact> 0.29768114E+05</totfact>
</mgrwt>
</event>
<event>
 8    1  0.2561077E-024  0.8043101E+02  0.7818608E-02  0.1327833E+00
         -1   -1    0    0    0  501 -0.00000000000E+00  0.00000000000E+00  0.98184614015E+01  0.98184626950E+01  0.50400000000E-02 0.  1.
          2   -1    0    0  501    0  0.00000000000E+00 -0.00000000000E+00 -0.16471895979E+03  0.16471895981E+03  0.25500000000E-02 0. -1.
         24    2    1    2    0    0  0.00000000000E+00  0.88817841970E-15 -0.15490049839E+03  0.17453742250E+03  0.80431010521E+02 0.  0.
         66    2    3    3    0    0  0.37737344564E+02 -0.41218151363E+01 -0.10613786271E+03  0.11274015447E+03  0.19999982954E+01 0.  0.
        -13    1    3    3    0    0 -0.37737344564E+02  0.41218151363E+01 -0.48762635672E+02  0.61797268034E+02  0.10566000000E+00 0.  1.
         13    1    4    4    0    0  0.62772416500E+01 -0.83988884618E+00 -0.18655957421E+02  0.19701905678E+02  0.10566000000E+00 0. -1.
        -13    1    4    4    0    0  0.75459824166E+01 -0.26075259373E+00 -0.19659715385E+02  0.21060043105E+02  0.10566000000E+00 0.  1.
        -14    1    4    4    0    0  0.23914120498E+02 -0.30211736964E+01 -0.67822189907E+02  0.71978205684E+02  0.00000000000E+00 0.  1.
<mgrwt>
<rscale>  0 0.80431011E+02</rscale>
<asrwt>0</asrwt>
<pdfrwt beam="1">  1        2 0.25341376E-01 0.80431011E+02</pdfrwt>
<pdfrwt beam="2">  1       -1 0.15105327E-02 0.80431011E+02</pdfrwt>
<totfact> 0.20359820E+05</totfact>
</mgrwt>
</event>
<event>
 8    1  0.2561077E-024  0.8129149E+02  0.7818608E-02  0.1325426E+00
          2   -1    0    0  501    0  0.00000000000E+00  0.00000000000E+00  0.23092352229E+02  0.23092352369E+02  0.25500000000E-02 0. -1.
         -1   -1    0    0    0  501 -0.00000000000E+00 -0.00000000000E+00 -0.71542143518E+02  0.71542143696E+02  0.50400000000E-02 0.  1.
         24    2    1    2    0    0  0.17763568394E-14  0.00000000000E+00 -0.48449791290E+02  0.94634496065E+02  0.81291485221E+02 0.  0.
         66    2    3    3    0    0 -0.13822691090E+02  0.29004824828E+02  0.46940451617E+01  0.32532763649E+02  0.19999996050E+01 0.  0.
        -13    1    3    3    0    0  0.13822691090E+02 -0.29004824828E+02 -0.53143836451E+02  0.62101732416E+02  0.10566000000E+00 0.  1.
         13    1    4    4    0    0 -0.12291619779E+02  0.25095729124E+02  0.38688462646E+01  0.28210967238E+02  0.10566000000E+00 0. -1.
        -13    1    4    4    0    0 -0.97514611698E+00  0.30153484145E+01  0.44128169373E+00  0.32014261789E+01  0.10566000000E+00 0.  1.
         14    1    4    4    0    0 -0.55592519322E+00  0.89374728976E+00  0.38391720331E+00  0.11203702323E+01  0.00000000000E+00 0. -1.
<mgrwt>
<rscale>  0 0.81291485E+02</rscale>
<asrwt>0</asrwt>
<pdfrwt beam="1">  1        2 0.35526696E-02 0.81291485E+02</pdfrwt>
<pdfrwt beam="2">  1       -1 0.11006484E-01 0.81291485E+02</pdfrwt>
<totfact> 0.12208118E+05</totfact>
</mgrwt>
</event>
<event>
 8    1  0.2561077E-024  0.7830329E+02  0.7818608E-02  0.1333937E+00
          2   -1    0    0  501    0  0.00000000000E+00  0.00000000000E+00  0.11979893751E+03  0.11979893754E+03  0.25500000000E-02 0. -1.
         -1   -1    0    0    0  501 -0.00000000000E+00 -0.00000000000E+00 -0.12795200013E+02  0.12795201005E+02  0.50400000000E-02 0.  1.
         24    2    1    2    0    0 -0.35527136788E-14  0.00000000000E+00  0.10700373750E+03  0.13259413855E+03  0.78303293274E+02 0.  0.
         66    2    3    3    0    0  0.19482752186E+02 -0.27026769214E+02  0.88273796731E+02  0.94373126888E+02  0.20000005788E+01 0.  0.
        -13    1    3    3    0    0 -0.19482752186E+02  0.27026769214E+02  0.18729940769E+02  0.38221011658E+02  0.10566000000E+00 0.  1.
         13    1    4    4    0    0  0.17858757407E+02 -0.23978208809E+02  0.78385938261E+02  0.83894315630E+02  0.10566000000E+00 0. -1.
        -13    1    4    4    0    0  0.55646210780E+00 -0.80342572880E+00  0.27471982417E+01  0.29177740135E+01  0.10566000000E+00 0.  1.
        -14    1    4    4    0    0  0.10675326708E+01 -0.22451346769E+01  0.71406602279E+01  0.75610372444E+01  0.00000000000E+00 0.  1.
<mgrwt>
<rscale>  0 0.78303293E+02</rscale>
<asrwt>0</asrwt>
<pdfrwt beam="1">  1        2 0.18430605E-01 0.78303293E+02</pdfrwt>
<pdfrwt beam="2">  1       -1 0.19684924E-02 0.78303293E+02</pdfrwt>
<totfact> 0.19774656E+05</totfact>
</mgrwt>
</event>
<event>
 8    1  0.2561077E-024  0.8122460E+02  0.7818608E-02  0.1325612E+00
          2   -1    0    0  501    0  0.00000000000E+00  0.00000000000E+00  0.37198333402E+03  0.37198333403E+03  0.25500000000E-02 0. -1.
         -1   -1    0    0    0  501 -0.00000000000E+00 -0.00000000000E+00 -0.44339574201E+01  0.44339602845E+01  0.50400000000E-02 0.  1.
         24    2    1    2    0    0  0.71054273576E-14  0.00000000000E+00  0.36754937660E+03  0.37641729431E+03  0.81224597378E+02 0.  0.
         66    2    3    3    0    0  0.24063913247E+02  0.16235155173E+02  0.31534756000E+03  0.31668712602E+03  0.20000007902E+01 0.  0.
        -13    1    3    3    0    0 -0.24063913247E+02 -0.16235155173E+02  0.52201816599E+02  0.59730168295E+02  0.10566000000E+00 0.  1.
         13    1    4    4    0    0  0.15529984376E+02  0.97349186607E+01  0.19508920500E+03  0.19594835577E+03  0.10566000000E+00 0. -1.
        -13    1    4    4    0    0  0.10550734249E+01  0.98774295400E+00  0.18909748560E+02  0.18965193664E+02  0.10566000000E+00 0.  1.
        -14    1    4    4    0    0  0.74788554464E+01  0.55124935579E+01  0.10134860644E+03  0.10177357659E+03  0.00000000000E+00 0.  1.
<mgrwt>
<rscale>  0 0.81224597E+02</rscale>
<asrwt>0</asrwt>
<pdfrwt beam="1">  1        2 0.57228208E-01 0.81224597E+02</pdfrwt>
<pdfrwt beam="2">  1       -1 0.68214749E-03 0.81224597E+02</pdfrwt>
<totfact> 0.26466036E+05</totfact>
</mgrwt>
</event>
<event>
 8    1  0.2561077E-024  0.7913987E+02  0.7818608E-02  0.1331510E+00
          2   -1    0    0  501    0  0.00000000000E+00  0.00000000000E+00  0.45241974144E+03  0.45241974145E+03  0.25500000000E-02 0. -1.
         -1   -1    0    0    0  501 -0.00000000000E+00 -0.00000000000E+00 -0.34608988813E+01  0.34609025511E+01  0.50400000000E-02 0.  1.
         24    2    1    2    0    0  0.00000000000E+00  0.00000000000E+00  0.44895884256E+03  0.45588064400E+03  0.79139871498E+02 0.  0.
         66    2    3    3    0    0 -0.79527703023E+01 -0.75154087581E+01  0.44352274324E+03  0.44366220449E+03  0.19999989903E+01 0.  0.
        -13    1    3    3    0    0  0.79527703023E+01  0.75154087581E+01  0.54360993229E+01  0.12218439514E+02  0.10566000000E+00 0.  1.
         13    1    4    4    0    0 -0.13429413734E+01 -0.19325341100E+01  0.11212506238E+03  0.11214980588E+03  0.10566000000E+00 0. -1.
        -13    1    4    4    0    0 -0.41012166730E+01 -0.28002782780E+01  0.19540298031E+03  0.19546610298E+03  0.10566000000E+00 0.  1.
         14    1    4    4    0    0 -0.25086122559E+01 -0.27825963700E+01  0.13599470055E+03  0.13604629563E+03  0.00000000000E+00 0. -1.
<mgrwt>
<rscale>  0 0.79139871E+02</rscale>
<asrwt>0</asrwt>
<pdfrwt beam="1">  1        2 0.69603050E-01 0.79139871E+02</pdfrwt>
<pdfrwt beam="2">  1       -1 0.53244617E-03 0.79139871E+02</pdfrwt>
<totfact> 0.30313917E+05</totfact>
</mgrwt>
</event>
<event>
 8    1  0.2561077E-024  0.7854458E+02  0.7818608E-02  0.1333233E+00
         -1   -1    0    0    0  501 -0.00000000000E+00  0.00000000000E+00  0.16217118442E+02  0.16217119225E+02  0.50400000000E-02 0.  1.
          2   -1    0    0  501    0  0.00000000000E+00 -0.00000000000E+00 -0.95103982252E+02  0.95103982286E+02  0.25500000000E-02 0. -1.
         24    2    1    2    0    0 -0.35527136788E-14 -0.44408920985E-15 -0.78886863810E+02  0.11132110151E+03  0.78544575624E+02 0.  0.
         66    2    3    3    0    0  0.19912391839E+02  0.34168974887E+01 -0.87156953238E+02  0.89490295745E+02  0.19999994042E+01 0.  0.
        -13    1    3    3    0    0 -0.19912391839E+02 -0.34168974887E+01  0.82700894283E+01  0.21830805766E+02  0.10566000000E+00 0.  1.
         13    1    4    4    0    0  0.11099729211E+02  0.15499562659E+01 -0.48999965453E+02  0.50265436747E+02  0.10566000000E+00 0. -1.
        -13    1    4    4    0    0  0.25930369920E+01  0.10851927601E+01 -0.11034484372E+02  0.11387383086E+02  0.10566000000E+00 0.  1.
        -14    1    4    4    0    0  0.62196256362E+01  0.78174846268E+00 -0.27122503414E+02  0.27837475912E+02  0.00000000000E+00 0.  1.
<mgrwt>
<rscale>  0 0.78544576E+02</rscale>
<asrwt>0</asrwt>
<pdfrwt beam="1">  1        2 0.14631382E-01 0.78544576E+02</pdfrwt>
<pdfrwt beam="2">  1       -1 0.24949414E-02 0.78544576E+02</pdfrwt>
<totfact> 0.18362321E+05</totfact>
</mgrwt>
</event>
<event>
 8    1  0.2561077E-024  0.7970427E+02  0.7818608E-02  0.1329893E+00
         -1   -1    0    0    0  501 -0.00000000000E+00  0.00000000000E+00  0.11996263045E+02  0.11996264104E+02  0.50400000000E-02 0.  1.
          2   -1    0    0  501    0  0.00000000000E+00 -0.00000000000E+00 -0.13239061908E+03  0.13239061910E+03  0.25500000000E-02 0. -1.
         24    2    1    2    0    0 -0.11102230246E-15  0.00000000000E+00 -0.12039435603E+03  0.14438688320E+03  0.79704272642E+02 0.  0.
         66    2    3    3    0    0 -0.61965680965E+00  0.25815605601E+02 -0.11516231296E+03  0.11803892492E+03  0.20000007582E+01 0.  0.
        -13    1    3    3    0    0  0.61965680965E+00 -0.25815605601E+02 -0.52320430742E+01  0.26347958287E+02  0.10566000000E+00 0.  1.
         13    1    4    4    0    0  0.25629859858E-01  0.72245953414E+01 -0.34861724858E+02  0.35602618708E+02  0.10566000000E+00 0. -1.
        -13    1    4    4    0    0 -0.12804808884E+00  0.13811298323E+02 -0.57724959080E+02  0.59354447370E+02  0.10566000000E+00 0.  1.
         14    1    4    4    0    0 -0.51723858068E+00  0.47797119365E+01 -0.22575629019E+02  0.23081858841E+02  0.00000000000E+00 0. -1.
<mgrwt>
<rscale>  0 0.79704273E+02</rscale>
<asrwt>0</asrwt>
<pdfrwt beam="1">  1        2 0.20367787E-01 0.79704273E+02</pdfrwt>
<pdfrwt beam="2">  1       -1 0.18455791E-02 0.79704273E+02</pdfrwt>
<totfact> 0.19445265E+05</totfact>
</mgrwt>
</event>
<event>
 8    1  0.2561077E-024  0.7908977E+02  0.7818608E-02  0.1331655E+00
          2   -1    0    0  501    0  0.00000000000E+00  0.00000000000E+00  0.20926749530E+03  0.20926749532E+03  0.25500000000E-02 0. -1.
         -1   -1    0    0    0  501 -0.00000000000E+00 -0.00000000000E+00 -0.74727208815E+01  0.74727225812E+01  0.50400000000E-02 0.  1.
         24    2    1    2    0    0  0.00000000000E+00 -0.88817841970E-15  0.20179477442E+03  0.21674021790E+03  0.79089765908E+02 0.  0.
         66    2    3    3    0    0 -0.34806512772E+02 -0.59019928190E+01  0.14963555277E+03  0.15375670881E+03  0.19999997436E+01 0.  0.
        -13    1    3    3    0    0  0.34806512772E+02  0.59019928190E+01  0.52159221650E+02  0.62983509094E+02  0.10566000000E+00 0.  1.
         13    1    4    4    0    0 -0.13736356698E+02 -0.21202184500E+01  0.60285034502E+02  0.61866625660E+02  0.10566000000E+00 0. -1.
        -13    1    4    4    0    0 -0.99768453552E+01 -0.10756661727E+01  0.41635183014E+02  0.42827492684E+02  0.10566000000E+00 0.  1.
        -14    1    4    4    0    0 -0.11093310719E+02 -0.27061081963E+01  0.47715335257E+02  0.49062590464E+02  0.00000000000E+00 0.  1.
<mgrwt>
<rscale>  0 0.79089766E+02</rscale>
<asrwt>0</asrwt>
<pdfrwt beam="1">  1        2 0.32194997E-01 0.79089766E+02</pdfrwt>
<pdfrwt beam="2">  1       -1 0.11496496E-02 0.79089766E+02</pdfrwt>
<totfact> 0.23095766E+05</totfact>
</mgrwt>
</event>
<event>
 8    1  0.2561077E-024  0.8074688E+02  0.7818608E-02  0.1326945E+00
          2   -1    0    0  501    0  0.00000000000E+00  0.00000000000E+00  0.21422250103E+03  0.21422250105E+03  0.25500000000E-02 0. -1.
         -1   -1    0    0    0  501 -0.00000000000E+00 -0.00000000000E+00 -0.76089781327E+01  0.76089798018E+01  0.50400000000E-02 0.  1.
         24    2    1    2    0    0  0.00000000000E+00  0.17763568394E-14  0.20661352290E+03  0.22183148085E+03  0.80746876415E+02 0.  0.
         66    2    3    3    0    0  0.79936634432E+01  0.10874213900E+02  0.20783258447E+03  0.20827993266E+03  0.19999991160E+01 0.  0.
        -13    1    3    3    0    0 -0.79936634432E+01 -0.10874213900E+02 -0.12190615735E+01  0.13551548190E+02  0.10566000000E+00 0.  1.
         13    1    4    4    0    0  0.21907716831E+01  0.23379207864E+01  0.45810362961E+02  0.45922389668E+02  0.10566000000E+00 0. -1.
        -13    1    4    4    0    0  0.46286526857E+01  0.72988230607E+01  0.14198000565E+03  0.14224285716E+03  0.10566000000E+00 0.  1.
        -14    1    4    4    0    0  0.11742390745E+01  0.12374700534E+01  0.20042215859E+02  0.20114685830E+02  0.00000000000E+00 0.  1.
<mgrwt>
<rscale>  0 0.80746876E+02</rscale>
<asrwt>0</asrwt>
<pdfrwt beam="1">  1        2 0.32957305E-01 0.80746876E+02</pdfrwt>
<pdfrwt beam="2">  1       -1 0.11706122E-02 0.80746876E+02</pdfrwt>
<totfact> 0.22047561E+05</totfact>
</mgrwt>
</event>
<event>
 8    1  0.2561077E-024  0.7977498E+02  0.7818608E-02  0.1329691E+00
          2   -1    0    0  501    0  0.00000000000E+00  0.00000000000E+00  0.97121775764E+02  0.97121775797E+02  0.25500000000E-02 0. -1.
         -1   -1    0    0    0  501 -0.00000000000E+00 -0.00000000000E+00 -0.16381616002E+02  0.16381616777E+02  0.50400000000E-02 0.  1.
         24    2    1    2    0    0  0.00000000000E+00 -0.35527136788E-14  0.80740159762E+02  0.11350339257E+03  0.79774975572E+02 0.  0.
         66    2    3    3    0    0 -0.34838642958E+02  0.17410658489E+02  0.52480315434E+02  0.65383832750E+02  0.20000012352E+01 0.  0.
        -13    1    3    3    0    0  0.34838642958E+02 -0.17410658489E+02  0.28259844328E+02  0.48119559824E+02  0.10566000000E+00 0.  1.
         13    1    4    4    0    0 -0.11846654799E+02  0.60814650619E+01  0.17986682992E+02  0.22379887764E+02  0.10566000000E+00 0. -1.
        -13    1    4    4    0    0 -0.92205798095E+01  0.39125642229E+01  0.14357318469E+02  0.17506313389E+02  0.10566000000E+00 0.  1.
        -14    1    4    4    0    0 -0.13771408349E+02  0.74166292045E+01  0.20136313972E+02  0.25497631597E+02  0.00000000000E+00 0.  1.
<mgrwt>
<rscale>  0 0.79774976E+02</rscale>
<asrwt>0</asrwt>
<pdfrwt beam="1">  1        2 0.14941812E-01 0.79774976E+02</pdfrwt>
<pdfrwt beam="2">  1       -1 0.25202486E-02 0.79774976E+02</pdfrwt>
<totfact> 0.17715584E+05</totfact>
</mgrwt>
</event>
<event>
 8    1  0.2561077E-024  0.7580758E+02  0.7818608E-02  0.1341388E+00
          2   -1    0    0  501    0  0.00000000000E+00  0.00000000000E+00  0.16490968047E+03  0.16490968049E+03  0.25500000000E-02 0. -1.
         -1   -1    0    0    0  501 -0.00000000000E+00 -0.00000000000E+00 -0.87120238047E+01  0.87120252625E+01  0.50400000000E-02 0.  1.
         24    2    1    2    0    0  0.00000000000E+00  0.00000000000E+00  0.15619765667E+03  0.17362170576E+03  0.75807577199E+02 0.  0.
         66    2    3    3    0    0  0.26392419146E+02  0.98245304528E+01  0.13616630612E+03  0.13906237480E+03  0.19999941565E+01 0.  0.
        -13    1    3    3    0    0 -0.26392419146E+02 -0.98245304528E+01  0.20031350549E+02  0.34559330952E+02  0.10566000000E+00 0.  1.
         13    1    4    4    0    0  0.19863124765E+02  0.67353426131E+01  0.99206843365E+02  0.10139979043E+03  0.10566000000E+00 0. -1.
        -13    1    4    4    0    0  0.21360060315E+01  0.81741986297E+00  0.12538373436E+02  0.12745692192E+02  0.10566000000E+00 0.  1.
         14    1    4    4    0    0  0.43932883498E+01  0.22717679767E+01  0.24421089319E+02  0.24916892178E+02  0.00000000000E+00 0. -1.
<mgrwt>
<rscale>  0 0.75807577E+02</rscale>
<asrwt>0</asrwt>
<pdfrwt beam="1">  1        2 0.25370719E-01 0.75807577E+02</pdfrwt>
<pdfrwt beam="2">  1       -1 0.13403115E-02 0.75807577E+02</pdfrwt>
<totfact> 0.23815291E+05</totfact>
</mgrwt>
</event>
<event>
 8    1  0.2561077E-024  0.7945235E+02  0.7818608E-02  0.1330613E+00
         -1   -1    0    0    0  501 -0.00000000000E+00  0.00000000000E+00  0.70421126015E+02  0.70421126195E+02  0.50400000000E-02 0.  1.
          2   -1    0    0  501    0  0.00000000000E+00 -0.00000000000E+00 -0.22410447997E+02  0.22410448142E+02  0.25500000000E-02 0. -1.
         24    2    1    2    0    0 -0.17763568394E-14  0.71054273576E-14  0.48010678017E+02  0.92831574337E+02  0.79452350439E+02 0.  0.
         66    2    3    3    0    0  0.13497364627E+02 -0.35017503842E+02  0.88872409341E+01  0.38618486245E+02  0.20000003110E+01 0.  0.
        -13    1    3    3    0    0 -0.13497364627E+02  0.35017503842E+02  0.39123437083E+02  0.54213088092E+02  0.10566000000E+00 0.  1.
         13    1    4    4    0    0  0.58911214471E+01 -0.13141031561E+02  0.34636447898E+01  0.14812157900E+02  0.10566000000E+00 0.  1.
        -13    1    4    4    0    0  0.60756068419E+01 -0.16560913699E+02  0.38575837143E+01  0.18057380131E+02  0.10566000000E+00 0. -1.
        -14    1    4    4    0    0  0.15306363382E+01 -0.53155585823E+01  0.15660124301E+01  0.57489482145E+01  0.00000000000E+00 0.  1.
<mgrwt>
<rscale>  0 0.79452350E+02</rscale>
<asrwt>0</asrwt>
<pdfrwt beam="1">  1        2 0.34477613E-02 0.79452350E+02</pdfrwt>
<pdfrwt beam="2">  1       -1 0.10834019E-01 0.79452350E+02</pdfrwt>
<totfact> 0.12953306E+05</totfact>
</mgrwt>
</event>
<event>
 8    1  0.2561077E-024  0.7979050E+02  0.7818608E-02  0.1329647E+00
          2   -1    0    0  501    0  0.00000000000E+00  0.00000000000E+00  0.11598848998E+03  0.11598849000E+03  0.25500000000E-02 0. -1.
         -1   -1    0    0    0  501 -0.00000000000E+00 -0.00000000000E+00 -0.13722316770E+02  0.13722317695E+02  0.50400000000E-02 0.  1.
         24    2    1    2    0    0 -0.35527136788E-14 -0.71054273576E-14  0.10226617321E+03  0.12971080770E+03  0.79790497252E+02 0.  0.
         66    2    3    3    0    0  0.18162017332E+02  0.28922141312E+02  0.84610585478E+02  0.91265000727E+02  0.20000128225E+01 0.  0.
        -13    1    3    3    0    0 -0.18162017332E+02 -0.28922141312E+02  0.17655587728E+02  0.38445806971E+02  0.10566000000E+00 0.  1.
         13    1    4    4    0    0  0.10422354133E+02  0.16769079612E+02  0.48494979326E+02  0.52360306345E+02  0.10566000000E+00 0. -1.
        -13    1    4    4    0    0  0.30917122210E+01  0.40592779716E+01  0.13943830214E+02  0.14848501176E+02  0.10566000000E+00 0.  1.
        -14    1    4    4    0    0  0.46479509776E+01  0.80937837289E+01  0.22171775938E+02  0.24056193206E+02  0.00000000000E+00 0.  1.
<mgrwt>
<rscale>  0 0.79790497E+02</rscale>
<asrwt>0</asrwt>
<pdfrwt beam="1">  1        2 0.17844382E-01 0.79790497E+02</pdfrwt>
<pdfrwt beam="2">  1       -1 0.21111258E-02 0.79790497E+02</pdfrwt>
<totfact> 0.18628511E+05</totfact>
</mgrwt>
</event>
<event>
 8    1  0.2561077E-024  0.7901223E+02  0.7818608E-02  0.1331878E+00
          2   -1    0    0  501    0  0.00000000000E+00  0.00000000000E+00  0.12956197569E+02  0.12956197820E+02  0.25500000000E-02 0. -1.
         -1   -1    0    0    0  501 -0.00000000000E+00 -0.00000000000E+00 -0.12046229446E+03  0.12046229457E+03  0.50400000000E-02 0.  1.
         24    2    1    2    0    0 -0.35527136788E-14 -0.35527136788E-14 -0.10750609689E+03  0.13341849239E+03  0.79012234762E+02 0.  0.
         66    2    3    3    0    0 -0.15935120592E+02 -0.17833114933E+02 -0.74392409670E+00  0.24010445332E+02  0.20000013695E+01 0.  0.
        -13    1    3    3    0    0  0.15935120592E+02  0.17833114933E+02 -0.10676217280E+03  0.10940804706E+03  0.10566000000E+00 0.  1.
         13    1    4    4    0    0 -0.77254412612E+01 -0.80843261582E+01  0.50570714584E+00  0.11194001781E+02  0.10566000000E+00 0. -1.
        -13    1    4    4    0    0 -0.11626275647E+01 -0.15376066477E+01 -0.70868843042E-01  0.19318704630E+01  0.10566000000E+00 0. -1.
         14    1    4    4    0    0 -0.70470517663E+01 -0.82111821267E+01 -0.11787623995E+01  0.10884573088E+02  0.00000000000E+00 0. -1.
<mgrwt>
<rscale>  0 0.79012235E+02</rscale>
<asrwt>0</asrwt>
<pdfrwt beam="1">  1        2 0.19932613E-02 0.79012235E+02</pdfrwt>
<pdfrwt beam="2">  1       -1 0.18532660E-01 0.79012235E+02</pdfrwt>
<totfact> 0.11734733E+05</totfact>
</mgrwt>
</event>
<event>
 8    1  0.2561077E-024  0.8232730E+02  0.7818608E-02  0.1322574E+00
         -1   -1    0    0    0  501 -0.00000000000E+00  0.00000000000E+00  0.19041822425E+02  0.19041823092E+02  0.50400000000E-02 0.  1.
          2   -1    0    0  501    0  0.00000000000E+00 -0.00000000000E+00 -0.88985489344E+02  0.88985489381E+02  0.25500000000E-02 0. -1.
         24    2    1    2    0    0  0.00000000000E+00  0.00000000000E+00 -0.69943666920E+02  0.10802731247E+03  0.82327296189E+02 0.  0.
         66    2    3    3    0    0  0.90762980797E+01  0.14813610591E+02 -0.83924503098E+02  0.85727151265E+02  0.19999995317E+01 0.  0.
        -13    1    3    3    0    0 -0.90762980797E+01 -0.14813610591E+02  0.13980836179E+02  0.22300161207E+02  0.10566000000E+00 0.  1.
         13    1    4    4    0    0  0.49792003152E+00  0.99768997878E+00 -0.66128538792E+01  0.67070343756E+01  0.10566000000E+00 0. -1.
        -13    1    4    4    0    0  0.51460732244E+01  0.75302927186E+01 -0.39921383850E+02  0.40950157883E+02  0.10566000000E+00 0.  1.
        -14    1    4    4    0    0  0.34323048238E+01  0.62856278938E+01 -0.37390265369E+02  0.38069959007E+02  0.00000000000E+00 0.  1.
<mgrwt>
<rscale>  0 0.82327296E+02</rscale>
<asrwt>0</asrwt>
<pdfrwt beam="1">  1        2 0.13690075E-01 0.82327296E+02</pdfrwt>
<pdfrwt beam="2">  1       -1 0.29295112E-02 0.82327296E+02</pdfrwt>
<totfact> 0.15892941E+05</totfact>
</mgrwt>
</event>
<event>
 8    1  0.2561077E-024  0.7956457E+02  0.7818608E-02  0.1330292E+00
         -1   -1    0    0    0  501 -0.00000000000E+00  0.00000000000E+00  0.20502897249E+01  0.20502959195E+01  0.50400000000E-02 0.  1.
          2   -1    0    0  501    0  0.00000000000E+00 -0.00000000000E+00 -0.77190449583E+03  0.77190449583E+03  0.25500000000E-02 0. -1.
         24    2    1    2    0    0  0.35527136788E-14  0.00000000000E+00 -0.76985420611E+03  0.77395479175E+03  0.79564571392E+02 0.  0.
         66    2    3    3    0    0  0.28909489953E+02  0.90131713543E+01 -0.63575673017E+03  0.63648064843E+03  0.19999996488E+01 0.  0.
        -13    1    3    3    0    0 -0.28909489953E+02 -0.90131713543E+01 -0.13409747594E+03  0.13747414333E+03  0.10566000000E+00 0.  1.
         13    1    4    4    0    0  0.74870947392E+01  0.19641476240E+01 -0.14899466920E+03  0.14919563357E+03  0.10566000000E+00 0. -1.
        -13    1    4    4    0    0  0.12662194348E+01  0.60481688277E+00 -0.31476641014E+02  0.31508081641E+02  0.10566000000E+00 0.  1.
         14    1    4    4    0    0  0.20156175779E+02  0.64442068475E+01 -0.45528541996E+03  0.45577693321E+03  0.00000000000E+00 0. -1.
<mgrwt>
<rscale>  0 0.79564571E+02</rscale>
<asrwt>0</asrwt>
<pdfrwt beam="1">  1        2 0.11875431E+00 0.79564571E+02</pdfrwt>
<pdfrwt beam="2">  1       -1 0.31543028E-03 0.79564571E+02</pdfrwt>
<totfact> 0.34631724E+05</totfact>
</mgrwt>
</event>
<event>
 8    1  0.2561077E-024  0.7937436E+02  0.7818608E-02  0.1330836E+00
          2   -1    0    0  501    0  0.00000000000E+00  0.00000000000E+00  0.50057826479E+02  0.50057826544E+02  0.25500000000E-02 0. -1.
         -1   -1    0    0    0  501 -0.00000000000E+00 -0.00000000000E+00 -0.31465050896E+02  0.31465051299E+02  0.50400000000E-02 0.  1.
         24    2    1    2    0    0  0.17763568394E-14 -0.44408920985E-15  0.18592775583E+02  0.81522877843E+02  0.79374355480E+02 0.  0.
         66    2    3    3    0    0  0.13506415655E+02 -0.23430304499E+01  0.47527347298E+02  0.49505169307E+02  0.19999978501E+01 0.  0.
        -13    1    3    3    0    0 -0.13506415655E+02  0.23430304499E+01 -0.28934571715E+02  0.32017708536E+02  0.10566000000E+00 0.  1.
         13    1    4    4    0    0  0.27258391218E+01  0.16584287449E+00  0.10096608863E+02  0.10459941556E+02  0.10566000000E+00 0. -1.
        -13    1    4    4    0    0  0.37299287695E+00  0.18816845128E-01  0.99582834724E+00  0.10687917911E+01  0.10566000000E+00 0. -1.
         14    1    4    4    0    0  0.10407583656E+02 -0.25276901696E+01  0.36434910088E+02  0.37976435961E+02  0.00000000000E+00 0. -1.
<mgrwt>
<rscale>  0 0.79374355E+02</rscale>
<asrwt>0</asrwt>
<pdfrwt beam="1">  1        2 0.77012041E-02 0.79374355E+02</pdfrwt>
<pdfrwt beam="2">  1       -1 0.48407771E-02 0.79374355E+02</pdfrwt>
<totfact> 0.15271498E+05</totfact>
</mgrwt>
</event>
<event>
 8    1  0.2561077E-024  0.8150667E+02  0.7818608E-02  0.1324829E+00
         -1   -1    0    0    0  501 -0.00000000000E+00  0.00000000000E+00  0.21302390963E+01  0.21302450584E+01  0.50400000000E-02 0.  1.
          2   -1    0    0  501    0  0.00000000000E+00 -0.00000000000E+00 -0.77964582058E+03  0.77964582059E+03  0.25500000000E-02 0. -1.
         24    2    1    2    0    0  0.22204460493E-15 -0.17763568394E-14 -0.77751558149E+03  0.78177606564E+03  0.81506670658E+02 0.  0.
         66    2    3    3    0    0  0.18709855965E+01 -0.11495782758E+02 -0.76332947768E+03  0.76342094882E+03  0.19999993919E+01 0.  0.
        -13    1    3    3    0    0 -0.18709855965E+01  0.11495782758E+02 -0.14186103805E+02  0.18355116821E+02  0.10566000000E+00 0.  1.
         13    1    4    4    0    0  0.15477109260E+01 -0.72807771682E+01 -0.49490144394E+03  0.49495742797E+03  0.10566000000E+00 0. -1.
        -13    1    4    4    0    0  0.38189562663E+00 -0.30621715266E+01 -0.22034649077E+03  0.22036812360E+03  0.10566000000E+00 0.  1.
        -14    1    4    4    0    0 -0.58620956158E-01 -0.11528340631E+01 -0.48081542970E+02  0.48095397255E+02  0.00000000000E+00 0.  1.
<mgrwt>
<rscale>  0 0.81506671E+02</rscale>
<asrwt>0</asrwt>
<pdfrwt beam="1">  1        2 0.11994528E+00 0.81506671E+02</pdfrwt>
<pdfrwt beam="2">  1       -1 0.32773017E-03 0.81506671E+02</pdfrwt>
<totfact> 0.32587754E+05</totfact>
</mgrwt>
</event>
<event>
 8    1  0.2561077E-024  0.7891103E+02  0.7818608E-02  0.1332170E+00
         -1   -1    0    0    0  501 -0.00000000000E+00  0.00000000000E+00  0.25022003461E+02  0.25022003969E+02  0.50400000000E-02 0.  1.
          2   -1    0    0  501    0  0.00000000000E+00 -0.00000000000E+00 -0.62214748509E+02  0.62214748562E+02  0.25500000000E-02 0. -1.
         24    2    1    2    0    0  0.00000000000E+00  0.35527136788E-14 -0.37192745048E+02  0.87236752530E+02  0.78911030330E+02 0.  0.
         66    2    3    3    0    0 -0.19262564756E+02  0.22241355142E+02 -0.47626724230E+02  0.56018114425E+02  0.20000008347E+01 0.  0.
        -13    1    3    3    0    0  0.19262564756E+02 -0.22241355142E+02  0.10433979182E+02  0.31218638105E+02  0.10566000000E+00 0.  1.
         13    1    4    4    0    0 -0.10152843186E+02  0.12495990606E+02 -0.26251838077E+02  0.30796106450E+02  0.10566000000E+00 0. -1.
        -13    1    4    4    0    0 -0.66443484630E+01  0.75970588811E+01 -0.15452395617E+02  0.18456715972E+02  0.10566000000E+00 0.  1.
        -14    1    4    4    0    0 -0.24653731068E+01  0.21483056546E+01 -0.59224905363E+01  0.67652920036E+01  0.00000000000E+00 0.  1.
<mgrwt>
<rscale>  0 0.78911030E+02</rscale>
<asrwt>0</asrwt>
<pdfrwt beam="1">  1        2 0.95714997E-02 0.78911030E+02</pdfrwt>
<pdfrwt beam="2">  1       -1 0.38495391E-02 0.78911030E+02</pdfrwt>
<totfact> 0.16292985E+05</totfact>
</mgrwt>
</event>
<event>
 8    1  0.2561077E-024  0.8144263E+02  0.7818608E-02  0.1325007E+00
         -1   -1    0    0    0  501 -0.00000000000E+00  0.00000000000E+00  0.16416914705E+01  0.16416992068E+01  0.50400000000E-02 0.  1.
          2   -1    0    0  501    0  0.00000000000E+00 -0.00000000000E+00 -0.10100690705E+04  0.10100690705E+04  0.25500000000E-02 0. -1.
         24    2    1    2    0    0  0.35527136788E-14 -0.44408920985E-15 -0.10084273790E+04  0.10117107697E+04  0.81442634847E+02 0.  0.
         66    2    3    3    0    0  0.30987634609E+02 -0.23926100238E+01 -0.83088804127E+03  0.83147152399E+03  0.19999999624E+01 0.  0.
        -13    1    3    3    0    0 -0.30987634609E+02  0.23926100238E+01 -0.17753933774E+03  0.18023924570E+03  0.10566000000E+00 0.  1.
         13    1    4    4    0    0  0.10472326836E+02 -0.13850377574E+01 -0.26599800273E+03  0.26620769444E+03  0.10566000000E+00 0. -1.
        -13    1    4    4    0    0  0.18249643481E+02 -0.10935683130E+01 -0.50571360041E+03  0.50604397258E+03  0.10566000000E+00 0.  1.
        -14    1    4    4    0    0  0.22656642920E+01  0.85996046625E-01 -0.59176438118E+02  0.59219856960E+02  0.00000000000E+00 0.  1.
<mgrwt>
<rscale>  0 0.81442635E+02</rscale>
<asrwt>0</asrwt>
<pdfrwt beam="1">  1        2 0.15539474E+00 0.81442635E+02</pdfrwt>
<pdfrwt beam="2">  1       -1 0.25256932E-03 0.81442635E+02</pdfrwt>
<totfact> 0.33645294E+05</totfact>
</mgrwt>
</event>
<event>
 8    1  0.2561077E-024  0.8134737E+02  0.7818608E-02  0.1325271E+00
          2   -1    0    0  501    0  0.00000000000E+00  0.00000000000E+00  0.62777347716E+03  0.62777347717E+03  0.25500000000E-02 0. -1.
         -1   -1    0    0    0  501 -0.00000000000E+00 -0.00000000000E+00 -0.26352614148E+01  0.26352662343E+01  0.50400000000E-02 0.  1.
         24    2    1    2    0    0  0.00000000000E+00  0.00000000000E+00  0.62513821575E+03  0.63040874340E+03  0.81347372235E+02 0.  0.
         66    2    3    3    0    0 -0.11069502962E+02 -0.27648805045E+02  0.52715008340E+03  0.52799450825E+03  0.20000000540E+01 0.  0.
        -13    1    3    3    0    0  0.11069502962E+02  0.27648805045E+02  0.97988132351E+02  0.10241423515E+03  0.10566000000E+00 0.  1.
         13    1    4    4    0    0 -0.77842821605E+01 -0.17187356614E+02  0.32811085075E+03  0.32865292000E+03  0.10566000000E+00 0. -1.
        -13    1    4    4    0    0 -0.20619855275E+00 -0.63931550775E+00  0.11524140748E+02  0.11544185817E+02  0.10566000000E+00 0.  1.
         14    1    4    4    0    0 -0.30790222487E+01 -0.98221329232E+01  0.18751509190E+03  0.18779740244E+03  0.00000000000E+00 0. -1.
<mgrwt>
<rscale>  0 0.81347372E+02</rscale>
<asrwt>0</asrwt>
<pdfrwt beam="1">  1        2 0.96580488E-01 0.81347372E+02</pdfrwt>
<pdfrwt beam="2">  1       -1 0.40542540E-03 0.81347372E+02</pdfrwt>
<totfact> 0.31176091E+05</totfact>
</mgrwt>
</event>
<event>
 8    1  0.2561077E-024  0.7942074E+02  0.7818608E-02  0.1330703E+00
          2   -1    0    0  501    0  0.00000000000E+00  0.00000000000E+00  0.63105827071E+02  0.63105827122E+02  0.25500000000E-02 0. -1.
         -1   -1    0    0    0  501 -0.00000000000E+00 -0.00000000000E+00 -0.24988397565E+02  0.24988398073E+02  0.50400000000E-02 0.  1.
         24    2    1    2    0    0 -0.35527136788E-14  0.00000000000E+00  0.38117429506E+02  0.88094225195E+02  0.79420740872E+02 0.  0.
         66    2    3    3    0    0 -0.16504202012E+02 -0.18964837136E+02  0.53130083228E+02  0.58812069069E+02  0.19999981718E+01 0.  0.
        -13    1    3    3    0    0  0.16504202012E+02  0.18964837136E+02 -0.15012653722E+02  0.29282156127E+02  0.10566000000E+00 0.  1.
         13    1    4    4    0    0 -0.11959830161E+02 -0.13803706841E+02  0.39762463191E+02  0.43756650958E+02  0.10566000000E+00 0. -1.
        -13    1    4    4    0    0 -0.28578472617E+01 -0.38122730158E+01  0.93126838669E+01  0.10461260027E+02  0.10566000000E+00 0.  1.
         14    1    4    4    0    0 -0.16865245891E+01 -0.13488572788E+01  0.40549361702E+01  0.45941580831E+01  0.00000000000E+00 0. -1.
<mgrwt>
<rscale>  0 0.79420741E+02</rscale>
<asrwt>0</asrwt>
<pdfrwt beam="1">  1        2 0.97085886E-02 0.79420741E+02</pdfrwt>
<pdfrwt beam="2">  1       -1 0.38443690E-02 0.79420741E+02</pdfrwt>
<totfact> 0.16064137E+05</totfact>
</mgrwt>
</event>
<event>
 8    1  0.2561077E-024  0.8032271E+02  0.7818608E-02  0.1328138E+00
         -1   -1    0    0    0  501 -0.00000000000E+00  0.00000000000E+00  0.16054018794E+02  0.16054019585E+02  0.50400000000E-02 0.  1.
          2   -1    0    0  501    0  0.00000000000E+00 -0.00000000000E+00 -0.10046919898E+03  0.10046919901E+03  0.25500000000E-02 0. -1.
         24    2    1    2    0    0  0.00000000000E+00  0.00000000000E+00 -0.84415180183E+02  0.11652321859E+03  0.80322710527E+02 0.  0.
         66    2    3    3    0    0 -0.36154058360E+02 -0.10337973538E+02 -0.62591957945E+02  0.73046169182E+02  0.20000000160E+01 0.  0.
        -13    1    3    3    0    0  0.36154058360E+02  0.10337973538E+02 -0.21823222238E+02  0.43477049413E+02  0.10566000000E+00 0.  1.
         13    1    4    4    0    0 -0.97247627322E+01 -0.34327021090E+01 -0.17750314096E+02  0.20528986056E+02  0.10566000000E+00 0. -1.
        -13    1    4    4    0    0 -0.15277039416E+02 -0.39596425101E+01 -0.24921474665E+02  0.29498436664E+02  0.10566000000E+00 0.  1.
        -14    1    4    4    0    0 -0.11152256212E+02 -0.29456289187E+01 -0.19920169184E+02  0.23018746462E+02  0.00000000000E+00 0.  1.
<mgrwt>
<rscale>  0 0.80322711E+02</rscale>
<asrwt>0</asrwt>
<pdfrwt beam="1">  1        2 0.15456799E-01 0.80322711E+02</pdfrwt>
<pdfrwt beam="2">  1       -1 0.24698492E-02 0.80322711E+02</pdfrwt>
<totfact> 0.17558702E+05</totfact>
</mgrwt>
</event>
<event>
 8    1  0.2561077E-024  0.7902541E+02  0.7818608E-02  0.1331840E+00
         -1   -1    0    0    0  501 -0.00000000000E+00  0.00000000000E+00  0.28301819947E+01  0.28301864824E+01  0.50400000000E-02 0.  1.
          2   -1    0    0  501    0  0.00000000000E+00 -0.00000000000E+00 -0.55164383005E+03  0.55164383006E+03  0.25500000000E-02 0. -1.
         24    2    1    2    0    0  0.88817841970E-15  0.00000000000E+00 -0.54881364806E+03  0.55447401654E+03  0.79025405563E+02 0.  0.
         66    2    3    3    0    0 -0.62362945911E+01  0.21499836509E+02 -0.50281632300E+03  0.50331837740E+03  0.20000013044E+01 0.  0.
        -13    1    3    3    0    0  0.62362945911E+01 -0.21499836509E+02 -0.45997325053E+02  0.51155639144E+02  0.10566000000E+00 0.  1.
         13    1    4    4    0    0 -0.44588685619E+01  0.13706694469E+02 -0.31012275266E+03  0.31045754600E+03  0.10566000000E+00 0. -1.
        -13    1    4    4    0    0 -0.37679164278E+00  0.22021828807E+01 -0.46702011405E+02  0.46755541005E+02  0.10566000000E+00 0.  1.
        -14    1    4    4    0    0 -0.14006343864E+01  0.55909591597E+01 -0.14599155894E+03  0.14610529039E+03  0.00000000000E+00 0.  1.
<mgrwt>
<rscale>  0 0.79025406E+02</rscale>
<asrwt>0</asrwt>
<pdfrwt beam="1">  1        2 0.84868196E-01 0.79025406E+02</pdfrwt>
<pdfrwt beam="2">  1       -1 0.43541340E-03 0.79025406E+02</pdfrwt>
<totfact> 0.32408575E+05</totfact>
</mgrwt>
</event>
<event>
 8    1  0.2561077E-024  0.7913858E+02  0.7818608E-02  0.1331514E+00
          2   -1    0    0  501    0  0.00000000000E+00  0.00000000000E+00  0.72818969058E+02  0.72818969102E+02  0.25500000000E-02 0. -1.
         -1   -1    0    0    0  501 -0.00000000000E+00 -0.00000000000E+00 -0.21501661472E+02  0.21501662063E+02  0.50400000000E-02 0.  1.
         24    2    1    2    0    0 -0.35527136788E-14 -0.88817841970E-15  0.51317307585E+02  0.94320631165E+02  0.79138583546E+02 0.  0.
         66    2    3    3    0    0 -0.24680866598E+02 -0.67867478298E+01  0.61599053180E+02  0.66735661007E+02  0.19999937905E+01 0.  0.
        -13    1    3    3    0    0  0.24680866598E+02  0.67867478298E+01 -0.10281745595E+02  0.27584970159E+02  0.10566000000E+00 0.  1.
         13    1    4    4    0    0 -0.14095103741E+02 -0.43208177099E+01  0.33634096310E+02  0.36723357877E+02  0.10566000000E+00 0. -1.
        -13    1    4    4    0    0 -0.27897593827E+01 -0.97685146376E+00  0.74998228871E+01  0.80619788867E+01  0.10566000000E+00 0.  1.
         14    1    4    4    0    0 -0.77960034744E+01 -0.14890786561E+01  0.20465133984E+02  0.21950324243E+02  0.00000000000E+00 0. -1.
<mgrwt>
<rscale>  0 0.79138584E+02</rscale>
<asrwt>0</asrwt>
<pdfrwt beam="1">  1        2 0.11202918E-01 0.79138584E+02</pdfrwt>
<pdfrwt beam="2">  1       -1 0.33079480E-02 0.79138584E+02</pdfrwt>
<totfact> 0.16788019E+05</totfact>
</mgrwt>
</event>
<event>
 8    1  0.2561077E-024  0.7982837E+02  0.7818608E-02  0.1329539E+00
          2   -1    0    0  501    0  0.00000000000E+00  0.00000000000E+00  0.61657693181E+02  0.61657693234E+02  0.25500000000E-02 0. -1.
         -1   -1    0    0    0  501 -0.00000000000E+00 -0.00000000000E+00 -0.25838496552E+02  0.25838497044E+02  0.50400000000E-02 0.  1.
         24    2    1    2    0    0  0.00000000000E+00  0.00000000000E+00  0.35819196629E+02  0.87496190278E+02  0.79828368805E+02 0.  0.
         66    2    3    3    0    0 -0.72115951995E+01  0.91102056277E+01  0.59745485059E+02  0.60897667876E+02  0.20000039911E+01 0.  0.
        -13    1    3    3    0    0  0.72115951995E+01 -0.91102056277E+01 -0.23926288430E+02  0.26598522402E+02  0.10566000000E+00 0.  1.
         13    1    4    4    0    0 -0.14931874132E+01  0.22179746853E+01  0.10635049465E+02  0.10966515469E+02  0.10566000000E+00 0. -1.
        -13    1    4    4    0    0 -0.85330210511E+00  0.16038323455E+01  0.10911181750E+02  0.11061891967E+02  0.10566000000E+00 0.  1.
         14    1    4    4    0    0 -0.48651056812E+01  0.52883985969E+01  0.38199253843E+02  0.38869260440E+02  0.00000000000E+00 0. -1.
<mgrwt>
<rscale>  0 0.79828369E+02</rscale>
<asrwt>0</asrwt>
<pdfrwt beam="1">  1        2 0.94857990E-02 0.79828369E+02</pdfrwt>
<pdfrwt beam="2">  1       -1 0.39751534E-02 0.79828369E+02</pdfrwt>
<totfact> 0.15756654E+05</totfact>
</mgrwt>
</event>
<event>
 8    1  0.2561077E-024  0.8218620E+02  0.7818608E-02  0.1322959E+00
         -1   -1    0    0    0  501 -0.00000000000E+00  0.00000000000E+00  0.12018739287E+02  0.12018740344E+02  0.50400000000E-02 0.  1.
          2   -1    0    0  501    0  0.00000000000E+00 -0.00000000000E+00 -0.14050083656E+03  0.14050083658E+03  0.25500000000E-02 0. -1.
         24    2    1    2    0    0  0.00000000000E+00  0.00000000000E+00 -0.12848209727E+03  0.15251957693E+03  0.82186203381E+02 0.  0.
         66    2    3    3    0    0  0.26581262368E+02  0.19825961631E+02 -0.10924121631E+03  0.11418088983E+03  0.19999998130E+01 0.  0.
        -13    1    3    3    0    0 -0.26581262368E+02 -0.19825961631E+02 -0.19240880968E+02  0.38338687095E+02  0.10566000000E+00 0.  1.
         13    1    4    4    0    0  0.15579114956E+02  0.11087521010E+02 -0.61289072195E+02  0.64202830776E+02  0.10566000000E+00 0.  1.
        -13    1    4    4    0    0  0.82298587680E+01  0.59871584430E+01 -0.34293248985E+02  0.35771702945E+02  0.10566000000E+00 0. -1.
        -14    1    4    4    0    0  0.27722886442E+01  0.27512821779E+01 -0.13658895125E+02  0.14206356112E+02  0.00000000000E+00 0.  1.
<mgrwt>
<rscale>  0 0.82186203E+02</rscale>
<asrwt>0</asrwt>
<pdfrwt beam="1">  1        2 0.21615512E-01 0.82186203E+02</pdfrwt>
<pdfrwt beam="2">  1       -1 0.18490370E-02 0.82186203E+02</pdfrwt>
<totfact> 0.18258186E+05</totfact>
</mgrwt>
</event>
<event>
 8    1  0.2561077E-024  0.8024876E+02  0.7818608E-02  0.1328347E+00
         -1   -1    0    0    0  501 -0.00000000000E+00  0.00000000000E+00  0.11965133347E+03  0.11965133357E+03  0.50400000000E-02 0.  1.
          2   -1    0    0  501    0  0.00000000000E+00 -0.00000000000E+00 -0.13455478686E+02  0.13455478928E+02  0.25500000000E-02 0. -1.
         24    2    1    2    0    0  0.35527136788E-14  0.00000000000E+00  0.10619585478E+03  0.13310681250E+03  0.80248762991E+02 0.  0.
         66    2    3    3    0    0  0.31307351584E+02 -0.22723858338E+02  0.70640433808E+02  0.80564228576E+02  0.20000091268E+01 0.  0.
        -13    1    3    3    0    0 -0.31307351584E+02  0.22723858338E+02  0.35555420973E+02  0.52542583926E+02  0.10566000000E+00 0.  1.
         13    1    4    4    0    0  0.19644489081E+02 -0.14680515263E+02  0.44986204606E+02  0.51236639708E+02  0.10566000000E+00 0. -1.
        -13    1    4    4    0    0  0.26730344875E+01 -0.15206577558E+01  0.63467540112E+01  0.70533654305E+01  0.10566000000E+00 0.  1.
        -14    1    4    4    0    0  0.89898280149E+01 -0.65226853192E+01  0.19307475191E+02  0.22274223438E+02  0.00000000000E+00 0.  1.
<mgrwt>
<rscale>  0 0.80248763E+02</rscale>
<asrwt>0</asrwt>
<pdfrwt beam="1">  1        2 0.20700736E-02 0.80248763E+02</pdfrwt>
<pdfrwt beam="2">  1       -1 0.18407898E-01 0.80248763E+02</pdfrwt>
<totfact> 0.11303624E+05</totfact>
</mgrwt>
</event>
<event>
 8    1  0.2561077E-024  0.8082612E+02  0.7818608E-02  0.1326723E+00
          2   -1    0    0  501    0  0.00000000000E+00  0.00000000000E+00  0.51719119335E+02  0.51719119398E+02  0.25500000000E-02 0. -1.
         -1   -1    0    0    0  501 -0.00000000000E+00 -0.00000000000E+00 -0.31578562102E+02  0.31578562504E+02  0.50400000000E-02 0.  1.
         24    2    1    2    0    0  0.17763568394E-14  0.71054273576E-14  0.20140557233E+02  0.83297681902E+02  0.80826120559E+02 0.  0.
         66    2    3    3    0    0 -0.11324271224E+02  0.38195878545E+02  0.16916102554E+02  0.43328036812E+02  0.19999979507E+01 0.  0.
        -13    1    3    3    0    0  0.11324271224E+02 -0.38195878545E+02  0.32244546783E+01  0.39969645090E+02  0.10566000000E+00 0.  1.
         13    1    4    4    0    0 -0.11883763914E+01  0.47341898130E+01  0.17712260459E+01  0.51935726985E+01  0.10566000000E+00 0. -1.
        -13    1    4    4    0    0 -0.17818484551E-01  0.46946663414E+00  0.11793150200E+00  0.49577040425E+00  0.10566000000E+00 0.  1.
        -14    1    4    4    0    0 -0.10118076348E+02  0.32992222098E+02  0.15026945006E+02  0.37638693710E+02  0.00000000000E+00 0.  1.
<mgrwt>
<rscale>  0 0.80826121E+02</rscale>
<asrwt>0</asrwt>
<pdfrwt beam="1">  1        2 0.79567875E-02 0.80826121E+02</pdfrwt>
<pdfrwt beam="2">  1       -1 0.48582404E-02 0.80826121E+02</pdfrwt>
<totfact> 0.14636414E+05</totfact>
</mgrwt>
</event>
<event>
 8    1  0.2561077E-024  0.8045057E+02  0.7818608E-02  0.1327778E+00
          2   -1    0    0  501    0  0.00000000000E+00  0.00000000000E+00  0.31121250406E+02  0.31121250511E+02  0.25500000000E-02 0. -1.
         -1   -1    0    0    0  501 -0.00000000000E+00 -0.00000000000E+00 -0.51992561702E+02  0.51992561946E+02  0.50400000000E-02 0.  1.
         24    2    1    2    0    0  0.35527136788E-14  0.00000000000E+00 -0.20871311295E+02  0.83113812457E+02  0.80450569829E+02 0.  0.
         66    2    3    3    0    0  0.16605041084E+02 -0.69302028049E+01  0.26696725712E+02  0.32256321277E+02  0.19999995616E+01 0.  0.
        -13    1    3    3    0    0 -0.16605041084E+02  0.69302028049E+01 -0.47568037007E+02  0.50857491180E+02  0.10566000000E+00 0.  1.
         13    1    4    4    0    0  0.80065009996E+01 -0.33380302837E+01  0.11818986661E+02  0.14661040692E+02  0.10566000000E+00 0. -1.
        -13    1    4    4    0    0  0.47492897015E+01 -0.16582064189E+01  0.70639908073E+01  0.86727464714E+01  0.10566000000E+00 0.  1.
        -14    1    4    4    0    0  0.38492503833E+01 -0.19339661024E+01  0.78137482435E+01  0.89225341138E+01  0.00000000000E+00 0.  1.
<mgrwt>
<rscale>  0 0.80450570E+02</rscale>
<asrwt>0</asrwt>
<pdfrwt beam="1">  1        2 0.47878847E-02 0.80450570E+02</pdfrwt>
<pdfrwt beam="2">  1       -1 0.79988557E-02 0.80450570E+02</pdfrwt>
<totfact> 0.13341781E+05</totfact>
</mgrwt>
</event>
<event>
 8    1  0.2561077E-024  0.7976578E+02  0.7818608E-02  0.1329717E+00
         -1   -1    0    0    0  501 -0.00000000000E+00  0.00000000000E+00  0.27265355040E+01  0.27265401622E+01  0.50400000000E-02 0.  1.
          2   -1    0    0  501    0  0.00000000000E+00 -0.00000000000E+00 -0.58339365331E+03  0.58339365332E+03  0.25500000000E-02 0. -1.
         24    2    1    2    0    0  0.00000000000E+00  0.00000000000E+00 -0.58066711781E+03  0.58612019348E+03  0.79765779012E+02 0.  0.
         66    2    3    3    0    0 -0.20595876374E+02 -0.27491169277E+02 -0.43906283343E+03  0.44040904418E+03  0.19999961786E+01 0.  0.
        -13    1    3    3    0    0  0.20595876374E+02  0.27491169277E+02 -0.14160428437E+03  0.14571114929E+03  0.10566000000E+00 0.  1.
         13    1    4    4    0    0 -0.12368977103E+02 -0.16145083140E+02 -0.26550376829E+03  0.26628165060E+03  0.10566000000E+00 0. -1.
        -13    1    4    4    0    0 -0.21448450810E+01 -0.35740670890E+01 -0.47558060981E+02  0.47740492711E+02  0.10566000000E+00 0.  1.
        -14    1    4    4    0    0 -0.60820541901E+01 -0.77720190473E+01 -0.12600100416E+03  0.12638690088E+03  0.00000000000E+00 0.  1.
<mgrwt>
<rscale>  0 0.79765779E+02</rscale>
<asrwt>0</asrwt>
<pdfrwt beam="1">  1        2 0.89752770E-01 0.79765779E+02</pdfrwt>
<pdfrwt beam="2">  1       -1 0.41946783E-03 0.79765779E+02</pdfrwt>
<totfact> 0.32154258E+05</totfact>
</mgrwt>
</event>
<event>
 8    1  0.2561077E-024  0.7993471E+02  0.7818608E-02  0.1329237E+00
         -1   -1    0    0    0  501 -0.00000000000E+00  0.00000000000E+00  0.63681855998E+01  0.63681875942E+01  0.50400000000E-02 0.  1.
          2   -1    0    0  501    0  0.00000000000E+00 -0.00000000000E+00 -0.25083895670E+03  0.25083895672E+03  0.25500000000E-02 0. -1.
         24    2    1    2    0    0  0.35527136788E-14 -0.71054273576E-14 -0.24447077110E+03  0.25720714431E+03  0.79934705606E+02 0.  0.
         66    2    3    3    0    0  0.14695661622E+02 -0.29948548994E+02 -0.19299211535E+03  0.19586432713E+03  0.19999993781E+01 0.  0.
        -13    1    3    3    0    0 -0.14695661622E+02  0.29948548994E+02 -0.51478655753E+02  0.61342817180E+02  0.10566000000E+00 0.  1.
         13    1    4    4    0    0  0.32946205290E+01 -0.60129815901E+01 -0.37892061126E+02  0.38507530853E+02  0.10566000000E+00 0. -1.
        -13    1    4    4    0    0  0.37283307920E+01 -0.83189146683E+01 -0.57384758910E+02  0.58104444847E+02  0.10566000000E+00 0.  1.
        -14    1    4    4    0    0  0.76727103012E+01 -0.15616652736E+02 -0.97715295314E+02  0.99252351430E+02  0.00000000000E+00 0.  1.
<mgrwt>
<rscale>  0 0.79934706E+02</rscale>
<asrwt>0</asrwt>
<pdfrwt beam="1">  1        2 0.38590601E-01 0.79934706E+02</pdfrwt>
<pdfrwt beam="2">  1       -1 0.97972121E-03 0.79934706E+02</pdfrwt>
<totfact> 0.23948378E+05</totfact>
</mgrwt>
</event>
<event>
 8    1  0.2561077E-024  0.7908830E+02  0.7818608E-02  0.1331659E+00
          2   -1    0    0  501    0  0.00000000000E+00  0.00000000000E+00  0.29865150626E+03  0.29865150627E+03  0.25500000000E-02 0. -1.
         -1   -1    0    0    0  501 -0.00000000000E+00 -0.00000000000E+00 -0.52360009269E+01  0.52360033525E+01  0.50400000000E-02 0.  1.
         24    2    1    2    0    0  0.00000000000E+00  0.00000000000E+00  0.29341550534E+03  0.30388750963E+03  0.79088303404E+02 0.  0.
         66    2    3    3    0    0 -0.24839845832E+02 -0.14538305542E+02  0.25085503525E+03  0.25250867111E+03  0.20000019499E+01 0.  0.
        -13    1    3    3    0    0  0.24839845832E+02  0.14538305542E+02  0.42560470085E+02  0.51378838513E+02  0.10566000000E+00 0.  1.
         13    1    4    4    0    0 -0.39648235223E+01 -0.22310839041E+01  0.42870166612E+02  0.43111018433E+02  0.10566000000E+00 0. -1.
        -13    1    4    4    0    0 -0.14974608869E+02 -0.88025442795E+01  0.14285377699E+03  0.14390599870E+03  0.10566000000E+00 0.  1.
        -14    1    4    4    0    0 -0.59004134414E+01 -0.35046773587E+01  0.65131091649E+02  0.65491653984E+02  0.00000000000E+00 0.  1.
<mgrwt>
<rscale>  0 0.79088303E+02</rscale>
<asrwt>0</asrwt>
<pdfrwt beam="1">  1        2 0.45946396E-01 0.79088303E+02</pdfrwt>
<pdfrwt beam="2">  1       -1 0.80553861E-03 0.79088303E+02</pdfrwt>
<totfact> 0.26229008E+05</totfact>
</mgrwt>
</event>
<event>
 8    1  0.2561077E-024  0.8243518E+02  0.7818608E-02  0.1322279E+00
          2   -1    0    0  501    0  0.00000000000E+00  0.00000000000E+00  0.46228212059E+03  0.46228212060E+03  0.25500000000E-02 0. -1.
         -1   -1    0    0    0  501 -0.00000000000E+00 -0.00000000000E+00 -0.36750047112E+01  0.36750081672E+01  0.50400000000E-02 0.  1.
         24    2    1    2    0    0  0.00000000000E+00  0.00000000000E+00  0.45860711588E+03  0.46595712876E+03  0.82435181273E+02 0.  0.
         66    2    3    3    0    0 -0.40437064467E+02  0.78564579966E+01  0.22982442295E+03  0.23349549351E+03  0.19999981214E+01 0.  0.
        -13    1    3    3    0    0  0.40437064467E+02 -0.78564579966E+01  0.22878269293E+03  0.23246163525E+03  0.10566000000E+00 0.  1.
         13    1    4    4    0    0 -0.32791103331E+02  0.64090212833E+01  0.18412329167E+03  0.18713024799E+03  0.10566000000E+00 0. -1.
        -13    1    4    4    0    0 -0.55095452779E+01  0.12806057657E+01  0.31651221089E+02  0.32152853695E+02  0.10566000000E+00 0.  1.
        -14    1    4    4    0    0 -0.21364158585E+01  0.16683094751E+00  0.14049910187E+02  0.14212391831E+02  0.00000000000E+00 0.  1.
<mgrwt>
<rscale>  0 0.82435181E+02</rscale>
<asrwt>0</asrwt>
<pdfrwt beam="1">  1        2 0.71120275E-01 0.82435181E+02</pdfrwt>
<pdfrwt beam="2">  1       -1 0.56538602E-03 0.82435181E+02</pdfrwt>
<totfact> 0.27447790E+05</totfact>
</mgrwt>
</event>
<event>
 8    1  0.2561077E-024  0.7884999E+02  0.7818608E-02  0.1332347E+00
          2   -1    0    0  501    0  0.00000000000E+00  0.00000000000E+00  0.75485723479E+03  0.75485723479E+03  0.25500000000E-02 0. -1.
         -1   -1    0    0    0  501 -0.00000000000E+00 -0.00000000000E+00 -0.20591016060E+01  0.20591077741E+01  0.50400000000E-02 0.  1.
         24    2    1    2    0    0 -0.35527136788E-14  0.17763568394E-14  0.75279813318E+03  0.75691634257E+03  0.78849986187E+02 0.  0.
         66    2    3    3    0    0 -0.29995600269E+02  0.10355678402E+02  0.60081367063E+03  0.60165442151E+03  0.19999972413E+01 0.  0.
        -13    1    3    3    0    0  0.29995600269E+02 -0.10355678402E+02  0.15198446255E+03  0.15526192106E+03  0.10566000000E+00 0.  1.
         13    1    4    4    0    0 -0.13795163529E+02  0.49475755895E+01  0.26533070786E+03  0.26573517031E+03  0.10566000000E+00 0. -1.
        -13    1    4    4    0    0 -0.63977965709E+01  0.23011655871E+01  0.12362289274E+03  0.12380976512E+03  0.10566000000E+00 0.  1.
        -14    1    4    4    0    0 -0.98026401682E+01  0.31069372258E+01  0.21186007003E+03  0.21210948608E+03  0.00000000000E+00 0.  1.
<mgrwt>
<rscale>  0 0.78849986E+02</rscale>
<asrwt>0</asrwt>
<pdfrwt beam="1">  1        2 0.11613204E+00 0.78849986E+02</pdfrwt>
<pdfrwt beam="2">  1       -1 0.31678491E-03 0.78849986E+02</pdfrwt>
<totfact> 0.35299182E+05</totfact>
</mgrwt>
</event>
<event>
 8    1  0.2561077E-024  0.7986403E+02  0.7818608E-02  0.1329438E+00
          2   -1    0    0  501    0  0.00000000000E+00  0.00000000000E+00  0.79214999921E+03  0.79214999922E+03  0.25500000000E-02 0. -1.
         -1   -1    0    0    0  501 -0.00000000000E+00 -0.00000000000E+00 -0.20129563323E+01  0.20129626418E+01  0.50400000000E-02 0.  1.
         24    2    1    2    0    0 -0.17763568394E-14  0.00000000000E+00  0.79013704288E+03  0.79416296186E+03  0.79864031054E+02 0.  0.
         66    2    3    3    0    0 -0.11282405933E+02  0.23863887966E+02  0.69293402333E+03  0.69343949882E+03  0.20000011401E+01 0.  0.
        -13    1    3    3    0    0  0.11282405933E+02 -0.23863887966E+02  0.97203019550E+02  0.10072346304E+03  0.10566000000E+00 0.  1.
         13    1    4    4    0    0 -0.31019932236E+01  0.55139056493E+01  0.17060748508E+03  0.17072478041E+03  0.10566000000E+00 0. -1.
        -13    1    4    4    0    0 -0.54912230334E+01  0.13843862450E+02  0.38658168118E+03  0.38686847047E+03  0.10566000000E+00 0.  1.
        -14    1    4    4    0    0 -0.26891896758E+01  0.45061198666E+01  0.13574485707E+03  0.13584624793E+03  0.00000000000E+00 0.  1.
<mgrwt>
<rscale>  0 0.79864031E+02</rscale>
<asrwt>0</asrwt>
<pdfrwt beam="1">  1        2 0.12186926E+00 0.79864031E+02</pdfrwt>
<pdfrwt beam="2">  1       -1 0.30968601E-03 0.79864031E+02</pdfrwt>
<totfact> 0.34458400E+05</totfact>
</mgrwt>
</event>
<event>
 8    1  0.2561077E-024  0.8051784E+02  0.7818608E-02  0.1327588E+00
         -1   -1    0    0    0  501 -0.00000000000E+00  0.00000000000E+00  0.57710648787E+01  0.57710670795E+01  0.50400000000E-02 0.  1.
          2   -1    0    0  501    0  0.00000000000E+00 -0.00000000000E+00 -0.28084596245E+03  0.28084596246E+03  0.25500000000E-02 0. -1.
         24    2    1    2    0    0  0.00000000000E+00  0.00000000000E+00 -0.27507489757E+03  0.28661702954E+03  0.80517838701E+02 0.  0.
         66    2    3    3    0    0 -0.52496309776E+01  0.15502555663E+02 -0.26845573817E+03  0.26896165379E+03  0.19999999211E+01 0.  0.
        -13    1    3    3    0    0  0.52496309776E+01 -0.15502555663E+02 -0.66191594046E+01  0.17655375747E+02  0.10566000000E+00 0.  1.
         13    1    4    4    0    0 -0.32235514812E+01  0.10717724731E+02 -0.18849375706E+03  0.18882576234E+03  0.10566000000E+00 0. -1.
        -13    1    4    4    0    0 -0.31683986249E+00  0.13305534448E+01 -0.16461923104E+02  0.16518984118E+02  0.10566000000E+00 0.  1.
        -14    1    4    4    0    0 -0.17092396339E+01  0.34542774880E+01 -0.63500058005E+02  0.63616907342E+02  0.00000000000E+00 0.  1.
<mgrwt>
<rscale>  0 0.80517839E+02</rscale>
<asrwt>0</asrwt>
<pdfrwt beam="1">  1        2 0.43207061E-01 0.80517839E+02</pdfrwt>
<pdfrwt beam="2">  1       -1 0.88785652E-03 0.80517839E+02</pdfrwt>
<totfact> 0.24474312E+05</totfact>
</mgrwt>
</event>
<event>
 8    1  0.2561077E-024  0.8681091E+02  0.7818608E-02  0.1310764E+00
         -1   -1    0    0    0  501 -0.00000000000E+00  0.00000000000E+00  0.10553289780E+02  0.10553290983E+02  0.50400000000E-02 0.  1.
          2   -1    0    0  501    0  0.00000000000E+00 -0.00000000000E+00 -0.17852569148E+03  0.17852569150E+03  0.25500000000E-02 0. -1.
         24    2    1    2    0    0  0.00000000000E+00 -0.35527136788E-14 -0.16797240170E+03  0.18907898248E+03  0.86810908781E+02 0.  0.
         66    2    3    3    0    0  0.36724664995E+02 -0.20366752377E+02 -0.10774274726E+03  0.11565468092E+03  0.20000026794E+01 0.  0.
        -13    1    3    3    0    0 -0.36724664995E+02  0.20366752377E+02 -0.60229654440E+02  0.73424301559E+02  0.10566000000E+00 0.  1.
         13    1    4    4    0    0  0.22160178902E+01 -0.89088794885E+00 -0.64105991738E+01  0.68418829594E+01  0.10566000000E+00 0. -1.
        -13    1    4    4    0    0  0.11957066368E+02 -0.72477857070E+01 -0.34442727999E+02  0.37172765700E+02  0.10566000000E+00 0.  1.
         14    1    4    4    0    0  0.22551580737E+02 -0.12228078721E+02 -0.66889420087E+02  0.71640032262E+02  0.00000000000E+00 0. -1.
<mgrwt>
<rscale>  0 0.86810909E+02</rscale>
<asrwt>0</asrwt>
<pdfrwt beam="1">  1        2 0.27465489E-01 0.86810909E+02</pdfrwt>
<pdfrwt beam="2">  1       -1 0.16235833E-02 0.86810909E+02</pdfrwt>
<totfact> 0.17076777E+05</totfact>
</mgrwt>
</event>
<event>
 8    1  0.2561077E-024  0.7995863E+02  0.7818608E-02  0.1329169E+00
         -1   -1    0    0    0  501 -0.00000000000E+00  0.00000000000E+00  0.20726916386E+01  0.20726977662E+01  0.50400000000E-02 0.  1.
          2   -1    0    0  501    0  0.00000000000E+00 -0.00000000000E+00 -0.77114371291E+03  0.77114371291E+03  0.25500000000E-02 0. -1.
         24    2    1    2    0    0 -0.35527136788E-14  0.00000000000E+00 -0.76907102127E+03  0.77321641068E+03  0.79958626714E+02 0.  0.
         66    2    3    3    0    0  0.20816620991E+02  0.17377148643E+02 -0.66853353806E+03  0.66908623398E+03  0.19999976446E+01 0.  0.
        -13    1    3    3    0    0 -0.20816620991E+02 -0.17377148643E+02 -0.10053748321E+03  0.10413017670E+03  0.10566000000E+00 0.  1.
         13    1    4    4    0    0  0.84157407242E+01  0.72447235015E+01 -0.27132551324E+03  0.27155267631E+03  0.10566000000E+00 0. -1.
        -13    1    4    4    0    0  0.10206438082E+02  0.75749177404E+01 -0.31031331946E+03  0.31057353099E+03  0.10566000000E+00 0.  1.
        -14    1    4    4    0    0  0.21944421841E+01  0.25575074014E+01 -0.86894705358E+02  0.86960026678E+02  0.00000000000E+00 0.  1.
<mgrwt>
<rscale>  0 0.79958627E+02</rscale>
<asrwt>0</asrwt>
<pdfrwt beam="1">  1        2 0.11863727E+00 0.79958627E+02</pdfrwt>
<pdfrwt beam="2">  1       -1 0.31887672E-03 0.79958627E+02</pdfrwt>
<totfact> 0.34183784E+05</totfact>
</mgrwt>
</event>
<event>
 8    1  0.2561077E-024  0.7326411E+02  0.7818608E-02  0.1349332E+00
          2   -1    0    0  501    0  0.00000000000E+00  0.00000000000E+00  0.26044205608E+02  0.26044205733E+02  0.25500000000E-02 0. -1.
         -1   -1    0    0    0  501 -0.00000000000E+00 -0.00000000000E+00 -0.51524228311E+02  0.51524228557E+02  0.50400000000E-02 0.  1.
         24    2    1    2    0    0  0.00000000000E+00  0.17763568394E-14 -0.25480022703E+02  0.77568434290E+02  0.73264114281E+02 0.  0.
         66    2    3    3    0    0  0.28196253189E+02  0.10096715762E+02  0.95328956818E+01  0.31493625762E+02  0.20000001166E+01 0.  0.
        -13    1    3    3    0    0 -0.28196253189E+02 -0.10096715762E+02 -0.35012918384E+02  0.46074808528E+02  0.10566000000E+00 0.  1.
         13    1    4    4    0    0  0.10816700347E+02  0.42829058282E+01  0.42074266202E+01  0.12371656782E+02  0.10566000000E+00 0. -1.
        -13    1    4    4    0    0  0.14586764263E+02  0.44262900296E+01  0.45512046938E+01  0.15908814012E+02  0.10566000000E+00 0.  1.
        -14    1    4    4    0    0  0.27927885798E+01  0.13875199045E+01  0.77426436782E+00  0.32131549679E+01  0.00000000000E+00 0.  1.
<mgrwt>
<rscale>  0 0.73264114E+02</rscale>
<asrwt>0</asrwt>
<pdfrwt beam="1">  1        2 0.40068009E-02 0.73264114E+02</pdfrwt>
<pdfrwt beam="2">  1       -1 0.79268044E-02 0.73264114E+02</pdfrwt>
<totfact> 0.16740784E+05</totfact>
</mgrwt>
</event>
<event>
 8    1  0.2561077E-024  0.7854822E+02  0.7818608E-02  0.1333223E+00
          2   -1    0    0  501    0  0.00000000000E+00  0.00000000000E+00  0.23229068334E+02  0.23229068474E+02  0.25500000000E-02 0. -1.
         -1   -1    0    0    0  501 -0.00000000000E+00 -0.00000000000E+00 -0.66401954155E+02  0.66401954346E+02  0.50400000000E-02 0.  1.
         24    2    1    2    0    0  0.35527136788E-14  0.17763568394E-14 -0.43172885820E+02  0.89631022820E+02  0.78548215649E+02 0.  0.
         66    2    3    3    0    0 -0.28026177847E+02  0.11579985146E+02  0.68329903837E+01  0.31148875803E+02  0.20000013837E+01 0.  0.
        -13    1    3    3    0    0  0.28026177847E+02 -0.11579985146E+02 -0.50005876204E+02  0.58482147017E+02  0.10566000000E+00 0.  1.
         13    1    4    4    0    0 -0.63154019436E+01  0.25820681121E+01  0.14212203873E+01  0.69701082394E+01  0.10566000000E+00 0. -1.
        -13    1    4    4    0    0 -0.18098254124E+02  0.80269654725E+01  0.49622434617E+01  0.20411124448E+02  0.10566000000E+00 0.  1.
        -14    1    4    4    0    0 -0.36125217795E+01  0.97095156138E+00  0.44952653464E+00  0.37676431157E+01  0.00000000000E+00 0.  1.
<mgrwt>
<rscale>  0 0.78548216E+02</rscale>
<asrwt>0</asrwt>
<pdfrwt beam="1">  1        2 0.35737029E-02 0.78548216E+02</pdfrwt>
<pdfrwt beam="2">  1       -1 0.10215685E-01 0.78548216E+02</pdfrwt>
<totfact> 0.13475977E+05</totfact>
</mgrwt>
</event>
<event>
 8    1  0.2561077E-024  0.7970412E+02  0.7818608E-02  0.1329893E+00
         -1   -1    0    0    0  501 -0.00000000000E+00  0.00000000000E+00  0.16708711275E+02  0.16708712035E+02  0.50400000000E-02 0.  1.
          2   -1    0    0  501    0  0.00000000000E+00 -0.00000000000E+00 -0.95051411068E+02  0.95051411102E+02  0.25500000000E-02 0. -1.
         24    2    1    2    0    0  0.00000000000E+00  0.00000000000E+00 -0.78342699793E+02  0.11176012314E+03  0.79704118544E+02 0.  0.
         66    2    3    3    0    0 -0.28568964145E+02  0.18334654627E+02 -0.68401744492E+02  0.76388114022E+02  0.20000104058E+01 0.  0.
        -13    1    3    3    0    0  0.28568964145E+02 -0.18334654627E+02 -0.99409553007E+01  0.35372009116E+02  0.10566000000E+00 0.  1.
         13    1    4    4    0    0 -0.17437316148E+02  0.12229448214E+02 -0.42959248132E+02  0.47949218577E+02  0.10566000000E+00 0. -1.
        -13    1    4    4    0    0 -0.29555888066E+01  0.14035666277E+01 -0.67249340202E+01  0.74793987782E+01  0.10566000000E+00 0.  1.
         14    1    4    4    0    0 -0.81760591894E+01  0.47016397847E+01 -0.18717562340E+02  0.20959496666E+02  0.00000000000E+00 0. -1.
<mgrwt>
<rscale>  0 0.79704119E+02</rscale>
<asrwt>0</asrwt>
<pdfrwt beam="1">  1        2 0.14623294E-01 0.79704119E+02</pdfrwt>
<pdfrwt beam="2">  1       -1 0.25705711E-02 0.79704119E+02</pdfrwt>
<totfact> 0.17652733E+05</totfact>
</mgrwt>
</event>
<event>
 8    1  0.2561077E-024  0.7559095E+02  0.7818608E-02  0.1342051E+00
         -1   -1    0    0    0  501 -0.00000000000E+00  0.00000000000E+00  0.38931869576E+01  0.38931902200E+01  0.50400000000E-02 0.  1.
          2   -1    0    0  501    0  0.00000000000E+00 -0.00000000000E+00 -0.36692237553E+03  0.36692237553E+03  0.25500000000E-02 0. -1.
         24    2    1    2    0    0 -0.88817841970E-15  0.00000000000E+00 -0.36302918857E+03  0.37081556575E+03  0.75590952193E+02 0.  0.
         66    2    3    3    0    0 -0.67284455103E+01 -0.19739472461E+02 -0.33611366865E+03  0.33676596769E+03  0.19999966902E+01 0.  0.
        -13    1    3    3    0    0  0.67284455103E+01  0.19739472461E+02 -0.26915519914E+02  0.34049598064E+02  0.10566000000E+00 0.  1.
         13    1    4    4    0    0 -0.24609629087E+01 -0.69083576682E+01 -0.11586590589E+03  0.11609780815E+03  0.10566000000E+00 0. -1.
        -13    1    4    4    0    0 -0.31809234184E+01 -0.10605385679E+02 -0.18768572606E+03  0.18801206187E+03  0.10566000000E+00 0.  1.
        -14    1    4    4    0    0 -0.10865591832E+01 -0.22257291139E+01 -0.32562036702E+02  0.32656097671E+02  0.00000000000E+00 0.  1.
<mgrwt>
<rscale>  0 0.75590952E+02</rscale>
<asrwt>0</asrwt>
<pdfrwt beam="1">  1        2 0.56449569E-01 0.75590952E+02</pdfrwt>
<pdfrwt beam="2">  1       -1 0.59895238E-03 0.75590952E+02</pdfrwt>
<totfact> 0.31771965E+05</totfact>
</mgrwt>
</event>
<event>
 8    1  0.2561077E-024  0.7833442E+02  0.7818608E-02  0.1333846E+00
          2   -1    0    0  501    0  0.00000000000E+00  0.00000000000E+00  0.12140969610E+03  0.12140969613E+03  0.25500000000E-02 0. -1.
         -1   -1    0    0    0  501 -0.00000000000E+00 -0.00000000000E+00 -0.12635484681E+02  0.12635485686E+02  0.50400000000E-02 0.  1.
         24    2    1    2    0    0  0.00000000000E+00  0.35527136788E-14  0.10877421142E+03  0.13404518181E+03  0.78334422174E+02 0.  0.
         66    2    3    3    0    0 -0.12492415851E+02 -0.31039376328E+02  0.89179537627E+02  0.95270631632E+02  0.19999958614E+01 0.  0.
        -13    1    3    3    0    0  0.12492415851E+02  0.31039376328E+02  0.19594673791E+02  0.38774550180E+02  0.10566000000E+00 0.  1.
         13    1    4    4    0    0 -0.57957684146E+01 -0.15233938992E+02  0.44120910594E+02  0.47035409474E+02  0.10566000000E+00 0. -1.
        -13    1    4    4    0    0 -0.26305860889E+01 -0.70153895843E+01  0.21233958520E+02  0.22517278536E+02  0.10566000000E+00 0.  1.
        -14    1    4    4    0    0 -0.40660613480E+01 -0.87900477526E+01  0.23824668514E+02  0.25717943622E+02  0.00000000000E+00 0.  1.
<mgrwt>
<rscale>  0 0.78334422E+02</rscale>
<asrwt>0</asrwt>
<pdfrwt beam="1">  1        2 0.18678415E-01 0.78334422E+02</pdfrwt>
<pdfrwt beam="2">  1       -1 0.19439208E-02 0.78334422E+02</pdfrwt>
<totfact> 0.19832575E+05</totfact>
</mgrwt>
</event>
<event>
 8    1  0.2561077E-024  0.8332085E+02  0.7818608E-02  0.1319883E+00
         -1   -1    0    0    0  501 -0.00000000000E+00  0.00000000000E+00  0.17818412671E+03  0.17818412678E+03  0.50400000000E-02 0.  1.
          2   -1    0    0  501    0  0.00000000000E+00 -0.00000000000E+00 -0.97404344136E+01  0.97404347474E+01  0.25500000000E-02 0. -1.
         24    2    1    2    0    0  0.00000000000E+00  0.00000000000E+00  0.16844369230E+03  0.18792456153E+03  0.83320845839E+02 0.  0.
         66    2    3    3    0    0 -0.21942754997E+02 -0.30900517156E+02  0.45383844753E+02  0.59160965358E+02  0.20000000308E+01 0.  0.
        -13    1    3    3    0    0  0.21942754997E+02  0.30900517156E+02  0.12305984754E+03  0.12876359617E+03  0.10566000000E+00 0.  1.
         13    1    4    4    0    0 -0.14106014628E+02 -0.19970015465E+02  0.29747326088E+02  0.38505788393E+02  0.10566000000E+00 0. -1.
        -13    1    4    4    0    0 -0.63272009422E+01 -0.95079304838E+01  0.13186125426E+02  0.17444749400E+02  0.10566000000E+00 0.  1.
        -14    1    4    4    0    0 -0.15095394271E+01 -0.14225712079E+01  0.24503932381E+01  0.32104275642E+01  0.00000000000E+00 0.  1.
<mgrwt>
<rscale>  0 0.83320846E+02</rscale>
<asrwt>0</asrwt>
<pdfrwt beam="1">  1        2 0.14985285E-02 0.83320846E+02</pdfrwt>
<pdfrwt beam="2">  1       -1 0.27412940E-01 0.83320846E+02</pdfrwt>
<totfact> 0.92905600E+04</totfact>
</mgrwt>
</event>
<event>
 8    1  0.2561077E-024  0.8043882E+02  0.7818608E-02  0.1327811E+00
          2   -1    0    0  501    0  0.00000000000E+00  0.00000000000E+00  0.72267521175E+03  0.72267521175E+03  0.25500000000E-02 0. -1.
         -1   -1    0    0    0  501 -0.00000000000E+00 -0.00000000000E+00 -0.22383483933E+01  0.22383540674E+01  0.50400000000E-02 0.  1.
         24    2    1    2    0    0 -0.35527136788E-14  0.17763568394E-14  0.72043686336E+03  0.72491356582E+03  0.80438820413E+02 0.  0.
         66    2    3    3    0    0  0.26649633431E+02 -0.92915764725E+01  0.61835650331E+03  0.61900347458E+03  0.20000005891E+01 0.  0.
        -13    1    3    3    0    0 -0.26649633431E+02  0.92915764725E+01  0.10208036005E+03  0.10591009124E+03  0.10566000000E+00 0.  1.
         13    1    4    4    0    0  0.15513391707E+02 -0.51699661109E+01  0.37117892052E+03  0.37153895633E+03  0.10566000000E+00 0. -1.
        -13    1    4    4    0    0  0.65136448017E+01 -0.21096043200E+01  0.13446270953E+03  0.13463695413E+03  0.10566000000E+00 0.  1.
         14    1    4    4    0    0  0.46225969220E+01 -0.20120060415E+01  0.11271487326E+03  0.11282756412E+03  0.00000000000E+00 0. -1.
<mgrwt>
<rscale>  0 0.80438820E+02</rscale>
<asrwt>0</asrwt>
<pdfrwt beam="1">  1        2 0.11118081E+00 0.80438820E+02</pdfrwt>
<pdfrwt beam="2">  1       -1 0.34436171E-03 0.80438820E+02</pdfrwt>
<totfact> 0.33214436E+05</totfact>
</mgrwt>
</event>
<event>
 8    1  0.2561077E-024  0.8042074E+02  0.7818608E-02  0.1327862E+00
         -1   -1    0    0    0  501 -0.00000000000E+00  0.00000000000E+00  0.13423268284E+02  0.13423269230E+02  0.50400000000E-02 0.  1.
          2   -1    0    0  501    0  0.00000000000E+00 -0.00000000000E+00 -0.12045306103E+03  0.12045306106E+03  0.25500000000E-02 0. -1.
         24    2    1    2    0    0  0.35527136788E-14  0.35527136788E-14 -0.10702979275E+03  0.13387633029E+03  0.80420739091E+02 0.  0.
         66    2    3    3    0    0 -0.22656103603E+02 -0.19000177244E+02 -0.98849838537E+02  0.10319688145E+03  0.19999993518E+01 0.  0.
        -13    1    3    3    0    0  0.22656103603E+02  0.19000177244E+02 -0.81799542090E+01  0.30679448833E+02  0.10566000000E+00 0.  1.
         13    1    4    4    0    0 -0.36901020658E+01 -0.32332788792E+01 -0.16259981340E+02  0.16984378198E+02  0.10566000000E+00 0. -1.
        -13    1    4    4    0    0 -0.17931330993E+02 -0.15011368209E+02 -0.76747004641E+02  0.80230840031E+02  0.10566000000E+00 0.  1.
        -14    1    4    4    0    0 -0.10346705444E+01 -0.75553015579E+00 -0.58428525563E+01  0.59816632257E+01  0.00000000000E+00 0.  1.
<mgrwt>
<rscale>  0 0.80420739E+02</rscale>
<asrwt>0</asrwt>
<pdfrwt beam="1">  1        2 0.18531239E-01 0.80420739E+02</pdfrwt>
<pdfrwt beam="2">  1       -1 0.20651184E-02 0.80420739E+02</pdfrwt>
<totfact> 0.18447707E+05</totfact>
</mgrwt>
</event>
<event>
 8    1  0.2561077E-024  0.7852612E+02  0.7818608E-02  0.1333287E+00
          2   -1    0    0  501    0  0.00000000000E+00  0.00000000000E+00  0.32182207845E+02  0.32182207946E+02  0.25500000000E-02 0. -1.
         -1   -1    0    0    0  501 -0.00000000000E+00 -0.00000000000E+00 -0.47901871053E+02  0.47901871318E+02  0.50400000000E-02 0.  1.
         24    2    1    2    0    0  0.00000000000E+00  0.00000000000E+00 -0.15719663208E+02  0.80084079263E+02  0.78526122660E+02 0.  0.
         66    2    3    3    0    0  0.13115298691E+02 -0.13155664200E+02  0.27382330853E+02  0.33149277502E+02  0.19999989272E+01 0.  0.
        -13    1    3    3    0    0 -0.13115298691E+02  0.13155664200E+02 -0.43101994061E+02  0.46934801761E+02  0.10566000000E+00 0.  1.
         13    1    4    4    0    0  0.33848263463E+01 -0.26992143644E+01  0.73859364449E+01  0.85618939951E+01  0.10566000000E+00 0. -1.
        -13    1    4    4    0    0  0.63174568135E+01 -0.73278749082E+01  0.13381772734E+02  0.16513358738E+02  0.10566000000E+00 0.  1.
         14    1    4    4    0    0  0.34130155312E+01 -0.31285749270E+01  0.66146216740E+01  0.80740247696E+01  0.00000000000E+00 0. -1.
<mgrwt>
<rscale>  0 0.78526123E+02</rscale>
<asrwt>0</asrwt>
<pdfrwt beam="1">  1        2 0.49511089E-02 0.78526123E+02</pdfrwt>
<pdfrwt beam="2">  1       -1 0.73695187E-02 0.78526123E+02</pdfrwt>
<totfact> 0.14369671E+05</totfact>
</mgrwt>
</event>
<event>
 8    1  0.2561077E-024  0.8016512E+02  0.7818608E-02  0.1328584E+00
         -1   -1    0    0    0  501 -0.00000000000E+00  0.00000000000E+00  0.62434345076E+02  0.62434345279E+02  0.50400000000E-02 0.  1.
          2   -1    0    0  501    0  0.00000000000E+00 -0.00000000000E+00 -0.25732816497E+02  0.25732816623E+02  0.25500000000E-02 0. -1.
         24    2    1    2    0    0 -0.17763568394E-14  0.00000000000E+00  0.36701528579E+02  0.88167161902E+02  0.80165118586E+02 0.  0.
         66    2    3    3    0    0  0.13183768710E+02  0.30933844579E+02  0.42304194632E+02  0.54077346286E+02  0.19999999890E+01 0.  0.
        -13    1    3    3    0    0 -0.13183768710E+02 -0.30933844579E+02 -0.56026660530E+01  0.34089815617E+02  0.10566000000E+00 0.  1.
         13    1    4    4    0    0  0.33595881984E+01  0.87084743208E+01  0.11833920052E+02  0.15072398140E+02  0.10566000000E+00 0. -1.
        -13    1    4    4    0    0  0.93891661160E+01  0.21683428987E+02  0.29263486676E+02  0.37612369634E+02  0.10566000000E+00 0.  1.
        -14    1    4    4    0    0  0.43501439537E+00  0.54194127180E+00  0.12067879045E+01  0.13925785122E+01  0.00000000000E+00 0.  1.
<mgrwt>
<rscale>  0 0.80165119E+02</rscale>
<asrwt>0</asrwt>
<pdfrwt beam="1">  1        2 0.39588949E-02 0.80165119E+02</pdfrwt>
<pdfrwt beam="2">  1       -1 0.96052838E-02 0.80165119E+02</pdfrwt>
<totfact> 0.12978677E+05</totfact>
</mgrwt>
</event>
<event>
 8    1  0.2561077E-024  0.8327277E+02  0.7818608E-02  0.1320012E+00
         -1   -1    0    0    0  501 -0.00000000000E+00  0.00000000000E+00  0.98934321834E+02  0.98934321962E+02  0.50400000000E-02 0.  1.
          2   -1    0    0  501    0  0.00000000000E+00 -0.00000000000E+00 -0.17522618671E+02  0.17522618856E+02  0.25500000000E-02 0. -1.
         24    2    1    2    0    0  0.00000000000E+00  0.44408920985E-15  0.81411703163E+02  0.11645694082E+03  0.83272766574E+02 0.  0.
         66    2    3    3    0    0 -0.40596873112E+02 -0.31859396163E+01  0.28753741166E+02  0.49890219077E+02  0.20000026855E+01 0.  0.
        -13    1    3    3    0    0  0.40596873112E+02  0.31859396163E+01  0.52657961997E+02  0.66566721742E+02  0.10566000000E+00 0.  1.
         13    1    4    4    0    0 -0.24449533868E+02 -0.21908842534E+01  0.18195723380E+02  0.30556099122E+02  0.10566000000E+00 0. -1.
        -13    1    4    4    0    0 -0.12292155664E+02 -0.10863008232E+01  0.80589819021E+01  0.14738910872E+02  0.10566000000E+00 0.  1.
         14    1    4    4    0    0 -0.38551835796E+01  0.91245460311E-01  0.24990358842E+01  0.45952090830E+01  0.00000000000E+00 0. -1.
<mgrwt>
<rscale>  0 0.83272767E+02</rscale>
<asrwt>0</asrwt>
<pdfrwt beam="1">  1        2 0.26957876E-02 0.83272767E+02</pdfrwt>
<pdfrwt beam="2">  1       -1 0.15220665E-01 0.83272767E+02</pdfrwt>
<totfact> 0.10750968E+05</totfact>
</mgrwt>
</event>
<event>
 8    1  0.2561077E-024  0.8098167E+02  0.7818608E-02  0.1326288E+00
          2   -1    0    0  501    0  0.00000000000E+00  0.00000000000E+00  0.10320170802E+02  0.10320171117E+02  0.25500000000E-02 0. -1.
         -1   -1    0    0    0  501 -0.00000000000E+00 -0.00000000000E+00 -0.15886438119E+03  0.15886438127E+03  0.50400000000E-02 0.  1.
         24    2    1    2    0    0  0.00000000000E+00  0.00000000000E+00 -0.14854421039E+03  0.16918455239E+03  0.80981666609E+02 0.  0.
         66    2    3    3    0    0 -0.22184365131E+02 -0.17407096257E+02 -0.13682728751E+02  0.31406530013E+02  0.20000012467E+01 0.  0.
        -13    1    3    3    0    0  0.22184365131E+02  0.17407096257E+02 -0.13486148164E+03  0.13777802237E+03  0.10566000000E+00 0.  1.
         13    1    4    4    0    0 -0.12988587505E+02 -0.10874112388E+02 -0.87462968225E+01  0.19064590154E+02  0.10566000000E+00 0. -1.
        -13    1    4    4    0    0 -0.48410761807E+01 -0.34623434709E+01 -0.21514914765E+01  0.63296066628E+01  0.10566000000E+00 0.  1.
         14    1    4    4    0    0 -0.43547014453E+01 -0.30706403980E+01 -0.27849404523E+01  0.60123331956E+01  0.00000000000E+00 0. -1.
<mgrwt>
<rscale>  0 0.80981667E+02</rscale>
<asrwt>0</asrwt>
<pdfrwt beam="1">  1        2 0.15877187E-02 0.80981667E+02</pdfrwt>
<pdfrwt beam="2">  1       -1 0.24440672E-01 0.80981667E+02</pdfrwt>
<totfact> 0.10304954E+05</totfact>
</mgrwt>
</event>
<event>
 8    1  0.2561077E-024  0.8048393E+02  0.7818608E-02  0.1327684E+00
         -1   -1    0    0    0  501 -0.00000000000E+00  0.00000000000E+00  0.59240528226E+01  0.59240549665E+01  0.50400000000E-02 0.  1.
          2   -1    0    0  501    0  0.00000000000E+00 -0.00000000000E+00 -0.27336273153E+03  0.27336273154E+03  0.25500000000E-02 0. -1.
         24    2    1    2    0    0  0.35527136788E-14  0.00000000000E+00 -0.26743867871E+03  0.27928678651E+03  0.80483925410E+02 0.  0.
         66    2    3    3    0    0 -0.25021624556E+02  0.10723282638E+02 -0.23652702060E+03  0.23809683316E+03  0.20000002233E+01 0.  0.
        -13    1    3    3    0    0  0.25021624556E+02 -0.10723282638E+02 -0.30911658113E+02  0.41189953354E+02  0.10566000000E+00 0.  1.
         13    1    4    4    0    0 -0.17850622151E+02  0.76472907529E+01 -0.17074536152E+03  0.17184619697E+03  0.10566000000E+00 0. -1.
        -13    1    4    4    0    0 -0.55616131307E+01  0.19810076335E+01 -0.47488939953E+02  0.47854639418E+02  0.10566000000E+00 0.  1.
         14    1    4    4    0    0 -0.16093892741E+01  0.10949842516E+01 -0.18292719122E+02  0.18395996771E+02  0.00000000000E+00 0. -1.
<mgrwt>
<rscale>  0 0.80483925E+02</rscale>
<asrwt>0</asrwt>
<pdfrwt beam="1">  1        2 0.42055795E-01 0.80483925E+02</pdfrwt>
<pdfrwt beam="2">  1       -1 0.91139312E-03 0.80483925E+02</pdfrwt>
<totfact> 0.24262747E+05</totfact>
</mgrwt>
</event>
<event>
 8    1  0.2561077E-024  0.7928711E+02  0.7818608E-02  0.1331087E+00
          2   -1    0    0  501    0  0.00000000000E+00  0.00000000000E+00  0.58881529459E+02  0.58881529514E+02  0.25500000000E-02 0. -1.
         -1   -1    0    0    0  501 -0.00000000000E+00 -0.00000000000E+00 -0.26691075420E+02  0.26691075896E+02  0.50400000000E-02 0.  1.
         24    2    1    2    0    0  0.00000000000E+00  0.00000000000E+00  0.32190454039E+02  0.85572605410E+02  0.79287107813E+02 0.  0.
         66    2    3    3    0    0 -0.11919045875E+02 -0.64777092932E+01  0.56279738161E+02  0.57926102090E+02  0.20000009041E+01 0.  0.
        -13    1    3    3    0    0  0.11919045875E+02  0.64777092932E+01 -0.24089284122E+02  0.27646503320E+02  0.10566000000E+00 0.  1.
         13    1    4    4    0    0 -0.12468659285E+01 -0.59360743880E+00  0.70602751359E+01  0.71948379735E+01  0.10566000000E+00 0. -1.
        -13    1    4    4    0    0 -0.29579351720E+01 -0.10016056087E+01  0.14370556326E+02  0.14706347182E+02  0.10566000000E+00 0. -1.
         14    1    4    4    0    0 -0.77142447748E+01 -0.48824962457E+01  0.34848906699E+02  0.36024916935E+02  0.00000000000E+00 0. -1.
<mgrwt>
<rscale>  0 0.79287108E+02</rscale>
<asrwt>0</asrwt>
<pdfrwt beam="1">  1        2 0.90586968E-02 0.79287108E+02</pdfrwt>
<pdfrwt beam="2">  1       -1 0.41063194E-02 0.79287108E+02</pdfrwt>
<totfact> 0.15881011E+05</totfact>
</mgrwt>
</event>
<event>
 8    1  0.2561077E-024  0.8004592E+02  0.7818608E-02  0.1328921E+00
         -1   -1    0    0    0  501 -0.00000000000E+00  0.00000000000E+00  0.10952797857E+01  0.10952913816E+01  0.50400000000E-02 0.  1.
          2   -1    0    0  501    0  0.00000000000E+00 -0.00000000000E+00 -0.14624837798E+04  0.14624837798E+04  0.25500000000E-02 0. -1.
         24    2    1    2    0    0  0.00000000000E+00  0.00000000000E+00 -0.14613885000E+04  0.14635790712E+04  0.80045922029E+02 0.  0.
         66    2    3    3    0    0  0.21684082770E+02 -0.70746553356E-01 -0.13456814196E+04  0.13458576029E+04  0.20000084024E+01 0.  0.
        -13    1    3    3    0    0 -0.21684082770E+02  0.70746553356E-01 -0.11570708049E+03  0.11772146826E+03  0.10566000000E+00 0.  1.
         13    1    4    4    0    0  0.49463363074E+01 -0.13790410985E+00 -0.27876566789E+03  0.27880960173E+03  0.10566000000E+00 0. -1.
        -13    1    4    4    0    0  0.47240690588E+01 -0.40903825924E-01 -0.26234308114E+03  0.26238563583E+03  0.10566000000E+00 0.  1.
         14    1    4    4    0    0  0.12013677404E+02  0.10806138241E+00 -0.80457267053E+03  0.80466236539E+03  0.00000000000E+00 0. -1.
<mgrwt>
<rscale>  0 0.80045922E+02</rscale>
<asrwt>0</asrwt>
<pdfrwt beam="1">  1        2 0.22499594E+00 0.80045922E+02</pdfrwt>
<pdfrwt beam="2">  1       -1 0.16850664E-03 0.80045922E+02</pdfrwt>
<totfact> 0.33504876E+05</totfact>
</mgrwt>
</event>
<event>
 8    1  0.2561077E-024  0.7368452E+02  0.7818608E-02  0.1347994E+00
          2   -1    0    0  501    0  0.00000000000E+00  0.00000000000E+00  0.22259913361E+03  0.22259913363E+03  0.25500000000E-02 0. -1.
         -1   -1    0    0    0  501 -0.00000000000E+00 -0.00000000000E+00 -0.60977403075E+01  0.60977423904E+01  0.50400000000E-02 0.  1.
         24    2    1    2    0    0 -0.17763568394E-14  0.35527136788E-14  0.21650139330E+03  0.22869687602E+03  0.73684515315E+02 0.  0.
         66    2    3    3    0    0  0.14410889508E+02 -0.19977776559E+02  0.19324784902E+03  0.19482175567E+03  0.20000096130E+01 0.  0.
        -13    1    3    3    0    0 -0.14410889508E+02  0.19977776559E+02  0.23253544279E+02  0.33875120342E+02  0.10566000000E+00 0.  1.
         13    1    4    4    0    0  0.61393138379E+01 -0.84835478648E+01  0.76762537319E+02  0.77473608787E+02  0.10566000000E+00 0. -1.
        -13    1    4    4    0    0  0.80789974150E+01 -0.11404800604E+02  0.11528978841E+03  0.11613391474E+03  0.10566000000E+00 0.  1.
        -14    1    4    4    0    0  0.19257825466E+00 -0.89428090435E-01  0.11955232917E+01  0.12142321477E+01  0.00000000000E+00 0.  1.
<mgrwt>
<rscale>  0 0.73684515E+02</rscale>
<asrwt>0</asrwt>
<pdfrwt beam="1">  1        2 0.34246022E-01 0.73684515E+02</pdfrwt>
<pdfrwt beam="2">  1       -1 0.93811403E-03 0.73684515E+02</pdfrwt>
<totfact> 0.28411988E+05</totfact>
</mgrwt>
</event>
<event>
 8    1  0.2561077E-024  0.7737731E+02  0.7818608E-02  0.1336663E+00
          2   -1    0    0  501    0  0.00000000000E+00  0.00000000000E+00  0.16575970613E+02  0.16575970809E+02  0.25500000000E-02 0. -1.
         -1   -1    0    0    0  501 -0.00000000000E+00 -0.00000000000E+00 -0.90300117462E+02  0.90300117603E+02  0.50400000000E-02 0.  1.
         24    2    1    2    0    0  0.35527136788E-14  0.00000000000E+00 -0.73724146849E+02  0.10687608841E+03  0.77377312215E+02 0.  0.
         66    2    3    3    0    0 -0.26305094256E+02  0.16817304170E+02 -0.53888435723E+01  0.31746170661E+02  0.20000033058E+01 0.  0.
        -13    1    3    3    0    0  0.26305094256E+02 -0.16817304170E+02 -0.68335303277E+02  0.75129917751E+02  0.10566000000E+00 0.  1.
         13    1    4    4    0    0 -0.11963013792E+02  0.76276571507E+01 -0.30606434223E+01  0.14514597989E+02  0.10566000000E+00 0. -1.
        -13    1    4    4    0    0 -0.20903079524E+01  0.15689404310E+01 -0.72458496664E+00  0.27142492187E+01  0.10566000000E+00 0.  1.
         14    1    4    4    0    0 -0.12251772511E+02  0.76207065887E+01 -0.16036151834E+01  0.14517323453E+02  0.00000000000E+00 0. -1.
<mgrwt>
<rscale>  0 0.77377312E+02</rscale>
<asrwt>0</asrwt>
<pdfrwt beam="1">  1        2 0.25501494E-02 0.77377312E+02</pdfrwt>
<pdfrwt beam="2">  1       -1 0.13892326E-01 0.77377312E+02</pdfrwt>
<totfact> 0.13155685E+05</totfact>
</mgrwt>
</event>
<event>
 8    1  0.2561077E-024  0.8968866E+02  0.7818608E-02  0.1303607E+00
         -1   -1    0    0    0  501 -0.00000000000E+00  0.00000000000E+00  0.49062341729E+01  0.49062367617E+01  0.50400000000E-02 0.  1.
          2   -1    0    0  501    0  0.00000000000E+00 -0.00000000000E+00 -0.40988937409E+03  0.40988937410E+03  0.25500000000E-02 0. -1.
         24    2    1    2    0    0  0.17763568394E-14 -0.17763568394E-14 -0.40498313991E+03  0.41479561086E+03  0.89688656871E+02 0.  0.
         66    2    3    3    0    0  0.12100158704E+02 -0.13867662430E+02 -0.39160496350E+03  0.39204231066E+03  0.20000005196E+01 0.  0.
        -13    1    3    3    0    0 -0.12100158704E+02  0.13867662430E+02 -0.13378176412E+02  0.22753300202E+02  0.10566000000E+00 0.  1.
         13    1    4    4    0    0  0.99356369307E+01 -0.11818837122E+02 -0.31991410180E+03  0.32028650531E+03  0.10566000000E+00 0. -1.
        -13    1    4    4    0    0  0.19051988961E+01 -0.14504765965E+01 -0.57669738183E+02  0.57719524698E+02  0.10566000000E+00 0.  1.
        -14    1    4    4    0    0  0.25932287752E+00 -0.59834871173E+00 -0.14021123522E+02  0.14036280646E+02  0.00000000000E+00 0.  1.
<mgrwt>
<rscale>  0 0.89688657E+02</rscale>
<asrwt>0</asrwt>
<pdfrwt beam="1">  1        2 0.63059877E-01 0.89688657E+02</pdfrwt>
<pdfrwt beam="2">  1       -1 0.75480578E-03 0.89688657E+02</pdfrwt>
<totfact> 0.21105030E+05</totfact>
</mgrwt>
</event>
<event>
 8    1  0.2561077E-024  0.7986386E+02  0.7818608E-02  0.1329438E+00
          2   -1    0    0  501    0  0.00000000000E+00  0.00000000000E+00  0.79981891057E+02  0.79981891097E+02  0.25500000000E-02 0. -1.
         -1   -1    0    0    0  501 -0.00000000000E+00 -0.00000000000E+00 -0.19936502147E+02  0.19936502784E+02  0.50400000000E-02 0.  1.
         24    2    1    2    0    0  0.00000000000E+00  0.00000000000E+00  0.60045388910E+02  0.99918393881E+02  0.79863863583E+02 0.  0.
         66    2    3    3    0    0 -0.19596454660E+02  0.23839331827E+02  0.61697726716E+02  0.69014087361E+02  0.19999987956E+01 0.  0.
        -13    1    3    3    0    0  0.19596454660E+02 -0.23839331827E+02 -0.16523378064E+01  0.30904306519E+02  0.10566000000E+00 0.  1.
         13    1    4    4    0    0 -0.14465523053E+01  0.19351541129E+01  0.60272472570E+01  0.64943212536E+01  0.10566000000E+00 0.  1.
        -13    1    4    4    0    0 -0.86753767621E+01  0.10483240317E+02  0.26046418753E+02  0.29386860727E+02  0.10566000000E+00 0. -1.
        -14    1    4    4    0    0 -0.94745255928E+01  0.11420937397E+02  0.29624060706E+02  0.33132905380E+02  0.00000000000E+00 0.  1.
<mgrwt>
<rscale>  0 0.79863864E+02</rscale>
<asrwt>0</asrwt>
<pdfrwt beam="1">  1        2 0.12304906E-01 0.79863864E+02</pdfrwt>
<pdfrwt beam="2">  1       -1 0.30671542E-02 0.79863864E+02</pdfrwt>
<totfact> 0.16771503E+05</totfact>
</mgrwt>
</event>
<event>
 8    1  0.2561077E-024  0.8020868E+02  0.7818608E-02  0.1328460E+00
         -1   -1    0    0    0  501 -0.00000000000E+00  0.00000000000E+00  0.46669267631E+01  0.46669294846E+01  0.50400000000E-02 0.  1.
          2   -1    0    0  501    0  0.00000000000E+00 -0.00000000000E+00 -0.34462883740E+03  0.34462883741E+03  0.25500000000E-02 0. -1.
         24    2    1    2    0    0  0.00000000000E+00  0.71054273576E-14 -0.33996191064E+03  0.34929576689E+03  0.80208678372E+02 0.  0.
         66    2    3    3    0    0  0.10815378841E+02 -0.35821376077E+02 -0.23262182254E+03  0.23562057576E+03  0.19999985786E+01 0.  0.
        -13    1    3    3    0    0 -0.10815378841E+02  0.35821376077E+02 -0.10734008809E+03  0.11367519113E+03  0.10566000000E+00 0.  1.
         13    1    4    4    0    0  0.58852069202E+00 -0.25174525257E+01 -0.16364716922E+02  0.16568012790E+02  0.10566000000E+00 0. -1.
        -13    1    4    4    0    0  0.38174989522E+01 -0.15275970623E+02 -0.95890626954E+02  0.97174853117E+02  0.10566000000E+00 0.  1.
         14    1    4    4    0    0  0.64093591972E+01 -0.18027952928E+02 -0.12036647867E+03  0.12187770985E+03  0.00000000000E+00 0. -1.
<mgrwt>
<rscale>  0 0.80208678E+02</rscale>
<asrwt>0</asrwt>
<pdfrwt beam="1">  1        2 0.53019801E-01 0.80208678E+02</pdfrwt>
<pdfrwt beam="2">  1       -1 0.71798922E-03 0.80208678E+02</pdfrwt>
<totfact> 0.26618897E+05</totfact>
</mgrwt>
</event>
<event>
 8    1  0.2561077E-024  0.8538247E+02  0.7818608E-02  0.1314435E+00
          2   -1    0    0  501    0  0.00000000000E+00  0.00000000000E+00  0.29746884424E+03  0.29746884425E+03  0.25500000000E-02 0. -1.
         -1   -1    0    0    0  501 -0.00000000000E+00 -0.00000000000E+00 -0.61268304524E+01  0.61268325253E+01  0.50400000000E-02 0.  1.
         24    2    1    2    0    0  0.00000000000E+00  0.35527136788E-14  0.29134201378E+03  0.30359567677E+03  0.85382468688E+02 0.  0.
         66    2    3    3    0    0  0.17634120740E+02 -0.28562331892E+02  0.23940632854E+03  0.24175640459E+03  0.20000004201E+01 0.  0.
        -13    1    3    3    0    0 -0.17634120740E+02  0.28562331892E+02  0.51935685247E+02  0.61839272178E+02  0.10566000000E+00 0.  1.
         13    1    4    4    0    0  0.11130257367E+02 -0.19449157194E+02  0.15879292072E+03  0.16036631560E+03  0.10566000000E+00 0. -1.
        -13    1    4    4    0    0  0.10548885277E+01 -0.12663485178E+01  0.10586417995E+02  0.10714468646E+02  0.10566000000E+00 0.  1.
         14    1    4    4    0    0  0.54489748453E+01 -0.78468261807E+01  0.70026989820E+02  0.70675620345E+02  0.00000000000E+00 0. -1.
<mgrwt>
<rscale>  0 0.85382469E+02</rscale>
<asrwt>0</asrwt>
<pdfrwt beam="1">  1        2 0.45764430E-01 0.85382469E+02</pdfrwt>
<pdfrwt beam="2">  1       -1 0.94258962E-03 0.85382469E+02</pdfrwt>
<totfact> 0.21415310E+05</totfact>
</mgrwt>
</event>
<event>
 8    1  0.2561077E-024  0.7890830E+02  0.7818608E-02  0.1332178E+00
         -1   -1    0    0    0  501 -0.00000000000E+00  0.00000000000E+00  0.13271779364E+01  0.13271875062E+01  0.50400000000E-02 0.  1.
          2   -1    0    0  501    0  0.00000000000E+00 -0.00000000000E+00 -0.11728828189E+04  0.11728828189E+04  0.25500000000E-02 0. -1.
         24    2    1    2    0    0  0.00000000000E+00  0.00000000000E+00 -0.11715556410E+04  0.11742100064E+04  0.78908296632E+02 0.  0.
         66    2    3    3    0    0  0.22088403625E+02 -0.60306680084E+01 -0.10638113007E+04  0.10640595613E+04  0.19999994030E+01 0.  0.
        -13    1    3    3    0    0 -0.22088403625E+02  0.60306680084E+01 -0.10774434022E+03  0.11015044505E+03  0.10566000000E+00 0.  1.
         13    1    4    4    0    0  0.97523398573E+01 -0.23385752222E+01 -0.47792620815E+03  0.47803143063E+03  0.10566000000E+00 0. -1.
        -13    1    4    4    0    0  0.11463438347E+02 -0.37247552137E+01 -0.55374253588E+03  0.55387371434E+03  0.10566000000E+00 0.  1.
        -14    1    4    4    0    0  0.87262542117E+00  0.32662427513E-01 -0.32142556696E+02  0.32154416383E+02  0.00000000000E+00 0.  1.
<mgrwt>
<rscale>  0 0.78908297E+02</rscale>
<asrwt>0</asrwt>
<pdfrwt beam="1">  1        2 0.18044268E+00 0.78908297E+02</pdfrwt>
<pdfrwt beam="2">  1       -1 0.20418290E-03 0.78908297E+02</pdfrwt>
<totfact> 0.36392068E+05</totfact>
</mgrwt>
</event>
<event>
 8    1  0.2561077E-024  0.7912278E+02  0.7818608E-02  0.1331559E+00
         -1   -1    0    0    0  501 -0.00000000000E+00  0.00000000000E+00  0.11622812806E+01  0.11622922080E+01  0.50400000000E-02 0.  1.
          2   -1    0    0  501    0  0.00000000000E+00 -0.00000000000E+00 -0.13465727509E+04  0.13465727509E+04  0.25500000000E-02 0. -1.
         24    2    1    2    0    0 -0.17763568394E-14  0.88817841970E-15 -0.13454104696E+04  0.13477350431E+04  0.79122782221E+02 0.  0.
         66    2    3    3    0    0 -0.91967211776E+01  0.48989062296E+01 -0.13227589299E+04  0.13228014839E+04  0.20000037364E+01 0.  0.
        -13    1    3    3    0    0  0.91967211776E+01 -0.48989062296E+01 -0.22651539650E+02  0.24933559217E+02  0.10566000000E+00 0.  1.
         13    1    4    4    0    0 -0.30225215351E+01  0.18233848189E+01 -0.40893038585E+03  0.40894563454E+03  0.10566000000E+00 0. -1.
        -13    1    4    4    0    0 -0.52857431068E+01  0.30341300274E+01 -0.83602527707E+03  0.83604749870E+03  0.10566000000E+00 0.  1.
        -14    1    4    4    0    0 -0.88845653572E+00  0.41391383383E-01 -0.77803267010E+02  0.77808350617E+02  0.00000000000E+00 0.  1.
<mgrwt>
<rscale>  0 0.79122782E+02</rscale>
<asrwt>0</asrwt>
<pdfrwt beam="1">  1        2 0.20716379E+00 0.79122782E+02</pdfrwt>
<pdfrwt beam="2">  1       -1 0.17881442E-03 0.79122782E+02</pdfrwt>
<totfact> 0.35354886E+05</totfact>
</mgrwt>
</event>
<event>
 8    1  0.2561077E-024  0.7438949E+02  0.7818608E-02  0.1345772E+00
         -1   -1    0    0    0  501 -0.00000000000E+00  0.00000000000E+00  0.97784159537E+02  0.97784159667E+02  0.50400000000E-02 0.  1.
          2   -1    0    0  501    0  0.00000000000E+00 -0.00000000000E+00 -0.14147988138E+02  0.14147988368E+02  0.25500000000E-02 0. -1.
         24    2    1    2    0    0  0.00000000000E+00  0.00000000000E+00  0.83636171399E+02  0.11193214803E+03  0.74389492520E+02 0.  0.
         66    2    3    3    0    0 -0.53612861528E+01 -0.16078771512E+02 -0.79239267651E+01  0.18816451064E+02  0.19999831759E+01 0.  0.
        -13    1    3    3    0    0  0.53612861528E+01  0.16078771512E+02  0.91560098164E+02  0.93115696971E+02  0.10566000000E+00 0.  1.
         13    1    4    4    0    0 -0.17796647907E+01 -0.53843108309E+01 -0.36220227033E+01  0.67296524718E+01  0.10566000000E+00 0. -1.
        -13    1    4    4    0    0 -0.98737944674E+00 -0.35360432602E+01 -0.11814545353E+01  0.38581756005E+01  0.10566000000E+00 0.  1.
        -14    1    4    4    0    0 -0.25942419153E+01 -0.71584174210E+01 -0.31204495264E+01  0.82286229914E+01  0.00000000000E+00 0.  1.
<mgrwt>
<rscale>  0 0.74389493E+02</rscale>
<asrwt>0</asrwt>
<pdfrwt beam="1">  1        2 0.21766135E-02 0.74389493E+02</pdfrwt>
<pdfrwt beam="2">  1       -1 0.15043717E-01 0.74389493E+02</pdfrwt>
<totfact> 0.14273071E+05</totfact>
</mgrwt>
</event>
<event>
 8    1  0.2561077E-024  0.8057865E+02  0.7818608E-02  0.1327417E+00
         -1   -1    0    0    0  501 -0.00000000000E+00  0.00000000000E+00  0.23490737138E+01  0.23490791206E+01  0.50400000000E-02 0.  1.
          2   -1    0    0  501    0  0.00000000000E+00 -0.00000000000E+00 -0.69100764052E+03  0.69100764053E+03  0.25500000000E-02 0. -1.
         24    2    1    2    0    0  0.00000000000E+00 -0.44408920985E-15 -0.68865856681E+03  0.69335671965E+03  0.80578651278E+02 0.  0.
         66    2    3    3    0    0  0.35558507720E+02 -0.22097209187E+01 -0.50596464009E+03  0.50722135933E+03  0.19999995591E+01 0.  0.
        -13    1    3    3    0    0 -0.35558507720E+02  0.22097209187E+01 -0.18269392672E+03  0.18613536032E+03  0.10566000000E+00 0.  1.
         13    1    4    4    0    0  0.37775171405E+01 -0.81177213364E-01 -0.54743044774E+02  0.54873384629E+02  0.10566000000E+00 0. -1.
        -13    1    4    4    0    0  0.18297435653E+02 -0.90461471181E+00 -0.24772873981E+03  0.24840522171E+03  0.10566000000E+00 0.  1.
         14    1    4    4    0    0  0.13483554927E+02 -0.12239289936E+01 -0.20349285551E+03  0.20394275299E+03  0.00000000000E+00 0. -1.
<mgrwt>
<rscale>  0 0.80578651E+02</rscale>
<asrwt>0</asrwt>
<pdfrwt beam="1">  1        2 0.10630871E+00 0.80578651E+02</pdfrwt>
<pdfrwt beam="2">  1       -1 0.36139693E-03 0.80578651E+02</pdfrwt>
<totfact> 0.32732549E+05</totfact>
</mgrwt>
</event>
<event>
 8    1  0.2561077E-024  0.8014156E+02  0.7818608E-02  0.1328650E+00
         -1   -1    0    0    0  501 -0.00000000000E+00  0.00000000000E+00  0.62424808362E+02  0.62424808565E+02  0.50400000000E-02 0.  1.
          2   -1    0    0  501    0  0.00000000000E+00 -0.00000000000E+00 -0.25721624896E+02  0.25721625022E+02  0.25500000000E-02 0. -1.
         24    2    1    2    0    0 -0.71054273576E-14  0.17763568394E-14  0.36703183466E+02  0.88146433587E+02  0.80141562735E+02 0.  0.
         66    2    3    3    0    0  0.33705541865E+02 -0.98051179468E+01 -0.28353667514E+01  0.35273831914E+02  0.20000057233E+01 0.  0.
        -13    1    3    3    0    0 -0.33705541865E+02  0.98051179468E+01  0.39538550217E+02  0.52872601673E+02  0.10566000000E+00 0.  1.
         13    1    4    4    0    0  0.25960912419E+02 -0.80957271896E+01 -0.24401495218E+01  0.27303392941E+02  0.10566000000E+00 0. -1.
        -13    1    4    4    0    0  0.38450071139E+01 -0.76825414751E+00 -0.52103212091E+00  0.39568842096E+01  0.10566000000E+00 0.  1.
         14    1    4    4    0    0  0.38996223323E+01 -0.94113660968E+00  0.12581489130E+00  0.40135547635E+01  0.00000000000E+00 0. -1.
<mgrwt>
<rscale>  0 0.80141563E+02</rscale>
<asrwt>0</asrwt>
<pdfrwt beam="1">  1        2 0.39571731E-02 0.80141563E+02</pdfrwt>
<pdfrwt beam="2">  1       -1 0.96038167E-02 0.80141563E+02</pdfrwt>
<totfact> 0.12988353E+05</totfact>
</mgrwt>
</event>
<event>
 8    1  0.2561077E-024  0.8183076E+02  0.7818608E-02  0.1323935E+00
         -1   -1    0    0    0  501 -0.00000000000E+00  0.00000000000E+00  0.34907626238E+02  0.34907626602E+02  0.50400000000E-02 0.  1.
          2   -1    0    0  501    0  0.00000000000E+00 -0.00000000000E+00 -0.47957092014E+02  0.47957092082E+02  0.25500000000E-02 0. -1.
         24    2    1    2    0    0  0.00000000000E+00 -0.35527136788E-14 -0.13049465776E+02  0.82864718684E+02  0.81830758555E+02 0.  0.
         66    2    3    3    0    0 -0.11149152558E+02 -0.22938896882E+02 -0.38894426781E+02  0.46553979690E+02  0.19999993361E+01 0.  0.
        -13    1    3    3    0    0  0.11149152558E+02  0.22938896882E+02  0.25844961006E+02  0.36310738995E+02  0.10566000000E+00 0.  1.
         13    1    4    4    0    0 -0.58467635680E-01 -0.39341226415E+00 -0.45011698209E+00  0.60988606081E+00  0.10566000000E+00 0.  1.
        -13    1    4    4    0    0 -0.39733959188E+01 -0.73736542510E+01 -0.13736900062E+02  0.16089507124E+02  0.10566000000E+00 0.  1.
         14    1    4    4    0    0 -0.71172890030E+01 -0.15171830367E+02 -0.24707409738E+02  0.29854586505E+02  0.00000000000E+00 0. -1.
<mgrwt>
<rscale>  0 0.81830759E+02</rscale>
<asrwt>0</asrwt>
<pdfrwt beam="1">  1        2 0.73780142E-02 0.81830759E+02</pdfrwt>
<pdfrwt beam="2">  1       -1 0.53704041E-02 0.81830759E+02</pdfrwt>
<totfact> 0.13915951E+05</totfact>
</mgrwt>
</event>
<event>
 8    1  0.2561077E-024  0.7937135E+02  0.7818608E-02  0.1330845E+00
          2   -1    0    0  501    0  0.00000000000E+00  0.00000000000E+00  0.76483749353E+03  0.76483749353E+03  0.25500000000E-02 0. -1.
         -1   -1    0    0    0  501 -0.00000000000E+00 -0.00000000000E+00 -0.20591962767E+01  0.20592024445E+01  0.50400000000E-02 0.  1.
         24    2    1    2    0    0 -0.17763568394E-14  0.00000000000E+00  0.76277829725E+03  0.76689669598E+03  0.79371352152E+02 0.  0.
         66    2    3    3    0    0  0.11767880117E+02  0.43233666944E+01  0.74518550221E+03  0.74529363825E+03  0.19999998518E+01 0.  0.
        -13    1    3    3    0    0 -0.11767880117E+02 -0.43233666944E+01  0.17592795039E+02  0.21603057731E+02  0.10566000000E+00 0.  1.
         13    1    4    4    0    0  0.42895162387E+01  0.21505324371E+01  0.24217277570E+03  0.24222033191E+03  0.10566000000E+00 0. -1.
        -13    1    4    4    0    0  0.31375977458E+01  0.10812371655E+01  0.22733798095E+03  0.22736222717E+03  0.10566000000E+00 0.  1.
         14    1    4    4    0    0  0.43407661328E+01  0.10915970918E+01  0.27567474556E+03  0.27571107917E+03  0.00000000000E+00 0. -1.
<mgrwt>
<rscale>  0 0.79371352E+02</rscale>
<asrwt>0</asrwt>
<pdfrwt beam="1">  1        2 0.11766731E+00 0.79371352E+02</pdfrwt>
<pdfrwt beam="2">  1       -1 0.31679988E-03 0.79371352E+02</pdfrwt>
<totfact> 0.34789897E+05</totfact>
</mgrwt>
</event>
<event>
 8    1  0.2561077E-024  0.8100382E+02  0.7818608E-02  0.1326227E+00
         -1   -1    0    0    0  501 -0.00000000000E+00  0.00000000000E+00  0.22817473715E+02  0.22817474271E+02  0.50400000000E-02 0.  1.
          2   -1    0    0  501    0  0.00000000000E+00 -0.00000000000E+00 -0.71892475670E+02  0.71892475715E+02  0.25500000000E-02 0. -1.
         24    2    1    2    0    0  0.00000000000E+00  0.88817841970E-15 -0.49075001955E+02  0.94709949986E+02  0.81003819722E+02 0.  0.
         66    2    3    3    0    0 -0.34347873315E+02  0.77497119978E+01 -0.47894513159E+02  0.59478725836E+02  0.19999997415E+01 0.  0.
        -13    1    3    3    0    0  0.34347873315E+02 -0.77497119978E+01 -0.11804887953E+01  0.35231224150E+02  0.10566000000E+00 0.  1.
         13    1    4    4    0    0 -0.20067260379E+02  0.44983435950E+01 -0.26502687615E+02  0.33545993040E+02  0.10566000000E+00 0. -1.
        -13    1    4    4    0    0 -0.75030972754E+01  0.19598136454E+01 -0.11006148350E+02  0.13464167400E+02  0.10566000000E+00 0.  1.
        -14    1    4    4    0    0 -0.67775156605E+01  0.12915547574E+01 -0.10385677195E+02  0.12468565395E+02  0.00000000000E+00 0.  1.
<mgrwt>
<rscale>  0 0.81003820E+02</rscale>
<asrwt>0</asrwt>
<pdfrwt beam="1">  1        2 0.11060381E-01 0.81003820E+02</pdfrwt>
<pdfrwt beam="2">  1       -1 0.35103807E-02 0.81003820E+02</pdfrwt>
<totfact> 0.15713152E+05</totfact>
</mgrwt>
</event>
<event>
 8    1  0.2561077E-024  0.7987362E+02  0.7818608E-02  0.1329410E+00
          2   -1    0    0  501    0  0.00000000000E+00  0.00000000000E+00  0.46980940547E+03  0.46980940547E+03  0.25500000000E-02 0. -1.
         -1   -1    0    0    0  501 -0.00000000000E+00 -0.00000000000E+00 -0.33948829143E+01  0.33948866554E+01  0.50400000000E-02 0.  1.
         24    2    1    2    0    0  0.00000000000E+00  0.00000000000E+00  0.46641452255E+03  0.47320429213E+03  0.79873620436E+02 0.  0.
         66    2    3    3    0    0  0.33801448055E+01  0.34507192651E+02  0.35046660297E+03  0.35218320743E+03  0.20000176835E+01 0.  0.
        -13    1    3    3    0    0 -0.33801448055E+01 -0.34507192651E+02  0.11594791958E+03  0.12102108470E+03  0.10566000000E+00 0.  1.
         13    1    4    4    0    0  0.93075037769E-01  0.30919608256E+01  0.31719643766E+02  0.31870297290E+02  0.10566000000E+00 0.  1.
        -13    1    4    4    0    0  0.12755734833E+01  0.69824147560E+01  0.66909481088E+02  0.67284998529E+02  0.10566000000E+00 0.  1.
         14    1    4    4    0    0  0.20114962844E+01  0.24432817069E+02  0.25183747812E+03  0.25302791161E+03  0.00000000000E+00 0. -1.
<mgrwt>
<rscale>  0 0.79873620E+02</rscale>
<asrwt>0</asrwt>
<pdfrwt beam="1">  1        2 0.72278376E-01 0.79873620E+02</pdfrwt>
<pdfrwt beam="2">  1       -1 0.52228993E-03 0.79873620E+02</pdfrwt>
<totfact> 0.29966188E+05</totfact>
</mgrwt>
</event>
<event>
 8    1  0.2561077E-024  0.7959893E+02  0.7818608E-02  0.1330193E+00
          2   -1    0    0  501    0  0.00000000000E+00  0.00000000000E+00  0.26789740916E+03  0.26789740917E+03  0.25500000000E-02 0. -1.
         -1   -1    0    0    0  501 -0.00000000000E+00 -0.00000000000E+00 -0.59127001698E+01  0.59127023178E+01  0.50400000000E-02 0.  1.
         24    2    1    2    0    0 -0.35527136788E-14  0.00000000000E+00  0.26198470899E+03  0.27381011149E+03  0.79598928443E+02 0.  0.
         66    2    3    3    0    0 -0.20479318852E+02  0.23899689920E+02  0.21472771729E+03  0.21703131168E+03  0.19999997346E+01 0.  0.
        -13    1    3    3    0    0  0.20479318852E+02 -0.23899689920E+02  0.47256991696E+02  0.56778799803E+02  0.10566000000E+00 0.  1.
         13    1    4    4    0    0 -0.34984719025E+01  0.35978768922E+01  0.31825103518E+02  0.32218510235E+02  0.10566000000E+00 0. -1.
        -13    1    4    4    0    0 -0.14377485124E+01  0.20520930631E+01  0.19731780975E+02  0.19890514101E+02  0.10566000000E+00 0.  1.
        -14    1    4    4    0    0 -0.15543098437E+02  0.18249719965E+02  0.16317083280E+03  0.16492228735E+03  0.00000000000E+00 0.  1.
<mgrwt>
<rscale>  0 0.79598928E+02</rscale>
<asrwt>0</asrwt>
<pdfrwt beam="1">  1        2 0.41214985E-01 0.79598928E+02</pdfrwt>
<pdfrwt beam="2">  1       -1 0.90964637E-03 0.79598928E+02</pdfrwt>
<totfact> 0.24795565E+05</totfact>
</mgrwt>
</event>
<event>
 8    1  0.2561077E-024  0.7574180E+02  0.7818608E-02  0.1341589E+00
          2   -1    0    0  501    0  0.00000000000E+00  0.00000000000E+00  0.32170029592E+03  0.32170029593E+03  0.25500000000E-02 0. -1.
         -1   -1    0    0    0  501 -0.00000000000E+00 -0.00000000000E+00 -0.44582004988E+01  0.44582033476E+01  0.50400000000E-02 0.  1.
         24    2    1    2    0    0  0.00000000000E+00  0.35527136788E-14  0.31724209542E+03  0.32615849928E+03  0.75741795225E+02 0.  0.
         66    2    3    3    0    0 -0.85833946971E+01 -0.20176236444E+02  0.29155789229E+03  0.29238802940E+03  0.19999987812E+01 0.  0.
        -13    1    3    3    0    0  0.85833946971E+01  0.20176236444E+02  0.25684203130E+02  0.33770469882E+02  0.10566000000E+00 0.  1.
         13    1    4    4    0    0 -0.52556791682E+01 -0.11614423007E+02  0.16823823024E+03  0.16872056859E+03  0.10566000000E+00 0. -1.
        -13    1    4    4    0    0 -0.22900775349E+01 -0.65162812137E+01  0.85704720149E+02  0.85982652877E+02  0.10566000000E+00 0.  1.
         14    1    4    4    0    0 -0.10376379940E+01 -0.20455322236E+01  0.37614941899E+02  0.37684807931E+02  0.00000000000E+00 0. -1.
<mgrwt>
<rscale>  0 0.75741795E+02</rscale>
<asrwt>0</asrwt>
<pdfrwt beam="1">  1        2 0.49492363E-01 0.75741795E+02</pdfrwt>
<pdfrwt beam="2">  1       -1 0.68587709E-03 0.75741795E+02</pdfrwt>
<totfact> 0.30161962E+05</totfact>
</mgrwt>
</event>
<event>
 8    1  0.2561077E-024  0.8008987E+02  0.7818608E-02  0.1328797E+00
          2   -1    0    0  501    0  0.00000000000E+00  0.00000000000E+00  0.93104020919E+02  0.93104020954E+02  0.25500000000E-02 0. -1.
         -1   -1    0    0    0  501 -0.00000000000E+00 -0.00000000000E+00 -0.17223712309E+02  0.17223713047E+02  0.50400000000E-02 0.  1.
         24    2    1    2    0    0 -0.44408920985E-15  0.00000000000E+00  0.75880308610E+02  0.11032773400E+03  0.80089872362E+02 0.  0.
         66    2    3    3    0    0  0.34978569160E+01  0.21419344951E+02  0.84282362086E+02  0.87054809651E+02  0.19999958527E+01 0.  0.
        -13    1    3    3    0    0 -0.34978569160E+01 -0.21419344951E+02 -0.84020534762E+01  0.23272924350E+02  0.10566000000E+00 0.  1.
         13    1    4    4    0    0  0.18846838222E+01  0.10532756707E+02  0.39907881197E+02  0.41317564578E+02  0.10566000000E+00 0. -1.
        -13    1    4    4    0    0  0.10432860542E+00  0.48316238199E+01  0.18537605969E+02  0.19157491284E+02  0.10566000000E+00 0.  1.
        -14    1    4    4    0    0  0.15088444883E+01  0.60549644241E+01  0.25836874920E+02  0.26579753789E+02  0.00000000000E+00 0.  1.
<mgrwt>
<rscale>  0 0.80089872E+02</rscale>
<asrwt>0</asrwt>
<pdfrwt beam="1">  1        2 0.14323696E-01 0.80089872E+02</pdfrwt>
<pdfrwt beam="2">  1       -1 0.26498019E-02 0.80089872E+02</pdfrwt>
<totfact> 0.17327204E+05</totfact>
</mgrwt>
</event>
<event>
 8    1  0.2561077E-024  0.8035282E+02  0.7818608E-02  0.1328053E+00
          2   -1    0    0  501    0  0.00000000000E+00  0.00000000000E+00  0.35675892048E+02  0.35675892139E+02  0.25500000000E-02 0. -1.
         -1   -1    0    0    0  501 -0.00000000000E+00 -0.00000000000E+00 -0.45244671539E+02  0.45244671820E+02  0.50400000000E-02 0.  1.
         24    2    1    2    0    0  0.00000000000E+00 -0.17763568394E-14 -0.95687794910E+01  0.80920563959E+02  0.80352822791E+02 0.  0.
         66    2    3    3    0    0 -0.38142247404E+02  0.11201156339E+02 -0.10470098323E+02  0.41157258261E+02  0.20000020868E+01 0.  0.
        -13    1    3    3    0    0  0.38142247404E+02 -0.11201156339E+02  0.90131883225E+00  0.39763305698E+02  0.10566000000E+00 0.  1.
         13    1    4    4    0    0 -0.23709456450E+02  0.74030093911E+01 -0.71414463631E+01  0.25844811731E+02  0.10566000000E+00 0. -1.
        -13    1    4    4    0    0 -0.14279037247E+02  0.37577185029E+01 -0.33759061122E+01  0.15146592329E+02  0.10566000000E+00 0.  1.
        -14    1    4    4    0    0 -0.15375370653E+00  0.40428444560E-01  0.47254152118E-01  0.16585420192E+00  0.00000000000E+00 0.  1.
<mgrwt>
<rscale>  0 0.80352823E+02</rscale>
<asrwt>0</asrwt>
<pdfrwt beam="1">  1        2 0.54885988E-02 0.80352823E+02</pdfrwt>
<pdfrwt beam="2">  1       -1 0.69607187E-02 0.80352823E+02</pdfrwt>
<totfact> 0.13758102E+05</totfact>
</mgrwt>
</event>
<event>
 8    1  0.2561077E-024  0.8154924E+02  0.7818608E-02  0.1324712E+00
          2   -1    0    0  501    0  0.00000000000E+00  0.00000000000E+00  0.14473408339E+04  0.14473408339E+04  0.25500000000E-02 0. -1.
         -1   -1    0    0    0  501 -0.00000000000E+00 -0.00000000000E+00 -0.11487007919E+01  0.11487118485E+01  0.50400000000E-02 0.  1.
         24    2    1    2    0    0  0.00000000000E+00 -0.17763568394E-14  0.14461921331E+04  0.14484895458E+04  0.81549238410E+02 0.  0.
         66    2    3    3    0    0  0.11722591621E+01 -0.14191267580E+02  0.14017085308E+04  0.14017822839E+04  0.20000012956E+01 0.  0.
        -13    1    3    3    0    0 -0.11722591621E+01  0.14191267580E+02  0.44483602370E+02  0.46707261864E+02  0.10566000000E+00 0.  1.
         13    1    4    4    0    0  0.10620679307E+01 -0.11764775320E+02  0.10950877682E+04  0.10951514823E+04  0.10566000000E+00 0. -1.
        -13    1    4    4    0    0 -0.57137746253E-01 -0.52444452458E+00  0.90749646521E+02  0.90751241394E+02  0.10566000000E+00 0.  1.
         14    1    4    4    0    0  0.16732897773E+00 -0.19020477347E+01  0.21587111600E+03  0.21587956019E+03  0.00000000000E+00 0. -1.
<mgrwt>
<rscale>  0 0.81549238E+02</rscale>
<asrwt>0</asrwt>
<pdfrwt beam="1">  1        2 0.22266695E+00 0.81549238E+02</pdfrwt>
<pdfrwt beam="2">  1       -1 0.17672474E-03 0.81549238E+02</pdfrwt>
<totfact> 0.32032767E+05</totfact>
</mgrwt>
</event>
<event>
 8    1  0.2561077E-024  0.8015976E+02  0.7818608E-02  0.1328599E+00
          2   -1    0    0  501    0  0.00000000000E+00  0.00000000000E+00  0.23206695010E+03  0.23206695011E+03  0.25500000000E-02 0. -1.
         -1   -1    0    0    0  501 -0.00000000000E+00 -0.00000000000E+00 -0.69221262083E+01  0.69221280431E+01  0.50400000000E-02 0.  1.
         24    2    1    2    0    0  0.00000000000E+00  0.00000000000E+00  0.22514482389E+03  0.23898907815E+03  0.80159763928E+02 0.  0.
         66    2    3    3    0    0 -0.94863457775E+01 -0.73445297250E+01  0.22657969906E+03  0.22690591202E+03  0.20000023687E+01 0.  0.
        -13    1    3    3    0    0  0.94863457775E+01  0.73445297250E+01 -0.14348751708E+01  0.12083166137E+02  0.10566000000E+00 0.  1.
         13    1    4    4    0    0 -0.40165847855E+01 -0.32217486568E+01  0.90341107526E+02  0.90487786417E+02  0.10566000000E+00 0. -1.
        -13    1    4    4    0    0 -0.81891006990E+00 -0.59901477790E+00  0.12288690637E+02  0.12330957546E+02  0.10566000000E+00 0.  1.
         14    1    4    4    0    0 -0.46508509221E+01 -0.35237662904E+01  0.12394990090E+03  0.12408716805E+03  0.00000000000E+00 0. -1.
<mgrwt>
<rscale>  0 0.80159764E+02</rscale>
<asrwt>0</asrwt>
<pdfrwt beam="1">  1        2 0.35702603E-01 0.80159764E+02</pdfrwt>
<pdfrwt beam="2">  1       -1 0.10649428E-02 0.80159764E+02</pdfrwt>
<totfact> 0.23120928E+05</totfact>
</mgrwt>
</event>
<event>
 8    1  0.2561077E-024  0.7946984E+02  0.7818608E-02  0.1330563E+00
          2   -1    0    0  501    0  0.00000000000E+00  0.00000000000E+00  0.11903431154E+04  0.11903431154E+04  0.25500000000E-02 0. -1.
         -1   -1    0    0    0  501 -0.00000000000E+00 -0.00000000000E+00 -0.13263890068E+01  0.13263985822E+01  0.50400000000E-02 0.  1.
         24    2    1    2    0    0  0.88817841970E-15  0.00000000000E+00  0.11890167264E+04  0.11916695140E+04  0.79469836532E+02 0.  0.
         66    2    3    3    0    0  0.79236925071E+01  0.15436426223E+02  0.11304871140E+04  0.11306220337E+04  0.20000064286E+01 0.  0.
        -13    1    3    3    0    0 -0.79236925071E+01 -0.15436426223E+02  0.58529612415E+02  0.61047480299E+02  0.10566000000E+00 0.  1.
         13    1    4    4    0    0  0.44549373349E+01  0.80033178571E+01  0.59288659397E+03  0.59295735432E+03  0.10566000000E+00 0. -1.
        -13    1    4    4    0    0  0.27615572417E+01  0.44531996643E+01  0.34527522664E+03  0.34531500182E+03  0.10566000000E+00 0.  1.
        -14    1    4    4    0    0  0.70719793049E+00  0.29799087014E+01  0.19232529341E+03  0.19234967759E+03  0.00000000000E+00 0.  1.
<mgrwt>
<rscale>  0 0.79469837E+02</rscale>
<asrwt>0</asrwt>
<pdfrwt beam="1">  1        2 0.18313083E+00 0.79469837E+02</pdfrwt>
<pdfrwt beam="2">  1       -1 0.20405933E-03 0.79469837E+02</pdfrwt>
<totfact> 0.35678578E+05</totfact>
</mgrwt>
</event>
<event>
 8    1  0.2561077E-024  0.8163845E+02  0.7818608E-02  0.1324465E+00
         -1   -1    0    0    0  501 -0.00000000000E+00  0.00000000000E+00  0.84353720356E+01  0.84353735413E+01  0.50400000000E-02 0.  1.
          2   -1    0    0  501    0  0.00000000000E+00 -0.00000000000E+00 -0.19752641784E+03  0.19752641785E+03  0.25500000000E-02 0. -1.
         24    2    1    2    0    0  0.00000000000E+00  0.00000000000E+00 -0.18909104580E+03  0.20596179140E+03  0.81638446288E+02 0.  0.
         66    2    3    3    0    0 -0.69172537021E+01  0.39456666753E+02 -0.11406686911E+03  0.12091289250E+03  0.19999988756E+01 0.  0.
        -13    1    3    3    0    0  0.69172537021E+01 -0.39456666753E+02 -0.75024176696E+02  0.85048898893E+02  0.10566000000E+00 0.  1.
         13    1    4    4    0    0 -0.16475254499E+01  0.84517541623E+01 -0.23497661925E+02  0.25025941910E+02  0.10566000000E+00 0. -1.
        -13    1    4    4    0    0 -0.14545549351E+01  0.52911766344E+01 -0.16432767059E+02  0.17325105411E+02  0.10566000000E+00 0.  1.
         14    1    4    4    0    0 -0.38151733171E+01  0.25713735956E+02 -0.74136440123E+02  0.78561845182E+02  0.00000000000E+00 0. -1.
<mgrwt>
<rscale>  0 0.81638446E+02</rscale>
<asrwt>0</asrwt>
<pdfrwt beam="1">  1        2 0.30388676E-01 0.81638446E+02</pdfrwt>
<pdfrwt beam="2">  1       -1 0.12977498E-02 0.81638446E+02</pdfrwt>
<totfact> 0.20818052E+05</totfact>
</mgrwt>
</event>
<event>
 8    1  0.2561077E-024  0.8326710E+02  0.7818608E-02  0.1320027E+00
         -1   -1    0    0    0  501 -0.00000000000E+00  0.00000000000E+00  0.17256637687E+01  0.17256711287E+01  0.50400000000E-02 0.  1.
          2   -1    0    0  501    0  0.00000000000E+00 -0.00000000000E+00 -0.10044533492E+04  0.10044533492E+04  0.25500000000E-02 0. -1.
         24    2    1    2    0    0  0.35527136788E-14  0.00000000000E+00 -0.10027276855E+04  0.10061790204E+04  0.83267099301E+02 0.  0.
         66    2    3    3    0    0  0.16626576171E+02 -0.26317958746E+02 -0.83527535663E+03  0.83585764301E+03  0.19999996306E+01 0.  0.
        -13    1    3    3    0    0 -0.16626576171E+02  0.26317958746E+02 -0.16745232883E+03  0.17032137735E+03  0.10566000000E+00 0.  1.
         13    1    4    4    0    0  0.33827954782E+01 -0.51702106262E+01 -0.15763493772E+03  0.15775601141E+03  0.10566000000E+00 0.  1.
        -13    1    4    4    0    0  0.76813850964E+01 -0.10738377077E+02 -0.35848006784E+03  0.35872313365E+03  0.10566000000E+00 0. -1.
        -14    1    4    4    0    0  0.55623955964E+01 -0.10409371042E+02 -0.31916035108E+03  0.31937849795E+03  0.00000000000E+00 0.  1.
<mgrwt>
<rscale>  0 0.83267099E+02</rscale>
<asrwt>0</asrwt>
<pdfrwt beam="1">  1        2 0.15453082E+00 0.83267099E+02</pdfrwt>
<pdfrwt beam="2">  1       -1 0.26548810E-03 0.83267099E+02</pdfrwt>
<totfact> 0.31752818E+05</totfact>
</mgrwt>
</event>
<event>
 8    1  0.2561077E-024  0.8027284E+02  0.7818608E-02  0.1328279E+00
          2   -1    0    0  501    0  0.00000000000E+00  0.00000000000E+00  0.17765145351E+03  0.17765145353E+03  0.25500000000E-02 0. -1.
         -1   -1    0    0    0  501 -0.00000000000E+00 -0.00000000000E+00 -0.90679369931E+01  0.90679383938E+01  0.50400000000E-02 0.  1.
         24    2    1    2    0    0  0.00000000000E+00  0.00000000000E+00  0.16858351652E+03  0.18671939192E+03  0.80272842722E+02 0.  0.
         66    2    3    3    0    0  0.20128872074E+01  0.27491878387E+02  0.15212261734E+03  0.15461289012E+03  0.19999983396E+01 0.  0.
        -13    1    3    3    0    0 -0.20128872074E+01 -0.27491878387E+02  0.16460899179E+02  0.32106501802E+02  0.10566000000E+00 0.  1.
         13    1    4    4    0    0 -0.26998784271E+00  0.35692838032E+01  0.19115827278E+02  0.19448359747E+02  0.10566000000E+00 0. -1.
        -13    1    4    4    0    0  0.13302715124E+01  0.86156369788E+01  0.48374335492E+02  0.49153700992E+02  0.10566000000E+00 0.  1.
         14    1    4    4    0    0  0.95260353775E+00  0.15306957605E+02  0.84632454569E+02  0.86010829382E+02  0.00000000000E+00 0. -1.
<mgrwt>
<rscale>  0 0.80272843E+02</rscale>
<asrwt>0</asrwt>
<pdfrwt beam="1">  1        2 0.27330992E-01 0.80272843E+02</pdfrwt>
<pdfrwt beam="2">  1       -1 0.13950674E-02 0.80272843E+02</pdfrwt>
<totfact> 0.20990037E+05</totfact>
</mgrwt>
</event>
<event>
 8    1  0.2561077E-024  0.7938422E+02  0.7818608E-02  0.1330808E+00
          2   -1    0    0  501    0  0.00000000000E+00  0.00000000000E+00  0.97232163443E+01  0.97232166787E+01  0.25500000000E-02 0. -1.
         -1   -1    0    0    0  501 -0.00000000000E+00 -0.00000000000E+00 -0.16203111878E+03  0.16203111886E+03  0.50400000000E-02 0.  1.
         24    2    1    2    0    0  0.00000000000E+00 -0.17763568394E-14 -0.15230790243E+03  0.17175433554E+03  0.79384221552E+02 0.  0.
         66    2    3    3    0    0 -0.35128327208E+02 -0.83885899046E+01 -0.11169354470E+03  0.11740449624E+03  0.19999993173E+01 0.  0.
        -13    1    3    3    0    0  0.35128327208E+02  0.83885899046E+01 -0.40614357733E+02  0.54349839293E+02  0.10566000000E+00 0.  1.
         13    1    4    4    0    0 -0.45658569507E+00 -0.21563854497E-01 -0.15141696089E+01  0.15851842596E+01  0.10566000000E+00 0.  1.
        -13    1    4    4    0    0 -0.48066874626E+01 -0.76758396120E+00 -0.13867180342E+02  0.14697050186E+02  0.10566000000E+00 0.  1.
         14    1    4    4    0    0 -0.29865054050E+02 -0.75994420889E+01 -0.96312194750E+02  0.10112226180E+03  0.00000000000E+00 0. -1.
<mgrwt>
<rscale>  0 0.79384222E+02</rscale>
<asrwt>0</asrwt>
<pdfrwt beam="1">  1        2 0.14958796E-02 0.79384222E+02</pdfrwt>
<pdfrwt beam="2">  1       -1 0.24927863E-01 0.79384222E+02</pdfrwt>
<totfact> 0.10781760E+05</totfact>
</mgrwt>
</event>
<event>
 8    1  0.2561077E-024  0.7999394E+02  0.7818608E-02  0.1329069E+00
          2   -1    0    0  501    0  0.00000000000E+00  0.00000000000E+00  0.62917832902E+03  0.62917832902E+03  0.25500000000E-02 0. -1.
         -1   -1    0    0    0  501 -0.00000000000E+00 -0.00000000000E+00 -0.25426115326E+01  0.25426165278E+01  0.50400000000E-02 0.  1.
         24    2    1    2    0    0  0.00000000000E+00 -0.35527136788E-14  0.62663571748E+03  0.63172094555E+03  0.79993941141E+02 0.  0.
         66    2    3    3    0    0  0.18833637245E+02 -0.15116219468E+02  0.56505151523E+03  0.56557088044E+03  0.19999883579E+01 0.  0.
        -13    1    3    3    0    0 -0.18833637245E+02  0.15116219468E+02  0.61584202252E+02  0.66150065109E+02  0.10566000000E+00 0.  1.
         13    1    4    4    0    0  0.40594281208E+01 -0.32676274799E+01  0.10859740006E+03  0.10872241172E+03  0.10566000000E+00 0. -1.
        -13    1    4    4    0    0  0.57331024607E+01 -0.53209391024E+01  0.18350674013E+03  0.18367339409E+03  0.10566000000E+00 0.  1.
         14    1    4    4    0    0  0.90411066634E+01 -0.65276528854E+01  0.27294737503E+03  0.27317507463E+03  0.00000000000E+00 0. -1.
<mgrwt>
<rscale>  0 0.79993941E+02</rscale>
<asrwt>0</asrwt>
<pdfrwt beam="1">  1        2 0.96796627E-01 0.79993941E+02</pdfrwt>
<pdfrwt beam="2">  1       -1 0.39117155E-03 0.79993941E+02</pdfrwt>
<totfact> 0.32587324E+05</totfact>
</mgrwt>
</event>
<event>
 8    1  0.2561077E-024  0.8051597E+02  0.7818608E-02  0.1327594E+00
          2   -1    0    0  501    0  0.00000000000E+00  0.00000000000E+00  0.17475294866E+03  0.17475294868E+03  0.25500000000E-02 0. -1.
         -1   -1    0    0    0  501 -0.00000000000E+00 -0.00000000000E+00 -0.92742658834E+01  0.92742672528E+01  0.50400000000E-02 0.  1.
         24    2    1    2    0    0 -0.35527136788E-14  0.35527136788E-14  0.16547868278E+03  0.18402721593E+03  0.80515972018E+02 0.  0.
         66    2    3    3    0    0 -0.19247048345E+02 -0.19437473795E+02  0.15022263073E+03  0.15270593649E+03  0.20000001080E+01 0.  0.
        -13    1    3    3    0    0  0.19247048345E+02  0.19437473795E+02  0.15256052054E+02  0.31321279441E+02  0.10566000000E+00 0.  1.
         13    1    4    4    0    0 -0.53901984420E+01 -0.60116404105E+01  0.41712547472E+02  0.42486960827E+02  0.10566000000E+00 0. -1.
        -13    1    4    4    0    0 -0.12798117899E+02 -0.12195689678E+02  0.97478927723E+02  0.99069062691E+02  0.10566000000E+00 0.  1.
         14    1    4    4    0    0 -0.10587320041E+01 -0.12301437073E+01  0.11031155531E+02  0.11149912975E+02  0.00000000000E+00 0. -1.
<mgrwt>
<rscale>  0 0.80515972E+02</rscale>
<asrwt>0</asrwt>
<pdfrwt beam="1">  1        2 0.26885070E-01 0.80515972E+02</pdfrwt>
<pdfrwt beam="2">  1       -1 0.14268102E-02 0.80515972E+02</pdfrwt>
<totfact> 0.20707518E+05</totfact>
</mgrwt>
</event>
<event>
 8    1  0.2561077E-024  0.8262367E+02  0.7818608E-02  0.1321767E+00
          2   -1    0    0  501    0  0.00000000000E+00  0.00000000000E+00  0.77357508321E+01  0.77357512524E+01  0.25500000000E-02 0. -1.
         -1   -1    0    0    0  501 -0.00000000000E+00 -0.00000000000E+00 -0.22062079252E+03  0.22062079258E+03  0.50400000000E-02 0.  1.
         24    2    1    2    0    0  0.17763568394E-14 -0.71054273576E-14 -0.21288504169E+03  0.22835654383E+03  0.82623665711E+02 0.  0.
         66    2    3    3    0    0  0.14035518344E+02 -0.37187280835E+02 -0.75632404169E+02  0.85464321154E+02  0.19999997342E+01 0.  0.
        -13    1    3    3    0    0 -0.14035518344E+02  0.37187280835E+02 -0.13725263752E+03  0.14289222268E+03  0.10566000000E+00 0.  1.
         13    1    4    4    0    0  0.29124818573E+01 -0.92297187158E+01 -0.19232843405E+02  0.21530993651E+02  0.10566000000E+00 0. -1.
        -13    1    4    4    0    0  0.51421170713E+00 -0.16062588489E+01 -0.27611534764E+01  0.32372231503E+01  0.10566000000E+00 0.  1.
         14    1    4    4    0    0  0.10608824779E+02 -0.26351303271E+02 -0.53638407288E+02  0.60696104353E+02  0.00000000000E+00 0. -1.
<mgrwt>
<rscale>  0 0.82623666E+02</rscale>
<asrwt>0</asrwt>
<pdfrwt beam="1">  1        2 0.11901157E-02 0.82623666E+02</pdfrwt>
<pdfrwt beam="2">  1       -1 0.33941656E-01 0.82623666E+02</pdfrwt>
<totfact> 0.88958952E+04</totfact>
</mgrwt>
</event>
<event>
 8    1  0.2561077E-024  0.7993917E+02  0.7818608E-02  0.1329224E+00
         -1   -1    0    0    0  501 -0.00000000000E+00  0.00000000000E+00  0.14552715078E+03  0.14552715087E+03  0.50400000000E-02 0.  1.
          2   -1    0    0  501    0  0.00000000000E+00 -0.00000000000E+00 -0.10977799084E+02  0.10977799380E+02  0.25500000000E-02 0. -1.
         24    2    1    2    0    0  0.00000000000E+00  0.35527136788E-14  0.13454935170E+03  0.15650495025E+03  0.79939173187E+02 0.  0.
         66    2    3    3    0    0 -0.20742047821E+02 -0.31621792175E+02  0.42138365213E+02  0.56655203753E+02  0.20000003025E+01 0.  0.
        -13    1    3    3    0    0  0.20742047821E+02  0.31621792175E+02  0.92410986483E+02  0.99849746494E+02  0.10566000000E+00 0.  1.
         13    1    4    4    0    0 -0.11428551042E+02 -0.16323502556E+02  0.23126080958E+02  0.30526960201E+02  0.10566000000E+00 0. -1.
        -13    1    4    4    0    0 -0.50510631137E+01 -0.79730210262E+01  0.96155631107E+01  0.13474142675E+02  0.10566000000E+00 0.  1.
         14    1    4    4    0    0 -0.42624336656E+01 -0.73252685935E+01  0.93967211448E+01  0.12654100877E+02  0.00000000000E+00 0. -1.
<mgrwt>
<rscale>  0 0.79939173E+02</rscale>
<asrwt>0</asrwt>
<pdfrwt beam="1">  1        2 0.16888923E-02 0.79939173E+02</pdfrwt>
<pdfrwt beam="2">  1       -1 0.22388790E-01 0.79939173E+02</pdfrwt>
<totfact> 0.10891072E+05</totfact>
</mgrwt>
</event>
<event>
 8    1  0.2561077E-024  0.7926601E+02  0.7818608E-02  0.1331147E+00
          2   -1    0    0  501    0  0.00000000000E+00  0.00000000000E+00  0.38744168418E+03  0.38744168419E+03  0.25500000000E-02 0. -1.
         -1   -1    0    0    0  501 -0.00000000000E+00 -0.00000000000E+00 -0.40542215558E+01  0.40542246885E+01  0.50400000000E-02 0.  1.
         24    2    1    2    0    0 -0.88817841970E-15 -0.35527136788E-14  0.38338746262E+03  0.39149590887E+03  0.79266008919E+02 0.  0.
         66    2    3    3    0    0 -0.54345575118E+01 -0.23345507891E+02  0.34754895766E+03  0.34838028808E+03  0.20000006377E+01 0.  0.
        -13    1    3    3    0    0  0.54345575118E+01  0.23345507891E+02  0.35838504964E+02  0.43115620790E+02  0.10566000000E+00 0.  1.
         13    1    4    4    0    0 -0.62838507967E+00 -0.38338464225E+01  0.48115870386E+02  0.48272573923E+02  0.10566000000E+00 0. -1.
        -13    1    4    4    0    0 -0.34492097091E+00 -0.19512114103E+01  0.27013395427E+02  0.27086175311E+02  0.10566000000E+00 0. -1.
         14    1    4    4    0    0 -0.44612514613E+01 -0.17560450058E+02  0.27241969185E+03  0.27302153885E+03  0.00000000000E+00 0. -1.
<mgrwt>
<rscale>  0 0.79266009E+02</rscale>
<asrwt>0</asrwt>
<pdfrwt beam="1">  1        2 0.59606434E-01 0.79266009E+02</pdfrwt>
<pdfrwt beam="2">  1       -1 0.62372642E-03 0.79266009E+02</pdfrwt>
<totfact> 0.28619839E+05</totfact>
</mgrwt>
</event>
<event>
 8    1  0.2561077E-024  0.7762915E+02  0.7818608E-02  0.1335917E+00
          2   -1    0    0  501    0  0.00000000000E+00  0.00000000000E+00  0.83778667998E+02  0.83778668037E+02  0.25500000000E-02 0. -1.
         -1   -1    0    0    0  501 -0.00000000000E+00 -0.00000000000E+00 -0.17982753959E+02  0.17982754665E+02  0.50400000000E-02 0.  1.
         24    2    1    2    0    0 -0.17763568394E-14 -0.35527136788E-14  0.65795914040E+02  0.10176142270E+03  0.77629149461E+02 0.  0.
         66    2    3    3    0    0 -0.15744978690E+02 -0.20393275229E+02  0.70929793045E+02  0.75490566108E+02  0.20000003226E+01 0.  0.
        -13    1    3    3    0    0  0.15744978690E+02  0.20393275229E+02 -0.51338790054E+01  0.26270856595E+02  0.10566000000E+00 0.  1.
         13    1    4    4    0    0 -0.20849656788E+01 -0.24389302833E+01  0.78503872728E+01  0.84814625612E+01  0.10566000000E+00 0. -1.
        -13    1    4    4    0    0 -0.34712890585E+01 -0.38815665580E+01  0.13195527695E+02  0.14186244106E+02  0.10566000000E+00 0.  1.
         14    1    4    4    0    0 -0.10188723953E+02 -0.14072778388E+02  0.49883878077E+02  0.52822859440E+02  0.00000000000E+00 0. -1.
<mgrwt>
<rscale>  0 0.77629149E+02</rscale>
<asrwt>0</asrwt>
<pdfrwt beam="1">  1        2 0.12889026E-01 0.77629149E+02</pdfrwt>
<pdfrwt beam="2">  1       -1 0.27665776E-02 0.77629149E+02</pdfrwt>
<totfact> 0.18319016E+05</totfact>
</mgrwt>
</event>
<event>
 8    1  0.2561077E-024  0.7937148E+02  0.7818608E-02  0.1330845E+00
          2   -1    0    0  501    0  0.00000000000E+00  0.00000000000E+00  0.47789663778E+03  0.47789663779E+03  0.25500000000E-02 0. -1.
         -1   -1    0    0    0  501 -0.00000000000E+00 -0.00000000000E+00 -0.32956019343E+01  0.32956057881E+01  0.50400000000E-02 0.  1.
         24    2    1    2    0    0  0.00000000000E+00  0.00000000000E+00  0.47460103585E+03  0.48119224358E+03  0.79371481345E+02 0.  0.
         66    2    3    3    0    0 -0.11957681598E+02  0.32578530608E+02  0.35384607923E+03  0.35554942637E+03  0.19999985920E+01 0.  0.
        -13    1    3    3    0    0  0.11957681598E+02 -0.32578530608E+02  0.12075495661E+03  0.12564281721E+03  0.10566000000E+00 0.  1.
         13    1    4    4    0    0 -0.41295549355E+01  0.12115466290E+02  0.12546886372E+03  0.12612012002E+03  0.10566000000E+00 0. -1.
        -13    1    4    4    0    0 -0.10581713643E+01  0.39094279384E+01  0.39477352503E+02  0.39684705846E+02  0.10566000000E+00 0.  1.
         14    1    4    4    0    0 -0.67699552980E+01  0.16553636380E+02  0.18889986301E+03  0.18974460050E+03  0.00000000000E+00 0. -1.
<mgrwt>
<rscale>  0 0.79371481E+02</rscale>
<asrwt>0</asrwt>
<pdfrwt beam="1">  1        2 0.73522543E-01 0.79371481E+02</pdfrwt>
<pdfrwt beam="2">  1       -1 0.50701609E-03 0.79371481E+02</pdfrwt>
<totfact> 0.30633683E+05</totfact>
</mgrwt>
</event>
<event>
 8    1  0.2561077E-024  0.8097018E+02  0.7818608E-02  0.1326321E+00
          2   -1    0    0  501    0  0.00000000000E+00  0.00000000000E+00  0.10263382766E+03  0.10263382769E+03  0.25500000000E-02 0. -1.
         -1   -1    0    0    0  501 -0.00000000000E+00 -0.00000000000E+00 -0.15969809158E+02  0.15969809953E+02  0.50400000000E-02 0.  1.
         24    2    1    2    0    0  0.44408920985E-15  0.71054273576E-14  0.86664018498E+02  0.11860363764E+03  0.80970184385E+02 0.  0.
         66    2    3    3    0    0  0.20611159652E+01  0.40193409172E+02  0.49447247661E+02  0.63787056796E+02  0.19999934173E+01 0.  0.
        -13    1    3    3    0    0 -0.20611159652E+01 -0.40193409172E+02  0.37216770838E+02  0.54816580845E+02  0.10566000000E+00 0.  1.
         13    1    4    4    0    0  0.69740550666E+00  0.48746292902E+01  0.64215636386E+01  0.80929616802E+01  0.10566000000E+00 0. -1.
        -13    1    4    4    0    0  0.10454280795E+01  0.33576623011E+02  0.40898646276E+02  0.52926297470E+02  0.10566000000E+00 0.  1.
        -14    1    4    4    0    0  0.31828237901E+00  0.17421568706E+01  0.21270377462E+01  0.27677976458E+01  0.00000000000E+00 0.  1.
<mgrwt>
<rscale>  0 0.80970184E+02</rscale>
<asrwt>0</asrwt>
<pdfrwt beam="1">  1        2 0.15789819E-01 0.80970184E+02</pdfrwt>
<pdfrwt beam="2">  1       -1 0.24568939E-02 0.80970184E+02</pdfrwt>
<totfact> 0.17288520E+05</totfact>
</mgrwt>
</event>
<event>
 8    1  0.2561077E-024  0.7946671E+02  0.7818608E-02  0.1330572E+00
         -1   -1    0    0    0  501 -0.00000000000E+00  0.00000000000E+00  0.38874156852E+02  0.38874157179E+02  0.50400000000E-02 0.  1.
          2   -1    0    0  501    0  0.00000000000E+00 -0.00000000000E+00 -0.40611546933E+02  0.40611547013E+02  0.25500000000E-02 0. -1.
         24    2    1    2    0    0  0.00000000000E+00  0.00000000000E+00 -0.17373900806E+01  0.79485704192E+02  0.79466714080E+02 0.  0.
         66    2    3    3    0    0 -0.33175220305E+02 -0.17840872576E+02 -0.13435793647E+02  0.40042633995E+02  0.20000024479E+01 0.  0.
        -13    1    3    3    0    0  0.33175220305E+02  0.17840872576E+02  0.11698403567E+02  0.39443070197E+02  0.10566000000E+00 0.  1.
         13    1    4    4    0    0 -0.71741970231E+01 -0.44124730863E+01 -0.34278856825E+01  0.90939862520E+01  0.10566000000E+00 0. -1.
        -13    1    4    4    0    0 -0.11815005700E+02 -0.63193933299E+01 -0.40275902123E+01  0.13991488081E+02  0.10566000000E+00 0.  1.
         14    1    4    4    0    0 -0.14186017581E+02 -0.71090061596E+01 -0.59803177526E+01  0.16957159662E+02  0.00000000000E+00 0. -1.
<mgrwt>
<rscale>  0 0.79466714E+02</rscale>
<asrwt>0</asrwt>
<pdfrwt beam="1">  1        2 0.62479304E-02 0.79466714E+02</pdfrwt>
<pdfrwt beam="2">  1       -1 0.59806395E-02 0.79466714E+02</pdfrwt>
<totfact> 0.14566367E+05</totfact>
</mgrwt>
</event>
<event>
 8    1  0.2561077E-024  0.7770116E+02  0.7818608E-02  0.1335705E+00
         -1   -1    0    0    0  501 -0.00000000000E+00  0.00000000000E+00  0.82824879720E+00  0.82826413158E+00  0.50400000000E-02 0.  1.
          2   -1    0    0  501    0  0.00000000000E+00 -0.00000000000E+00 -0.18223433867E+04  0.18223433867E+04  0.25500000000E-02 0. -1.
         24    2    1    2    0    0  0.00000000000E+00  0.88817841970E-15 -0.18215151379E+04  0.18231716509E+04  0.77701163399E+02 0.  0.
         66    2    3    3    0    0 -0.89849863562E+01 -0.62055908472E+01 -0.17855658890E+04  0.17856003986E+04  0.19999988043E+01 0.  0.
        -13    1    3    3    0    0  0.89849863562E+01  0.62055908472E+01 -0.35949248893E+02  0.37571252276E+02  0.10566000000E+00 0.  1.
         13    1    4    4    0    0 -0.15831293105E+00  0.21265067521E-01 -0.43136888739E+02  0.43137313886E+02  0.10566000000E+00 0.  1.
        -13    1    4    4    0    0 -0.27676964320E+01 -0.14172899681E+01 -0.57991623716E+03  0.57992458315E+03  0.10566000000E+00 0. -1.
        -14    1    4    4    0    0 -0.60589769931E+01 -0.48095659466E+01 -0.11625127632E+04  0.11625385016E+04  0.00000000000E+00 0.  1.
<mgrwt>
<rscale>  0 0.77701163E+02</rscale>
<asrwt>0</asrwt>
<pdfrwt beam="1">  1        2 0.28035731E+00 0.77701163E+02</pdfrwt>
<pdfrwt beam="2">  1       -1 0.12742553E-03 0.77701163E+02</pdfrwt>
<totfact> 0.32317658E+05</totfact>
</mgrwt>
</event>
<event>
 8    1  0.2561077E-024  0.7984843E+02  0.7818608E-02  0.1329482E+00
         -1   -1    0    0    0  501 -0.00000000000E+00  0.00000000000E+00  0.37972475789E+03  0.37972475792E+03  0.50400000000E-02 0.  1.
          2   -1    0    0  501    0  0.00000000000E+00 -0.00000000000E+00 -0.41976267359E+01  0.41976275105E+01  0.25500000000E-02 0. -1.
         24    2    1    2    0    0 -0.71054273576E-14  0.00000000000E+00  0.37552713115E+03  0.38392238543E+03  0.79848430194E+02 0.  0.
         66    2    3    3    0    0 -0.36998968878E+02 -0.14461508600E+02  0.16996849603E+03  0.17456044389E+03  0.19999998117E+01 0.  0.
        -13    1    3    3    0    0  0.36998968878E+02  0.14461508600E+02  0.20555863513E+03  0.20936194155E+03  0.10566000000E+00 0.  1.
         13    1    4    4    0    0 -0.68363547692E+01 -0.24212448945E+01  0.33628832298E+02  0.34402146723E+02  0.10566000000E+00 0.  1.
        -13    1    4    4    0    0 -0.15622564585E+02 -0.60557132573E+01  0.72444929264E+02  0.74357347501E+02  0.10566000000E+00 0. -1.
         14    1    4    4    0    0 -0.14540049523E+02 -0.59845504481E+01  0.63894734465E+02  0.65800949663E+02  0.00000000000E+00 0. -1.
<mgrwt>
<rscale>  0 0.79848430E+02</rscale>
<asrwt>0</asrwt>
<pdfrwt beam="1">  1        2 0.64578869E-03 0.79848430E+02</pdfrwt>
<pdfrwt beam="2">  1       -1 0.58419203E-01 0.79848430E+02</pdfrwt>
<totfact> 0.78188478E+04</totfact>
</mgrwt>
</event>
<event>
 8    1  0.2561077E-024  0.8320397E+02  0.7818608E-02  0.1320197E+00
         -1   -1    0    0    0  501 -0.00000000000E+00  0.00000000000E+00  0.26164828296E+01  0.26164876837E+01  0.50400000000E-02 0.  1.
          2   -1    0    0  501    0  0.00000000000E+00 -0.00000000000E+00 -0.66146940618E+03  0.66146940619E+03  0.25500000000E-02 0. -1.
         24    2    1    2    0    0 -0.17763568394E-14  0.00000000000E+00 -0.65885292335E+03  0.66408589387E+03  0.83203965217E+02 0.  0.
         66    2    3    3    0    0 -0.78432174689E+01 -0.35089169147E+02 -0.49626446486E+03  0.49756927653E+03  0.20000029848E+01 0.  0.
        -13    1    3    3    0    0  0.78432174689E+01  0.35089169147E+02 -0.16258845850E+03  0.16651661734E+03  0.10566000000E+00 0.  1.
         13    1    4    4    0    0 -0.13471731605E+01 -0.76895984989E+01 -0.11124710601E+03  0.11152073601E+03  0.10566000000E+00 0. -1.
        -13    1    4    4    0    0 -0.19483767570E+01 -0.99627015330E+01 -0.13095194565E+03  0.13134486982E+03  0.10566000000E+00 0.  1.
         14    1    4    4    0    0 -0.45476675514E+01 -0.17436869115E+02 -0.25406541320E+03  0.25470367070E+03  0.00000000000E+00 0. -1.
<mgrwt>
<rscale>  0 0.83203965E+02</rscale>
<asrwt>0</asrwt>
<pdfrwt beam="1">  1        2 0.10176439E+00 0.83203965E+02</pdfrwt>
<pdfrwt beam="2">  1       -1 0.40253672E-03 0.83203965E+02</pdfrwt>
<totfact> 0.29792671E+05</totfact>
</mgrwt>
</event>
<event>
 8    1  0.2561077E-024  0.7950172E+02  0.7818608E-02  0.1330471E+00
          2   -1    0    0  501    0  0.00000000000E+00  0.00000000000E+00  0.14508559153E+02  0.14508559377E+02  0.25500000000E-02 0. -1.
         -1   -1    0    0    0  501 -0.00000000000E+00 -0.00000000000E+00 -0.10891023997E+03  0.10891024008E+03  0.50400000000E-02 0.  1.
         24    2    1    2    0    0  0.00000000000E+00  0.00000000000E+00 -0.94401680813E+02  0.12341879946E+03  0.79501715200E+02 0.  0.
         66    2    3    3    0    0 -0.33469490668E+02 -0.42172902096E+01 -0.14662187215E+02  0.36837101939E+02  0.20000007523E+01 0.  0.
        -13    1    3    3    0    0  0.33469490668E+02  0.42172902096E+01 -0.79739493598E+02  0.86581697521E+02  0.10566000000E+00 0.  1.
         13    1    4    4    0    0 -0.31476543392E+02 -0.38346762472E+01 -0.13711711052E+02  0.34547065141E+02  0.10566000000E+00 0. -1.
        -13    1    4    4    0    0 -0.92983836768E+00 -0.23893814971E+00 -0.68737787924E+00  0.11854717263E+01  0.10566000000E+00 0.  1.
         14    1    4    4    0    0 -0.10631089083E+01 -0.14367581269E+00 -0.26309828387E+00  0.11045650715E+01  0.00000000000E+00 0. -1.
<mgrwt>
<rscale>  0 0.79501715E+02</rscale>
<asrwt>0</asrwt>
<pdfrwt beam="1">  1        2 0.22320861E-02 0.79501715E+02</pdfrwt>
<pdfrwt beam="2">  1       -1 0.16755421E-01 0.79501715E+02</pdfrwt>
<totfact> 0.11818416E+05</totfact>
</mgrwt>
</event>
<event>
 8    1  0.2561077E-024  0.7798029E+02  0.7818608E-02  0.1334883E+00
          2   -1    0    0  501    0  0.00000000000E+00  0.00000000000E+00  0.28853526698E+02  0.28853526810E+02  0.25500000000E-02 0. -1.
         -1   -1    0    0    0  501 -0.00000000000E+00 -0.00000000000E+00 -0.52687884894E+02  0.52687885135E+02  0.50400000000E-02 0.  1.
         24    2    1    2    0    0 -0.35527136788E-14  0.35527136788E-14 -0.23834358196E+02  0.81541411945E+02  0.77980287454E+02 0.  0.
         66    2    3    3    0    0  0.20618082940E+02 -0.30603040272E+02 -0.25009418589E+02  0.44621994981E+02  0.19999999693E+01 0.  0.
        -13    1    3    3    0    0 -0.20618082940E+02  0.30603040272E+02  0.11750603928E+01  0.36919416964E+02  0.10566000000E+00 0.  1.
         13    1    4    4    0    0  0.49707842498E+01 -0.70175262694E+01 -0.59736183572E+01  0.10471372943E+02  0.10566000000E+00 0. -1.
        -13    1    4    4    0    0  0.99977907315E+01 -0.14698961452E+02 -0.12883875012E+02  0.21954969520E+02  0.10566000000E+00 0.  1.
         14    1    4    4    0    0  0.56495079592E+01 -0.88865525511E+01 -0.61519252202E+01  0.12195652518E+02  0.00000000000E+00 0. -1.
<mgrwt>
<rscale>  0 0.77980287E+02</rscale>
<asrwt>0</asrwt>
<pdfrwt beam="1">  1        2 0.44390041E-02 0.77980287E+02</pdfrwt>
<pdfrwt beam="2">  1       -1 0.81058285E-02 0.77980287E+02</pdfrwt>
<totfact> 0.14344177E+05</totfact>
</mgrwt>
</event>
<event>
 8    1  0.2561077E-024  0.7697714E+02  0.7818608E-02  0.1337856E+00
         -1   -1    0    0    0  501 -0.00000000000E+00  0.00000000000E+00  0.23562422649E+02  0.23562423188E+02  0.50400000000E-02 0.  1.
          2   -1    0    0  501    0  0.00000000000E+00 -0.00000000000E+00 -0.62870015894E+02  0.62870015945E+02  0.25500000000E-02 0. -1.
         24    2    1    2    0    0  0.00000000000E+00  0.00000000000E+00 -0.39307593245E+02  0.86432439133E+02  0.76977137176E+02 0.  0.
         66    2    3    3    0    0  0.20949673975E+02  0.20539269496E+02 -0.47594078454E+02  0.55945926833E+02  0.19999985435E+01 0.  0.
        -13    1    3    3    0    0 -0.20949673975E+02 -0.20539269496E+02  0.82864852093E+01  0.30486512301E+02  0.10566000000E+00 0.  1.
         13    1    4    4    0    0  0.52029702478E+01  0.44147169043E+01 -0.11818767157E+02  0.13647528930E+02  0.10566000000E+00 0. -1.
        -13    1    4    4    0    0  0.11253601507E+02  0.10808850348E+02 -0.25057295496E+02  0.29518706177E+02  0.10566000000E+00 0.  1.
        -14    1    4    4    0    0  0.44931022197E+01  0.53157022436E+01 -0.10718015801E+02  0.12779691726E+02  0.00000000000E+00 0.  1.
<mgrwt>
<rscale>  0 0.76977137E+02</rscale>
<asrwt>0</asrwt>
<pdfrwt beam="1">  1        2 0.96723101E-02 0.76977137E+02</pdfrwt>
<pdfrwt beam="2">  1       -1 0.36249882E-02 0.76977137E+02</pdfrwt>
<totfact> 0.17467521E+05</totfact>
</mgrwt>
</event>
<event>
 8    1  0.2561077E-024  0.7714222E+02  0.7818608E-02  0.1337363E+00
         -1   -1    0    0    0  501 -0.00000000000E+00  0.00000000000E+00  0.88771260926E+02  0.88771261069E+02  0.50400000000E-02 0.  1.
          2   -1    0    0  501    0  0.00000000000E+00 -0.00000000000E+00 -0.16759146654E+02  0.16759146848E+02  0.25500000000E-02 0. -1.
         24    2    1    2    0    0  0.00000000000E+00  0.17763568394E-14  0.72012114272E+02  0.10553040792E+03  0.77142221859E+02 0.  0.
         66    2    3    3    0    0  0.25503042634E+02 -0.11871477198E+02 -0.18270564732E-01  0.28201728514E+02  0.20000007251E+01 0.  0.
        -13    1    3    3    0    0 -0.25503042634E+02  0.11871477198E+02  0.72030384837E+02  0.77328679403E+02  0.10566000000E+00 0.  1.
         13    1    4    4    0    0  0.18678935530E+01 -0.87580748336E+00 -0.38822366768E+00  0.21018912258E+01  0.10566000000E+00 0. -1.
        -13    1    4    4    0    0  0.37545832470E+01 -0.12841187663E+01 -0.56868940629E-01  0.39699186990E+01  0.10566000000E+00 0. -1.
         14    1    4    4    0    0  0.19880565834E+02 -0.97115509483E+01  0.42682204357E+00  0.22129918589E+02  0.00000000000E+00 0. -1.
<mgrwt>
<rscale>  0 0.77142222E+02</rscale>
<asrwt>0</asrwt>
<pdfrwt beam="1">  1        2 0.25783302E-02 0.77142222E+02</pdfrwt>
<pdfrwt beam="2">  1       -1 0.13657117E-01 0.77142222E+02</pdfrwt>
<totfact> 0.13301630E+05</totfact>
</mgrwt>
</event>
<event>
 8    1  0.2561077E-024  0.8038816E+02  0.7818608E-02  0.1327954E+00
         -1   -1    0    0    0  501 -0.00000000000E+00  0.00000000000E+00  0.14747704556E+03  0.14747704564E+03  0.50400000000E-02 0.  1.
          2   -1    0    0  501    0  0.00000000000E+00 -0.00000000000E+00 -0.10954680083E+02  0.10954680379E+02  0.25500000000E-02 0. -1.
         24    2    1    2    0    0  0.00000000000E+00 -0.17763568394E-14  0.13652236548E+03  0.15843172602E+03  0.80388155445E+02 0.  0.
         66    2    3    3    0    0 -0.22119735089E+02  0.12271307372E+02  0.68053550594E+01  0.26271287085E+02  0.20000006496E+01 0.  0.
        -13    1    3    3    0    0  0.22119735089E+02 -0.12271307372E+02  0.12971701042E+03  0.13216043894E+03  0.10566000000E+00 0.  1.
         13    1    4    4    0    0 -0.86174960076E+01  0.40487631147E+01  0.21405031506E+01  0.97594384046E+01  0.10566000000E+00 0. -1.
        -13    1    4    4    0    0 -0.12010903800E+02  0.69628362269E+01  0.42023083507E+01  0.14505635386E+02  0.10566000000E+00 0.  1.
        -14    1    4    4    0    0 -0.14913352810E+01  0.12597080304E+01  0.46254355808E+00  0.20062132951E+01  0.00000000000E+00 0.  1.
<mgrwt>
<rscale>  0 0.80388155E+02</rscale>
<asrwt>0</asrwt>
<pdfrwt beam="1">  1        2 0.16853355E-02 0.80388155E+02</pdfrwt>
<pdfrwt beam="2">  1       -1 0.22688776E-01 0.80388155E+02</pdfrwt>
<totfact> 0.10702131E+05</totfact>
</mgrwt>
</event>
<event>
 8    1  0.2561077E-024  0.7865544E+02  0.7818608E-02  0.1332911E+00
          2   -1    0    0  501    0  0.00000000000E+00  0.00000000000E+00  0.31692182435E+02  0.31692182538E+02  0.25500000000E-02 0. -1.
         -1   -1    0    0    0  501 -0.00000000000E+00 -0.00000000000E+00 -0.48802870617E+02  0.48802870878E+02  0.50400000000E-02 0.  1.
         24    2    1    2    0    0  0.00000000000E+00  0.00000000000E+00 -0.17110688182E+02  0.80495053415E+02  0.78655438300E+02 0.  0.
         66    2    3    3    0    0  0.36166132117E+02  0.14153071213E+02 -0.14732325091E+02  0.41585333394E+02  0.20000034727E+01 0.  0.
        -13    1    3    3    0    0 -0.36166132117E+02 -0.14153071213E+02 -0.23783630915E+01  0.38909720021E+02  0.10566000000E+00 0.  1.
         13    1    4    4    0    0  0.63446438889E+01  0.22233245830E+01 -0.28312688264E+01  0.72955414797E+01  0.10566000000E+00 0. -1.
        -13    1    4    4    0    0  0.20647178075E+02  0.74725258646E+01 -0.80385381403E+01  0.23383196204E+02  0.10566000000E+00 0. -1.
         14    1    4    4    0    0  0.91743101529E+01  0.44572207652E+01 -0.38625181240E+01  0.10906595710E+02  0.00000000000E+00 0. -1.
<mgrwt>
<rscale>  0 0.78655438E+02</rscale>
<asrwt>0</asrwt>
<pdfrwt beam="1">  1        2 0.48757204E-02 0.78655438E+02</pdfrwt>
<pdfrwt beam="2">  1       -1 0.75081340E-02 0.78655438E+02</pdfrwt>
<totfact> 0.14261011E+05</totfact>
</mgrwt>
</event>
<event>
 8    1  0.2561077E-024  0.8453983E+02  0.7818608E-02  0.1316640E+00
          2   -1    0    0  501    0  0.00000000000E+00  0.00000000000E+00  0.10735719218E+02  0.10735719521E+02  0.25500000000E-02 0. -1.
         -1   -1    0    0    0  501 -0.00000000000E+00 -0.00000000000E+00 -0.16642997584E+03  0.16642997591E+03  0.50400000000E-02 0.  1.
         24    2    1    2    0    0  0.00000000000E+00 -0.71054273576E-14 -0.15569425662E+03  0.17716569544E+03  0.84539825494E+02 0.  0.
         66    2    3    3    0    0  0.24401901420E+02  0.26202278052E+02 -0.30902792903E+02  0.47339146730E+02  0.20000089634E+01 0.  0.
        -13    1    3    3    0    0 -0.24401901420E+02 -0.26202278052E+02 -0.12479146372E+03  0.12982654871E+03  0.10566000000E+00 0.  1.
         13    1    4    4    0    0  0.75881974936E+01  0.80844888950E+01 -0.94712397434E+01  0.14582703734E+02  0.10566000000E+00 0. -1.
        -13    1    4    4    0    0  0.15638495476E+01  0.10844320785E+01 -0.18081128001E+01  0.26271761026E+01  0.10566000000E+00 0.  1.
        -14    1    4    4    0    0  0.15249854379E+02  0.17033357079E+02 -0.19623440360E+02  0.30129266893E+02  0.00000000000E+00 0.  1.
<mgrwt>
<rscale>  0 0.84539825E+02</rscale>
<asrwt>0</asrwt>
<pdfrwt beam="1">  1        2 0.16516493E-02 0.84539825E+02</pdfrwt>
<pdfrwt beam="2">  1       -1 0.25604610E-01 0.84539825E+02</pdfrwt>
<totfact> 0.91259015E+04</totfact>
</mgrwt>
</event>
<event>
 8    1  0.2561077E-024  0.7826167E+02  0.7818608E-02  0.1334058E+00
         -1   -1    0    0    0  501 -0.00000000000E+00  0.00000000000E+00  0.30727431422E+01  0.30727472755E+01  0.50400000000E-02 0.  1.
          2   -1    0    0  501    0  0.00000000000E+00 -0.00000000000E+00 -0.49832390819E+03  0.49832390820E+03  0.25500000000E-02 0. -1.
         24    2    1    2    0    0  0.00000000000E+00  0.00000000000E+00 -0.49525116505E+03  0.50139665547E+03  0.78261674128E+02 0.  0.
         66    2    3    3    0    0 -0.35207702678E+02  0.32661949012E+01 -0.35479301378E+03  0.35655621299E+03  0.20000092879E+01 0.  0.
        -13    1    3    3    0    0  0.35207702678E+02 -0.32661949012E+01 -0.14045815126E+03  0.14484044248E+03  0.10566000000E+00 0.  1.
         13    1    4    4    0    0 -0.20100756691E+02  0.14041936857E+01 -0.20679470535E+03  0.20777409248E+03  0.10566000000E+00 0. -1.
        -13    1    4    4    0    0 -0.59880027481E+01  0.86489121923E+00 -0.63250944561E+02  0.63539730607E+02  0.10566000000E+00 0.  1.
        -14    1    4    4    0    0 -0.91189432388E+01  0.99710999630E+00 -0.84747363871E+02  0.85242389908E+02  0.00000000000E+00 0.  1.
<mgrwt>
<rscale>  0 0.78261674E+02</rscale>
<asrwt>0</asrwt>
<pdfrwt beam="1">  1        2 0.76665153E-01 0.78261674E+02</pdfrwt>
<pdfrwt beam="2">  1       -1 0.47273043E-03 0.78261674E+02</pdfrwt>
<totfact> 0.32209248E+05</totfact>
</mgrwt>
</event>
<event>
 8    1  0.2561077E-024  0.8028227E+02  0.7818608E-02  0.1328252E+00
         -1   -1    0    0    0  501 -0.00000000000E+00  0.00000000000E+00  0.58914162115E+02  0.58914162330E+02  0.50400000000E-02 0.  1.
          2   -1    0    0  501    0  0.00000000000E+00 -0.00000000000E+00 -0.27350140791E+02  0.27350140910E+02  0.25500000000E-02 0. -1.
         24    2    1    2    0    0  0.17763568394E-14  0.00000000000E+00  0.31564021324E+02  0.86264303240E+02  0.80282268100E+02 0.  0.
         66    2    3    3    0    0  0.14137463652E+02  0.33530997099E+02 -0.23515829349E+01  0.36520207900E+02  0.19999994470E+01 0.  0.
        -13    1    3    3    0    0 -0.14137463652E+02 -0.33530997099E+02  0.33915604259E+02  0.49744095340E+02  0.10566000000E+00 0.  1.
         13    1    4    4    0    0  0.36514645834E+01  0.84681538422E+01 -0.12235003345E+01  0.93032757781E+01  0.10566000000E+00 0. -1.
        -13    1    4    4    0    0  0.20998954441E+00  0.10134692996E+01 -0.15840667406E-01  0.10404953591E+01  0.10566000000E+00 0. -1.
         14    1    4    4    0    0  0.10276009524E+02  0.24049373957E+02 -0.11122419330E+01  0.26176436762E+02  0.00000000000E+00 0. -1.
<mgrwt>
<rscale>  0 0.80282268E+02</rscale>
<asrwt>0</asrwt>
<pdfrwt beam="1">  1        2 0.42077140E-02 0.80282268E+02</pdfrwt>
<pdfrwt beam="2">  1       -1 0.90637172E-02 0.80282268E+02</pdfrwt>
<totfact> 0.13081823E+05</totfact>
</mgrwt>
</event>
<event>
 8    1  0.2561077E-024  0.8200933E+02  0.7818608E-02  0.1323444E+00
          2   -1    0    0  501    0  0.00000000000E+00  0.00000000000E+00  0.13726584706E+03  0.13726584708E+03  0.25500000000E-02 0. -1.
         -1   -1    0    0    0  501 -0.00000000000E+00 -0.00000000000E+00 -0.12249096640E+02  0.12249097677E+02  0.50400000000E-02 0.  1.
         24    2    1    2    0    0  0.00000000000E+00  0.00000000000E+00  0.12501675042E+03  0.14951494476E+03  0.82009333744E+02 0.  0.
         66    2    3    3    0    0  0.19040901325E+02  0.17904270075E+02  0.12009042623E+03  0.12291797793E+03  0.20000045477E+01 0.  0.
        -13    1    3    3    0    0 -0.19040901325E+02 -0.17904270075E+02  0.49263241933E+01  0.26596966825E+02  0.10566000000E+00 0.  1.
         13    1    4    4    0    0  0.98280217368E+01  0.97907927010E+01  0.67355028283E+02  0.68768892910E+02  0.10566000000E+00 0. -1.
        -13    1    4    4    0    0  0.88168061506E+01  0.75990598367E+01  0.50203737623E+02  0.51535504426E+02  0.10566000000E+00 0.  1.
         14    1    4    4    0    0  0.39607343762E+00  0.51441753763E+00  0.25316603188E+01  0.26135805977E+01  0.00000000000E+00 0. -1.
<mgrwt>
<rscale>  0 0.82009334E+02</rscale>
<asrwt>0</asrwt>
<pdfrwt beam="1">  1        2 0.21117823E-01 0.82009334E+02</pdfrwt>
<pdfrwt beam="2">  1       -1 0.18844764E-02 0.82009334E+02</pdfrwt>
<totfact> 0.18228559E+05</totfact>
</mgrwt>
</event>
<event>
 8    1  0.2561077E-024  0.7161736E+02  0.7818608E-02  0.1354678E+00
         -1   -1    0    0    0  501 -0.00000000000E+00  0.00000000000E+00  0.12525231452E+02  0.12525232466E+02  0.50400000000E-02 0.  1.
          2   -1    0    0  501    0  0.00000000000E+00 -0.00000000000E+00 -0.10237426382E+03  0.10237426385E+03  0.25500000000E-02 0. -1.
         24    2    1    2    0    0  0.00000000000E+00  0.00000000000E+00 -0.89849032366E+02  0.11489949632E+03  0.71617355694E+02 0.  0.
         66    2    3    3    0    0  0.27540658082E+02 -0.22264107115E+02 -0.53152386470E+02  0.63901130683E+02  0.20000004735E+01 0.  0.
        -13    1    3    3    0    0 -0.27540658082E+02  0.22264107115E+02 -0.36696645896E+02  0.50998365633E+02  0.10566000000E+00 0.  1.
         13    1    4    4    0    0  0.78397334686E+01 -0.66353034403E+01 -0.16217325208E+02  0.19196392201E+02  0.10566000000E+00 0. -1.
        -13    1    4    4    0    0  0.70175357575E+01 -0.49644633694E+01 -0.13425465079E+02  0.15941956632E+02  0.10566000000E+00 0.  1.
        -14    1    4    4    0    0  0.12683388855E+02 -0.10664340306E+02 -0.23509596183E+02  0.28762781849E+02  0.00000000000E+00 0.  1.
<mgrwt>
<rscale>  0 0.71617356E+02</rscale>
<asrwt>0</asrwt>
<pdfrwt beam="1">  1        2 0.15749886E-01 0.71617356E+02</pdfrwt>
<pdfrwt beam="2">  1       -1 0.19269588E-02 0.71617356E+02</pdfrwt>
<totfact> 0.23945203E+05</totfact>
</mgrwt>
</event>
<event>
 8    1  0.2561077E-024  0.7863564E+02  0.7818608E-02  0.1332968E+00
          2   -1    0    0  501    0  0.00000000000E+00  0.00000000000E+00  0.49551101572E+03  0.49551101573E+03  0.25500000000E-02 0. -1.
         -1   -1    0    0    0  501 -0.00000000000E+00 -0.00000000000E+00 -0.31197893917E+01  0.31197934628E+01  0.50400000000E-02 0.  1.
         24    2    1    2    0    0  0.00000000000E+00  0.71054273576E-14  0.49239122633E+03  0.49863080919E+03  0.78635641460E+02 0.  0.
         66    2    3    3    0    0  0.96242728086E+01  0.32049898529E+02  0.37693395762E+03  0.37842176342E+03  0.20000002807E+01 0.  0.
        -13    1    3    3    0    0 -0.96242728086E+01 -0.32049898529E+02  0.11545726871E+03  0.12020904577E+03  0.10566000000E+00 0.  1.
         13    1    4    4    0    0  0.49744276430E+00  0.22759362269E+01  0.24173196532E+02  0.24285426281E+02  0.10566000000E+00 0. -1.
        -13    1    4    4    0    0  0.20582770059E+01  0.90443709233E+01  0.10198115494E+03  0.10240216929E+03  0.10566000000E+00 0.  1.
         14    1    4    4    0    0  0.70685530384E+01  0.20729591379E+02  0.25077960615E+03  0.25173416785E+03  0.00000000000E+00 0. -1.
<mgrwt>
<rscale>  0 0.78635641E+02</rscale>
<asrwt>0</asrwt>
<pdfrwt beam="1">  1        2 0.76232424E-01 0.78635641E+02</pdfrwt>
<pdfrwt beam="2">  1       -1 0.47996817E-03 0.78635641E+02</pdfrwt>
<totfact> 0.31754856E+05</totfact>
</mgrwt>
</event>
<event>
 8    1  0.2561077E-024  0.8380077E+02  0.7818608E-02  0.1318599E+00
          2   -1    0    0  501    0  0.00000000000E+00  0.00000000000E+00  0.41661754415E+03  0.41661754416E+03  0.25500000000E-02 0. -1.
         -1   -1    0    0    0  501 -0.00000000000E+00 -0.00000000000E+00 -0.42140366204E+01  0.42140396344E+01  0.50400000000E-02 0.  1.
         24    2    1    2    0    0 -0.35527136788E-14  0.00000000000E+00  0.41240350753E+03  0.42083158380E+03  0.83800769056E+02 0.  0.
         66    2    3    3    0    0  0.22088380665E+02  0.21867957659E+02  0.34724604454E+03  0.34864010037E+03  0.19999998338E+01 0.  0.
        -13    1    3    3    0    0 -0.22088380665E+02 -0.21867957659E+02  0.65157462990E+02  0.72191483430E+02  0.10566000000E+00 0.  1.
         13    1    4    4    0    0  0.15999437196E+01  0.23184446739E+01  0.32093524812E+02  0.32217084048E+02  0.10566000000E+00 0.  1.
        -13    1    4    4    0    0  0.99185953287E+01  0.91848449030E+01  0.14753976969E+03  0.14815780342E+03  0.10566000000E+00 0. -1.
        -14    1    4    4    0    0  0.10569841616E+02  0.10364668082E+02  0.16761275004E+03  0.16826521290E+03  0.00000000000E+00 0.  1.
<mgrwt>
<rscale>  0 0.83800769E+02</rscale>
<asrwt>0</asrwt>
<pdfrwt beam="1">  1        2 0.64094994E-01 0.83800769E+02</pdfrwt>
<pdfrwt beam="2">  1       -1 0.64831369E-03 0.83800769E+02</pdfrwt>
<totfact> 0.25378372E+05</totfact>
</mgrwt>
</event>
<event>
 8    1  0.2561077E-024  0.8075407E+02  0.7818608E-02  0.1326925E+00
         -1   -1    0    0    0  501 -0.00000000000E+00  0.00000000000E+00  0.94056357364E+02  0.94056357500E+02  0.50400000000E-02 0.  1.
          2   -1    0    0  501    0  0.00000000000E+00 -0.00000000000E+00 -0.17333277875E+02  0.17333278062E+02  0.25500000000E-02 0. -1.
         24    2    1    2    0    0  0.00000000000E+00 -0.17763568394E-14  0.76723079490E+02  0.11138963556E+03  0.80754071007E+02 0.  0.
         66    2    3    3    0    0  0.16427743404E+02  0.15892533091E+02 -0.74851057635E+01  0.24134418015E+02  0.19999908125E+01 0.  0.
        -13    1    3    3    0    0 -0.16427743404E+02 -0.15892533091E+02  0.84208185253E+02  0.87255217546E+02  0.10566000000E+00 0.  1.
         13    1    4    4    0    0  0.11998484500E+02  0.10697807588E+02 -0.57132949432E+01  0.17060469531E+02  0.10566000000E+00 0. -1.
        -13    1    4    4    0    0  0.22313153970E+01  0.24822823372E+01 -0.11216592406E+01  0.35227514090E+01  0.10566000000E+00 0.  1.
         14    1    4    4    0    0  0.21979435069E+01  0.27124431662E+01 -0.65015157963E+00  0.35511970751E+01  0.00000000000E+00 0. -1.
<mgrwt>
<rscale>  0 0.80754071E+02</rscale>
<asrwt>0</asrwt>
<pdfrwt beam="1">  1        2 0.26666581E-02 0.80754071E+02</pdfrwt>
<pdfrwt beam="2">  1       -1 0.14470209E-01 0.80754071E+02</pdfrwt>
<totfact> 0.11731399E+05</totfact>
</mgrwt>
</event>
<event>
 8    1  0.2561077E-024  0.8454593E+02  0.7818608E-02  0.1316624E+00
          2   -1    0    0  501    0  0.00000000000E+00  0.00000000000E+00  0.30716215678E+03  0.30716215679E+03  0.25500000000E-02 0. -1.
         -1   -1    0    0    0  501 -0.00000000000E+00 -0.00000000000E+00 -0.58177844739E+01  0.58177866570E+01  0.50400000000E-02 0.  1.
         24    2    1    2    0    0  0.00000000000E+00 -0.35527136788E-14  0.30134437231E+03  0.31297994345E+03  0.84545930002E+02 0.  0.
         66    2    3    3    0    0  0.36247048835E+02 -0.21651410746E+02  0.14506159537E+03  0.15109433672E+03  0.19999998217E+01 0.  0.
        -13    1    3    3    0    0 -0.36247048835E+02  0.21651410746E+02  0.15628277693E+03  0.16188560673E+03  0.10566000000E+00 0.  1.
         13    1    4    4    0    0  0.19245418758E+02 -0.12038219004E+02  0.77797520158E+02  0.81041780377E+02  0.10566000000E+00 0. -1.
        -13    1    4    4    0    0  0.11130978682E+02 -0.57844999336E+01  0.41850637286E+02  0.43690343683E+02  0.10566000000E+00 0.  1.
         14    1    4    4    0    0  0.58706513959E+01 -0.38286918084E+01  0.25413437931E+02  0.26362212658E+02  0.00000000000E+00 0. -1.
<mgrwt>
<rscale>  0 0.84545930E+02</rscale>
<asrwt>0</asrwt>
<pdfrwt beam="1">  1        2 0.47255727E-01 0.84545930E+02</pdfrwt>
<pdfrwt beam="2">  1       -1 0.89504374E-03 0.84545930E+02</pdfrwt>
<totfact> 0.22236790E+05</totfact>
</mgrwt>
</event>
<event>
 8    1  0.2561077E-024  0.7801682E+02  0.7818608E-02  0.1334776E+00
         -1   -1    0    0    0  501 -0.00000000000E+00  0.00000000000E+00  0.15248674332E+03  0.15248674340E+03  0.50400000000E-02 0.  1.
          2   -1    0    0  501    0  0.00000000000E+00 -0.00000000000E+00 -0.99789392417E+01  0.99789395676E+01  0.25500000000E-02 0. -1.
         24    2    1    2    0    0  0.71054273576E-14  0.00000000000E+00  0.14250780408E+03  0.16246568297E+03  0.78016818186E+02 0.  0.
         66    2    3    3    0    0  0.34053160325E+02 -0.18240569636E+02  0.82184223588E+02  0.90832718240E+02  0.19999968688E+01 0.  0.
        -13    1    3    3    0    0 -0.34053160325E+02  0.18240569636E+02  0.60323580488E+02  0.71632964728E+02  0.10566000000E+00 0.  1.
         13    1    4    4    0    0  0.13031312405E+02 -0.65128805112E+01  0.31187162843E+02  0.34422129594E+02  0.10566000000E+00 0. -1.
        -13    1    4    4    0    0  0.88727013808E+01 -0.45568104569E+01  0.22538395940E+02  0.24647105447E+02  0.10566000000E+00 0.  1.
        -14    1    4    4    0    0  0.12149146539E+02 -0.71708786677E+01  0.28458664805E+02  0.31763483200E+02  0.00000000000E+00 0.  1.
<mgrwt>
<rscale>  0 0.78016818E+02</rscale>
<asrwt>0</asrwt>
<pdfrwt beam="1">  1        2 0.15352215E-02 0.78016818E+02</pdfrwt>
<pdfrwt beam="2">  1       -1 0.23459498E-01 0.78016818E+02</pdfrwt>
<totfact> 0.11445672E+05</totfact>
</mgrwt>
</event>
<event>
 8    1  0.2561077E-024  0.8073390E+02  0.7818608E-02  0.1326982E+00
          2   -1    0    0  501    0  0.00000000000E+00  0.00000000000E+00  0.13710599836E+03  0.13710599839E+03  0.25500000000E-02 0. -1.
         -1   -1    0    0    0  501 -0.00000000000E+00 -0.00000000000E+00 -0.11884896647E+02  0.11884897716E+02  0.50400000000E-02 0.  1.
         24    2    1    2    0    0 -0.35527136788E-14  0.00000000000E+00  0.12522110172E+03  0.14899089610E+03  0.80733901222E+02 0.  0.
         66    2    3    3    0    0 -0.30444855255E+02  0.96309660321E+01  0.10814754664E+03  0.11278092282E+03  0.19999973235E+01 0.  0.
        -13    1    3    3    0    0  0.30444855255E+02 -0.96309660321E+01  0.17073555075E+02  0.36209973283E+02  0.10566000000E+00 0.  1.
         13    1    4    4    0    0 -0.98375577446E+01  0.25124172256E+01  0.32731571138E+02  0.34270347181E+02  0.10566000000E+00 0. -1.
        -13    1    4    4    0    0 -0.17828145999E+01  0.79149036283E+00  0.60314427209E+01  0.63399014364E+01  0.10566000000E+00 0.  1.
         14    1    4    4    0    0 -0.18824482911E+02  0.63270584436E+01  0.69384532784E+02  0.72170674204E+02  0.00000000000E+00 0. -1.
<mgrwt>
<rscale>  0 0.80733901E+02</rscale>
<asrwt>0</asrwt>
<pdfrwt beam="1">  1        2 0.21093231E-01 0.80733901E+02</pdfrwt>
<pdfrwt beam="2">  1       -1 0.18284457E-02 0.80733901E+02</pdfrwt>
<totfact> 0.18998718E+05</totfact>
</mgrwt>
</event>
<event>
 8    1  0.2561077E-024  0.7683528E+02  0.7818608E-02  0.1338280E+00
         -1   -1    0    0    0  501 -0.00000000000E+00  0.00000000000E+00  0.14662849505E+03  0.14662849514E+03  0.50400000000E-02 0.  1.
          2   -1    0    0  501    0  0.00000000000E+00 -0.00000000000E+00 -0.10065676761E+02  0.10065677084E+02  0.25500000000E-02 0. -1.
         24    2    1    2    0    0  0.00000000000E+00  0.00000000000E+00  0.13656281829E+03  0.15669417222E+03  0.76835280105E+02 0.  0.
         66    2    3    3    0    0  0.25826897698E+02 -0.18345179095E+02  0.24099651136E+02  0.39854327258E+02  0.19999939013E+01 0.  0.
        -13    1    3    3    0    0 -0.25826897698E+02  0.18345179095E+02  0.11246316715E+03  0.11683984496E+03  0.10566000000E+00 0.  1.
         13    1    4    4    0    0  0.10209450814E+02 -0.71918626740E+01  0.88548353483E+01  0.15309312451E+02  0.10566000000E+00 0. -1.
        -13    1    4    4    0    0  0.98847613129E+01 -0.76788770111E+01  0.94471766668E+01  0.15682282021E+02  0.10566000000E+00 0.  1.
        -14    1    4    4    0    0  0.57326855708E+01 -0.34744394100E+01  0.57976391210E+01  0.88627327865E+01  0.00000000000E+00 0.  1.
<mgrwt>
<rscale>  0 0.76835280E+02</rscale>
<asrwt>0</asrwt>
<pdfrwt beam="1">  1        2 0.15485658E-02 0.76835280E+02</pdfrwt>
<pdfrwt beam="2">  1       -1 0.22558228E-01 0.76835280E+02</pdfrwt>
<totfact> 0.12013479E+05</totfact>
</mgrwt>
</event>
<event>
 8    1  0.2561077E-024  0.7946683E+02  0.7818608E-02  0.1330571E+00
         -1   -1    0    0    0  501 -0.00000000000E+00  0.00000000000E+00  0.63831057492E+02  0.63831057691E+02  0.50400000000E-02 0.  1.
          2   -1    0    0  501    0  0.00000000000E+00 -0.00000000000E+00 -0.24733166727E+02  0.24733166858E+02  0.25500000000E-02 0. -1.
         24    2    1    2    0    0  0.17763568394E-14  0.00000000000E+00  0.39097890765E+02  0.88564224549E+02  0.79466828348E+02 0.  0.
         66    2    3    3    0    0 -0.14209839987E+02  0.27188538098E+02 -0.85360620583E+01  0.31906120257E+02  0.19999995011E+01 0.  0.
        -13    1    3    3    0    0  0.14209839987E+02 -0.27188538098E+02  0.47633952824E+02  0.56658104292E+02  0.10566000000E+00 0.  1.
         13    1    4    4    0    0 -0.89776482478E+01  0.18295896228E+02 -0.53055205028E+01  0.21059385050E+02  0.10566000000E+00 0.  1.
        -13    1    4    4    0    0 -0.49083439708E+01  0.83378909985E+01 -0.32410046064E+01  0.10204290359E+02  0.10566000000E+00 0. -1.
        -14    1    4    4    0    0 -0.32384776845E+00  0.55475087135E+00  0.10463050938E-01  0.64244484730E+00  0.00000000000E+00 0.  1.
<mgrwt>
<rscale>  0 0.79466828E+02</rscale>
<asrwt>0</asrwt>
<pdfrwt beam="1">  1        2 0.38051026E-02 0.79466828E+02</pdfrwt>
<pdfrwt beam="2">  1       -1 0.98201627E-02 0.79466828E+02</pdfrwt>
<totfact> 0.13200525E+05</totfact>
</mgrwt>
</event>
<event>
 8    1  0.2561077E-024  0.8047564E+02  0.7818608E-02  0.1327707E+00
          2   -1    0    0  501    0  0.00000000000E+00  0.00000000000E+00  0.75866392986E+03  0.75866392986E+03  0.25500000000E-02 0. -1.
         -1   -1    0    0    0  501 -0.00000000000E+00 -0.00000000000E+00 -0.21341201235E+01  0.21341260748E+01  0.50400000000E-02 0.  1.
         24    2    1    2    0    0  0.17763568394E-14  0.88817841970E-15  0.75652980973E+03  0.76079805594E+03  0.80475641660E+02 0.  0.
         66    2    3    3    0    0  0.13258525197E+02  0.70828950327E+01  0.73110206191E+03  0.73125931162E+03  0.20000015979E+01 0.  0.
        -13    1    3    3    0    0 -0.13258525197E+02 -0.70828950327E+01  0.25427747819E+02  0.29538744314E+02  0.10566000000E+00 0.  1.
         13    1    4    4    0    0  0.40543313674E+01  0.26198614637E+01  0.27054924747E+03  0.27059232759E+03  0.10566000000E+00 0. -1.
        -13    1    4    4    0    0  0.52956588453E+01  0.25271176198E+01  0.24809648105E+03  0.24816588283E+03  0.10566000000E+00 0.  1.
         14    1    4    4    0    0  0.39085349843E+01  0.19359159493E+01  0.21245633339E+03  0.21250110121E+03  0.00000000000E+00 0. -1.
<mgrwt>
<rscale>  0 0.80475642E+02</rscale>
<asrwt>0</asrwt>
<pdfrwt beam="1">  1        2 0.11671757E+00 0.80475642E+02</pdfrwt>
<pdfrwt beam="2">  1       -1 0.32832653E-03 0.80475642E+02</pdfrwt>
<totfact> 0.33510195E+05</totfact>
</mgrwt>
</event>
<event>
 8    1  0.2561077E-024  0.8206249E+02  0.7818608E-02  0.1323298E+00
         -1   -1    0    0    0  501 -0.00000000000E+00  0.00000000000E+00  0.11598457022E+01  0.11598566525E+01  0.50400000000E-02 0.  1.
          2   -1    0    0  501    0  0.00000000000E+00 -0.00000000000E+00 -0.14515338174E+04  0.14515338174E+04  0.25500000000E-02 0. -1.
         24    2    1    2    0    0  0.00000000000E+00  0.00000000000E+00 -0.14503739717E+04  0.14526936741E+04  0.82062493627E+02 0.  0.
         66    2    3    3    0    0 -0.50026779912E+01 -0.24315998386E+02 -0.13033903917E+04  0.13036283243E+04  0.20000000467E+01 0.  0.
        -13    1    3    3    0    0  0.50026779912E+01  0.24315998386E+02 -0.14698357998E+03  0.14906534980E+03  0.10566000000E+00 0.  1.
         13    1    4    4    0    0 -0.38990215003E+01 -0.16184499250E+02 -0.90809260002E+03  0.90824518813E+03  0.10566000000E+00 0. -1.
        -13    1    4    4    0    0 -0.84201687118E+00 -0.61655923009E+01 -0.30689848941E+03  0.30696158960E+03  0.10566000000E+00 0.  1.
         14    1    4    4    0    0 -0.26163961969E+00 -0.19659068355E+01 -0.88399302303E+02  0.88421546541E+02  0.00000000000E+00 0. -1.
<mgrwt>
<rscale>  0 0.82062494E+02</rscale>
<asrwt>0</asrwt>
<pdfrwt beam="1">  1        2 0.22331144E+00 0.82062494E+02</pdfrwt>
<pdfrwt beam="2">  1       -1 0.17843980E-03 0.82062494E+02</pdfrwt>
<totfact> 0.31483609E+05</totfact>
</mgrwt>
</event>
<event>
 8    1  0.2561077E-024  0.8187250E+02  0.7818608E-02  0.1323820E+00
          2   -1    0    0  501    0  0.00000000000E+00  0.00000000000E+00  0.28601334384E+02  0.28601334498E+02  0.25500000000E-02 0. -1.
         -1   -1    0    0    0  501 -0.00000000000E+00 -0.00000000000E+00 -0.58590847842E+02  0.58590848059E+02  0.50400000000E-02 0.  1.
         24    2    1    2    0    0  0.00000000000E+00  0.00000000000E+00 -0.29989513458E+02  0.87192182557E+02  0.81872497101E+02 0.  0.
         66    2    3    3    0    0  0.40228041725E+02  0.34866928074E+01 -0.79943067648E+01  0.41211179423E+02  0.20000002552E+01 0.  0.
        -13    1    3    3    0    0 -0.40228041725E+02 -0.34866928074E+01 -0.21995206694E+02  0.45981003134E+02  0.10566000000E+00 0.  1.
         13    1    4    4    0    0  0.24569928679E+02  0.25108952296E+01 -0.46982219158E+01  0.25141011183E+02  0.10566000000E+00 0. -1.
        -13    1    4    4    0    0  0.31868444114E+00  0.13681362162E+00 -0.12849753078E+00  0.38464709943E+00  0.10566000000E+00 0.  1.
        -14    1    4    4    0    0  0.15339428605E+02  0.83898395622E+00 -0.31675873182E+01  0.15685521140E+02  0.00000000000E+00 0.  1.
<mgrwt>
<rscale>  0 0.81872497E+02</rscale>
<asrwt>0</asrwt>
<pdfrwt beam="1">  1        2 0.44002053E-02 0.81872497E+02</pdfrwt>
<pdfrwt beam="2">  1       -1 0.90139766E-02 0.81872497E+02</pdfrwt>
<totfact> 0.12488511E+05</totfact>
</mgrwt>
</event>
<event>
 8    1  0.2561077E-024  0.7996382E+02  0.7818608E-02  0.1329154E+00
          2   -1    0    0  501    0  0.00000000000E+00  0.00000000000E+00  0.84999602125E+01  0.84999605950E+01  0.25500000000E-02 0. -1.
         -1   -1    0    0    0  501 -0.00000000000E+00 -0.00000000000E+00 -0.18806592613E+03  0.18806592620E+03  0.50400000000E-02 0.  1.
         24    2    1    2    0    0  0.00000000000E+00  0.00000000000E+00 -0.17956596592E+03  0.19656588679E+03  0.79963815158E+02 0.  0.
         66    2    3    3    0    0  0.39073697372E+02 -0.31108760563E+01 -0.70779476970E+02  0.80933094222E+02  0.20000010075E+01 0.  0.
        -13    1    3    3    0    0 -0.39073697372E+02  0.31108760563E+01 -0.10878648895E+03  0.11563279257E+03  0.10566000000E+00 0.  1.
         13    1    4    4    0    0  0.30002626882E+02 -0.17999615793E+01 -0.54257042934E+02  0.62026086073E+02  0.10566000000E+00 0. -1.
        -13    1    4    4    0    0  0.64941832070E+01 -0.77812332383E+00 -0.11223732986E+02  0.12990890563E+02  0.10566000000E+00 0.  1.
         14    1    4    4    0    0  0.25768872825E+01 -0.53279115318E+00 -0.52987010500E+01  0.59161175864E+01  0.00000000000E+00 0. -1.
<mgrwt>
<rscale>  0 0.79963815E+02</rscale>
<asrwt>0</asrwt>
<pdfrwt beam="1">  1        2 0.13076864E-02 0.79963815E+02</pdfrwt>
<pdfrwt beam="2">  1       -1 0.28933216E-01 0.79963815E+02</pdfrwt>
<totfact> 0.10155574E+05</totfact>
</mgrwt>
</event>
<event>
 8    1  0.2561077E-024  0.7824726E+02  0.7818608E-02  0.1334100E+00
         -1   -1    0    0    0  501 -0.00000000000E+00  0.00000000000E+00  0.51863605609E+01  0.51863630098E+01  0.50400000000E-02 0.  1.
          2   -1    0    0  501    0  0.00000000000E+00 -0.00000000000E+00 -0.29513144124E+03  0.29513144125E+03  0.25500000000E-02 0. -1.
         24    2    1    2    0    0  0.35527136788E-14  0.00000000000E+00 -0.28994508068E+03  0.30031780426E+03  0.78247260310E+02 0.  0.
         66    2    3    3    0    0 -0.25744059314E+02  0.21915460857E+02 -0.22043478140E+03  0.22302138207E+03  0.19999980305E+01 0.  0.
        -13    1    3    3    0    0  0.25744059314E+02 -0.21915460857E+02 -0.69510299276E+02  0.77296422194E+02  0.10566000000E+00 0.  1.
         13    1    4    4    0    0 -0.17843085874E+02  0.14571632050E+02 -0.15300836962E+03  0.15473293286E+03  0.10566000000E+00 0. -1.
        -13    1    4    4    0    0 -0.63141585039E+01  0.55307308500E+01 -0.50993185265E+02  0.51679528721E+02  0.10566000000E+00 0.  1.
         14    1    4    4    0    0 -0.15868149363E+01  0.18130979576E+01 -0.16433226515E+02  0.16608920481E+02  0.00000000000E+00 0. -1.
<mgrwt>
<rscale>  0 0.78247260E+02</rscale>
<asrwt>0</asrwt>
<pdfrwt beam="1">  1        2 0.45404824E-01 0.78247260E+02</pdfrwt>
<pdfrwt beam="2">  1       -1 0.79790205E-03 0.78247260E+02</pdfrwt>
<totfact> 0.26858066E+05</totfact>
</mgrwt>
</event>
<event>
 8    1  0.2561077E-024  0.8101077E+02  0.7818608E-02  0.1326207E+00
          2   -1    0    0  501    0  0.00000000000E+00  0.00000000000E+00  0.33092243570E+03  0.33092243571E+03  0.25500000000E-02 0. -1.
         -1   -1    0    0    0  501 -0.00000000000E+00 -0.00000000000E+00 -0.49579160337E+01  0.49579185955E+01  0.50400000000E-02 0.  1.
         24    2    1    2    0    0  0.00000000000E+00  0.00000000000E+00  0.32596451967E+03  0.33588035431E+03  0.81010766735E+02 0.  0.
         66    2    3    3    0    0  0.10429756852E+02  0.32931202709E+02  0.25058676685E+03  0.25296436837E+03  0.20000013303E+01 0.  0.
        -13    1    3    3    0    0 -0.10429756852E+02 -0.32931202709E+02  0.75377752821E+02  0.82915985939E+02  0.10566000000E+00 0.  1.
         13    1    4    4    0    0  0.44896257722E+01  0.11403072552E+02  0.86375017824E+02  0.87240137961E+02  0.10566000000E+00 0.  1.
        -13    1    4    4    0    0  0.36990214872E+01  0.12710357533E+02  0.98561215382E+02  0.99446268357E+02  0.10566000000E+00 0. -1.
         14    1    4    4    0    0  0.22411095922E+01  0.88177726236E+01  0.65650533643E+02  0.66277962053E+02  0.00000000000E+00 0. -1.
<mgrwt>
<rscale>  0 0.81010767E+02</rscale>
<asrwt>0</asrwt>
<pdfrwt beam="1">  1        2 0.50911132E-01 0.81010767E+02</pdfrwt>
<pdfrwt beam="2">  1       -1 0.76275670E-03 0.81010767E+02</pdfrwt>
<totfact> 0.25558883E+05</totfact>
</mgrwt>
</event>
<event>
 8    1  0.2561077E-024  0.7873943E+02  0.7818608E-02  0.1332667E+00
         -1   -1    0    0    0  501 -0.00000000000E+00  0.00000000000E+00  0.42576010925E+01  0.42576040756E+01  0.50400000000E-02 0.  1.
          2   -1    0    0  501    0  0.00000000000E+00 -0.00000000000E+00 -0.36404869007E+03  0.36404869008E+03  0.25500000000E-02 0. -1.
         24    2    1    2    0    0  0.00000000000E+00  0.00000000000E+00 -0.35979108898E+03  0.36830629416E+03  0.78739434887E+02 0.  0.
         66    2    3    3    0    0 -0.25711047712E+02  0.88622678288E+01 -0.31300234905E+03  0.31418795056E+03  0.20000000327E+01 0.  0.
        -13    1    3    3    0    0  0.25711047712E+02 -0.88622678288E+01 -0.46788739928E+02  0.54118343596E+02  0.10566000000E+00 0.  1.
         13    1    4    4    0    0 -0.12550343211E+02  0.46830235565E+01 -0.16198196573E+03  0.16253495074E+03  0.10566000000E+00 0. -1.
        -13    1    4    4    0    0 -0.47069154212E+01  0.16191132568E+01 -0.50070242919E+02  0.50317163777E+02  0.10566000000E+00 0.  1.
         14    1    4    4    0    0 -0.84537890794E+01  0.25601310155E+01 -0.10095014040E+03  0.10133583605E+03  0.00000000000E+00 0. -1.
<mgrwt>
<rscale>  0 0.78739435E+02</rscale>
<asrwt>0</asrwt>
<pdfrwt beam="1">  1        2 0.56007466E-01 0.78739435E+02</pdfrwt>
<pdfrwt beam="2">  1       -1 0.65501607E-03 0.78739435E+02</pdfrwt>
<totfact> 0.28487904E+05</totfact>
</mgrwt>
</event>
<event>
 8    1  0.2561077E-024  0.8159096E+02  0.7818608E-02  0.1324596E+00
          2   -1    0    0  501    0  0.00000000000E+00  0.00000000000E+00  0.48523322430E+03  0.48523322430E+03  0.25500000000E-02 0. -1.
         -1   -1    0    0    0  501 -0.00000000000E+00 -0.00000000000E+00 -0.34298357238E+01  0.34298394268E+01  0.50400000000E-02 0.  1.
         24    2    1    2    0    0  0.00000000000E+00  0.00000000000E+00  0.48180338857E+03  0.48866306373E+03  0.81590959143E+02 0.  0.
         66    2    3    3    0    0 -0.21897997073E+02 -0.26473898251E+02  0.37251868316E+03  0.37410501047E+03  0.19999986952E+01 0.  0.
        -13    1    3    3    0    0  0.21897997073E+02  0.26473898251E+02  0.10928470541E+03  0.11455805326E+03  0.10566000000E+00 0.  1.
         13    1    4    4    0    0 -0.53769842257E+01 -0.71343764471E+01  0.95841028471E+02  0.96256559200E+02  0.10566000000E+00 0. -1.
        -13    1    4    4    0    0 -0.12719892169E+02 -0.15721488547E+02  0.22265841736E+03  0.22357491551E+03  0.10566000000E+00 0.  1.
        -14    1    4    4    0    0 -0.38011206787E+01 -0.36180332566E+01  0.54019237331E+02  0.54273535769E+02  0.00000000000E+00 0.  1.
<mgrwt>
<rscale>  0 0.81590959E+02</rscale>
<asrwt>0</asrwt>
<pdfrwt beam="1">  1        2 0.74651281E-01 0.81590959E+02</pdfrwt>
<pdfrwt beam="2">  1       -1 0.52766721E-03 0.81590959E+02</pdfrwt>
<totfact> 0.28648813E+05</totfact>
</mgrwt>
</event>
<event>
 8    1  0.2561077E-024  0.7932342E+02  0.7818608E-02  0.1330983E+00
          2   -1    0    0  501    0  0.00000000000E+00  0.00000000000E+00  0.42636342329E+03  0.42636342330E+03  0.25500000000E-02 0. -1.
         -1   -1    0    0    0  501 -0.00000000000E+00 -0.00000000000E+00 -0.36894591024E+01  0.36894625448E+01  0.50400000000E-02 0.  1.
         24    2    1    2    0    0 -0.71054273576E-14  0.00000000000E+00  0.42267396419E+03  0.43005288584E+03  0.79323417849E+02 0.  0.
         66    2    3    3    0    0 -0.38806092862E+02  0.63767458069E+01  0.23828990446E+03  0.24152153997E+03  0.19999930801E+01 0.  0.
        -13    1    3    3    0    0  0.38806092862E+02 -0.63767458069E+01  0.18438405973E+03  0.18853134587E+03  0.10566000000E+00 0.  1.
         13    1    4    4    0    0 -0.31896444366E+02  0.55717862529E+01  0.19627177905E+03  0.19892473547E+03  0.10566000000E+00 0. -1.
        -13    1    4    4    0    0 -0.68940212952E+01  0.85256833170E+00  0.41704631251E+02  0.42279331052E+02  0.10566000000E+00 0. -1.
         14    1    4    4    0    0 -0.15627200170E-01 -0.47608777693E-01  0.31349415215E+00  0.31747344539E+00  0.00000000000E+00 0. -1.
<mgrwt>
<rscale>  0 0.79323418E+02</rscale>
<asrwt>0</asrwt>
<pdfrwt beam="1">  1        2 0.65594417E-01 0.79323418E+02</pdfrwt>
<pdfrwt beam="2">  1       -1 0.56760898E-03 0.79323418E+02</pdfrwt>
<totfact> 0.29532207E+05</totfact>
</mgrwt>
</event>
<event>
 8    1  0.2561077E-024  0.8412505E+02  0.7818608E-02  0.1317737E+00
         -1   -1    0    0    0  501 -0.00000000000E+00  0.00000000000E+00  0.69777909647E+01  0.69777927849E+01  0.50400000000E-02 0.  1.
          2   -1    0    0  501    0  0.00000000000E+00 -0.00000000000E+00 -0.25355529701E+03  0.25355529702E+03  0.25500000000E-02 0. -1.
         24    2    1    2    0    0  0.00000000000E+00  0.22204460493E-15 -0.24657750604E+03  0.26053308981E+03  0.84125052138E+02 0.  0.
         66    2    3    3    0    0  0.16374731307E+02  0.14885829806E+01 -0.24317965292E+03  0.24374308461E+03  0.19999991984E+01 0.  0.
        -13    1    3    3    0    0 -0.16374731307E+02 -0.14885829806E+01 -0.33978531270E+01  0.16790005198E+02  0.10566000000E+00 0.  1.
         13    1    4    4    0    0  0.70039757422E+01  0.12210148362E+01 -0.10799012105E+03  0.10822395281E+03  0.10566000000E+00 0. -1.
        -13    1    4    4    0    0  0.13210044518E+01  0.34690915181E+00 -0.16376336643E+02  0.16433531714E+02  0.10566000000E+00 0.  1.
         14    1    4    4    0    0  0.80497511126E+01 -0.79341007385E-01 -0.11881319523E+03  0.11908560009E+03  0.00000000000E+00 0. -1.
<mgrwt>
<rscale>  0 0.84125052E+02</rscale>
<asrwt>0</asrwt>
<pdfrwt beam="1">  1        2 0.39008500E-01 0.84125052E+02</pdfrwt>
<pdfrwt beam="2">  1       -1 0.10735066E-02 0.84125052E+02</pdfrwt>
<totfact> 0.21012738E+05</totfact>
</mgrwt>
</event>
<event>
 8    1  0.2561077E-024  0.7980352E+02  0.7818608E-02  0.1329610E+00
         -1   -1    0    0    0  501 -0.00000000000E+00  0.00000000000E+00  0.20166600097E+03  0.20166600104E+03  0.50400000000E-02 0.  1.
          2   -1    0    0  501    0  0.00000000000E+00 -0.00000000000E+00 -0.78949869083E+01  0.78949873201E+01  0.25500000000E-02 0. -1.
         24    2    1    2    0    0  0.35527136788E-14  0.00000000000E+00  0.19377101407E+03  0.20956098836E+03  0.79803520907E+02 0.  0.
         66    2    3    3    0    0  0.29012428642E+02  0.22996358625E+02  0.58033015577E+02  0.68864972339E+02  0.19999981335E+01 0.  0.
        -13    1    3    3    0    0 -0.29012428642E+02 -0.22996358625E+02  0.13573799849E+03  0.14069601602E+03  0.10566000000E+00 0.  1.
         13    1    4    4    0    0  0.10113112268E+02  0.70242403839E+01  0.19542094748E+02  0.23098043724E+02  0.10566000000E+00 0. -1.
        -13    1    4    4    0    0  0.23311364199E+01  0.23346287591E+01  0.52011903200E+01  0.61602137327E+01  0.10566000000E+00 0.  1.
        -14    1    4    4    0    0  0.16568179954E+02  0.13637489482E+02  0.33289730509E+02  0.39606714882E+02  0.00000000000E+00 0.  1.
<mgrwt>
<rscale>  0 0.79803521E+02</rscale>
<asrwt>0</asrwt>
<pdfrwt beam="1">  1        2 0.12146134E-02 0.79803521E+02</pdfrwt>
<pdfrwt beam="2">  1       -1 0.31025538E-01 0.79803521E+02</pdfrwt>
<totfact> 0.99977385E+04</totfact>
</mgrwt>
</event>
<event>
 8    1  0.2561077E-024  0.7990918E+02  0.7818608E-02  0.1329309E+00
          2   -1    0    0  501    0  0.00000000000E+00  0.00000000000E+00  0.82465036272E+02  0.82465036311E+02  0.25500000000E-02 0. -1.
         -1   -1    0    0    0  501 -0.00000000000E+00 -0.00000000000E+00 -0.19358133601E+02  0.19358134257E+02  0.50400000000E-02 0.  1.
         24    2    1    2    0    0  0.71054273576E-14  0.00000000000E+00  0.63106902671E+02  0.10182317057E+03  0.79909179072E+02 0.  0.
         66    2    3    3    0    0  0.24681829672E+02  0.18515719444E+02  0.63867941461E+02  0.70958709994E+02  0.19999987733E+01 0.  0.
        -13    1    3    3    0    0 -0.24681829672E+02 -0.18515719444E+02 -0.76103878997E+00  0.30864460575E+02  0.10566000000E+00 0.  1.
         13    1    4    4    0    0  0.85267559086E+00  0.85750535684E+00  0.29101486552E+01  0.31531730576E+01  0.10566000000E+00 0. -1.
        -13    1    4    4    0    0  0.52466721231E+01  0.40197114341E+01  0.12284708889E+02  0.13950300531E+02  0.10566000000E+00 0.  1.
         14    1    4    4    0    0  0.18582481958E+02  0.13638502653E+02  0.48673083917E+02  0.53855236406E+02  0.00000000000E+00 0. -1.
<mgrwt>
<rscale>  0 0.79909179E+02</rscale>
<asrwt>0</asrwt>
<pdfrwt beam="1">  1        2 0.12686929E-01 0.79909179E+02</pdfrwt>
<pdfrwt beam="2">  1       -1 0.29781745E-02 0.79909179E+02</pdfrwt>
<totfact> 0.16878637E+05</totfact>
</mgrwt>
</event>
<event>
 8    1  0.2561077E-024  0.7797377E+02  0.7818608E-02  0.1334902E+00
          2   -1    0    0  501    0  0.00000000000E+00  0.00000000000E+00  0.66097189370E+02  0.66097189420E+02  0.25500000000E-02 0. -1.
         -1   -1    0    0    0  501 -0.00000000000E+00 -0.00000000000E+00 -0.22996093548E+02  0.22996094101E+02  0.50400000000E-02 0.  1.
         24    2    1    2    0    0  0.00000000000E+00 -0.17763568394E-14  0.43101095822E+02  0.89093283520E+02  0.77973769355E+02 0.  0.
         66    2    3    3    0    0  0.32673778160E+02 -0.11754927375E+02  0.41754183768E+02  0.54343039882E+02  0.20000061551E+01 0.  0.
        -13    1    3    3    0    0 -0.32673778160E+02  0.11754927375E+02  0.13469120539E+01  0.34750243639E+02  0.10566000000E+00 0.  1.
         13    1    4    4    0    0  0.85904957449E+01 -0.33675780858E+01  0.11493840190E+02  0.14739631124E+02  0.10566000000E+00 0. -1.
        -13    1    4    4    0    0  0.17624235263E+02 -0.66401198666E+01  0.23064841065E+02  0.29777557284E+02  0.10566000000E+00 0.  1.
        -14    1    4    4    0    0  0.64590471523E+01 -0.17472294225E+01  0.71955025129E+01  0.98258514737E+01  0.00000000000E+00 0.  1.
<mgrwt>
<rscale>  0 0.77973769E+02</rscale>
<asrwt>0</asrwt>
<pdfrwt beam="1">  1        2 0.10168798E-01 0.77973769E+02</pdfrwt>
<pdfrwt beam="2">  1       -1 0.35378606E-02 0.77973769E+02</pdfrwt>
<totfact> 0.17069529E+05</totfact>
</mgrwt>
</event>
<event>
 8    1  0.2561077E-024  0.7840076E+02  0.7818608E-02  0.1333652E+00
         -1   -1    0    0    0  501 -0.00000000000E+00  0.00000000000E+00  0.14520190310E+01  0.14520277780E+01  0.50400000000E-02 0.  1.
          2   -1    0    0  501    0  0.00000000000E+00 -0.00000000000E+00 -0.10582954323E+04  0.10582954323E+04  0.25500000000E-02 0. -1.
         24    2    1    2    0    0  0.00000000000E+00 -0.17763568394E-14 -0.10568434132E+04  0.10597474601E+04  0.78400758784E+02 0.  0.
         66    2    3    3    0    0 -0.95400977874E+01 -0.12775824436E+02 -0.10124466822E+04  0.10125742045E+04  0.20000001590E+01 0.  0.
        -13    1    3    3    0    0  0.95400977874E+01  0.12775824436E+02 -0.44396731014E+02  0.47173255607E+02  0.10566000000E+00 0.  1.
         13    1    4    4    0    0 -0.24719381804E+01 -0.33108703716E+01 -0.24806467970E+03  0.24809911088E+03  0.10566000000E+00 0. -1.
        -13    1    4    4    0    0 -0.69538489723E+00 -0.33431881925E+00 -0.60853657651E+02  0.60858640658E+02  0.10566000000E+00 0.  1.
        -14    1    4    4    0    0 -0.63727747098E+01 -0.91306352455E+01 -0.70352834488E+03  0.70361645291E+03  0.00000000000E+00 0.  1.
<mgrwt>
<rscale>  0 0.78400759E+02</rscale>
<asrwt>0</asrwt>
<pdfrwt beam="1">  1        2 0.16281406E+00 0.78400759E+02</pdfrwt>
<pdfrwt beam="2">  1       -1 0.22338906E-03 0.78400759E+02</pdfrwt>
<totfact> 0.37169871E+05</totfact>
</mgrwt>
</event>
<event>
 8    1  0.2561077E-024  0.8236860E+02  0.7818608E-02  0.1322461E+00
          2   -1    0    0  501    0  0.00000000000E+00  0.00000000000E+00  0.70513813953E+02  0.70513813999E+02  0.25500000000E-02 0. -1.
         -1   -1    0    0    0  501 -0.00000000000E+00 -0.00000000000E+00 -0.24054103906E+02  0.24054104434E+02  0.50400000000E-02 0.  1.
         24    2    1    2    0    0  0.00000000000E+00 -0.17763568394E-14  0.46459710047E+02  0.94567918432E+02  0.82368601657E+02 0.  0.
         66    2    3    3    0    0 -0.39519821217E+02  0.10769548886E+02  0.27884787033E+02  0.49591942831E+02  0.19999984210E+01 0.  0.
        -13    1    3    3    0    0  0.39519821217E+02 -0.10769548886E+02  0.18574923015E+02  0.44975975601E+02  0.10566000000E+00 0.  1.
         13    1    4    4    0    0 -0.17212908440E+02  0.55428004852E+01  0.12592716027E+02  0.22036209182E+02  0.10566000000E+00 0. -1.
        -13    1    4    4    0    0 -0.45368079364E+01  0.95236055440E+00  0.34137599154E+01  0.57579977138E+01  0.10566000000E+00 0.  1.
         14    1    4    4    0    0 -0.17770104841E+02  0.42743878463E+01  0.11878311091E+02  0.21797735935E+02  0.00000000000E+00 0. -1.
<mgrwt>
<rscale>  0 0.82368602E+02</rscale>
<asrwt>0</asrwt>
<pdfrwt beam="1">  1        2 0.10848279E-01 0.82368602E+02</pdfrwt>
<pdfrwt beam="2">  1       -1 0.37006315E-02 0.82368602E+02</pdfrwt>
<totfact> 0.14945051E+05</totfact>
</mgrwt>
</event>
<event>
 8    1  0.2561077E-024  0.7989139E+02  0.7818608E-02  0.1329360E+00
          2   -1    0    0  501    0  0.00000000000E+00  0.00000000000E+00  0.12719442918E+03  0.12719442920E+03  0.25500000000E-02 0. -1.
         -1   -1    0    0    0  501 -0.00000000000E+00 -0.00000000000E+00 -0.12545035012E+02  0.12545036024E+02  0.50400000000E-02 0.  1.
         24    2    1    2    0    0  0.00000000000E+00  0.00000000000E+00  0.11464939417E+03  0.13973946523E+03  0.79891392275E+02 0.  0.
         66    2    3    3    0    0 -0.92752096481E+01  0.10011005652E+02  0.12297934997E+03  0.12375043536E+03  0.19999961256E+01 0.  0.
        -13    1    3    3    0    0  0.92752096481E+01 -0.10011005652E+02 -0.83299558085E+01  0.15989029864E+02  0.10566000000E+00 0.  1.
         13    1    4    4    0    0 -0.48226801685E+01  0.41753384303E+01  0.56653177534E+02  0.57011274181E+02  0.10566000000E+00 0. -1.
        -13    1    4    4    0    0 -0.27170530611E+01  0.37869976561E+01  0.46214704695E+02  0.46449260733E+02  0.10566000000E+00 0.  1.
        -14    1    4    4    0    0 -0.17354764185E+01  0.20486695655E+01  0.20111467746E+02  0.20289900450E+02  0.00000000000E+00 0.  1.
<mgrwt>
<rscale>  0 0.79891392E+02</rscale>
<asrwt>0</asrwt>
<pdfrwt beam="1">  1        2 0.19568373E-01 0.79891392E+02</pdfrwt>
<pdfrwt beam="2">  1       -1 0.19300056E-02 0.79891392E+02</pdfrwt>
<totfact> 0.19087667E+05</totfact>
</mgrwt>
</event>
<event>
 8    1  0.2561077E-024  0.8048107E+02  0.7818608E-02  0.1327692E+00
         -1   -1    0    0    0  501 -0.00000000000E+00  0.00000000000E+00  0.12640845101E+01  0.12640945574E+01  0.50400000000E-02 0.  1.
          2   -1    0    0  501    0  0.00000000000E+00 -0.00000000000E+00 -0.12810016361E+04  0.12810016361E+04  0.25500000000E-02 0. -1.
         24    2    1    2    0    0  0.00000000000E+00  0.00000000000E+00 -0.12797375516E+04  0.12822657306E+04  0.80481072777E+02 0.  0.
         66    2    3    3    0    0 -0.11446224528E+01  0.21005292389E+02 -0.11863468469E+04  0.11865350284E+04  0.19999998576E+01 0.  0.
        -13    1    3    3    0    0  0.11446224528E+01 -0.21005292389E+02 -0.93390704704E+02  0.95730702275E+02  0.10566000000E+00 0.  1.
         13    1    4    4    0    0  0.60142916297E-01  0.52798287975E+01 -0.29602283513E+03  0.29606994156E+03  0.10566000000E+00 0. -1.
        -13    1    4    4    0    0 -0.28899841210E+00  0.12075943835E+02 -0.66694735449E+03  0.66705674179E+03  0.10566000000E+00 0.  1.
        -14    1    4    4    0    0 -0.91576695700E+00  0.36495197571E+01 -0.22337665723E+03  0.22340834501E+03  0.00000000000E+00 0.  1.
<mgrwt>
<rscale>  0 0.80481073E+02</rscale>
<asrwt>0</asrwt>
<pdfrwt beam="1">  1        2 0.19707614E+00 0.80481073E+02</pdfrwt>
<pdfrwt beam="2">  1       -1 0.19447634E-03 0.80481073E+02</pdfrwt>
<totfact> 0.34175324E+05</totfact>
</mgrwt>
</event>
<event>
 8    1  0.2561077E-024  0.8125934E+02  0.7818608E-02  0.1325515E+00
         -1   -1    0    0    0  501 -0.00000000000E+00  0.00000000000E+00  0.16393199702E+02  0.16393200476E+02  0.50400000000E-02 0.  1.
          2   -1    0    0  501    0  0.00000000000E+00 -0.00000000000E+00 -0.10069847374E+03  0.10069847378E+03  0.25500000000E-02 0. -1.
         24    2    1    2    0    0  0.44408920985E-15  0.00000000000E+00 -0.84305274043E+02  0.11709167425E+03  0.81259343758E+02 0.  0.
         66    2    3    3    0    0 -0.37349844798E+01 -0.38459293788E+02 -0.60158280661E+02  0.71526821119E+02  0.20000048910E+01 0.  0.
        -13    1    3    3    0    0  0.37349844798E+01  0.38459293788E+02 -0.24146993382E+02  0.45564853134E+02  0.10566000000E+00 0.  1.
         13    1    4    4    0    0 -0.27871013414E+01 -0.22299201489E+02 -0.36045250221E+02  0.42476976687E+02  0.10566000000E+00 0. -1.
        -13    1    4    4    0    0 -0.35585486023E+00 -0.39410025855E+01 -0.54946587235E+01  0.67720434570E+01  0.10566000000E+00 0.  1.
        -14    1    4    4    0    0 -0.59202827816E+00 -0.12219089713E+02 -0.18618371717E+02  0.22277800975E+02  0.00000000000E+00 0.  1.
<mgrwt>
<rscale>  0 0.81259344E+02</rscale>
<asrwt>0</asrwt>
<pdfrwt beam="1">  1        2 0.15492073E-01 0.81259344E+02</pdfrwt>
<pdfrwt beam="2">  1       -1 0.25220309E-02 0.81259344E+02</pdfrwt>
<totfact> 0.17032138E+05</totfact>
</mgrwt>
</event>
<event>
 8    1  0.2561077E-024  0.7975593E+02  0.7818608E-02  0.1329746E+00
         -1   -1    0    0    0  501 -0.00000000000E+00  0.00000000000E+00  0.69398393880E+02  0.69398394064E+02  0.50400000000E-02 0.  1.
          2   -1    0    0  501    0  0.00000000000E+00 -0.00000000000E+00 -0.22914824299E+02  0.22914824441E+02  0.25500000000E-02 0. -1.
         24    2    1    2    0    0  0.00000000000E+00  0.00000000000E+00  0.46483569582E+02  0.92313218504E+02  0.79755928115E+02 0.  0.
         66    2    3    3    0    0 -0.74816212649E+01  0.25143274069E+02 -0.11468736223E+02  0.28700013901E+02  0.19999999248E+01 0.  0.
        -13    1    3    3    0    0  0.74816212649E+01 -0.25143274069E+02  0.57952305805E+02  0.63613204603E+02  0.10566000000E+00 0.  1.
         13    1    4    4    0    0 -0.53116452606E+00  0.11544412148E+01 -0.72292346637E+00  0.14658283139E+01  0.10566000000E+00 0. -1.
        -13    1    4    4    0    0 -0.42651337392E+01  0.12030671246E+02 -0.57198552452E+01  0.13987720490E+02  0.10566000000E+00 0.  1.
         14    1    4    4    0    0 -0.26853229997E+01  0.11958161608E+02 -0.50259575119E+01  0.13246465097E+02  0.00000000000E+00 0. -1.
<mgrwt>
<rscale>  0 0.79755928E+02</rscale>
<asrwt>0</asrwt>
<pdfrwt beam="1">  1        2 0.35253577E-02 0.79755928E+02</pdfrwt>
<pdfrwt beam="2">  1       -1 0.10676676E-01 0.79755928E+02</pdfrwt>
<totfact> 0.12870036E+05</totfact>
</mgrwt>
</event>
<event>
 8    1  0.2561077E-024  0.8334609E+02  0.7818608E-02  0.1319815E+00
          2   -1    0    0  501    0  0.00000000000E+00  0.00000000000E+00  0.44201540327E+03  0.44201540328E+03  0.25500000000E-02 0. -1.
         -1   -1    0    0    0  501 -0.00000000000E+00 -0.00000000000E+00 -0.39289173492E+01  0.39289205818E+01  0.50400000000E-02 0.  1.
         24    2    1    2    0    0  0.44408920985E-15  0.71054273576E-14  0.43808648592E+03  0.44594432386E+03  0.83346090705E+02 0.  0.
         66    2    3    3    0    0 -0.22101787090E+01 -0.41445627044E+02  0.23771362720E+03  0.24131803384E+03  0.20000022119E+01 0.  0.
        -13    1    3    3    0    0  0.22101787090E+01  0.41445627044E+02  0.20037285872E+03  0.20462629002E+03  0.10566000000E+00 0.  1.
         13    1    4    4    0    0 -0.18929952469E+01 -0.22714600385E+02  0.13008587414E+03  0.13206771867E+03  0.10566000000E+00 0. -1.
        -13    1    4    4    0    0 -0.15027384078E+00 -0.14035773408E+01  0.70396495884E+01  0.71805600020E+01  0.10566000000E+00 0.  1.
         14    1    4    4    0    0 -0.16690962127E+00 -0.17327449319E+02  0.10058810347E+03  0.10206975516E+03  0.00000000000E+00 0. -1.
<mgrwt>
<rscale>  0 0.83346091E+02</rscale>
<asrwt>0</asrwt>
<pdfrwt beam="1">  1        2 0.68002326E-01 0.83346091E+02</pdfrwt>
<pdfrwt beam="2">  1       -1 0.60444947E-03 0.83346091E+02</pdfrwt>
<totfact> 0.26270802E+05</totfact>
</mgrwt>
</event>
<event>
 8    1  0.2561077E-024  0.7938879E+02  0.7818608E-02  0.1330795E+00
         -1   -1    0    0    0  501 -0.00000000000E+00  0.00000000000E+00  0.21765467664E+02  0.21765468248E+02  0.50400000000E-02 0.  1.
          2   -1    0    0  501    0  0.00000000000E+00 -0.00000000000E+00 -0.72391961080E+02  0.72391961125E+02  0.25500000000E-02 0. -1.
         24    2    1    2    0    0 -0.44408920985E-15  0.00000000000E+00 -0.50626493415E+02  0.94157429372E+02  0.79388788065E+02 0.  0.
         66    2    3    3    0    0 -0.20674889250E+01  0.30636296761E+02 -0.55116854834E+02  0.63124677329E+02  0.20000028746E+01 0.  0.
        -13    1    3    3    0    0  0.20674889250E+01 -0.30636296761E+02  0.44903614185E+01  0.31032752043E+02  0.10566000000E+00 0.  1.
         13    1    4    4    0    0 -0.32867073500E+00  0.68959372867E+01 -0.12905702711E+02  0.14636608282E+02  0.10566000000E+00 0. -1.
        -13    1    4    4    0    0 -0.55714570969E-01  0.12209931599E+00 -0.44973291132E+00  0.48107804305E+00  0.10566000000E+00 0. -1.
        -14    1    4    4    0    0 -0.16831036191E+01  0.23618260158E+02 -0.41761419212E+02  0.48006991004E+02  0.00000000000E+00 0.  1.
<mgrwt>
<rscale>  0 0.79388788E+02</rscale>
<asrwt>0</asrwt>
<pdfrwt beam="1">  1        2 0.11137225E-01 0.79388788E+02</pdfrwt>
<pdfrwt beam="2">  1       -1 0.33485336E-02 0.79388788E+02</pdfrwt>
<totfact> 0.16621370E+05</totfact>
</mgrwt>
</event>
<event>
 8    1  0.2561077E-024  0.7618646E+02  0.7818608E-02  0.1340236E+00
         -1   -1    0    0    0  501 -0.00000000000E+00  0.00000000000E+00  0.14636680346E+02  0.14636681214E+02  0.50400000000E-02 0.  1.
          2   -1    0    0  501    0  0.00000000000E+00 -0.00000000000E+00 -0.99140919706E+02  0.99140919738E+02  0.25500000000E-02 0. -1.
         24    2    1    2    0    0 -0.88817841970E-15  0.00000000000E+00 -0.84504239359E+02  0.11377760095E+03  0.76186455546E+02 0.  0.
         66    2    3    3    0    0  0.44203682522E+01 -0.12252098999E+02 -0.95699227364E+02  0.96602255080E+02  0.19999957736E+01 0.  0.
        -13    1    3    3    0    0 -0.44203682522E+01  0.12252098999E+02  0.11194988004E+02  0.17175345872E+02  0.10566000000E+00 0.  1.
         13    1    4    4    0    0  0.36386198496E+01 -0.11460558501E+02 -0.87933799636E+02  0.88752173145E+02  0.10566000000E+00 0. -1.
        -13    1    4    4    0    0  0.77038921180E+00 -0.81218553122E+00 -0.76573757215E+01  0.77394904128E+01  0.10566000000E+00 0.  1.
         14    1    4    4    0    0  0.11359190849E-01  0.20645032559E-01 -0.10805200675E+00  0.11059152205E+00  0.00000000000E+00 0. -1.
<mgrwt>
<rscale>  0 0.76186456E+02</rscale>
<asrwt>0</asrwt>
<pdfrwt beam="1">  1        2 0.15252449E-01 0.76186456E+02</pdfrwt>
<pdfrwt beam="2">  1       -1 0.22517971E-02 0.76186456E+02</pdfrwt>
<totfact> 0.20148089E+05</totfact>
</mgrwt>
</event>
<event>
 8    1  0.2561077E-024  0.8028043E+02  0.7818608E-02  0.1328257E+00
         -1   -1    0    0    0  501 -0.00000000000E+00  0.00000000000E+00  0.25900853936E+01  0.25900902972E+01  0.50400000000E-02 0.  1.
          2   -1    0    0  501    0  0.00000000000E+00 -0.00000000000E+00 -0.62207805680E+03  0.62207805681E+03  0.25500000000E-02 0. -1.
         24    2    1    2    0    0  0.00000000000E+00  0.00000000000E+00 -0.61948797141E+03  0.62466814711E+03  0.80280429042E+02 0.  0.
         66    2    3    3    0    0 -0.35398059303E+02 -0.14556613659E+01 -0.45635443858E+03  0.45773192500E+03  0.20000007280E+01 0.  0.
        -13    1    3    3    0    0  0.35398059303E+02  0.14556613659E+01 -0.16313353283E+03  0.16693622211E+03  0.10566000000E+00 0.  1.
         13    1    4    4    0    0 -0.28405741884E+02 -0.90667400750E+00 -0.37099243727E+03  0.37207943762E+03  0.10566000000E+00 0. -1.
        -13    1    4    4    0    0 -0.39002324326E+01 -0.15496098494E-01 -0.45180519524E+02  0.45348677617E+02  0.10566000000E+00 0.  1.
         14    1    4    4    0    0 -0.30920849862E+01 -0.53349125990E+00 -0.40181481787E+02  0.40303809759E+02  0.00000000000E+00 0. -1.
<mgrwt>
<rscale>  0 0.80280429E+02</rscale>
<asrwt>0</asrwt>
<pdfrwt beam="1">  1        2 0.95704198E-01 0.80280429E+02</pdfrwt>
<pdfrwt beam="2">  1       -1 0.39847555E-03 0.80280429E+02</pdfrwt>
<totfact> 0.32188194E+05</totfact>
</mgrwt>
</event>
<event>
 8    1  0.2561077E-024  0.7622361E+02  0.7818608E-02  0.1340123E+00
          2   -1    0    0  501    0  0.00000000000E+00  0.00000000000E+00  0.16834752816E+02  0.16834753009E+02  0.25500000000E-02 0. -1.
         -1   -1    0    0    0  501 -0.00000000000E+00 -0.00000000000E+00 -0.86280422036E+02  0.86280422183E+02  0.50400000000E-02 0.  1.
         24    2    1    2    0    0  0.71054273576E-14  0.00000000000E+00 -0.69445669220E+02  0.10311517519E+03  0.76223607770E+02 0.  0.
         66    2    3    3    0    0  0.32976423420E+02 -0.15835133102E+02 -0.20410280546E+02  0.41937757394E+02  0.20000003431E+01 0.  0.
        -13    1    3    3    0    0 -0.32976423420E+02  0.15835133102E+02 -0.49035388674E+02  0.61177417798E+02  0.10566000000E+00 0.  1.
         13    1    4    4    0    0  0.97003368080E+01 -0.51383106161E+01 -0.53534854048E+01  0.12213506466E+02  0.10566000000E+00 0.  1.
        -13    1    4    4    0    0  0.11256374014E+02 -0.52627801442E+01 -0.68639051431E+01  0.14196026509E+02  0.10566000000E+00 0. -1.
         14    1    4    4    0    0  0.12019712598E+02 -0.54340423414E+01 -0.81928899979E+01  0.15528224420E+02  0.00000000000E+00 0. -1.
<mgrwt>
<rscale>  0 0.76223608E+02</rscale>
<asrwt>0</asrwt>
<pdfrwt beam="1">  1        2 0.25899620E-02 0.76223608E+02</pdfrwt>
<pdfrwt beam="2">  1       -1 0.13273911E-01 0.76223608E+02</pdfrwt>
<totfact> 0.13781564E+05</totfact>
</mgrwt>
</event>
<event>
 8    1  0.2561077E-024  0.7967105E+02  0.7818608E-02  0.1329988E+00
          2   -1    0    0  501    0  0.00000000000E+00  0.00000000000E+00  0.52809554092E+03  0.52809554092E+03  0.25500000000E-02 0. -1.
         -1   -1    0    0    0  501 -0.00000000000E+00 -0.00000000000E+00 -0.30048880020E+01  0.30048922287E+01  0.50400000000E-02 0.  1.
         24    2    1    2    0    0  0.00000000000E+00  0.00000000000E+00  0.52509065292E+03  0.53110043315E+03  0.79671050674E+02 0.  0.
         66    2    3    3    0    0 -0.15213474135E+02 -0.28669802364E+02  0.41638773997E+03  0.41765554870E+03  0.19999986998E+01 0.  0.
        -13    1    3    3    0    0  0.15213474135E+02  0.28669802364E+02  0.10870291294E+03  0.11344488445E+03  0.10566000000E+00 0.  1.
         13    1    4    4    0    0 -0.13821609854E+02 -0.26119967601E+02  0.37159942790E+03  0.37277263256E+03  0.10566000000E+00 0. -1.
        -13    1    4    4    0    0 -0.12908471100E+01 -0.24338338199E+01  0.42043684434E+02  0.42133981513E+02  0.10566000000E+00 0.  1.
         14    1    4    4    0    0 -0.10101717102E+00 -0.11600094357E+00  0.27446276405E+01  0.27489346250E+01  0.00000000000E+00 0. -1.
<mgrwt>
<rscale>  0 0.79671051E+02</rscale>
<asrwt>0</asrwt>
<pdfrwt beam="1">  1        2 0.81245535E-01 0.79671051E+02</pdfrwt>
<pdfrwt beam="2">  1       -1 0.46229041E-03 0.79671051E+02</pdfrwt>
<totfact> 0.31311885E+05</totfact>
</mgrwt>
</event>
<event>
 8    1  0.2561077E-024  0.7964036E+02  0.7818608E-02  0.1330075E+00
         -1   -1    0    0    0  501 -0.00000000000E+00  0.00000000000E+00  0.17268157867E+01  0.17268231417E+01  0.50400000000E-02 0.  1.
          2   -1    0    0  501    0  0.00000000000E+00 -0.00000000000E+00 -0.91824700502E+03  0.91824700503E+03  0.25500000000E-02 0. -1.
         24    2    1    2    0    0  0.35527136788E-14  0.00000000000E+00 -0.91652018924E+03  0.91997382817E+03  0.79640361858E+02 0.  0.
         66    2    3    3    0    0 -0.25151335214E+02  0.93084163343E+01 -0.79817436942E+03  0.79862729748E+03  0.20000014939E+01 0.  0.
        -13    1    3    3    0    0  0.25151335214E+02 -0.93084163343E+01 -0.11834581982E+03  0.12134653069E+03  0.10566000000E+00 0.  1.
         13    1    4    4    0    0 -0.43201131729E+00  0.31471822529E+00 -0.21776562896E+02  0.21783377537E+02  0.10566000000E+00 0. -1.
        -13    1    4    4    0    0 -0.17093832875E+02  0.66090565962E+01 -0.53270401288E+03  0.53301918844E+03  0.10566000000E+00 0.  1.
         14    1    4    4    0    0 -0.76254910214E+01  0.23846415129E+01 -0.24369379365E+03  0.24382473150E+03  0.00000000000E+00 0. -1.
<mgrwt>
<rscale>  0 0.79640362E+02</rscale>
<asrwt>0</asrwt>
<pdfrwt beam="1">  1        2 0.14126838E+00 0.79640362E+02</pdfrwt>
<pdfrwt beam="2">  1       -1 0.26566527E-03 0.79640362E+02</pdfrwt>
<totfact> 0.35431605E+05</totfact>
</mgrwt>
</event>
<event>
 8    1  0.2561077E-024  0.8098730E+02  0.7818608E-02  0.1326273E+00
          2   -1    0    0  501    0  0.00000000000E+00  0.00000000000E+00  0.67576930503E+02  0.67576930551E+02  0.25500000000E-02 0. -1.
         -1   -1    0    0    0  501 -0.00000000000E+00 -0.00000000000E+00 -0.24264724629E+02  0.24264725153E+02  0.50400000000E-02 0.  1.
         24    2    1    2    0    0  0.00000000000E+00  0.00000000000E+00  0.43312205874E+02  0.91841655704E+02  0.80987298664E+02 0.  0.
         66    2    3    3    0    0 -0.45315146159E+01 -0.10308220556E+02  0.65749712608E+02  0.66736936860E+02  0.19999994065E+01 0.  0.
        -13    1    3    3    0    0  0.45315146159E+01  0.10308220556E+02 -0.22437506734E+02  0.25104718844E+02  0.10566000000E+00 0.  1.
         13    1    4    4    0    0 -0.57519762301E+00 -0.25820797100E+01  0.13371254879E+02  0.13630833027E+02  0.10566000000E+00 0. -1.
        -13    1    4    4    0    0 -0.22705656035E+01 -0.46702432352E+01  0.27793085482E+02  0.28274253389E+02  0.10566000000E+00 0.  1.
         14    1    4    4    0    0 -0.16857513894E+01 -0.30558976111E+01  0.24585372247E+02  0.24831850444E+02  0.00000000000E+00 0. -1.
<mgrwt>
<rscale>  0 0.80987299E+02</rscale>
<asrwt>0</asrwt>
<pdfrwt beam="1">  1        2 0.10396451E-01 0.80987299E+02</pdfrwt>
<pdfrwt beam="2">  1       -1 0.37330346E-02 0.80987299E+02</pdfrwt>
<totfact> 0.15485294E+05</totfact>
</mgrwt>
</event>
<event>
 8    1  0.2561077E-024  0.7985896E+02  0.7818608E-02  0.1329452E+00
          2   -1    0    0  501    0  0.00000000000E+00  0.00000000000E+00  0.31156502422E+03  0.31156502423E+03  0.25500000000E-02 0. -1.
         -1   -1    0    0    0  501 -0.00000000000E+00 -0.00000000000E+00 -0.51172716259E+01  0.51172741079E+01  0.50400000000E-02 0.  1.
         24    2    1    2    0    0  0.00000000000E+00 -0.22204460493E-15  0.30644775259E+03  0.31668229833E+03  0.79858956985E+02 0.  0.
         66    2    3    3    0    0 -0.23018213414E+02  0.16467082841E+01  0.28241602884E+03  0.28336436461E+03  0.19999975485E+01 0.  0.
        -13    1    3    3    0    0  0.23018213414E+02 -0.16467082841E+01  0.24031723750E+02  0.33317933720E+02  0.10566000000E+00 0.  1.
         13    1    4    4    0    0 -0.68798385025E+01  0.49846786906E+00  0.77524302724E+02  0.77830645153E+02  0.10566000000E+00 0. -1.
        -13    1    4    4    0    0 -0.89388828148E+01  0.12667709177E-01  0.11049014636E+03  0.11085119482E+03  0.10566000000E+00 0.  1.
         14    1    4    4    0    0 -0.71994920972E+01  0.11355727058E+01  0.94401579755E+02  0.94682524639E+02  0.00000000000E+00 0. -1.
<mgrwt>
<rscale>  0 0.79858957E+02</rscale>
<asrwt>0</asrwt>
<pdfrwt beam="1">  1        2 0.47933093E-01 0.79858957E+02</pdfrwt>
<pdfrwt beam="2">  1       -1 0.78727255E-03 0.79858957E+02</pdfrwt>
<totfact> 0.25965524E+05</totfact>
</mgrwt>
</event>
<event>
 8    1  0.2561077E-024  0.7897862E+02  0.7818608E-02  0.1331975E+00
          2   -1    0    0  501    0  0.00000000000E+00  0.00000000000E+00  0.88476274655E+01  0.88476278330E+01  0.25500000000E-02 0. -1.
         -1   -1    0    0    0  501 -0.00000000000E+00 -0.00000000000E+00 -0.17625128982E+03  0.17625128989E+03  0.50400000000E-02 0.  1.
         24    2    1    2    0    0  0.00000000000E+00  0.00000000000E+00 -0.16740366235E+03  0.18509891772E+03  0.78978624787E+02 0.  0.
         66    2    3    3    0    0  0.26088715034E+02  0.14568983125E+02 -0.23339655638E+02  0.37968616575E+02  0.19999994622E+01 0.  0.
        -13    1    3    3    0    0 -0.26088715034E+02 -0.14568983125E+02 -0.14406400671E+03  0.14713030115E+03  0.10566000000E+00 0.  1.
         13    1    4    4    0    0  0.23392371772E+01  0.11933542019E+01 -0.14245808083E+01  0.29894346184E+01  0.10566000000E+00 0.  1.
        -13    1    4    4    0    0  0.13292301698E+02  0.71708495430E+01 -0.12168226707E+02  0.19395444641E+02  0.10566000000E+00 0. -1.
        -14    1    4    4    0    0  0.10457176159E+02  0.62047793804E+01 -0.97468481225E+01  0.15583737315E+02  0.00000000000E+00 0.  1.
<mgrwt>
<rscale>  0 0.78978625E+02</rscale>
<asrwt>0</asrwt>
<pdfrwt beam="1">  1        2 0.13611736E-02 0.78978625E+02</pdfrwt>
<pdfrwt beam="2">  1       -1 0.27115580E-01 0.78978625E+02</pdfrwt>
<totfact> 0.10675887E+05</totfact>
</mgrwt>
</event>
<event>
 8    1  0.2561077E-024  0.7995586E+02  0.7818608E-02  0.1329177E+00
          2   -1    0    0  501    0  0.00000000000E+00  0.00000000000E+00  0.42698829340E+03  0.42698829341E+03  0.25500000000E-02 0. -1.
         -1   -1    0    0    0  501 -0.00000000000E+00 -0.00000000000E+00 -0.37430399623E+01  0.37430433555E+01  0.50400000000E-02 0.  1.
         24    2    1    2    0    0  0.00000000000E+00  0.00000000000E+00  0.42324525344E+03  0.43073133677E+03  0.79955862276E+02 0.  0.
         66    2    3    3    0    0  0.20941791001E+02 -0.11596616156E+02  0.38407410968E+03  0.38482458580E+03  0.19999986079E+01 0.  0.
        -13    1    3    3    0    0 -0.20941791001E+02  0.11596616156E+02  0.39171143765E+02  0.45906750969E+02  0.10566000000E+00 0.  1.
         13    1    4    4    0    0  0.49551441603E+01 -0.25343550595E+01  0.92524415936E+02  0.92691720869E+02  0.10566000000E+00 0. -1.
        -13    1    4    4    0    0  0.10069458797E+02 -0.57302609651E+01  0.19600791900E+03  0.19635005823E+03  0.10566000000E+00 0.  1.
        -14    1    4    4    0    0  0.59171880435E+01 -0.33320001316E+01  0.95541774740E+02  0.95782806702E+02  0.00000000000E+00 0.  1.
<mgrwt>
<rscale>  0 0.79955862E+02</rscale>
<asrwt>0</asrwt>
<pdfrwt beam="1">  1        2 0.65690477E-01 0.79955862E+02</pdfrwt>
<pdfrwt beam="2">  1       -1 0.57585283E-03 0.79955862E+02</pdfrwt>
<totfact> 0.28941078E+05</totfact>
</mgrwt>
</event>
<event>
 8    1  0.2561077E-024  0.8164842E+02  0.7818608E-02  0.1324437E+00
         -1   -1    0    0    0  501 -0.00000000000E+00  0.00000000000E+00  0.26721795301E+01  0.26721842831E+01  0.50400000000E-02 0.  1.
          2   -1    0    0  501    0  0.00000000000E+00 -0.00000000000E+00 -0.62369110169E+03  0.62369110170E+03  0.25500000000E-02 0. -1.
         24    2    1    2    0    0  0.00000000000E+00  0.00000000000E+00 -0.62101892216E+03  0.62636328598E+03  0.81648419096E+02 0.  0.
         66    2    3    3    0    0 -0.30373654287E+02 -0.20027054671E+02 -0.45235163799E+03  0.45381675398E+03  0.20000003711E+01 0.  0.
        -13    1    3    3    0    0  0.30373654287E+02  0.20027054671E+02 -0.16866728417E+03  0.17254653200E+03  0.10566000000E+00 0.  1.
         13    1    4    4    0    0 -0.26224547955E+01 -0.15107140335E+01 -0.44021398011E+02  0.44125436801E+02  0.10566000000E+00 0.  1.
        -13    1    4    4    0    0 -0.12143516010E+02 -0.77400429078E+01 -0.17684233256E+03  0.17742771766E+03  0.10566000000E+00 0. -1.
         14    1    4    4    0    0 -0.15607683482E+02 -0.10776297729E+02 -0.23148790743E+03  0.23226359952E+03  0.00000000000E+00 0. -1.
<mgrwt>
<rscale>  0 0.81648419E+02</rscale>
<asrwt>0</asrwt>
<pdfrwt beam="1">  1        2 0.95952361E-01 0.81648419E+02</pdfrwt>
<pdfrwt beam="2">  1       -1 0.41110541E-03 0.81648419E+02</pdfrwt>
<totfact> 0.30823750E+05</totfact>
</mgrwt>
</event>
<event>
 8    1  0.2561077E-024  0.8534107E+02  0.7818608E-02  0.1314543E+00
         -1   -1    0    0    0  501 -0.00000000000E+00  0.00000000000E+00  0.12249085179E+03  0.12249085190E+03  0.50400000000E-02 0.  1.
          2   -1    0    0  501    0  0.00000000000E+00 -0.00000000000E+00 -0.14864576398E+02  0.14864576617E+02  0.25500000000E-02 0. -1.
         24    2    1    2    0    0  0.00000000000E+00  0.00000000000E+00  0.10762627540E+03  0.13735542852E+03  0.85341072099E+02 0.  0.
         66    2    3    3    0    0  0.37749487457E+02  0.21482116924E+01  0.22093201357E+02  0.43837748180E+02  0.20000006313E+01 0.  0.
        -13    1    3    3    0    0 -0.37749487457E+02 -0.21482116924E+01  0.85533074039E+02  0.93517680336E+02  0.10566000000E+00 0.  1.
         13    1    4    4    0    0  0.13728904807E+02  0.10251251291E+01  0.83957342450E+01  0.16125545766E+02  0.10566000000E+00 0. -1.
        -13    1    4    4    0    0  0.15809021117E+02  0.64918943149E-01  0.91309751391E+01  0.18256922911E+02  0.10566000000E+00 0.  1.
        -14    1    4    4    0    0  0.82115615335E+01  0.10581676201E+01  0.45664919733E+01  0.94552795026E+01  0.00000000000E+00 0.  1.
<mgrwt>
<rscale>  0 0.85341072E+02</rscale>
<asrwt>0</asrwt>
<pdfrwt beam="1">  1        2 0.22868579E-02 0.85341072E+02</pdfrwt>
<pdfrwt beam="2">  1       -1 0.18844746E-01 0.85341072E+02</pdfrwt>
<totfact> 0.96326472E+04</totfact>
</mgrwt>
</event>
<event>
 8    1  0.2561077E-024  0.8071114E+02  0.7818608E-02  0.1327045E+00
         -1   -1    0    0    0  501 -0.00000000000E+00  0.00000000000E+00  0.23747318199E+01  0.23747371682E+01  0.50400000000E-02 0.  1.
          2   -1    0    0  501    0  0.00000000000E+00 -0.00000000000E+00 -0.68579117673E+03  0.68579117673E+03  0.25500000000E-02 0. -1.
         24    2    1    2    0    0  0.00000000000E+00 -0.11102230246E-15 -0.68341644491E+03  0.68816591390E+03  0.80711138538E+02 0.  0.
         66    2    3    3    0    0 -0.15056834292E+02  0.60198318997E+00 -0.66088432260E+03  0.66105911877E+03  0.20000008151E+01 0.  0.
        -13    1    3    3    0    0  0.15056834292E+02 -0.60198318997E+00 -0.22532122302E+02  0.27106795128E+02  0.10566000000E+00 0.  1.
         13    1    4    4    0    0 -0.38920659515E+00 -0.39484354559E-01 -0.27838167529E+02  0.27841116647E+02  0.10566000000E+00 0. -1.
        -13    1    4    4    0    0 -0.41464411929E+01  0.75681408421E+00 -0.19350349403E+03  0.19354942290E+03  0.10566000000E+00 0.  1.
         14    1    4    4    0    0 -0.10521186504E+02 -0.11534653968E+00 -0.43954266105E+03  0.43966857922E+03  0.00000000000E+00 0. -1.
<mgrwt>
<rscale>  0 0.80711139E+02</rscale>
<asrwt>0</asrwt>
<pdfrwt beam="1">  1        2 0.10550618E+00 0.80711139E+02</pdfrwt>
<pdfrwt beam="2">  1       -1 0.36534432E-03 0.80711139E+02</pdfrwt>
<totfact> 0.32534935E+05</totfact>
</mgrwt>
</event>
<event>
 8    1  0.2561077E-024  0.7961537E+02  0.7818608E-02  0.1330147E+00
         -1   -1    0    0    0  501 -0.00000000000E+00  0.00000000000E+00  0.36409396191E+01  0.36409431074E+01  0.50400000000E-02 0.  1.
          2   -1    0    0  501    0  0.00000000000E+00 -0.00000000000E+00 -0.43523133079E+03  0.43523133080E+03  0.25500000000E-02 0. -1.
         24    2    1    2    0    0  0.00000000000E+00  0.00000000000E+00 -0.43159039117E+03  0.43887227391E+03  0.79615369442E+02 0.  0.
         66    2    3    3    0    0  0.10134119078E+02 -0.33507359761E+02 -0.32011449547E+03  0.32202908834E+03  0.19999991707E+01 0.  0.
        -13    1    3    3    0    0 -0.10134119078E+02  0.33507359761E+02 -0.11147589570E+03  0.11684318557E+03  0.10566000000E+00 0.  1.
         13    1    4    4    0    0  0.38677929565E+01 -0.13648214155E+02 -0.12888090997E+03  0.12965929852E+03  0.10566000000E+00 0. -1.
        -13    1    4    4    0    0  0.48957896823E+01 -0.16452980058E+02 -0.15280827006E+03  0.15376946340E+03  0.10566000000E+00 0.  1.
        -14    1    4    4    0    0  0.13705364388E+01 -0.34061655477E+01 -0.38425315436E+02  0.38600326426E+02  0.00000000000E+00 0.  1.
<mgrwt>
<rscale>  0 0.79615369E+02</rscale>
<asrwt>0</asrwt>
<pdfrwt beam="1">  1        2 0.66958625E-01 0.79615369E+02</pdfrwt>
<pdfrwt beam="2">  1       -1 0.56014517E-03 0.79615369E+02</pdfrwt>
<totfact> 0.29456731E+05</totfact>
</mgrwt>
</event>
<event>
 8    1  0.2561077E-024  0.7993141E+02  0.7818608E-02  0.1329246E+00
         -1   -1    0    0    0  501 -0.00000000000E+00  0.00000000000E+00  0.54039168372E+02  0.54039168607E+02  0.50400000000E-02 0.  1.
          2   -1    0    0  501    0  0.00000000000E+00 -0.00000000000E+00 -0.29557402335E+02  0.29557402445E+02  0.25500000000E-02 0. -1.
         24    2    1    2    0    0  0.00000000000E+00  0.00000000000E+00  0.24481766037E+02  0.83596571052E+02  0.79931406990E+02 0.  0.
         66    2    3    3    0    0 -0.26390193518E+02 -0.22359866087E+02 -0.86383721868E+01  0.35707525903E+02  0.20000016867E+01 0.  0.
        -13    1    3    3    0    0  0.26390193518E+02  0.22359866087E+02  0.33120138223E+02  0.47889045149E+02  0.10566000000E+00 0.  1.
         13    1    4    4    0    0 -0.55007709654E+01 -0.38397084258E+01 -0.19485866432E+01  0.69864151001E+01  0.10566000000E+00 0. -1.
        -13    1    4    4    0    0 -0.26872062351E+01 -0.20252749367E+01 -0.76231160753E+00  0.34518254506E+01  0.10566000000E+00 0. -1.
        -14    1    4    4    0    0 -0.18202216317E+02 -0.16494882724E+02 -0.59274739360E+01  0.25269285352E+02  0.00000000000E+00 0.  1.
<mgrwt>
<rscale>  0 0.79931407E+02</rscale>
<asrwt>0</asrwt>
<pdfrwt beam="1">  1        2 0.45472927E-02 0.79931407E+02</pdfrwt>
<pdfrwt beam="2">  1       -1 0.83137182E-02 0.79931407E+02</pdfrwt>
<totfact> 0.13448138E+05</totfact>
</mgrwt>
</event>
<event>
 8    1  0.2561077E-024  0.8832478E+02  0.7818608E-02  0.1306960E+00
          2   -1    0    0  501    0  0.00000000000E+00  0.00000000000E+00  0.46183989800E+03  0.46183989801E+03  0.25500000000E-02 0. -1.
         -1   -1    0    0    0  501 -0.00000000000E+00 -0.00000000000E+00 -0.42229269521E+01  0.42229299597E+01  0.50400000000E-02 0.  1.
         24    2    1    2    0    0  0.17763568394E-14  0.00000000000E+00  0.45761697105E+03  0.46606282797E+03  0.88324783733E+02 0.  0.
         66    2    3    3    0    0 -0.86583537907E+01  0.40089003194E+02  0.31502076484E+03  0.31768565837E+03  0.19999971854E+01 0.  0.
        -13    1    3    3    0    0  0.86583537907E+01 -0.40089003194E+02  0.14259620621E+03  0.14837716960E+03  0.10566000000E+00 0.  1.
         13    1    4    4    0    0 -0.22354979954E+00  0.10963191290E+01  0.88663704717E+01  0.89373138874E+01  0.10566000000E+00 0.  1.
        -13    1    4    4    0    0 -0.27663302028E+01  0.17124733713E+02  0.13272299522E+03  0.13385183492E+03  0.10566000000E+00 0.  1.
         14    1    4    4    0    0 -0.56684737883E+01  0.21867950352E+02  0.17343139915E+03  0.17489650957E+03  0.00000000000E+00 0. -1.
<mgrwt>
<rscale>  0 0.88324784E+02</rscale>
<asrwt>0</asrwt>
<pdfrwt beam="1">  1        2 0.71052295E-01 0.88324784E+02</pdfrwt>
<pdfrwt beam="2">  1       -1 0.64968128E-03 0.88324784E+02</pdfrwt>
<totfact> 0.22893365E+05</totfact>
</mgrwt>
</event>
<event>
 8    1  0.2561077E-024  0.7716983E+02  0.7818608E-02  0.1337280E+00
         -1   -1    0    0    0  501 -0.00000000000E+00  0.00000000000E+00  0.18075835976E+02  0.18075836678E+02  0.50400000000E-02 0.  1.
          2   -1    0    0  501    0  0.00000000000E+00 -0.00000000000E+00 -0.82363866867E+02  0.82363866907E+02  0.25500000000E-02 0. -1.
         24    2    1    2    0    0  0.00000000000E+00  0.00000000000E+00 -0.64288030892E+02  0.10043970358E+03  0.77169833097E+02 0.  0.
         66    2    3    3    0    0 -0.89086484274E+01  0.11932229060E+02 -0.78458137427E+02  0.79883799556E+02  0.19999989663E+01 0.  0.
        -13    1    3    3    0    0  0.89086484274E+01 -0.11932229060E+02  0.14170106536E+02  0.20555904028E+02  0.10566000000E+00 0.  1.
         13    1    4    4    0    0 -0.43115784029E+01  0.48636919512E+01 -0.34114933226E+02  0.34728735087E+02  0.10566000000E+00 0. -1.
        -13    1    4    4    0    0 -0.40571420653E+00  0.57778951976E+00 -0.59066033821E+01  0.59495858928E+01  0.10566000000E+00 0.  1.
         14    1    4    4    0    0 -0.41913558179E+01  0.64907475891E+01 -0.38436600820E+02  0.39205478577E+02  0.00000000000E+00 0. -1.
<mgrwt>
<rscale>  0 0.77169833E+02</rscale>
<asrwt>0</asrwt>
<pdfrwt beam="1">  1        2 0.12671364E-01 0.77169833E+02</pdfrwt>
<pdfrwt beam="2">  1       -1 0.27808980E-02 0.77169833E+02</pdfrwt>
<totfact> 0.18531290E+05</totfact>
</mgrwt>
</event>
<event>
 8    1  0.2561077E-024  0.7900765E+02  0.7818608E-02  0.1331891E+00
         -1   -1    0    0    0  501 -0.00000000000E+00  0.00000000000E+00  0.27131929473E+02  0.27131929941E+02  0.50400000000E-02 0.  1.
          2   -1    0    0  501    0  0.00000000000E+00 -0.00000000000E+00 -0.57517182631E+02  0.57517182687E+02  0.25500000000E-02 0. -1.
         24    2    1    2    0    0  0.17763568394E-14 -0.44408920985E-15 -0.30385253158E+02  0.84649112628E+02  0.79007649372E+02 0.  0.
         66    2    3    3    0    0  0.13318106871E+02 -0.36829156321E+01 -0.54824173224E+02  0.56574073603E+02  0.19999990363E+01 0.  0.
        -13    1    3    3    0    0 -0.13318106871E+02  0.36829156321E+01  0.24438920067E+02  0.28075039025E+02  0.10566000000E+00 0.  1.
         13    1    4    4    0    0  0.75996845321E+01 -0.21518546362E+01 -0.33953231420E+02  0.34859988113E+02  0.10566000000E+00 0. -1.
        -13    1    4    4    0    0  0.21126317587E+01 -0.13507538430E+00 -0.69339171960E+01  0.72506434214E+01  0.10566000000E+00 0.  1.
         14    1    4    4    0    0  0.36057905801E+01 -0.13959856117E+01 -0.13937024609E+02  0.14463442069E+02  0.00000000000E+00 0. -1.
<mgrwt>
<rscale>  0 0.79007649E+02</rscale>
<asrwt>0</asrwt>
<pdfrwt beam="1">  1        2 0.88487973E-02 0.79007649E+02</pdfrwt>
<pdfrwt beam="2">  1       -1 0.41741431E-02 0.79007649E+02</pdfrwt>
<totfact> 0.15948968E+05</totfact>
</mgrwt>
</event>
<event>
 8    1  0.2561077E-024  0.8219484E+02  0.7818608E-02  0.1322936E+00
         -1   -1    0    0    0  501 -0.00000000000E+00  0.00000000000E+00  0.17403609648E+01  0.17403682625E+01  0.50400000000E-02 0.  1.
          2   -1    0    0  501    0  0.00000000000E+00 -0.00000000000E+00 -0.97048513805E+03  0.97048513805E+03  0.25500000000E-02 0. -1.
         24    2    1    2    0    0 -0.35527136788E-14  0.00000000000E+00 -0.96874477708E+03  0.97222550631E+03  0.82194841695E+02 0.  0.
         66    2    3    3    0    0 -0.28537061320E+02 -0.49387886667E+01 -0.82915198843E+03  0.82966003605E+03  0.20000015109E+01 0.  0.
        -13    1    3    3    0    0  0.28537061320E+02  0.49387886667E+01 -0.13959278865E+03  0.14256547026E+03  0.10566000000E+00 0.  1.
         13    1    4    4    0    0 -0.12369564905E+02 -0.18615113216E+01 -0.36304018855E+03  0.36325564142E+03  0.10566000000E+00 0. -1.
        -13    1    4    4    0    0 -0.47103723561E+01 -0.12928168365E+01 -0.15289432607E+03  0.15297236708E+03  0.10566000000E+00 0.  1.
        -14    1    4    4    0    0 -0.11457124059E+02 -0.17844605086E+01 -0.31321747381E+03  0.31343202755E+03  0.00000000000E+00 0.  1.
<mgrwt>
<rscale>  0 0.82194842E+02</rscale>
<asrwt>0</asrwt>
<pdfrwt beam="1">  1        2 0.14930497E+00 0.82194842E+02</pdfrwt>
<pdfrwt beam="2">  1       -1 0.26774918E-03 0.82194842E+02</pdfrwt>
<totfact> 0.32785874E+05</totfact>
</mgrwt>
</event>
<event>
 8    1  0.2561077E-024  0.7048627E+02  0.7818608E-02  0.1358447E+00
          2   -1    0    0  501    0  0.00000000000E+00  0.00000000000E+00  0.15390437236E+04  0.15390437236E+04  0.25500000000E-02 0. -1.
         -1   -1    0    0    0  501 -0.00000000000E+00 -0.00000000000E+00 -0.80703771941E+00  0.80705345681E+00  0.50400000000E-02 0.  1.
         24    2    1    2    0    0 -0.35527136788E-14  0.00000000000E+00  0.15382366859E+04  0.15398507771E+04  0.70486266890E+02 0.  0.
         66    2    3    3    0    0  0.15697945233E+02 -0.54705375275E+01  0.14479234883E+04  0.14480202969E+04  0.19999983323E+01 0.  0.
        -13    1    3    3    0    0 -0.15697945233E+02  0.54705375275E+01  0.90313197617E+02  0.91830480197E+02  0.10566000000E+00 0.  1.
         13    1    4    4    0    0  0.13169997178E+02 -0.45296248563E+01  0.11784776974E+04  0.11785599946E+04  0.10566000000E+00 0. -1.
        -13    1    4    4    0    0  0.24846731513E+01 -0.91777855959E+00  0.26860521462E+03  0.26861829499E+03  0.10566000000E+00 0.  1.
        -14    1    4    4    0    0  0.43274903294E-01 -0.23134111607E-01  0.84057620310E+00  0.84200727882E+00  0.00000000000E+00 0.  1.
<mgrwt>
<rscale>  0 0.70486267E+02</rscale>
<asrwt>0</asrwt>
<pdfrwt beam="1">  1        2 0.23677509E+00 0.70486267E+02</pdfrwt>
<pdfrwt beam="2">  1       -1 0.12416132E-03 0.70486267E+02</pdfrwt>
<totfact> 0.45653619E+05</totfact>
</mgrwt>
</event>
<event>
 8    1  0.2561077E-024  0.8123159E+02  0.7818608E-02  0.1325592E+00
         -1   -1    0    0    0  501 -0.00000000000E+00  0.00000000000E+00  0.36449589795E+01  0.36449624640E+01  0.50400000000E-02 0.  1.
          2   -1    0    0  501    0  0.00000000000E+00 -0.00000000000E+00 -0.45258180452E+03  0.45258180453E+03  0.25500000000E-02 0. -1.
         24    2    1    2    0    0 -0.17763568394E-14  0.00000000000E+00 -0.44893684554E+03  0.45622676699E+03  0.81231592594E+02 0.  0.
         66    2    3    3    0    0  0.14014606248E+02 -0.11528955497E+02 -0.42852649075E+03  0.42891523555E+03  0.20000013545E+01 0.  0.
        -13    1    3    3    0    0 -0.14014606248E+02  0.11528955497E+02 -0.20410354786E+02  0.27311531441E+02  0.10566000000E+00 0.  1.
         13    1    4    4    0    0  0.85934599682E+01 -0.64527838358E+01 -0.26881779048E+03  0.26903252892E+03  0.10566000000E+00 0. -1.
        -13    1    4    4    0    0  0.34351500027E+00 -0.52801879335E+00 -0.14698695511E+02  0.14712566743E+02  0.10566000000E+00 0.  1.
         14    1    4    4    0    0  0.50776312794E+01 -0.45481528677E+01 -0.14501000476E+03  0.14517013989E+03  0.00000000000E+00 0. -1.
<mgrwt>
<rscale>  0 0.81231593E+02</rscale>
<asrwt>0</asrwt>
<pdfrwt beam="1">  1        2 0.69627926E-01 0.81231593E+02</pdfrwt>
<pdfrwt beam="2">  1       -1 0.56076355E-03 0.81231593E+02</pdfrwt>
<totfact> 0.28322481E+05</totfact>
</mgrwt>
</event>
<event>
 8    1  0.2561077E-024  0.8055247E+02  0.7818608E-02  0.1327491E+00
         -1   -1    0    0    0  501 -0.00000000000E+00  0.00000000000E+00  0.23754808679E+02  0.23754809213E+02  0.50400000000E-02 0.  1.
          2   -1    0    0  501    0  0.00000000000E+00 -0.00000000000E+00 -0.68288288960E+02  0.68288289008E+02  0.25500000000E-02 0. -1.
         24    2    1    2    0    0  0.35527136788E-14 -0.35527136788E-14 -0.44533480281E+02  0.92043098221E+02  0.80552473979E+02 0.  0.
         66    2    3    3    0    0 -0.29643671422E+02  0.25547148966E+02 -0.33045978003E+02  0.51258567473E+02  0.20000003983E+01 0.  0.
        -13    1    3    3    0    0  0.29643671422E+02 -0.25547148966E+02 -0.11487502279E+02  0.40784530748E+02  0.10566000000E+00 0.  1.
         13    1    4    4    0    0 -0.62945024046E+01  0.53461005085E+01 -0.70243849514E+01  0.10842264484E+02  0.10566000000E+00 0. -1.
        -13    1    4    4    0    0 -0.65194162329E+01  0.64453749003E+01 -0.84006160879E+01  0.12434916981E+02  0.10566000000E+00 0.  1.
        -14    1    4    4    0    0 -0.16829752785E+02  0.13755673557E+02 -0.17620976964E+02  0.27981386008E+02  0.00000000000E+00 0.  1.
<mgrwt>
<rscale>  0 0.80552474E+02</rscale>
<asrwt>0</asrwt>
<pdfrwt beam="1">  1        2 0.10505891E-01 0.80552474E+02</pdfrwt>
<pdfrwt beam="2">  1       -1 0.36545860E-02 0.80552474E+02</pdfrwt>
<totfact> 0.15753038E+05</totfact>
</mgrwt>
</event>
<event>
 8    1  0.2561077E-024  0.7560727E+02  0.7818608E-02  0.1342001E+00
         -1   -1    0    0    0  501 -0.00000000000E+00  0.00000000000E+00  0.52507025241E+03  0.52507025244E+03  0.50400000000E-02 0.  1.
          2   -1    0    0  501    0  0.00000000000E+00 -0.00000000000E+00 -0.27217585248E+01  0.27217597193E+01  0.25500000000E-02 0. -1.
         24    2    1    2    0    0  0.00000000000E+00  0.00000000000E+00  0.52234849389E+03  0.52779201216E+03  0.75607268360E+02 0.  0.
         66    2    3    3    0    0 -0.25810315730E+02 -0.25038994873E+02  0.34215982797E+03  0.34405010036E+03  0.20000042122E+01 0.  0.
        -13    1    3    3    0    0  0.25810315730E+02  0.25038994873E+02  0.18018866592E+03  0.18374191180E+03  0.10566000000E+00 0.  1.
         13    1    4    4    0    0 -0.57844811995E+01 -0.58817149984E+01  0.72255623310E+02  0.72725106105E+02  0.10566000000E+00 0. -1.
        -13    1    4    4    0    0 -0.83190521307E+01 -0.75553508595E+01  0.10585396758E+03  0.10644887773E+03  0.10566000000E+00 0.  1.
        -14    1    4    4    0    0 -0.11706782400E+02 -0.11601929015E+02  0.16405023708E+03  0.16487611652E+03  0.00000000000E+00 0.  1.
<mgrwt>
<rscale>  0 0.75607268E+02</rscale>
<asrwt>0</asrwt>
<pdfrwt beam="1">  1        2 0.41873214E-03 0.75607268E+02</pdfrwt>
<pdfrwt beam="2">  1       -1 0.80780045E-01 0.75607268E+02</pdfrwt>
<totfact> 0.74870383E+04</totfact>
</mgrwt>
</event>
<event>
 8    1  0.2561077E-024  0.7898063E+02  0.7818608E-02  0.1331969E+00
         -1   -1    0    0    0  501 -0.00000000000E+00  0.00000000000E+00  0.67033842031E+02  0.67033842221E+02  0.50400000000E-02 0.  1.
          2   -1    0    0  501    0  0.00000000000E+00 -0.00000000000E+00 -0.23264146001E+02  0.23264146140E+02  0.25500000000E-02 0. -1.
         24    2    1    2    0    0  0.00000000000E+00  0.00000000000E+00  0.43769696031E+02  0.90297988361E+02  0.78980633141E+02 0.  0.
         66    2    3    3    0    0  0.18802364198E+02  0.24944957895E+02 -0.56756244239E+01  0.31811830146E+02  0.20000002105E+01 0.  0.
        -13    1    3    3    0    0 -0.18802364198E+02 -0.24944957895E+02  0.49445320454E+02  0.58486158215E+02  0.10566000000E+00 0.  1.
         13    1    4    4    0    0  0.10639406984E+02  0.13766736704E+02 -0.33108373428E+01  0.17711375678E+02  0.10566000000E+00 0. -1.
        -13    1    4    4    0    0  0.39241308597E+01  0.47338644490E+01 -0.15642133698E+01  0.63455656271E+01  0.10566000000E+00 0.  1.
         14    1    4    4    0    0  0.42388263546E+01  0.64443567411E+01 -0.80057371138E+00  0.77548888411E+01  0.00000000000E+00 0. -1.
<mgrwt>
<rscale>  0 0.78980633E+02</rscale>
<asrwt>0</asrwt>
<pdfrwt beam="1">  1        2 0.35790994E-02 0.78980633E+02</pdfrwt>
<pdfrwt beam="2">  1       -1 0.10312899E-01 0.78980633E+02</pdfrwt>
<totfact> 0.13271716E+05</totfact>
</mgrwt>
</event>
<event>
 8    1  0.2561077E-024  0.7467627E+02  0.7818608E-02  0.1344876E+00
          2   -1    0    0  501    0  0.00000000000E+00  0.00000000000E+00  0.11849407874E+04  0.11849407874E+04  0.25500000000E-02 0. -1.
         -1   -1    0    0    0  501 -0.00000000000E+00 -0.00000000000E+00 -0.11765396168E+01  0.11765504118E+01  0.50400000000E-02 0.  1.
         24    2    1    2    0    0  0.00000000000E+00  0.00000000000E+00  0.11837642478E+04  0.11861173378E+04  0.74676266207E+02 0.  0.
         66    2    3    3    0    0 -0.99853754747E+01 -0.19697950957E+02  0.10699763792E+04  0.10702061339E+04  0.19999914279E+01 0.  0.
        -13    1    3    3    0    0  0.99853754747E+01  0.19697950957E+02  0.11378786854E+03  0.11591120389E+03  0.10566000000E+00 0.  1.
         13    1    4    4    0    0 -0.71519554682E+01 -0.12278293639E+02  0.69043832648E+03  0.69058453559E+03  0.10566000000E+00 0. -1.
        -13    1    4    4    0    0 -0.10454816378E+01 -0.34537226769E+01  0.17779961118E+03  0.17783625651E+03  0.10566000000E+00 0.  1.
        -14    1    4    4    0    0 -0.17879383687E+01 -0.39659346417E+01  0.20173844156E+03  0.20178534180E+03  0.00000000000E+00 0.  1.
<mgrwt>
<rscale>  0 0.74676266E+02</rscale>
<asrwt>0</asrwt>
<pdfrwt beam="1">  1        2 0.18229949E+00 0.74676266E+02</pdfrwt>
<pdfrwt beam="2">  1       -1 0.18100603E-03 0.74676266E+02</pdfrwt>
<totfact> 0.41925994E+05</totfact>
</mgrwt>
</event>
<event>
 8    1  0.2561077E-024  0.8180532E+02  0.7818608E-02  0.1324005E+00
          2   -1    0    0  501    0  0.00000000000E+00  0.00000000000E+00  0.38446384224E+03  0.38446384224E+03  0.25500000000E-02 0. -1.
         -1   -1    0    0    0  501 -0.00000000000E+00 -0.00000000000E+00 -0.43515843436E+01  0.43515872623E+01  0.50400000000E-02 0.  1.
         24    2    1    2    0    0 -0.35527136788E-14  0.88817841970E-15  0.38011225789E+03  0.38881542951E+03  0.81805315368E+02 0.  0.
         66    2    3    3    0    0  0.21832203875E+02 -0.60301379826E+01  0.35190999681E+03  0.35264380548E+03  0.20000007053E+01 0.  0.
        -13    1    3    3    0    0 -0.21832203875E+02  0.60301379826E+01  0.28202261085E+02  0.36171624023E+02  0.10566000000E+00 0.  1.
         13    1    4    4    0    0  0.81207520193E+01 -0.25844212721E+01  0.11909719142E+03  0.11940175047E+03  0.10566000000E+00 0. -1.
        -13    1    4    4    0    0  0.25448241558E+01 -0.50593130069E+00  0.43153241518E+02  0.43231302479E+02  0.10566000000E+00 0.  1.
         14    1    4    4    0    0  0.11166627700E+02 -0.29397854098E+01  0.18965956387E+03  0.19001075253E+03  0.00000000000E+00 0. -1.
<mgrwt>
<rscale>  0 0.81805315E+02</rscale>
<asrwt>0</asrwt>
<pdfrwt beam="1">  1        2 0.59148287E-01 0.81805315E+02</pdfrwt>
<pdfrwt beam="2">  1       -1 0.66947470E-03 0.81805315E+02</pdfrwt>
<totfact> 0.26282912E+05</totfact>
</mgrwt>
</event>
<event>
 8    1  0.2561077E-024  0.8023140E+02  0.7818608E-02  0.1328396E+00
          2   -1    0    0  501    0  0.00000000000E+00  0.00000000000E+00  0.10968897447E+03  0.10968897450E+03  0.25500000000E-02 0. -1.
         -1   -1    0    0    0  501 -0.00000000000E+00 -0.00000000000E+00 -0.14671205753E+02  0.14671206618E+02  0.50400000000E-02 0.  1.
         24    2    1    2    0    0  0.00000000000E+00  0.00000000000E+00  0.95017768722E+02  0.12436018112E+03  0.80231404549E+02 0.  0.
         66    2    3    3    0    0 -0.27916794046E+02  0.49104899008E+01  0.91483591600E+02  0.95795134775E+02  0.20000033952E+01 0.  0.
        -13    1    3    3    0    0  0.27916794046E+02 -0.49104899008E+01  0.35341771214E+01  0.28565046347E+02  0.10566000000E+00 0.  1.
         13    1    4    4    0    0 -0.10408259440E+02  0.20395316202E+01  0.34407419333E+02  0.36005183279E+02  0.10566000000E+00 0. -1.
        -13    1    4    4    0    0 -0.12254696326E+02  0.24773084783E+01  0.41868869520E+02  0.43695858365E+02  0.10566000000E+00 0.  1.
        -14    1    4    4    0    0 -0.52538382806E+01  0.39364980229E+00  0.15207302747E+02  0.16094093130E+02  0.00000000000E+00 0.  1.
<mgrwt>
<rscale>  0 0.80231405E+02</rscale>
<asrwt>0</asrwt>
<pdfrwt beam="1">  1        2 0.16875226E-01 0.80231405E+02</pdfrwt>
<pdfrwt beam="2">  1       -1 0.22571087E-02 0.80231405E+02</pdfrwt>
<totfact> 0.18058870E+05</totfact>
</mgrwt>
</event>
<event>
 8    1  0.2561077E-024  0.7994055E+02  0.7818608E-02  0.1329220E+00
          2   -1    0    0  501    0  0.00000000000E+00  0.00000000000E+00  0.84189686298E+03  0.84189686298E+03  0.25500000000E-02 0. -1.
         -1   -1    0    0    0  501 -0.00000000000E+00 -0.00000000000E+00 -0.18976432065E+01  0.18976498994E+01  0.50400000000E-02 0.  1.
         24    2    1    2    0    0  0.00000000000E+00  0.17763568394E-14  0.83999921977E+03  0.84379451288E+03  0.79940545106E+02 0.  0.
         66    2    3    3    0    0  0.86503365676E+01  0.13024542074E+02  0.80825262067E+03  0.80840631234E+03  0.19999982705E+01 0.  0.
        -13    1    3    3    0    0 -0.86503365676E+01 -0.13024542074E+02  0.31746599102E+02  0.35388200542E+02  0.10566000000E+00 0.  1.
         13    1    4    4    0    0  0.10544857155E+01  0.11789518275E+01  0.86648022164E+02  0.86662522330E+02  0.10566000000E+00 0. -1.
        -13    1    4    4    0    0  0.22364301109E+01  0.30842475502E+01  0.23402702665E+03  0.23405805812E+03  0.10566000000E+00 0.  1.
         14    1    4    4    0    0  0.53594207411E+01  0.87613426965E+01  0.48757757185E+03  0.48768573189E+03  0.00000000000E+00 0. -1.
<mgrwt>
<rscale>  0 0.79940545E+02</rscale>
<asrwt>0</asrwt>
<pdfrwt beam="1">  1        2 0.12952266E+00 0.79940545E+02</pdfrwt>
<pdfrwt beam="2">  1       -1 0.29194548E-03 0.79940545E+02</pdfrwt>
<totfact> 0.34714277E+05</totfact>
</mgrwt>
</event>
<event>
 8    1  0.2561077E-024  0.8072401E+02  0.7818608E-02  0.1327009E+00
         -1   -1    0    0    0  501 -0.00000000000E+00  0.00000000000E+00  0.35005066386E+02  0.35005066749E+02  0.50400000000E-02 0.  1.
          2   -1    0    0  501    0  0.00000000000E+00 -0.00000000000E+00 -0.46538731704E+02  0.46538731774E+02  0.25500000000E-02 0. -1.
         24    2    1    2    0    0  0.00000000000E+00  0.00000000000E+00 -0.11533665318E+02  0.81543798524E+02  0.80724009080E+02 0.  0.
         66    2    3    3    0    0  0.28083550667E+02  0.27334824779E+02 -0.15417636853E+02  0.42161380332E+02  0.20000004134E+01 0.  0.
        -13    1    3    3    0    0 -0.28083550667E+02 -0.27334824779E+02  0.38839715346E+01  0.39382418192E+02  0.10566000000E+00 0.  1.
         13    1    4    4    0    0  0.24284937086E+02  0.23631628831E+02 -0.12851051967E+02  0.36240484974E+02  0.10566000000E+00 0. -1.
        -13    1    4    4    0    0  0.28062494859E+01  0.23811060189E+01 -0.18178383284E+01  0.41061420182E+01  0.10566000000E+00 0.  1.
        -14    1    4    4    0    0  0.99236409498E+00  0.13220899288E+01 -0.74874655673E+00  0.18147533395E+01  0.00000000000E+00 0.  1.
<mgrwt>
<rscale>  0 0.80724009E+02</rscale>
<asrwt>0</asrwt>
<pdfrwt beam="1">  1        2 0.71598049E-02 0.80724009E+02</pdfrwt>
<pdfrwt beam="2">  1       -1 0.53853949E-02 0.80724009E+02</pdfrwt>
<totfact> 0.14353954E+05</totfact>
</mgrwt>
</event>
<event>
 8    1  0.2561077E-024  0.7908874E+02  0.7818608E-02  0.1331658E+00
         -1   -1    0    0    0  501 -0.00000000000E+00  0.00000000000E+00  0.26595961533E+02  0.26595962010E+02  0.50400000000E-02 0.  1.
          2   -1    0    0  501    0  0.00000000000E+00 -0.00000000000E+00 -0.58796790467E+02  0.58796790522E+02  0.25500000000E-02 0. -1.
         24    2    1    2    0    0  0.00000000000E+00  0.00000000000E+00 -0.32200828934E+02  0.85392752533E+02  0.79088740039E+02 0.  0.
         66    2    3    3    0    0 -0.86301991329E+01 -0.55778979686E+01 -0.57311965736E+02  0.58260232592E+02  0.20000005726E+01 0.  0.
        -13    1    3    3    0    0  0.86301991329E+01  0.55778979686E+01  0.25111136802E+02  0.27132519941E+02  0.10566000000E+00 0.  1.
         13    1    4    4    0    0 -0.51155798194E+01 -0.30014926348E+01 -0.30069432993E+02  0.30648981704E+02  0.10566000000E+00 0. -1.
        -13    1    4    4    0    0 -0.13812821889E+01 -0.16852738401E+01 -0.13789092373E+02  0.13960598873E+02  0.10566000000E+00 0.  1.
        -14    1    4    4    0    0 -0.21333371246E+01 -0.89113149359E+00 -0.13453440371E+02  0.13650652015E+02  0.00000000000E+00 0.  1.
<mgrwt>
<rscale>  0 0.79088740E+02</rscale>
<asrwt>0</asrwt>
<pdfrwt beam="1">  1        2 0.90456601E-02 0.79088740E+02</pdfrwt>
<pdfrwt beam="2">  1       -1 0.40916865E-02 0.79088740E+02</pdfrwt>
<totfact> 0.15984279E+05</totfact>
</mgrwt>
</event>
<event>
 8    1  0.2561077E-024  0.8028601E+02  0.7818608E-02  0.1328242E+00
          2   -1    0    0  501    0  0.00000000000E+00  0.00000000000E+00  0.40302319619E+03  0.40302319620E+03  0.25500000000E-02 0. -1.
         -1   -1    0    0    0  501 -0.00000000000E+00 -0.00000000000E+00 -0.39984306365E+01  0.39984338129E+01  0.50400000000E-02 0.  1.
         24    2    1    2    0    0  0.00000000000E+00  0.35527136788E-14  0.39902476555E+03  0.40702163001E+03  0.80286012305E+02 0.  0.
         66    2    3    3    0    0  0.23880349820E+02 -0.10762574336E+02  0.35368567324E+03  0.35465992101E+03  0.20000001601E+01 0.  0.
        -13    1    3    3    0    0 -0.23880349820E+02  0.10762574336E+02  0.45339092316E+02  0.52361709005E+02  0.10566000000E+00 0.  1.
         13    1    4    4    0    0  0.53569968864E+01 -0.20711768883E+01  0.68910910681E+02  0.69149923819E+02  0.10566000000E+00 0. -1.
        -13    1    4    4    0    0  0.15121534384E+01 -0.51021734456E+00  0.21499362692E+02  0.21558772923E+02  0.10566000000E+00 0.  1.
         14    1    4    4    0    0  0.17011199495E+02 -0.81811801036E+01  0.26327539987E+03  0.26395122426E+03  0.00000000000E+00 0. -1.
<mgrwt>
<rscale>  0 0.80286012E+02</rscale>
<asrwt>0</asrwt>
<pdfrwt beam="1">  1        2 0.62003560E-01 0.80286012E+02</pdfrwt>
<pdfrwt beam="2">  1       -1 0.61514350E-03 0.80286012E+02</pdfrwt>
<totfact> 0.28065111E+05</totfact>
</mgrwt>
</event>
<event>
 8    1  0.2561077E-024  0.7962920E+02  0.7818608E-02  0.1330107E+00
         -1   -1    0    0    0  501 -0.00000000000E+00  0.00000000000E+00  0.58119837436E+01  0.58119859289E+01  0.50400000000E-02 0.  1.
          2   -1    0    0  501    0  0.00000000000E+00 -0.00000000000E+00 -0.27274718569E+03  0.27274718570E+03  0.25500000000E-02 0. -1.
         24    2    1    2    0    0  0.00000000000E+00 -0.35527136788E-14 -0.26693520195E+03  0.27855917163E+03  0.79629203572E+02 0.  0.
         66    2    3    3    0    0  0.24604888089E+02  0.27350456869E+02 -0.18657555542E+03  0.19017856311E+03  0.19999942822E+01 0.  0.
        -13    1    3    3    0    0 -0.24604888089E+02 -0.27350456869E+02 -0.80359646528E+02  0.88380608524E+02  0.10566000000E+00 0.  1.
         13    1    4    4    0    0  0.11124172616E+02  0.13048534999E+02 -0.87544354533E+02  0.89207828449E+02  0.10566000000E+00 0. -1.
        -13    1    4    4    0    0  0.99798561850E+01  0.11369752117E+02 -0.76195966824E+02  0.77683365767E+02  0.10566000000E+00 0.  1.
        -14    1    4    4    0    0  0.35008592876E+01  0.29321697534E+01 -0.22835234061E+02  0.23287368890E+02  0.00000000000E+00 0.  1.
<mgrwt>
<rscale>  0 0.79629204E+02</rscale>
<asrwt>0</asrwt>
<pdfrwt beam="1">  1        2 0.41961095E-01 0.79629204E+02</pdfrwt>
<pdfrwt beam="2">  1       -1 0.89415173E-03 0.79629204E+02</pdfrwt>
<totfact> 0.24932119E+05</totfact>
</mgrwt>
</event>
<event>
 8    1  0.2561077E-024  0.7965504E+02  0.7818608E-02  0.1330033E+00
         -1   -1    0    0    0  501 -0.00000000000E+00  0.00000000000E+00  0.16627622603E+02  0.16627623367E+02  0.50400000000E-02 0.  1.
          2   -1    0    0  501    0  0.00000000000E+00 -0.00000000000E+00 -0.95397368479E+02  0.95397368514E+02  0.25500000000E-02 0. -1.
         24    2    1    2    0    0  0.44408920985E-15  0.00000000000E+00 -0.78769745876E+02  0.11202499188E+03  0.79655043409E+02 0.  0.
         66    2    3    3    0    0  0.25540637914E+01  0.38360077567E+02 -0.53903347374E+02  0.66238883384E+02  0.20000052639E+01 0.  0.
        -13    1    3    3    0    0 -0.25540637914E+01 -0.38360077567E+02 -0.24866398502E+02  0.45786108497E+02  0.10566000000E+00 0.  1.
         13    1    4    4    0    0  0.62296077578E+00  0.14019867310E+02 -0.18941748109E+02  0.23574260221E+02  0.10566000000E+00 0. -1.
        -13    1    4    4    0    0  0.39814138381E+00  0.13310601684E+02 -0.19182499442E+02  0.23351875355E+02  0.10566000000E+00 0.  1.
        -14    1    4    4    0    0  0.15329616318E+01  0.11029608573E+02 -0.15779099824E+02  0.19312747808E+02  0.00000000000E+00 0.  1.
<mgrwt>
<rscale>  0 0.79655043E+02</rscale>
<asrwt>0</asrwt>
<pdfrwt beam="1">  1        2 0.14676518E-01 0.79655043E+02</pdfrwt>
<pdfrwt beam="2">  1       -1 0.25580959E-02 0.79655043E+02</pdfrwt>
<totfact> 0.17699548E+05</totfact>
</mgrwt>
</event>
<event>
 8    1  0.2561077E-024  0.8563804E+02  0.7818608E-02  0.1313772E+00
          2   -1    0    0  501    0  0.00000000000E+00  0.00000000000E+00  0.17206799211E+03  0.17206799213E+03  0.25500000000E-02 0. -1.
         -1   -1    0    0    0  501 -0.00000000000E+00 -0.00000000000E+00 -0.10655487454E+02  0.10655488646E+02  0.50400000000E-02 0.  1.
         24    2    1    2    0    0  0.35527136788E-14 -0.88817841970E-15  0.16141250466E+03  0.18272348078E+03  0.85638039253E+02 0.  0.
         66    2    3    3    0    0 -0.22836272821E+02  0.43882959065E+01  0.15740543836E+03  0.15912644194E+03  0.20000007569E+01 0.  0.
        -13    1    3    3    0    0  0.22836272821E+02 -0.43882959065E+01  0.40070662977E+01  0.23597038833E+02  0.10566000000E+00 0.  1.
         13    1    4    4    0    0 -0.80672525215E+01  0.89143187755E+00  0.57208492677E+02  0.57781467725E+02  0.10566000000E+00 0. -1.
        -13    1    4    4    0    0 -0.66492880380E+01  0.11314886874E+01  0.42821789115E+02  0.43349856806E+02  0.10566000000E+00 0.  1.
        -14    1    4    4    0    0 -0.81197322615E+01  0.23653753415E+01  0.57375156567E+02  0.57995117412E+02  0.00000000000E+00 0.  1.
<mgrwt>
<rscale>  0 0.85638039E+02</rscale>
<asrwt>0</asrwt>
<pdfrwt beam="1">  1        2 0.26471998E-01 0.85638039E+02</pdfrwt>
<pdfrwt beam="2">  1       -1 0.16393059E-02 0.85638039E+02</pdfrwt>
<totfact> 0.17486845E+05</totfact>
</mgrwt>
</event>
<event>
 8    1  0.2561077E-024  0.7746451E+02  0.7818608E-02  0.1336405E+00
          2   -1    0    0  501    0  0.00000000000E+00  0.00000000000E+00  0.16705169084E+02  0.16705169279E+02  0.25500000000E-02 0. -1.
         -1   -1    0    0    0  501 -0.00000000000E+00 -0.00000000000E+00 -0.89803789385E+02  0.89803789526E+02  0.50400000000E-02 0.  1.
         24    2    1    2    0    0 -0.35527136788E-14 -0.35527136788E-14 -0.73098620300E+02  0.10650895881E+03  0.77464508105E+02 0.  0.
         66    2    3    3    0    0 -0.22703077294E+02  0.23155561343E+02 -0.75180267266E+01  0.33348620115E+02  0.19999995096E+01 0.  0.
        -13    1    3    3    0    0  0.22703077294E+02 -0.23155561343E+02 -0.65580593574E+02  0.73160338690E+02  0.10566000000E+00 0.  1.
         13    1    4    4    0    0 -0.17554214105E+02  0.17438448393E+02 -0.52066710393E+01  0.25285776684E+02  0.10566000000E+00 0. -1.
        -13    1    4    4    0    0 -0.49382692233E+01  0.54484590361E+01 -0.23471444222E+01  0.77196152602E+01  0.10566000000E+00 0.  1.
        -14    1    4    4    0    0 -0.21059396555E+00  0.26865391356E+00  0.35788734910E-01  0.34322817068E+00  0.00000000000E+00 0.  1.
<mgrwt>
<rscale>  0 0.77464508E+02</rscale>
<asrwt>0</asrwt>
<pdfrwt beam="1">  1        2 0.25700261E-02 0.77464508E+02</pdfrwt>
<pdfrwt beam="2">  1       -1 0.13815967E-01 0.77464508E+02</pdfrwt>
<totfact> 0.13133751E+05</totfact>
</mgrwt>
</event>
<event>
 8    1  0.2561077E-024  0.7776761E+02  0.7818608E-02  0.1335509E+00
         -1   -1    0    0    0  501 -0.00000000000E+00  0.00000000000E+00  0.69772227548E+01  0.69772245751E+01  0.50400000000E-02 0.  1.
          2   -1    0    0  501    0  0.00000000000E+00 -0.00000000000E+00 -0.21669795869E+03  0.21669795871E+03  0.25500000000E-02 0. -1.
         24    2    1    2    0    0  0.00000000000E+00  0.00000000000E+00 -0.20972073594E+03  0.22367518328E+03  0.77767605944E+02 0.  0.
         66    2    3    3    0    0 -0.52664774855E+01 -0.31637144906E+02 -0.16802921816E+03  0.17107443669E+03  0.20000030855E+01 0.  0.
        -13    1    3    3    0    0  0.52664774855E+01  0.31637144906E+02 -0.41691517780E+02  0.52600746589E+02  0.10566000000E+00 0.  1.
         13    1    4    4    0    0 -0.26739336641E+01 -0.18198068890E+02 -0.98366291982E+02  0.10007126558E+03  0.10566000000E+00 0.  1.
        -13    1    4    4    0    0 -0.18687852645E+01 -0.72922707575E+01 -0.39738534618E+02  0.40445418391E+02  0.10566000000E+00 0. -1.
        -14    1    4    4    0    0 -0.72375855695E+00 -0.61468052590E+01 -0.29924391559E+02  0.30557752723E+02  0.00000000000E+00 0.  1.
<mgrwt>
<rscale>  0 0.77767606E+02</rscale>
<asrwt>0</asrwt>
<pdfrwt beam="1">  1        2 0.33338142E-01 0.77767606E+02</pdfrwt>
<pdfrwt beam="2">  1       -1 0.10734192E-02 0.77767606E+02</pdfrwt>
<totfact> 0.24439844E+05</totfact>
</mgrwt>
</event>
<event>
 8    1  0.2561077E-024  0.8019083E+02  0.7818608E-02  0.1328511E+00
         -1   -1    0    0    0  501 -0.00000000000E+00  0.00000000000E+00  0.65086430353E+02  0.65086430548E+02  0.50400000000E-02 0.  1.
          2   -1    0    0  501    0  0.00000000000E+00 -0.00000000000E+00 -0.24700115938E+02  0.24700116069E+02  0.25500000000E-02 0. -1.
         24    2    1    2    0    0  0.00000000000E+00  0.88817841970E-15  0.40386314415E+02  0.89786546617E+02  0.80190832153E+02 0.  0.
         66    2    3    3    0    0  0.38447429516E+02 -0.64276069653E+01  0.30596140910E+02  0.49594785907E+02  0.19999957042E+01 0.  0.
        -13    1    3    3    0    0 -0.38447429516E+02  0.64276069653E+01  0.97901735051E+01  0.40191760711E+02  0.10566000000E+00 0.  1.
         13    1    4    4    0    0  0.10831198616E+02 -0.23646375640E+01  0.87263428991E+01  0.14109096310E+02  0.10566000000E+00 0. -1.
        -13    1    4    4    0    0  0.21584802635E+02 -0.26339528417E+01  0.16848915175E+02  0.27508880729E+02  0.10566000000E+00 0.  1.
        -14    1    4    4    0    0  0.60314282656E+01 -0.14290165596E+01  0.50208828359E+01  0.79768088671E+01  0.00000000000E+00 0.  1.
<mgrwt>
<rscale>  0 0.80190832E+02</rscale>
<asrwt>0</asrwt>
<pdfrwt beam="1">  1        2 0.38000179E-02 0.80190832E+02</pdfrwt>
<pdfrwt beam="2">  1       -1 0.10013297E-01 0.80190832E+02</pdfrwt>
<totfact> 0.12862343E+05</totfact>
</mgrwt>
</event>
<event>
 8    1  0.2561077E-024  0.7796589E+02  0.7818608E-02  0.1334925E+00
          2   -1    0    0  501    0  0.00000000000E+00  0.00000000000E+00  0.74125273787E+02  0.74125273831E+02  0.25500000000E-02 0. -1.
         -1   -1    0    0    0  501 -0.00000000000E+00 -0.00000000000E+00 -0.20501371665E+02  0.20501372285E+02  0.50400000000E-02 0.  1.
         24    2    1    2    0    0 -0.35527136788E-14  0.00000000000E+00  0.53623902122E+02  0.94626646115E+02  0.77965885336E+02 0.  0.
         66    2    3    3    0    0  0.26288535855E+02  0.53042202596E+01  0.61124544285E+02  0.66778977149E+02  0.20000012467E+01 0.  0.
        -13    1    3    3    0    0 -0.26288535855E+02 -0.53042202596E+01 -0.75006421634E+01  0.27847668967E+02  0.10566000000E+00 0.  1.
         13    1    4    4    0    0  0.52960209571E+01  0.11282497100E+01  0.12172638677E+02  0.13323103309E+02  0.10566000000E+00 0. -1.
        -13    1    4    4    0    0  0.11561547112E+02  0.14533183375E+01  0.27268213776E+02  0.29653805023E+02  0.10566000000E+00 0.  1.
        -14    1    4    4    0    0  0.94309677864E+01  0.27226522121E+01  0.21683691832E+02  0.23802068816E+02  0.00000000000E+00 0.  1.
<mgrwt>
<rscale>  0 0.77965885E+02</rscale>
<asrwt>0</asrwt>
<pdfrwt beam="1">  1        2 0.11403888E-01 0.77965885E+02</pdfrwt>
<pdfrwt beam="2">  1       -1 0.31540573E-02 0.77965885E+02</pdfrwt>
<totfact> 0.17554616E+05</totfact>
</mgrwt>
</event>
<event>
 8    1  0.2561077E-024  0.8019218E+02  0.7818608E-02  0.1328507E+00
          2   -1    0    0  501    0  0.00000000000E+00  0.00000000000E+00  0.34714874205E+03  0.34714874206E+03  0.25500000000E-02 0. -1.
         -1   -1    0    0    0  501 -0.00000000000E+00 -0.00000000000E+00 -0.46311444094E+01  0.46311471519E+01  0.50400000000E-02 0.  1.
         24    2    1    2    0    0  0.00000000000E+00  0.00000000000E+00  0.34251759764E+03  0.35177988921E+03  0.80192180167E+02 0.  0.
         66    2    3    3    0    0  0.80473163357E+01  0.25208704773E+02  0.30336444918E+03  0.30452295009E+03  0.20000023156E+01 0.  0.
        -13    1    3    3    0    0 -0.80473163357E+01 -0.25208704773E+02  0.39153148456E+02  0.47256939116E+02  0.10566000000E+00 0.  1.
         13    1    4    4    0    0  0.40057854012E+01  0.12757889939E+02  0.15502338496E+03  0.15559907172E+03  0.10566000000E+00 0. -1.
        -13    1    4    4    0    0  0.38517528895E+01  0.11462278861E+02  0.13240899261E+03  0.13296004033E+03  0.10566000000E+00 0.  1.
        -14    1    4    4    0    0  0.18977804497E+00  0.98853597279E+00  0.15932071614E+02  0.15963838040E+02  0.00000000000E+00 0.  1.
<mgrwt>
<rscale>  0 0.80192180E+02</rscale>
<asrwt>0</asrwt>
<pdfrwt beam="1">  1        2 0.53407517E-01 0.80192180E+02</pdfrwt>
<pdfrwt beam="2">  1       -1 0.71248372E-03 0.80192180E+02</pdfrwt>
<totfact> 0.26702745E+05</totfact>
</mgrwt>
</event>
<event>
 8    1  0.2561077E-024  0.7702919E+02  0.7818608E-02  0.1337700E+00
         -1   -1    0    0    0  501 -0.00000000000E+00  0.00000000000E+00  0.23773196393E+02  0.23773196927E+02  0.50400000000E-02 0.  1.
          2   -1    0    0  501    0  0.00000000000E+00 -0.00000000000E+00 -0.62396916648E+02  0.62396916700E+02  0.25500000000E-02 0. -1.
         24    2    1    2    0    0  0.35527136788E-14 -0.35527136788E-14 -0.38623720254E+02  0.86170113627E+02  0.77029193922E+02 0.  0.
         66    2    3    3    0    0 -0.28435646643E+02  0.21459111420E+02 -0.35624027294E+02  0.50419746009E+02  0.20000010055E+01 0.  0.
        -13    1    3    3    0    0  0.28435646643E+02 -0.21459111420E+02 -0.29996929602E+01  0.35750367618E+02  0.10566000000E+00 0.  1.
         13    1    4    4    0    0 -0.19823583155E+02  0.14957606453E+02 -0.26025483030E+02  0.35972786532E+02  0.10566000000E+00 0. -1.
        -13    1    4    4    0    0 -0.50080924132E+01  0.36167693044E+01 -0.56499509264E+01  0.83722828026E+01  0.10566000000E+00 0.  1.
         14    1    4    4    0    0 -0.36039710745E+01  0.28847356626E+01 -0.39485933381E+01  0.60746766744E+01  0.00000000000E+00 0. -1.
<mgrwt>
<rscale>  0 0.77029194E+02</rscale>
<asrwt>0</asrwt>
<pdfrwt beam="1">  1        2 0.95995256E-02 0.77029194E+02</pdfrwt>
<pdfrwt beam="2">  1       -1 0.36574149E-02 0.77029194E+02</pdfrwt>
<totfact> 0.17405226E+05</totfact>
</mgrwt>
</event>
<event>
 8    1  0.2561077E-024  0.7972961E+02  0.7818608E-02  0.1329821E+00
         -1   -1    0    0    0  501 -0.00000000000E+00  0.00000000000E+00  0.54818108861E+01  0.54818132030E+01  0.50400000000E-02 0.  1.
          2   -1    0    0  501    0  0.00000000000E+00 -0.00000000000E+00 -0.28990462349E+03  0.28990462351E+03  0.25500000000E-02 0. -1.
         24    2    1    2    0    0 -0.35527136788E-14  0.71054273576E-14 -0.28442281261E+03  0.29538643671E+03  0.79729609678E+02 0.  0.
         66    2    3    3    0    0 -0.15959165488E+02  0.35240412470E+02 -0.17756805014E+03  0.18174430957E+03  0.19999992401E+01 0.  0.
        -13    1    3    3    0    0  0.15959165488E+02 -0.35240412470E+02 -0.10685476247E+03  0.11364212714E+03  0.10566000000E+00 0.  1.
         13    1    4    4    0    0 -0.14532889973E+02  0.31134449973E+02 -0.15595402644E+03  0.15969417144E+03  0.10566000000E+00 0. -1.
        -13    1    4    4    0    0 -0.69487033663E+00  0.24818747964E+01 -0.12372986517E+02  0.12639007346E+02  0.10566000000E+00 0.  1.
         14    1    4    4    0    0 -0.73140517868E+00  0.16240877005E+01 -0.92410371774E+01  0.94111307774E+01  0.00000000000E+00 0. -1.
<mgrwt>
<rscale>  0 0.79729610E+02</rscale>
<asrwt>0</asrwt>
<pdfrwt beam="1">  1        2 0.44600699E-01 0.79729610E+02</pdfrwt>
<pdfrwt beam="2">  1       -1 0.84335593E-03 0.79729610E+02</pdfrwt>
<totfact> 0.25404917E+05</totfact>
</mgrwt>
</event>
<event>
 8    1  0.2561077E-024  0.7952680E+02  0.7818608E-02  0.1330400E+00
         -1   -1    0    0    0  501 -0.00000000000E+00  0.00000000000E+00  0.14077221376E+02  0.14077222278E+02  0.50400000000E-02 0.  1.
          2   -1    0    0  501    0  0.00000000000E+00 -0.00000000000E+00 -0.11231817520E+03  0.11231817523E+03  0.25500000000E-02 0. -1.
         24    2    1    2    0    0  0.35527136788E-14  0.35527136788E-14 -0.98240953826E+02  0.12639539751E+03  0.79526797387E+02 0.  0.
         66    2    3    3    0    0  0.28989708060E+02  0.16200112614E+02 -0.83836893241E+02  0.90196848539E+02  0.19999990192E+01 0.  0.
        -13    1    3    3    0    0 -0.28989708060E+02 -0.16200112614E+02 -0.14404060585E+02  0.36198548969E+02  0.10566000000E+00 0.  1.
         13    1    4    4    0    0  0.10975871857E+02  0.66773475016E+01 -0.31388684739E+02  0.33916329789E+02  0.10566000000E+00 0. -1.
        -13    1    4    4    0    0  0.12088397504E+02  0.66066195172E+01 -0.33942151049E+02  0.36631373951E+02  0.10566000000E+00 0. -1.
         14    1    4    4    0    0  0.59254386987E+01  0.29161455947E+01 -0.18506057453E+02  0.19649144800E+02  0.00000000000E+00 0. -1.
<mgrwt>
<rscale>  0 0.79526797E+02</rscale>
<asrwt>0</asrwt>
<pdfrwt beam="1">  1        2 0.17279719E-01 0.79526797E+02</pdfrwt>
<pdfrwt beam="2">  1       -1 0.21657265E-02 0.79526797E+02</pdfrwt>
<totfact> 0.18617254E+05</totfact>
</mgrwt>
</event>
<event>
 8    1  0.2561077E-024  0.7932895E+02  0.7818608E-02  0.1330967E+00
          2   -1    0    0  501    0  0.00000000000E+00  0.00000000000E+00  0.16496228447E+03  0.16496228449E+03  0.25500000000E-02 0. -1.
         -1   -1    0    0    0  501 -0.00000000000E+00 -0.00000000000E+00 -0.95371531562E+01  0.95371544880E+01  0.50400000000E-02 0.  1.
         24    2    1    2    0    0  0.00000000000E+00  0.00000000000E+00  0.15542513132E+03  0.17449943898E+03  0.79328952846E+02 0.  0.
         66    2    3    3    0    0  0.18772849027E+02  0.17020303279E+02  0.14481300474E+03  0.14702692583E+03  0.19999980273E+01 0.  0.
        -13    1    3    3    0    0 -0.18772849027E+02 -0.17020303279E+02  0.10612126572E+02  0.27472513149E+02  0.10566000000E+00 0.  1.
         13    1    4    4    0    0  0.11159048480E+02  0.98411374888E+01  0.88315246856E+02  0.89559847819E+02  0.10566000000E+00 0. -1.
        -13    1    4    4    0    0  0.73949801170E+01  0.71364516715E+01  0.54881611033E+02  0.55835625429E+02  0.10566000000E+00 0.  1.
        -14    1    4    4    0    0  0.21882042998E+00  0.42714118613E-01  0.16161468536E+01  0.16314525825E+01  0.00000000000E+00 0.  1.
<mgrwt>
<rscale>  0 0.79328953E+02</rscale>
<asrwt>0</asrwt>
<pdfrwt beam="1">  1        2 0.25378814E-01 0.79328953E+02</pdfrwt>
<pdfrwt beam="2">  1       -1 0.14672544E-02 0.79328953E+02</pdfrwt>
<totfact> 0.21127709E+05</totfact>
</mgrwt>
</event>
<event>
 8    1  0.2561077E-024  0.8038773E+02  0.7818608E-02  0.1327955E+00
         -1   -1    0    0    0  501 -0.00000000000E+00  0.00000000000E+00  0.48949987346E+01  0.48950013293E+01  0.50400000000E-02 0.  1.
          2   -1    0    0  501    0  0.00000000000E+00 -0.00000000000E+00 -0.33004020921E+03  0.33004020922E+03  0.25500000000E-02 0. -1.
         24    2    1    2    0    0  0.17763568394E-14  0.00000000000E+00 -0.32514521048E+03  0.33493521055E+03  0.80387731468E+02 0.  0.
         66    2    3    3    0    0  0.93626047364E+01  0.44274115385E+01 -0.32437820025E+03  0.32454965283E+03  0.20000039286E+01 0.  0.
        -13    1    3    3    0    0 -0.93626047364E+01 -0.44274115385E+01 -0.76701022596E+00  0.10385557717E+02  0.10566000000E+00 0.  1.
         13    1    4    4    0    0  0.37537371659E+01  0.16368593536E+01 -0.14056389931E+03  0.14062357841E+03  0.10566000000E+00 0. -1.
        -13    1    4    4    0    0  0.43693351295E+01  0.16339524457E+01 -0.12402258905E+03  0.12411033257E+03  0.10566000000E+00 0.  1.
         14    1    4    4    0    0  0.12395324410E+01  0.11565997391E+01 -0.59791711889E+02  0.59815741860E+02  0.00000000000E+00 0. -1.
<mgrwt>
<rscale>  0 0.80387731E+02</rscale>
<asrwt>0</asrwt>
<pdfrwt beam="1">  1        2 0.50775399E-01 0.80387731E+02</pdfrwt>
<pdfrwt beam="2">  1       -1 0.75307719E-03 0.80387731E+02</pdfrwt>
<totfact> 0.26056228E+05</totfact>
</mgrwt>
</event>
<event>
 8    1  0.2561077E-024  0.7983559E+02  0.7818608E-02  0.1329519E+00
          2   -1    0    0  501    0  0.00000000000E+00  0.00000000000E+00  0.13886447414E+02  0.13886447648E+02  0.25500000000E-02 0. -1.
         -1   -1    0    0    0  501 -0.00000000000E+00 -0.00000000000E+00 -0.11474716877E+03  0.11474716888E+03  0.50400000000E-02 0.  1.
         24    2    1    2    0    0  0.00000000000E+00  0.00000000000E+00 -0.10086072136E+03  0.12863361653E+03  0.79835594749E+02 0.  0.
         66    2    3    3    0    0  0.25538848951E+02  0.26573327421E+02 -0.25864846772E+02  0.45070664783E+02  0.19999973631E+01 0.  0.
        -13    1    3    3    0    0 -0.25538848951E+02 -0.26573327421E+02 -0.74995874586E+02  0.83562951749E+02  0.10566000000E+00 0.  1.
         13    1    4    4    0    0  0.85131528388E+01  0.91044344162E+01 -0.84243778639E+01  0.15044793243E+02  0.10566000000E+00 0. -1.
        -13    1    4    4    0    0  0.14941195171E+02  0.15664644996E+02 -0.15971402640E+02  0.26901994021E+02  0.10566000000E+00 0.  1.
        -14    1    4    4    0    0  0.20845009415E+01  0.18042480085E+01 -0.14690662685E+01  0.31238775188E+01  0.00000000000E+00 0.  1.
<mgrwt>
<rscale>  0 0.79835595E+02</rscale>
<asrwt>0</asrwt>
<pdfrwt beam="1">  1        2 0.21363766E-02 0.79835595E+02</pdfrwt>
<pdfrwt beam="2">  1       -1 0.17653410E-01 0.79835595E+02</pdfrwt>
<totfact> 0.11560128E+05</totfact>
</mgrwt>
</event>
<event>
 8    1  0.2561077E-024  0.8155152E+02  0.7818608E-02  0.1324705E+00
         -1   -1    0    0    0  501 -0.00000000000E+00  0.00000000000E+00  0.19984962454E+01  0.19985026006E+01  0.50400000000E-02 0.  1.
          2   -1    0    0  501    0  0.00000000000E+00 -0.00000000000E+00 -0.83195558998E+03  0.83195558999E+03  0.25500000000E-02 0. -1.
         24    2    1    2    0    0 -0.35527136788E-14  0.00000000000E+00 -0.82995709374E+03  0.83395409259E+03  0.81551524192E+02 0.  0.
         66    2    3    3    0    0 -0.15862080441E+02 -0.16300079858E+02 -0.76100872003E+03  0.76135114774E+03  0.20000016819E+01 0.  0.
        -13    1    3    3    0    0  0.15862080441E+02  0.16300079858E+02 -0.68948373706E+02  0.72602944844E+02  0.10566000000E+00 0.  1.
         13    1    4    4    0    0 -0.30558971654E+01 -0.26345781946E+01 -0.11745898898E+03  0.11752831475E+03  0.10566000000E+00 0.  1.
        -13    1    4    4    0    0 -0.54156418827E+01 -0.56198921297E+01 -0.25350160377E+03  0.25362173929E+03  0.10566000000E+00 0. -1.
        -14    1    4    4    0    0 -0.73905413933E+01 -0.80456095335E+01 -0.39004812728E+03  0.39020109371E+03  0.00000000000E+00 0.  1.
<mgrwt>
<rscale>  0 0.81551524E+02</rscale>
<asrwt>0</asrwt>
<pdfrwt beam="1">  1        2 0.12799289E+00 0.81551524E+02</pdfrwt>
<pdfrwt beam="2">  1       -1 0.30746211E-03 0.81551524E+02</pdfrwt>
<totfact> 0.32900898E+05</totfact>
</mgrwt>
</event>
<event>
 8    1  0.2561077E-024  0.7712950E+02  0.7818608E-02  0.1337401E+00
          2   -1    0    0  501    0  0.00000000000E+00  0.00000000000E+00  0.63486862550E+03  0.63486862550E+03  0.25500000000E-02 0. -1.
         -1   -1    0    0    0  501 -0.00000000000E+00 -0.00000000000E+00 -0.23425919769E+01  0.23425973986E+01  0.50400000000E-02 0.  1.
         24    2    1    2    0    0 -0.35527136788E-14  0.17763568394E-14  0.63252603352E+03  0.63721122290E+03  0.77129498313E+02 0.  0.
         66    2    3    3    0    0  0.25027525396E+02 -0.14264766564E+02  0.52797374312E+03  0.52876283341E+03  0.19999930393E+01 0.  0.
        -13    1    3    3    0    0 -0.25027525396E+02  0.14264766564E+02  0.10455229040E+03  0.10844838949E+03  0.10566000000E+00 0.  1.
         13    1    4    4    0    0  0.11231006135E+02 -0.65368665658E+01  0.24794553855E+03  0.24828585818E+03  0.10566000000E+00 0. -1.
        -13    1    4    4    0    0  0.64460788002E+01 -0.42912641421E+01  0.13851743226E+03  0.13873376332E+03  0.10566000000E+00 0.  1.
        -14    1    4    4    0    0  0.73504404605E+01 -0.34366358562E+01  0.14151077231E+03  0.14174321191E+03  0.00000000000E+00 0.  1.
<mgrwt>
<rscale>  0 0.77129498E+02</rscale>
<asrwt>0</asrwt>
<pdfrwt beam="1">  1        2 0.97672190E-01 0.77129498E+02</pdfrwt>
<pdfrwt beam="2">  1       -1 0.36039884E-03 0.77129498E+02</pdfrwt>
<totfact> 0.35908345E+05</totfact>
</mgrwt>
</event>
<event>
 8    1  0.2561077E-024  0.7953711E+02  0.7818608E-02  0.1330370E+00
         -1   -1    0    0    0  501 -0.00000000000E+00  0.00000000000E+00  0.13129751621E+02  0.13129752589E+02  0.50400000000E-02 0.  1.
          2   -1    0    0  501    0  0.00000000000E+00 -0.00000000000E+00 -0.12045451190E+03  0.12045451193E+03  0.25500000000E-02 0. -1.
         24    2    1    2    0    0  0.00000000000E+00  0.17763568394E-14 -0.10732476028E+03  0.13358426452E+03  0.79537108053E+02 0.  0.
         66    2    3    3    0    0  0.61265856966E+01 -0.11486898789E+02 -0.11676328030E+03  0.11750381924E+03  0.20000033192E+01 0.  0.
        -13    1    3    3    0    0 -0.61265856966E+01  0.11486898789E+02  0.94385200206E+01  0.16080445277E+02  0.10566000000E+00 0.  1.
         13    1    4    4    0    0  0.13130876344E+01 -0.16457995375E+01 -0.20769895648E+02  0.20876603759E+02  0.10566000000E+00 0. -1.
        -13    1    4    4    0    0  0.12013457425E+01 -0.39992353267E+01 -0.35071363923E+02  0.35319241870E+02  0.10566000000E+00 0.  1.
        -14    1    4    4    0    0  0.36121523196E+01 -0.58418639252E+01 -0.60922020730E+02  0.61307973612E+02  0.00000000000E+00 0.  1.
<mgrwt>
<rscale>  0 0.79537108E+02</rscale>
<asrwt>0</asrwt>
<pdfrwt beam="1">  1        2 0.18531463E-01 0.79537108E+02</pdfrwt>
<pdfrwt beam="2">  1       -1 0.20199619E-02 0.79537108E+02</pdfrwt>
<totfact> 0.18999349E+05</totfact>
</mgrwt>
</event>
<event>
 8    1  0.2561077E-024  0.8828510E+02  0.7818608E-02  0.1307059E+00
         -1   -1    0    0    0  501 -0.00000000000E+00  0.00000000000E+00  0.38555830042E+01  0.38555862983E+01  0.50400000000E-02 0.  1.
          2   -1    0    0  501    0  0.00000000000E+00 -0.00000000000E+00 -0.50538765468E+03  0.50538765469E+03  0.25500000000E-02 0. -1.
         24    2    1    2    0    0  0.00000000000E+00  0.00000000000E+00 -0.50153207168E+03  0.50924324099E+03  0.88285103892E+02 0.  0.
         66    2    3    3    0    0  0.15656746514E+02  0.39617159361E+02 -0.31714216411E+03  0.31999657073E+03  0.19999984455E+01 0.  0.
        -13    1    3    3    0    0 -0.15656746514E+02 -0.39617159361E+02 -0.18438990756E+03  0.18924667026E+03  0.10566000000E+00 0.  1.
         13    1    4    4    0    0  0.50158539311E+01  0.11151411217E+02 -0.94664468832E+02  0.95450959063E+02  0.10566000000E+00 0. -1.
        -13    1    4    4    0    0  0.36951239421E+01  0.11163665648E+02 -0.85790617547E+02  0.86592855334E+02  0.10566000000E+00 0.  1.
        -14    1    4    4    0    0  0.69457686409E+01  0.17302082496E+02 -0.13668707773E+03  0.13795275633E+03  0.00000000000E+00 0.  1.
<mgrwt>
<rscale>  0 0.88285104E+02</rscale>
<asrwt>0</asrwt>
<pdfrwt beam="1">  1        2 0.77751894E-01 0.88285104E+02</pdfrwt>
<pdfrwt beam="2">  1       -1 0.59316727E-03 0.88285104E+02</pdfrwt>
<totfact> 0.23605877E+05</totfact>
</mgrwt>
</event>
<event>
 8    1  0.2561077E-024  0.7903493E+02  0.7818608E-02  0.1331813E+00
         -1   -1    0    0    0  501 -0.00000000000E+00  0.00000000000E+00  0.21537838647E+02  0.21537839236E+02  0.50400000000E-02 0.  1.
          2   -1    0    0  501    0  0.00000000000E+00 -0.00000000000E+00 -0.72506350359E+02  0.72506350404E+02  0.25500000000E-02 0. -1.
         24    2    1    2    0    0  0.17763568394E-14  0.00000000000E+00 -0.50968511713E+02  0.94044189641E+02  0.79034931638E+02 0.  0.
         66    2    3    3    0    0  0.13565523283E+02  0.29832680560E+02 -0.51722057310E+02  0.61263231047E+02  0.20000036581E+01 0.  0.
        -13    1    3    3    0    0 -0.13565523283E+02 -0.29832680560E+02  0.75354559755E+00  0.32780958593E+02  0.10566000000E+00 0.  1.
         13    1    4    4    0    0  0.94282692750E+01  0.20759449794E+02 -0.36039947172E+02  0.42646640823E+02  0.10566000000E+00 0. -1.
        -13    1    4    4    0    0  0.18116004418E+01  0.36581381130E+01 -0.73960903291E+01  0.84485020451E+01  0.10566000000E+00 0.  1.
         14    1    4    4    0    0  0.23256535659E+01  0.54150926521E+01 -0.82860198093E+01  0.10168088179E+02  0.00000000000E+00 0. -1.
<mgrwt>
<rscale>  0 0.79034932E+02</rscale>
<asrwt>0</asrwt>
<pdfrwt beam="1">  1        2 0.11154823E-01 0.79034932E+02</pdfrwt>
<pdfrwt beam="2">  1       -1 0.33135137E-02 0.79034932E+02</pdfrwt>
<totfact> 0.16829653E+05</totfact>
</mgrwt>
</event>
<event>
 8    1  0.2561077E-024  0.7947983E+02  0.7818608E-02  0.1330534E+00
         -1   -1    0    0    0  501 -0.00000000000E+00  0.00000000000E+00  0.72324300481E+01  0.72324318042E+01  0.50400000000E-02 0.  1.
          2   -1    0    0  501    0  0.00000000000E+00 -0.00000000000E+00 -0.21835825014E+03  0.21835825015E+03  0.25500000000E-02 0. -1.
         24    2    1    2    0    0  0.00000000000E+00  0.00000000000E+00 -0.21112582009E+03  0.22559068196E+03  0.79479833148E+02 0.  0.
         66    2    3    3    0    0  0.34463220701E+02  0.18435012972E+02 -0.12563788790E+03  0.13159195325E+03  0.19999999668E+01 0.  0.
        -13    1    3    3    0    0 -0.34463220701E+02 -0.18435012972E+02 -0.85487932189E+02  0.93998728706E+02  0.10566000000E+00 0.  1.
         13    1    4    4    0    0  0.45319853095E+01  0.28813804888E+01 -0.17351434476E+02  0.18163829079E+02  0.10566000000E+00 0. -1.
        -13    1    4    4    0    0  0.32950276872E+01  0.17479547378E+01 -0.10534189293E+02  0.11175547473E+02  0.10566000000E+00 0.  1.
        -14    1    4    4    0    0  0.26636207704E+02  0.13805677746E+02 -0.97752264133E+02  0.10225257670E+03  0.00000000000E+00 0.  1.
<mgrwt>
<rscale>  0 0.79479833E+02</rscale>
<asrwt>0</asrwt>
<pdfrwt beam="1">  1        2 0.33593572E-01 0.79479833E+02</pdfrwt>
<pdfrwt beam="2">  1       -1 0.11126819E-02 0.79479833E+02</pdfrwt>
<totfact> 0.23141249E+05</totfact>
</mgrwt>
</event>
<event>
 8    1  0.2561077E-024  0.8289604E+02  0.7818608E-02  0.1321028E+00
         -1   -1    0    0    0  501 -0.00000000000E+00  0.00000000000E+00  0.34791310259E+02  0.34791310624E+02  0.50400000000E-02 0.  1.
          2   -1    0    0  501    0  0.00000000000E+00 -0.00000000000E+00 -0.49378369976E+02  0.49378370042E+02  0.25500000000E-02 0. -1.
         24    2    1    2    0    0 -0.17763568394E-14  0.00000000000E+00 -0.14587059718E+02  0.84169680666E+02  0.82896036287E+02 0.  0.
         66    2    3    3    0    0 -0.11694408323E+02  0.30814568351E+02 -0.32775851349E+02  0.46524759179E+02  0.19999940793E+01 0.  0.
        -13    1    3    3    0    0  0.11694408323E+02 -0.30814568351E+02  0.18188791631E+02  0.37644921487E+02  0.10566000000E+00 0.  1.
         13    1    4    4    0    0 -0.31813027798E+01  0.78003911496E+01 -0.87798614286E+01  0.12168151881E+02  0.10566000000E+00 0. -1.
        -13    1    4    4    0    0 -0.44628086827E+01  0.10967712701E+02 -0.10628009535E+02  0.15911415208E+02  0.10566000000E+00 0.  1.
        -14    1    4    4    0    0 -0.40502968610E+01  0.12046464501E+02 -0.13367980385E+02  0.18445192090E+02  0.00000000000E+00 0.  1.
<mgrwt>
<rscale>  0 0.82896036E+02</rscale>
<asrwt>0</asrwt>
<pdfrwt beam="1">  1        2 0.75966723E-02 0.82896036E+02</pdfrwt>
<pdfrwt beam="2">  1       -1 0.53525093E-02 0.82896036E+02</pdfrwt>
<totfact> 0.13515236E+05</totfact>
</mgrwt>
</event>
<event>
 8    1  0.2561077E-024  0.8163429E+02  0.7818608E-02  0.1324477E+00
         -1   -1    0    0    0  501 -0.00000000000E+00  0.00000000000E+00  0.18192037218E+01  0.18192107033E+01  0.50400000000E-02 0.  1.
          2   -1    0    0  501    0  0.00000000000E+00 -0.00000000000E+00 -0.91580515581E+03  0.91580515581E+03  0.25500000000E-02 0. -1.
         24    2    1    2    0    0  0.00000000000E+00 -0.44408920985E-15 -0.91398595209E+03  0.91762436651E+03  0.81634290655E+02 0.  0.
         66    2    3    3    0    0 -0.11017145642E+02 -0.34051056367E+01 -0.89710043088E+03  0.89717676928E+03  0.19999989336E+01 0.  0.
        -13    1    3    3    0    0  0.11017145642E+02  0.34051056367E+01 -0.16885521203E+02  0.20447597238E+02  0.10566000000E+00 0.  1.
         13    1    4    4    0    0 -0.44161140066E+00 -0.21902924154E+00 -0.35391515824E+02  0.35395106311E+02  0.10566000000E+00 0. -1.
        -13    1    4    4    0    0  0.29222593938E-01 -0.49652208695E-03 -0.50571627744E+01  0.50583508745E+01  0.10566000000E+00 0. -1.
        -14    1    4    4    0    0 -0.10604756835E+02 -0.31855798731E+01 -0.85665175228E+03  0.85672331209E+03  0.00000000000E+00 0.  1.
<mgrwt>
<rscale>  0 0.81634291E+02</rscale>
<asrwt>0</asrwt>
<pdfrwt beam="1">  1        2 0.14089273E+00 0.81634291E+02</pdfrwt>
<pdfrwt beam="2">  1       -1 0.27987877E-03 0.81634291E+02</pdfrwt>
<totfact> 0.33217675E+05</totfact>
</mgrwt>
</event>
<event>
 8    1  0.2561077E-024  0.7991830E+02  0.7818608E-02  0.1329283E+00
         -1   -1    0    0    0  501 -0.00000000000E+00  0.00000000000E+00  0.83714553364E+02  0.83714553516E+02  0.50400000000E-02 0.  1.
          2   -1    0    0  501    0  0.00000000000E+00 -0.00000000000E+00 -0.19073549766E+02  0.19073549936E+02  0.25500000000E-02 0. -1.
         24    2    1    2    0    0  0.00000000000E+00  0.35527136788E-14  0.64641003598E+02  0.10278810345E+03  0.79918301190E+02 0.  0.
         66    2    3    3    0    0  0.22547030705E+02 -0.29994336147E+02  0.14766763768E+02  0.40374324867E+02  0.20000004487E+01 0.  0.
        -13    1    3    3    0    0 -0.22547030705E+02  0.29994336147E+02  0.49874239830E+02  0.62413778585E+02  0.10566000000E+00 0.  1.
         13    1    4    4    0    0  0.17920511700E+02 -0.23778999067E+02  0.12137928839E+02  0.32154719976E+02  0.10566000000E+00 0. -1.
        -13    1    4    4    0    0  0.38890497092E+01 -0.55537408343E+01  0.21119203875E+01  0.71021205744E+01  0.10566000000E+00 0.  1.
         14    1    4    4    0    0  0.73746929566E+00 -0.66159624601E+00  0.51691454145E+00  0.11174843166E+01  0.00000000000E+00 0. -1.
<mgrwt>
<rscale>  0 0.79918301E+02</rscale>
<asrwt>0</asrwt>
<pdfrwt beam="1">  1        2 0.29343922E-02 0.79918301E+02</pdfrwt>
<pdfrwt beam="2">  1       -1 0.12879162E-01 0.79918301E+02</pdfrwt>
<totfact> 0.12332872E+05</totfact>
</mgrwt>
</event>
<event>
 8    1  0.2561077E-024  0.7864632E+02  0.7818608E-02  0.1332937E+00
          2   -1    0    0  501    0  0.00000000000E+00  0.00000000000E+00  0.46397928858E+03  0.46397928859E+03  0.25500000000E-02 0. -1.
         -1   -1    0    0    0  501 -0.00000000000E+00 -0.00000000000E+00 -0.33327132922E+01  0.33327171031E+01  0.50400000000E-02 0.  1.
         24    2    1    2    0    0  0.00000000000E+00  0.00000000000E+00  0.46064657529E+03  0.46731200569E+03  0.78646318018E+02 0.  0.
         66    2    3    3    0    0  0.31268125337E+02 -0.15190182569E+02  0.33936815024E+03  0.34114978926E+03  0.20000014745E+01 0.  0.
        -13    1    3    3    0    0 -0.31268125337E+02  0.15190182569E+02  0.12127842505E+03  0.12616221643E+03  0.10566000000E+00 0.  1.
         13    1    4    4    0    0  0.43189086630E+01 -0.20433016810E+01  0.53546620452E+02  0.53759462233E+02  0.10566000000E+00 0. -1.
        -13    1    4    4    0    0  0.10934760192E+02 -0.53970737904E+01  0.11466731139E+03  0.11531392306E+03  0.10566000000E+00 0.  1.
         14    1    4    4    0    0  0.16014456482E+02 -0.77498070973E+01  0.17115421840E+03  0.17207640397E+03  0.00000000000E+00 0. -1.
<mgrwt>
<rscale>  0 0.78646318E+02</rscale>
<asrwt>0</asrwt>
<pdfrwt beam="1">  1        2 0.71381426E-01 0.78646318E+02</pdfrwt>
<pdfrwt beam="2">  1       -1 0.51272544E-03 0.78646318E+02</pdfrwt>
<totfact> 0.31071652E+05</totfact>
</mgrwt>
</event>
<event>
 8    1  0.2561077E-024  0.8483279E+02  0.7818608E-02  0.1315870E+00
          2   -1    0    0  501    0  0.00000000000E+00  0.00000000000E+00  0.15754408641E+03  0.15754408643E+03  0.25500000000E-02 0. -1.
         -1   -1    0    0    0  501 -0.00000000000E+00 -0.00000000000E+00 -0.11419981515E+02  0.11419982627E+02  0.50400000000E-02 0.  1.
         24    2    1    2    0    0 -0.35527136788E-14  0.00000000000E+00  0.14612410490E+03  0.16896406906E+03  0.84832792015E+02 0.  0.
         66    2    3    3    0    0 -0.27861887123E+02  0.77963106636E+01  0.13481658440E+03  0.13790061146E+03  0.19999997927E+01 0.  0.
        -13    1    3    3    0    0  0.27861887123E+02 -0.77963106636E+01  0.11307520500E+02  0.31063457597E+02  0.10566000000E+00 0.  1.
         13    1    4    4    0    0 -0.13919970471E+02  0.44612590815E+01  0.68979379076E+02  0.70511235362E+02  0.10566000000E+00 0. -1.
        -13    1    4    4    0    0 -0.13487268906E+02  0.32648580782E+01  0.64477362317E+02  0.65953825789E+02  0.10566000000E+00 0.  1.
        -14    1    4    4    0    0 -0.45464774587E+00  0.70193503776E-01  0.13598430022E+01  0.14355503096E+01  0.00000000000E+00 0.  1.
<mgrwt>
<rscale>  0 0.84832792E+02</rscale>
<asrwt>0</asrwt>
<pdfrwt beam="1">  1        2 0.24237553E-01 0.84832792E+02</pdfrwt>
<pdfrwt beam="2">  1       -1 0.17569202E-02 0.84832792E+02</pdfrwt>
<totfact> 0.17412305E+05</totfact>
</mgrwt>
</event>
<event>
 8    1  0.2561077E-024  0.8651320E+02  0.7818608E-02  0.1311522E+00
          2   -1    0    0  501    0  0.00000000000E+00  0.00000000000E+00  0.33174863213E+03  0.33174863214E+03  0.25500000000E-02 0. -1.
         -1   -1    0    0    0  501 -0.00000000000E+00 -0.00000000000E+00 -0.56402127756E+01  0.56402150274E+01  0.50400000000E-02 0.  1.
         24    2    1    2    0    0 -0.35527136788E-14  0.00000000000E+00  0.32610841936E+03  0.33738884717E+03  0.86513195636E+02 0.  0.
         66    2    3    3    0    0 -0.24324276199E+02 -0.17056705345E+02  0.28563170978E+03  0.28717951744E+03  0.19999986656E+01 0.  0.
        -13    1    3    3    0    0  0.24324276199E+02  0.17056705345E+02  0.40476709579E+02  0.50209329733E+02  0.10566000000E+00 0.  1.
         13    1    4    4    0    0 -0.62768695826E+01 -0.48745701180E+01  0.81612590963E+02  0.81998699339E+02  0.10566000000E+00 0. -1.
        -13    1    4    4    0    0 -0.56917388017E+01 -0.33489690750E+01  0.59042932712E+02  0.59411198875E+02  0.10566000000E+00 0.  1.
         14    1    4    4    0    0 -0.12355667815E+02 -0.88331661520E+01  0.14497618611E+03  0.14576961923E+03  0.00000000000E+00 0. -1.
<mgrwt>
<rscale>  0 0.86513196E+02</rscale>
<asrwt>0</asrwt>
<pdfrwt beam="1">  1        2 0.51038239E-01 0.86513196E+02</pdfrwt>
<pdfrwt beam="2">  1       -1 0.86772543E-03 0.86513196E+02</pdfrwt>
<totfact> 0.21521491E+05</totfact>
</mgrwt>
</event>
<event>
 8    1  0.2561077E-024  0.7997917E+02  0.7818608E-02  0.1329111E+00
         -1   -1    0    0    0  501 -0.00000000000E+00  0.00000000000E+00  0.83314645760E+02  0.83314645913E+02  0.50400000000E-02 0.  1.
          2   -1    0    0  501    0  0.00000000000E+00 -0.00000000000E+00 -0.19194307143E+02  0.19194307312E+02  0.25500000000E-02 0. -1.
         24    2    1    2    0    0  0.00000000000E+00  0.35527136788E-14  0.64120338618E+02  0.10250895322E+03  0.79979170206E+02 0.  0.
         66    2    3    3    0    0 -0.23851187224E+02  0.18225286406E+02 -0.17362495849E+01  0.30133946694E+02  0.19999960453E+01 0.  0.
        -13    1    3    3    0    0  0.23851187224E+02 -0.18225286406E+02  0.65856588203E+02  0.72375006531E+02  0.10566000000E+00 0.  1.
         13    1    4    4    0    0 -0.11895632618E+02  0.96906316829E+01 -0.40598702993E+00  0.15348954600E+02  0.10566000000E+00 0. -1.
        -13    1    4    4    0    0 -0.20745674288E+01  0.11712367165E+01  0.48567236752E-01  0.23851935508E+01  0.10566000000E+00 0. -1.
        -14    1    4    4    0    0 -0.98809871771E+01  0.73634180069E+01 -0.13788297917E+01  0.12399798544E+02  0.00000000000E+00 0.  1.
<mgrwt>
<rscale>  0 0.79979170E+02</rscale>
<asrwt>0</asrwt>
<pdfrwt beam="1">  1        2 0.29529703E-02 0.79979170E+02</pdfrwt>
<pdfrwt beam="2">  1       -1 0.12817638E-01 0.79979170E+02</pdfrwt>
<totfact> 0.12321703E+05</totfact>
</mgrwt>
</event>
<event>
 8    1  0.2561077E-024  0.7924319E+02  0.7818608E-02  0.1331213E+00
          2   -1    0    0  501    0  0.00000000000E+00  0.00000000000E+00  0.17166006203E+03  0.17166006205E+03  0.25500000000E-02 0. -1.
         -1   -1    0    0    0  501 -0.00000000000E+00 -0.00000000000E+00 -0.91452302635E+01  0.91452316522E+01  0.50400000000E-02 0.  1.
         24    2    1    2    0    0  0.17763568394E-14  0.00000000000E+00  0.16251483176E+03  0.18080529370E+03  0.79243193311E+02 0.  0.
         66    2    3    3    0    0  0.10522852183E+02 -0.31106009917E+02  0.13179241564E+03  0.13583650132E+03  0.20000003358E+01 0.  0.
        -13    1    3    3    0    0 -0.10522852183E+02  0.31106009917E+02  0.30722416128E+02  0.44968792376E+02  0.10566000000E+00 0.  1.
         13    1    4    4    0    0  0.60226805160E+01 -0.16776920545E+02  0.72901892388E+02  0.75049549108E+02  0.10566000000E+00 0. -1.
        -13    1    4    4    0    0  0.18039857555E+01 -0.72012983283E+01  0.30625296893E+02  0.31512426692E+02  0.10566000000E+00 0.  1.
        -14    1    4    4    0    0  0.26961859115E+01 -0.71277910436E+01  0.28265226356E+02  0.29274525523E+02  0.00000000000E+00 0.  1.
<mgrwt>
<rscale>  0 0.79243193E+02</rscale>
<asrwt>0</asrwt>
<pdfrwt beam="1">  1        2 0.26409239E-01 0.79243193E+02</pdfrwt>
<pdfrwt beam="2">  1       -1 0.14069587E-02 0.79243193E+02</pdfrwt>
<totfact> 0.21470223E+05</totfact>
</mgrwt>
</event>
<event>
 8    1  0.2561077E-024  0.8263578E+02  0.7818608E-02  0.1321734E+00
         -1   -1    0    0    0  501 -0.00000000000E+00  0.00000000000E+00  0.11742415185E+01  0.11742523347E+01  0.50400000000E-02 0.  1.
          2   -1    0    0  501    0  0.00000000000E+00 -0.00000000000E+00 -0.14538406350E+04  0.14538406350E+04  0.25500000000E-02 0. -1.
         24    2    1    2    0    0  0.00000000000E+00  0.00000000000E+00 -0.14526663935E+04  0.14550148873E+04  0.82635776885E+02 0.  0.
         66    2    3    3    0    0  0.13755033236E+02  0.15627294584E+02 -0.13546714215E+04  0.13548328582E+04  0.20000003389E+01 0.  0.
        -13    1    3    3    0    0 -0.13755033236E+02 -0.15627294584E+02 -0.97994971920E+02  0.10018202913E+03  0.10566000000E+00 0.  1.
         13    1    4    4    0    0  0.21834354941E+01  0.30641674833E+01 -0.23236198892E+03  0.23239247314E+03  0.10566000000E+00 0. -1.
        -13    1    4    4    0    0  0.18399767284E+01  0.28185282148E+01 -0.23229660649E+03  0.23232101533E+03  0.10566000000E+00 0.  1.
        -14    1    4    4    0    0  0.97316210130E+01  0.97445988862E+01 -0.89001282614E+03  0.89011936972E+03  0.00000000000E+00 0.  1.
<mgrwt>
<rscale>  0 0.82635777E+02</rscale>
<asrwt>0</asrwt>
<pdfrwt beam="1">  1        2 0.22366635E+00 0.82635777E+02</pdfrwt>
<pdfrwt beam="2">  1       -1 0.18065454E-03 0.82635777E+02</pdfrwt>
<totfact> 0.30901172E+05</totfact>
</mgrwt>
</event>
<event>
 8    1  0.2561077E-024  0.8031373E+02  0.7818608E-02  0.1328163E+00
          2   -1    0    0  501    0  0.00000000000E+00  0.00000000000E+00  0.36375132469E+03  0.36375132470E+03  0.25500000000E-02 0. -1.
         -1   -1    0    0    0  501 -0.00000000000E+00 -0.00000000000E+00 -0.44331752852E+01  0.44331781502E+01  0.50400000000E-02 0.  1.
         24    2    1    2    0    0  0.35527136788E-14  0.00000000000E+00  0.35931814941E+03  0.36818450285E+03  0.80313732616E+02 0.  0.
         66    2    3    3    0    0 -0.21210389619E+02  0.22882763558E+02  0.29547951134E+03  0.29712900081E+03  0.20000014016E+01 0.  0.
        -13    1    3    3    0    0  0.21210389619E+02 -0.22882763558E+02  0.63838638066E+02  0.71055502039E+02  0.10566000000E+00 0.  1.
         13    1    4    4    0    0 -0.24318706565E+01  0.29335420814E+01  0.37985819117E+02  0.38176606476E+02  0.10566000000E+00 0. -1.
        -13    1    4    4    0    0 -0.15311527173E+02  0.15436287990E+02  0.20732187054E+03  0.20845884731E+03  0.10566000000E+00 0.  1.
        -14    1    4    4    0    0 -0.34669917896E+01  0.45129334871E+01  0.50171821684E+02  0.50493547031E+02  0.00000000000E+00 0.  1.
<mgrwt>
<rscale>  0 0.80313733E+02</rscale>
<asrwt>0</asrwt>
<pdfrwt beam="1">  1        2 0.55961735E-01 0.80313733E+02</pdfrwt>
<pdfrwt beam="2">  1       -1 0.68202727E-03 0.80313733E+02</pdfrwt>
<totfact> 0.27043543E+05</totfact>
</mgrwt>
</event>
<event>
 8    1  0.2561077E-024  0.7784307E+02  0.7818608E-02  0.1335286E+00
          2   -1    0    0  501    0  0.00000000000E+00  0.00000000000E+00  0.19937831471E+03  0.19937831473E+03  0.25500000000E-02 0. -1.
         -1   -1    0    0    0  501 -0.00000000000E+00 -0.00000000000E+00 -0.75980468376E+01  0.75980485092E+01  0.50400000000E-02 0.  1.
         24    2    1    2    0    0  0.00000000000E+00  0.35527136788E-14  0.19178026788E+03  0.20697636324E+03  0.77843071581E+02 0.  0.
         66    2    3    3    0    0 -0.12388440123E+02  0.23784985297E+02  0.17086054258E+03  0.17296393838E+03  0.19999989197E+01 0.  0.
        -13    1    3    3    0    0  0.12388440123E+02 -0.23784985297E+02  0.20919725300E+02  0.34012424860E+02  0.10566000000E+00 0.  1.
         13    1    4    4    0    0 -0.77511437787E+01  0.13206547456E+02  0.95238666856E+02  0.96461950810E+02  0.10566000000E+00 0.  1.
        -13    1    4    4    0    0 -0.28257888777E+01  0.56325217480E+01  0.41738959519E+02  0.42212110700E+02  0.10566000000E+00 0. -1.
        -14    1    4    4    0    0 -0.18115074661E+01  0.49459160935E+01  0.33882916203E+02  0.34289876869E+02  0.00000000000E+00 0.  1.
<mgrwt>
<rscale>  0 0.77843072E+02</rscale>
<asrwt>0</asrwt>
<pdfrwt beam="1">  1        2 0.30673586E-01 0.77843072E+02</pdfrwt>
<pdfrwt beam="2">  1       -1 0.11689304E-02 0.77843072E+02</pdfrwt>
<totfact> 0.23680246E+05</totfact>
</mgrwt>
</event>
<event>
 8    1  0.2561077E-024  0.7931014E+02  0.7818608E-02  0.1331021E+00
          2   -1    0    0  501    0  0.00000000000E+00  0.00000000000E+00  0.63663386324E+02  0.63663386375E+02  0.25500000000E-02 0. -1.
         -1   -1    0    0    0  501 -0.00000000000E+00 -0.00000000000E+00 -0.24700611305E+02  0.24700611819E+02  0.50400000000E-02 0.  1.
         24    2    1    2    0    0  0.17763568394E-14 -0.35527136788E-14  0.38962775019E+02  0.88363998195E+02  0.79310140208E+02 0.  0.
         66    2    3    3    0    0  0.15763694861E+02  0.30383115391E+02  0.41746006676E+02  0.54021818313E+02  0.20000009751E+01 0.  0.
        -13    1    3    3    0    0 -0.15763694861E+02 -0.30383115391E+02 -0.27832316566E+01  0.34342179882E+02  0.10566000000E+00 0.  1.
         13    1    4    4    0    0  0.13310538454E+01  0.30842814616E+01  0.37323596873E+01  0.50225660120E+01  0.10566000000E+00 0. -1.
        -13    1    4    4    0    0  0.54228470999E+01  0.11765232190E+02  0.16356402920E+02  0.20865546714E+02  0.10566000000E+00 0.  1.
         14    1    4    4    0    0  0.90097939160E+01  0.15533601739E+02  0.21657244069E+02  0.28133705587E+02  0.00000000000E+00 0. -1.
<mgrwt>
<rscale>  0 0.79310140E+02</rscale>
<asrwt>0</asrwt>
<pdfrwt beam="1">  1        2 0.97943670E-02 0.79310140E+02</pdfrwt>
<pdfrwt beam="2">  1       -1 0.38000942E-02 0.79310140E+02</pdfrwt>
<totfact> 0.16158314E+05</totfact>
</mgrwt>
</event>
<event>
 8    1  0.2561077E-024  0.7963988E+02  0.7818608E-02  0.1330077E+00
         -1   -1    0    0    0  501 -0.00000000000E+00  0.00000000000E+00  0.45045548542E+01  0.45045576737E+01  0.50400000000E-02 0.  1.
          2   -1    0    0  501    0  0.00000000000E+00 -0.00000000000E+00 -0.35200529212E+03  0.35200529213E+03  0.25500000000E-02 0. -1.
         24    2    1    2    0    0  0.00000000000E+00 -0.35527136788E-14 -0.34750073727E+03  0.35650984981E+03  0.79639880753E+02 0.  0.
         66    2    3    3    0    0  0.16200258740E+02  0.22766542958E+02 -0.30070089493E+03  0.30200296705E+03  0.20000074496E+01 0.  0.
        -13    1    3    3    0    0 -0.16200258740E+02 -0.22766542958E+02 -0.46799842339E+02  0.54506882762E+02  0.10566000000E+00 0.  1.
         13    1    4    4    0    0  0.92422560487E+01  0.11490142407E+02 -0.16072420258E+03  0.16139926619E+03  0.10566000000E+00 0. -1.
        -13    1    4    4    0    0  0.68710232458E+01  0.11023346780E+02 -0.13769967668E+03  0.13831101639E+03  0.10566000000E+00 0.  1.
        -14    1    4    4    0    0  0.86979445592E-01  0.25305377179E+00 -0.22770156775E+01  0.22926844595E+01  0.00000000000E+00 0.  1.
<mgrwt>
<rscale>  0 0.79639881E+02</rscale>
<asrwt>0</asrwt>
<pdfrwt beam="1">  1        2 0.54154639E-01 0.79639881E+02</pdfrwt>
<pdfrwt beam="2">  1       -1 0.69300893E-03 0.79639881E+02</pdfrwt>
<totfact> 0.27325167E+05</totfact>
</mgrwt>
</event>
<event>
 8    1  0.2561077E-024  0.8010616E+02  0.7818608E-02  0.1328750E+00
          2   -1    0    0  501    0  0.00000000000E+00  0.00000000000E+00  0.10083518983E+02  0.10083519306E+02  0.25500000000E-02 0. -1.
         -1   -1    0    0    0  501 -0.00000000000E+00 -0.00000000000E+00 -0.15909615232E+03  0.15909615240E+03  0.50400000000E-02 0.  1.
         24    2    1    2    0    0  0.00000000000E+00  0.35527136788E-14 -0.14901263333E+03  0.16917967170E+03  0.80106157218E+02 0.  0.
         66    2    3    3    0    0  0.23562137512E+02 -0.23217281237E+02 -0.26950546447E+02  0.42714733117E+02  0.19999998266E+01 0.  0.
        -13    1    3    3    0    0 -0.23562137512E+02  0.23217281237E+02 -0.12206208689E+03  0.12646493858E+03  0.10566000000E+00 0.  1.
         13    1    4    4    0    0  0.46643899038E+01 -0.53975625827E+01 -0.58604529603E+01  0.92328916351E+01  0.10566000000E+00 0. -1.
        -13    1    4    4    0    0  0.93915784834E+01 -0.80828326504E+01 -0.10393959049E+02  0.16173418897E+02  0.10566000000E+00 0.  1.
        -14    1    4    4    0    0  0.95061691249E+01 -0.97368860038E+01 -0.10696134438E+02  0.17308422586E+02  0.00000000000E+00 0.  1.
<mgrwt>
<rscale>  0 0.80106157E+02</rscale>
<asrwt>0</asrwt>
<pdfrwt beam="1">  1        2 0.15513108E-02 0.80106157E+02</pdfrwt>
<pdfrwt beam="2">  1       -1 0.24476329E-01 0.80106157E+02</pdfrwt>
<totfact> 0.10588444E+05</totfact>
</mgrwt>
</event>
<event>
 8    1  0.2561077E-024  0.7052245E+02  0.7818608E-02  0.1358325E+00
         -1   -1    0    0    0  501 -0.00000000000E+00  0.00000000000E+00  0.46911270644E+01  0.46911297718E+01  0.50400000000E-02 0.  1.
          2   -1    0    0  501    0  0.00000000000E+00 -0.00000000000E+00 -0.26504367546E+03  0.26504367547E+03  0.25500000000E-02 0. -1.
         24    2    1    2    0    0 -0.35527136788E-14  0.88817841970E-15 -0.26035254839E+03  0.26973480524E+03  0.70522448227E+02 0.  0.
         66    2    3    3    0    0 -0.14333661596E+02  0.69524718612E+01 -0.25047695437E+03  0.25099102651E+03  0.19999999339E+01 0.  0.
        -13    1    3    3    0    0  0.14333661596E+02 -0.69524718612E+01 -0.98755940259E+01  0.18743778731E+02  0.10566000000E+00 0.  1.
         13    1    4    4    0    0 -0.22555700601E+01  0.45970152031E+00 -0.32203428203E+02  0.32285768906E+02  0.10566000000E+00 0. -1.
        -13    1    4    4    0    0 -0.33424170846E+01  0.14482340451E+01 -0.60121661655E+02  0.60232005595E+02  0.10566000000E+00 0. -1.
         14    1    4    4    0    0 -0.87356744515E+01  0.50445362958E+01 -0.15815186451E+03  0.15847325201E+03  0.00000000000E+00 0. -1.
<mgrwt>
<rscale>  0 0.70522448E+02</rscale>
<asrwt>0</asrwt>
<pdfrwt beam="1">  1        2 0.40775938E-01 0.70522448E+02</pdfrwt>
<pdfrwt beam="2">  1       -1 0.72171228E-03 0.70522448E+02</pdfrwt>
<totfact> 0.33866682E+05</totfact>
</mgrwt>
</event>
<event>
 8    1  0.2561077E-024  0.7933727E+02  0.7818608E-02  0.1330943E+00
          2   -1    0    0  501    0  0.00000000000E+00  0.00000000000E+00  0.49822827045E+02  0.49822827110E+02  0.25500000000E-02 0. -1.
         -1   -1    0    0    0  501 -0.00000000000E+00 -0.00000000000E+00 -0.31583931211E+02  0.31583931613E+02  0.50400000000E-02 0.  1.
         24    2    1    2    0    0 -0.35527136788E-14  0.00000000000E+00  0.18238895834E+02  0.81406758723E+02  0.79337273993E+02 0.  0.
         66    2    3    3    0    0 -0.22948034154E+02  0.31177868244E+02  0.36291652851E+00  0.38766008965E+02  0.20000007327E+01 0.  0.
        -13    1    3    3    0    0  0.22948034154E+02 -0.31177868244E+02  0.17875979306E+02  0.42640749758E+02  0.10566000000E+00 0.  1.
         13    1    4    4    0    0 -0.63813816557E+01  0.97812999013E+01 -0.33568762796E+00  0.11684164917E+02  0.10566000000E+00 0. -1.
        -13    1    4    4    0    0 -0.10104753807E+01  0.11823123411E+01  0.18280961917E+00  0.15695561027E+01  0.10566000000E+00 0.  1.
        -14    1    4    4    0    0 -0.15556177117E+02  0.20214256002E+02  0.51579453730E+00  0.25512287945E+02  0.00000000000E+00 0.  1.
<mgrwt>
<rscale>  0 0.79337274E+02</rscale>
<asrwt>0</asrwt>
<pdfrwt beam="1">  1        2 0.76650503E-02 0.79337274E+02</pdfrwt>
<pdfrwt beam="2">  1       -1 0.48590664E-02 0.79337274E+02</pdfrwt>
<totfact> 0.15275448E+05</totfact>
</mgrwt>
</event>
<event>
 8    1  0.2561077E-024  0.8217470E+02  0.7818608E-02  0.1322991E+00
          2   -1    0    0  501    0  0.00000000000E+00  0.00000000000E+00  0.64205543887E+03  0.64205543888E+03  0.25500000000E-02 0. -1.
         -1   -1    0    0    0  501 -0.00000000000E+00 -0.00000000000E+00 -0.26293194170E+01  0.26293242475E+01  0.50400000000E-02 0.  1.
         24    2    1    2    0    0  0.00000000000E+00  0.00000000000E+00  0.63942611946E+03  0.64468476313E+03  0.82174701483E+02 0.  0.
         66    2    3    3    0    0 -0.63433680120E+00  0.36442323623E+02  0.46828381348E+03  0.46970434881E+03  0.19999980719E+01 0.  0.
        -13    1    3    3    0    0  0.63433680120E+00 -0.36442323623E+02  0.17114230598E+03  0.17498041432E+03  0.10566000000E+00 0.  1.
         13    1    4    4    0    0  0.53975654188E-01  0.17663459586E+02  0.23198985073E+03  0.23266134772E+03  0.10566000000E+00 0. -1.
        -13    1    4    4    0    0 -0.89818022995E+00  0.10268942382E+02  0.12592350877E+03  0.12634476297E+03  0.10566000000E+00 0.  1.
        -14    1    4    4    0    0  0.20986777456E+00  0.85099216549E+01  0.11037045398E+03  0.11069823812E+03  0.00000000000E+00 0.  1.
<mgrwt>
<rscale>  0 0.82174701E+02</rscale>
<asrwt>0</asrwt>
<pdfrwt beam="1">  1        2 0.98777885E-01 0.82174701E+02</pdfrwt>
<pdfrwt beam="2">  1       -1 0.40451054E-03 0.82174701E+02</pdfrwt>
<totfact> 0.30544109E+05</totfact>
</mgrwt>
</event>
<event>
 8    1  0.2561077E-024  0.7647381E+02  0.7818608E-02  0.1339367E+00
          2   -1    0    0  501    0  0.00000000000E+00  0.00000000000E+00  0.32581959193E+02  0.32581959293E+02  0.25500000000E-02 0. -1.
         -1   -1    0    0    0  501 -0.00000000000E+00 -0.00000000000E+00 -0.44873324180E+02  0.44873324463E+02  0.50400000000E-02 0.  1.
         24    2    1    2    0    0 -0.35527136788E-14  0.00000000000E+00 -0.12291364988E+02  0.77455283756E+02  0.76473808121E+02 0.  0.
         66    2    3    3    0    0 -0.24706391801E+02  0.54897531899E+01  0.22844663300E+02  0.34152918534E+02  0.20000043006E+01 0.  0.
        -13    1    3    3    0    0  0.24706391801E+02 -0.54897531899E+01 -0.35136028288E+02  0.43302365222E+02  0.10566000000E+00 0.  1.
         13    1    4    4    0    0 -0.15585345038E+01  0.47324664228E+00  0.19600471130E+01  0.25506745980E+01  0.10566000000E+00 0. -1.
        -13    1    4    4    0    0 -0.20897345731E+01  0.37857453782E+00  0.14505455904E+01  0.25740155035E+01  0.10566000000E+00 0.  1.
         14    1    4    4    0    0 -0.21058122724E+02  0.46379320098E+01  0.19434070597E+02  0.29028228433E+02  0.00000000000E+00 0. -1.
<mgrwt>
<rscale>  0 0.76473808E+02</rscale>
<asrwt>0</asrwt>
<pdfrwt beam="1">  1        2 0.50126091E-02 0.76473808E+02</pdfrwt>
<pdfrwt beam="2">  1       -1 0.69035884E-02 0.76473808E+02</pdfrwt>
<totfact> 0.15503646E+05</totfact>
</mgrwt>
</event>
<event>
 8    1  0.2561077E-024  0.8222887E+02  0.7818608E-02  0.1322843E+00
          2   -1    0    0  501    0  0.00000000000E+00  0.00000000000E+00  0.10723495955E+03  0.10723495958E+03  0.25500000000E-02 0. -1.
         -1   -1    0    0    0  501 -0.00000000000E+00 -0.00000000000E+00 -0.15763483665E+02  0.15763484471E+02  0.50400000000E-02 0.  1.
         24    2    1    2    0    0 -0.71054273576E-14  0.17763568394E-14  0.91471475882E+02  0.12299844405E+03  0.82228865603E+02 0.  0.
         66    2    3    3    0    0  0.39202702813E+02 -0.10980744786E+02  0.54086033440E+02  0.67725384295E+02  0.20000001934E+01 0.  0.
        -13    1    3    3    0    0 -0.39202702813E+02  0.10980744786E+02  0.37385442443E+02  0.55273059754E+02  0.10566000000E+00 0.  1.
         13    1    4    4    0    0  0.12852174491E+02 -0.30961562372E+01  0.17519299349E+02  0.21947701162E+02  0.10566000000E+00 0. -1.
        -13    1    4    4    0    0  0.16832678130E+02 -0.48997642923E+01  0.22203611260E+02  0.28290603744E+02  0.10566000000E+00 0.  1.
        -14    1    4    4    0    0  0.95178501920E+01 -0.29848242567E+01  0.14363122830E+02  0.17487079389E+02  0.00000000000E+00 0.  1.
<mgrwt>
<rscale>  0 0.82228866E+02</rscale>
<asrwt>0</asrwt>
<pdfrwt beam="1">  1        2 0.16497686E-01 0.82228866E+02</pdfrwt>
<pdfrwt beam="2">  1       -1 0.24251515E-02 0.82228866E+02</pdfrwt>
<totfact> 0.16797487E+05</totfact>
</mgrwt>
</event>
<event>
 8    1  0.2561077E-024  0.8899398E+02  0.7818608E-02  0.1305306E+00
          2   -1    0    0  501    0  0.00000000000E+00  0.00000000000E+00  0.20511174346E+02  0.20511174504E+02  0.25500000000E-02 0. -1.
         -1   -1    0    0    0  501 -0.00000000000E+00 -0.00000000000E+00 -0.96531881983E+02  0.96531882114E+02  0.50400000000E-02 0.  1.
         24    2    1    2    0    0  0.35527136788E-14  0.00000000000E+00 -0.76020707637E+02  0.11704305662E+03  0.88993983577E+02 0.  0.
         66    2    3    3    0    0  0.27881162019E+02 -0.22662160119E+02 -0.35566273006E+01  0.36160507204E+02  0.19999966676E+01 0.  0.
        -13    1    3    3    0    0 -0.27881162019E+02  0.22662160119E+02 -0.72464080336E+02  0.80882549415E+02  0.10566000000E+00 0.  1.
         13    1    4    4    0    0  0.66787956480E+01 -0.59555193731E+01 -0.38487563619E+00  0.89573330630E+01  0.10566000000E+00 0. -1.
        -13    1    4    4    0    0  0.73675249596E+01 -0.63298233293E+01 -0.14936913873E+01  0.98279888790E+01  0.10566000000E+00 0.  1.
         14    1    4    4    0    0  0.13834841411E+02 -0.10376817417E+02 -0.16780602771E+01  0.17375185262E+02  0.00000000000E+00 0. -1.
<mgrwt>
<rscale>  0 0.88993984E+02</rscale>
<asrwt>0</asrwt>
<pdfrwt beam="1">  1        2 0.31555654E-02 0.88993984E+02</pdfrwt>
<pdfrwt beam="2">  1       -1 0.14851059E-01 0.88993984E+02</pdfrwt>
<totfact> 0.91625747E+04</totfact>
</mgrwt>
</event>
<event>
 8    1  0.2561077E-024  0.7867446E+02  0.7818608E-02  0.1332856E+00
         -1   -1    0    0    0  501 -0.00000000000E+00  0.00000000000E+00  0.10160303227E+02  0.10160304477E+02  0.50400000000E-02 0.  1.
          2   -1    0    0  501    0  0.00000000000E+00 -0.00000000000E+00 -0.15230032606E+03  0.15230032608E+03  0.25500000000E-02 0. -1.
         24    2    1    2    0    0  0.00000000000E+00  0.00000000000E+00 -0.14214002283E+03  0.16246063056E+03  0.78674458310E+02 0.  0.
         66    2    3    3    0    0 -0.10589172683E+01 -0.18784219395E+02 -0.14239311678E+03  0.14364458887E+03  0.20000004209E+01 0.  0.
        -13    1    3    3    0    0  0.10589172683E+01  0.18784219395E+02  0.25309394979E+00  0.18816041684E+02  0.10566000000E+00 0.  1.
         13    1    4    4    0    0 -0.29647757806E+00 -0.28368387467E+01 -0.20544798285E+02  0.20742117868E+02  0.10566000000E+00 0. -1.
        -13    1    4    4    0    0 -0.83480569522E+00 -0.14472078967E+02 -0.11381459607E+03  0.11473409002E+03  0.10566000000E+00 0. -1.
         14    1    4    4    0    0  0.72366005008E-01 -0.14753016816E+01 -0.80337224206E+01  0.81683809793E+01  0.00000000000E+00 0. -1.
<mgrwt>
<rscale>  0 0.78674458E+02</rscale>
<asrwt>0</asrwt>
<pdfrwt beam="1">  1        2 0.23430818E-01 0.78674458E+02</pdfrwt>
<pdfrwt beam="2">  1       -1 0.15631238E-02 0.78674458E+02</pdfrwt>
<totfact> 0.21040034E+05</totfact>
</mgrwt>
</event>
<event>
 8    1  0.2561077E-024  0.7986397E+02  0.7818608E-02  0.1329438E+00
         -1   -1    0    0    0  501 -0.00000000000E+00  0.00000000000E+00  0.35713532635E+01  0.35713568198E+01  0.50400000000E-02 0.  1.
          2   -1    0    0  501    0  0.00000000000E+00 -0.00000000000E+00 -0.44648694722E+03  0.44648694722E+03  0.25500000000E-02 0. -1.
         24    2    1    2    0    0  0.00000000000E+00  0.35527136788E-14 -0.44291559395E+03  0.45005830404E+03  0.79863969798E+02 0.  0.
         66    2    3    3    0    0 -0.19801621362E+02 -0.31456119478E+02 -0.30344747203E+03  0.30572203051E+03  0.19999989566E+01 0.  0.
        -13    1    3    3    0    0  0.19801621362E+02  0.31456119478E+02 -0.13946812192E+03  0.14433627353E+03  0.10566000000E+00 0.  1.
         13    1    4    4    0    0 -0.81099548681E+01 -0.12136062326E+02 -0.12120259086E+03  0.12207839519E+03  0.10566000000E+00 0. -1.
        -13    1    4    4    0    0 -0.38705055348E+01 -0.58270267152E+01 -0.52109769769E+02  0.52577317570E+02  0.10566000000E+00 0.  1.
        -14    1    4    4    0    0 -0.78211609596E+01 -0.13493030437E+02 -0.13013511140E+03  0.13106631775E+03  0.00000000000E+00 0.  1.
<mgrwt>
<rscale>  0 0.79863970E+02</rscale>
<asrwt>0</asrwt>
<pdfrwt beam="1">  1        2 0.68690255E-01 0.79863970E+02</pdfrwt>
<pdfrwt beam="2">  1       -1 0.54943959E-03 0.79863970E+02</pdfrwt>
<totfact> 0.29471643E+05</totfact>
</mgrwt>
</event>
<event>
 8    1  0.2561077E-024  0.8015747E+02  0.7818608E-02  0.1328605E+00
         -1   -1    0    0    0  501 -0.00000000000E+00  0.00000000000E+00  0.13670285528E+01  0.13670378436E+01  0.50400000000E-02 0.  1.
          2   -1    0    0  501    0  0.00000000000E+00 -0.00000000000E+00 -0.11750300173E+04  0.11750300173E+04  0.25500000000E-02 0. -1.
         24    2    1    2    0    0 -0.71054273576E-14  0.35527136788E-14 -0.11736629887E+04  0.11763970551E+04  0.80157471281E+02 0.  0.
         66    2    3    3    0    0  0.20799751493E+02 -0.17029914868E+02 -0.10229671044E+04  0.10233222095E+04  0.19999999249E+01 0.  0.
        -13    1    3    3    0    0 -0.20799751493E+02  0.17029914868E+02 -0.15069588430E+03  0.15307484566E+03  0.10566000000E+00 0.  1.
         13    1    4    4    0    0  0.97692031364E+01 -0.70872825917E+01 -0.46701364042E+03  0.46716958207E+03  0.10566000000E+00 0. -1.
        -13    1    4    4    0    0  0.56177061195E+00 -0.36228067179E+00 -0.31049113389E+02  0.31056487886E+02  0.10566000000E+00 0.  1.
        -14    1    4    4    0    0  0.10468777745E+02 -0.95803516042E+01 -0.52490435063E+03  0.52509613954E+03  0.00000000000E+00 0.  1.
<mgrwt>
<rscale>  0 0.80157471E+02</rscale>
<asrwt>0</asrwt>
<pdfrwt beam="1">  1        2 0.18077304E+00 0.80157471E+02</pdfrwt>
<pdfrwt beam="2">  1       -1 0.21031374E-03 0.80157471E+02</pdfrwt>
<totfact> 0.34933136E+05</totfact>
</mgrwt>
</event>
<event>
 8    1  0.2561077E-024  0.8102607E+02  0.7818608E-02  0.1326165E+00
          2   -1    0    0  501    0  0.00000000000E+00  0.00000000000E+00  0.17670436166E+03  0.17670436168E+03  0.25500000000E-02 0. -1.
         -1   -1    0    0    0  501 -0.00000000000E+00 -0.00000000000E+00 -0.92884297027E+01  0.92884310701E+01  0.50400000000E-02 0.  1.
         24    2    1    2    0    0  0.88817841970E-15 -0.35527136788E-14  0.16741593196E+03  0.18599279275E+03  0.81026074083E+02 0.  0.
         66    2    3    3    0    0 -0.74116527188E+01 -0.22642400077E+02  0.15890484245E+03  0.16069337209E+03  0.20000000955E+01 0.  0.
        -13    1    3    3    0    0  0.74116527188E+01  0.22642400077E+02  0.85110895055E+01  0.25299420663E+02  0.10566000000E+00 0.  1.
         13    1    4    4    0    0 -0.70400230751E+00 -0.26039099295E+01  0.15044077538E+02  0.15284351448E+02  0.10566000000E+00 0. -1.
        -13    1    4    4    0    0 -0.35148213642E+00 -0.76069601230E+00  0.70991273440E+01  0.71491937445E+01  0.10566000000E+00 0.  1.
        -14    1    4    4    0    0 -0.63561682748E+01 -0.19277794135E+02  0.13676163757E+03  0.13825982690E+03  0.00000000000E+00 0.  1.
<mgrwt>
<rscale>  0 0.81026074E+02</rscale>
<asrwt>0</asrwt>
<pdfrwt beam="1">  1        2 0.27185285E-01 0.81026074E+02</pdfrwt>
<pdfrwt beam="2">  1       -1 0.14289894E-02 0.81026074E+02</pdfrwt>
<totfact> 0.20440429E+05</totfact>
</mgrwt>
</event>
<event>
 8    1  0.2561077E-024  0.7939047E+02  0.7818608E-02  0.1330790E+00
         -1   -1    0    0    0  501 -0.00000000000E+00  0.00000000000E+00  0.33894635238E+02  0.33894635613E+02  0.50400000000E-02 0.  1.
          2   -1    0    0  501    0  0.00000000000E+00 -0.00000000000E+00 -0.46488523266E+02  0.46488523335E+02  0.25500000000E-02 0. -1.
         24    2    1    2    0    0  0.00000000000E+00  0.00000000000E+00 -0.12593888027E+02  0.80383158948E+02  0.79390466851E+02 0.  0.
         66    2    3    3    0    0 -0.17877249853E+02 -0.34150130256E+02 -0.15792533537E+02  0.41704095413E+02  0.19999999582E+01 0.  0.
        -13    1    3    3    0    0  0.17877249853E+02  0.34150130256E+02  0.31986455097E+01  0.38679063535E+02  0.10566000000E+00 0.  1.
         13    1    4    4    0    0 -0.11748949978E+02 -0.21061734815E+02 -0.92009925804E+01  0.25812863605E+02  0.10566000000E+00 0. -1.
        -13    1    4    4    0    0 -0.50301396694E+01 -0.10347218093E+02 -0.51641988709E+01  0.12611397280E+02  0.10566000000E+00 0.  1.
        -14    1    4    4    0    0 -0.10981602055E+01 -0.27411773493E+01 -0.14273420859E+01  0.32798345275E+01  0.00000000000E+00 0.  1.
<mgrwt>
<rscale>  0 0.79390467E+02</rscale>
<asrwt>0</asrwt>
<pdfrwt beam="1">  1        2 0.71520805E-02 0.79390467E+02</pdfrwt>
<pdfrwt beam="2">  1       -1 0.52145593E-02 0.79390467E+02</pdfrwt>
<totfact> 0.15022643E+05</totfact>
</mgrwt>
</event>
<event>
 8    1  0.2561077E-024  0.7921884E+02  0.7818608E-02  0.1331283E+00
          2   -1    0    0  501    0  0.00000000000E+00  0.00000000000E+00  0.75027292280E+02  0.75027292323E+02  0.25500000000E-02 0. -1.
         -1   -1    0    0    0  501 -0.00000000000E+00 -0.00000000000E+00 -0.20911136391E+02  0.20911136999E+02  0.50400000000E-02 0.  1.
         24    2    1    2    0    0  0.00000000000E+00  0.00000000000E+00  0.54116155888E+02  0.95938429322E+02  0.79218835466E+02 0.  0.
         66    2    3    3    0    0 -0.65490154635E+00  0.33151751345E+02  0.53258557825E+02  0.62768953116E+02  0.19999951121E+01 0.  0.
        -13    1    3    3    0    0  0.65490154635E+00 -0.33151751345E+02  0.85759806306E+00  0.33169476205E+02  0.10566000000E+00 0.  1.
         13    1    4    4    0    0 -0.89439241628E+00  0.15643494915E+02  0.23654164077E+02  0.28373394460E+02  0.10566000000E+00 0. -1.
        -13    1    4    4    0    0  0.73698460240E-01  0.87673157414E+01  0.14741295668E+02  0.17151915893E+02  0.10566000000E+00 0.  1.
         14    1    4    4    0    0  0.16579240969E+00  0.87409406881E+01  0.14863098080E+02  0.17243642764E+02  0.00000000000E+00 0. -1.
<mgrwt>
<rscale>  0 0.79218835E+02</rscale>
<asrwt>0</asrwt>
<pdfrwt beam="1">  1        2 0.11542660E-01 0.79218835E+02</pdfrwt>
<pdfrwt beam="2">  1       -1 0.32170980E-02 0.79218835E+02</pdfrwt>
<totfact> 0.16866871E+05</totfact>
</mgrwt>
</event>
<event>
 8    1  0.2561077E-024  0.8039529E+02  0.7818608E-02  0.1327933E+00
          2   -1    0    0  501    0  0.00000000000E+00  0.00000000000E+00  0.51770601323E+03  0.51770601324E+03  0.25500000000E-02 0. -1.
         -1   -1    0    0    0  501 -0.00000000000E+00 -0.00000000000E+00 -0.31211722241E+01  0.31211762933E+01  0.50400000000E-02 0.  1.
         24    2    1    2    0    0  0.00000000000E+00  0.35527136788E-14  0.51458484101E+03  0.52082718953E+03  0.80395290659E+02 0.  0.
         66    2    3    3    0    0 -0.20420284922E+02  0.28322854293E+02  0.38615225464E+03  0.38773281506E+03  0.19999992018E+01 0.  0.
        -13    1    3    3    0    0  0.20420284922E+02 -0.28322854293E+02  0.12843258636E+03  0.13309437447E+03  0.10566000000E+00 0.  1.
         13    1    4    4    0    0 -0.11257595925E+02  0.14412252648E+02  0.20480477891E+03  0.20561968564E+03  0.10566000000E+00 0. -1.
        -13    1    4    4    0    0 -0.27522425925E+01  0.49249876346E+01  0.60337564928E+02  0.60600851875E+02  0.10566000000E+00 0.  1.
        -14    1    4    4    0    0 -0.64104464040E+01  0.89856140105E+01  0.12100991080E+03  0.12151227755E+03  0.00000000000E+00 0.  1.
<mgrwt>
<rscale>  0 0.80395291E+02</rscale>
<asrwt>0</asrwt>
<pdfrwt beam="1">  1        2 0.79646939E-01 0.80395291E+02</pdfrwt>
<pdfrwt beam="2">  1       -1 0.48018150E-03 0.80395291E+02</pdfrwt>
<totfact> 0.30394446E+05</totfact>
</mgrwt>
</event>
<event>
 8    1  0.2561077E-024  0.7949411E+02  0.7818608E-02  0.1330493E+00
          2   -1    0    0  501    0  0.00000000000E+00  0.00000000000E+00  0.51734351324E+01  0.51734357609E+01  0.25500000000E-02 0. -1.
         -1   -1    0    0    0  501 -0.00000000000E+00 -0.00000000000E+00 -0.30537319372E+03  0.30537319376E+03  0.50400000000E-02 0.  1.
         24    2    1    2    0    0  0.00000000000E+00  0.00000000000E+00 -0.30019975858E+03  0.31054662952E+03  0.79494113315E+02 0.  0.
         66    2    3    3    0    0 -0.86776288843E+01 -0.38459906400E+02 -0.16907492469E+03  0.17362256710E+03  0.20000004376E+01 0.  0.
        -13    1    3    3    0    0  0.86776288843E+01  0.38459906400E+02 -0.13112483389E+03  0.13692406242E+03  0.10566000000E+00 0.  1.
         13    1    4    4    0    0 -0.21792900479E+01 -0.92848162914E+01 -0.43306641161E+02  0.44344486143E+02  0.10566000000E+00 0. -1.
        -13    1    4    4    0    0 -0.24440812335E+01 -0.83940167044E+01 -0.35909998455E+02  0.36959061170E+02  0.10566000000E+00 0.  1.
         14    1    4    4    0    0 -0.40542576028E+01 -0.20781073404E+02 -0.89858285080E+02  0.92319019785E+02  0.00000000000E+00 0. -1.
<mgrwt>
<rscale>  0 0.79494113E+02</rscale>
<asrwt>0</asrwt>
<pdfrwt beam="1">  1        2 0.79591338E-03 0.79494113E+02</pdfrwt>
<pdfrwt beam="2">  1       -1 0.46980478E-01 0.79494113E+02</pdfrwt>
<totfact> 0.87215530E+04</totfact>
</mgrwt>
</event>
<event>
 8    1  0.2561077E-024  0.7854372E+02  0.7818608E-02  0.1333236E+00
         -1   -1    0    0    0  501 -0.00000000000E+00  0.00000000000E+00  0.18084741175E+01  0.18084811404E+01  0.50400000000E-02 0.  1.
          2   -1    0    0  501    0  0.00000000000E+00 -0.00000000000E+00 -0.85280502562E+03  0.85280502563E+03  0.25500000000E-02 0. -1.
         24    2    1    2    0    0  0.17763568394E-14  0.00000000000E+00 -0.85099655150E+03  0.85461350677E+03  0.78543715692E+02 0.  0.
         66    2    3    3    0    0 -0.12157122528E+02  0.19469175945E+02 -0.77215519784E+03  0.77249886342E+03  0.19999985542E+01 0.  0.
        -13    1    3    3    0    0  0.12157122528E+02 -0.19469175945E+02 -0.78841353663E+02  0.82114643345E+02  0.10566000000E+00 0.  1.
         13    1    4    4    0    0 -0.92320578301E+01  0.14902033310E+02 -0.60875667613E+03  0.60900903391E+03  0.10566000000E+00 0. -1.
        -13    1    4    4    0    0 -0.94966356103E+00  0.13776640207E+01 -0.42318859989E+02  0.42352058909E+02  0.10566000000E+00 0.  1.
        -14    1    4    4    0    0 -0.19754011367E+01  0.31894786145E+01 -0.12107966172E+03  0.12113777060E+03  0.00000000000E+00 0.  1.
<mgrwt>
<rscale>  0 0.78543716E+02</rscale>
<asrwt>0</asrwt>
<pdfrwt beam="1">  1        2 0.13120045E+00 0.78543716E+02</pdfrwt>
<pdfrwt beam="2">  1       -1 0.27822801E-03 0.78543716E+02</pdfrwt>
<totfact> 0.36406046E+05</totfact>
</mgrwt>
</event>
<event>
 8    1  0.2561077E-024  0.7963103E+02  0.7818608E-02  0.1330102E+00
          2   -1    0    0  501    0  0.00000000000E+00  0.00000000000E+00  0.12054289184E+02  0.12054289454E+02  0.25500000000E-02 0. -1.
         -1   -1    0    0    0  501 -0.00000000000E+00 -0.00000000000E+00 -0.13151130277E+03  0.13151130287E+03  0.50400000000E-02 0.  1.
         24    2    1    2    0    0  0.44408920985E-15  0.71054273576E-14 -0.11945701359E+03  0.14356559232E+03  0.79631031663E+02 0.  0.
         66    2    3    3    0    0 -0.21666139339E+01 -0.32270404478E+02 -0.17979687332E+02  0.37058634197E+02  0.19999977203E+01 0.  0.
        -13    1    3    3    0    0  0.21666139339E+01  0.32270404478E+02 -0.10147732626E+03  0.10650695813E+03  0.10566000000E+00 0.  1.
         13    1    4    4    0    0 -0.10542776181E+01 -0.14087480000E+02 -0.79760058390E+01  0.16223329720E+02  0.10566000000E+00 0. -1.
        -13    1    4    4    0    0 -0.32293715958E+00 -0.14703337023E+02 -0.79483169181E+01  0.16717634817E+02  0.10566000000E+00 0.  1.
        -14    1    4    4    0    0 -0.78939915615E+00 -0.34795874552E+01 -0.20553645752E+01  0.41176696593E+01  0.00000000000E+00 0.  1.
<mgrwt>
<rscale>  0 0.79631032E+02</rscale>
<asrwt>0</asrwt>
<pdfrwt beam="1">  1        2 0.18545061E-02 0.79631032E+02</pdfrwt>
<pdfrwt beam="2">  1       -1 0.20232507E-01 0.79631032E+02</pdfrwt>
<totfact> 0.11273450E+05</totfact>
</mgrwt>
</event>
<event>
 8    1  0.2561077E-024  0.7785009E+02  0.7818608E-02  0.1335266E+00
          2   -1    0    0  501    0  0.00000000000E+00  0.00000000000E+00  0.33204551273E+03  0.33204551274E+03  0.25500000000E-02 0. -1.
         -1   -1    0    0    0  501 -0.00000000000E+00 -0.00000000000E+00 -0.45631057563E+01  0.45631085396E+01  0.50400000000E-02 0.  1.
         24    2    1    2    0    0 -0.71054273576E-14  0.44408920985E-15  0.32748240698E+03  0.33660862128E+03  0.77850093400E+02 0.  0.
         66    2    3    3    0    0  0.37082335327E+02 -0.21397728418E+01  0.21380269449E+03  0.21701444744E+03  0.20000017138E+01 0.  0.
        -13    1    3    3    0    0 -0.37082335327E+02  0.21397728418E+01  0.11367971249E+03  0.11959417384E+03  0.10566000000E+00 0.  1.
         13    1    4    4    0    0  0.81297929014E+01 -0.21207566769E+00  0.47435880344E+02  0.48128083452E+02  0.10566000000E+00 0. -1.
        -13    1    4    4    0    0  0.15679637685E+02 -0.65602751747E+00  0.94123618904E+02  0.95422996230E+02  0.10566000000E+00 0.  1.
        -14    1    4    4    0    0  0.13272904741E+02 -0.12716696567E+01  0.72243195240E+02  0.73463367759E+02  0.00000000000E+00 0.  1.
<mgrwt>
<rscale>  0 0.77850093E+02</rscale>
<asrwt>0</asrwt>
<pdfrwt beam="1">  1        2 0.51083919E-01 0.77850093E+02</pdfrwt>
<pdfrwt beam="2">  1       -1 0.70201657E-03 0.77850093E+02</pdfrwt>
<totfact> 0.28398238E+05</totfact>
</mgrwt>
</event>
<event>
 8    1  0.2561077E-024  0.8006360E+02  0.7818608E-02  0.1328871E+00
         -1   -1    0    0    0  501 -0.00000000000E+00  0.00000000000E+00  0.49162229710E+01  0.49162255544E+01  0.50400000000E-02 0.  1.
          2   -1    0    0  501    0  0.00000000000E+00 -0.00000000000E+00 -0.32597065849E+03  0.32597065850E+03  0.25500000000E-02 0. -1.
         24    2    1    2    0    0  0.00000000000E+00 -0.88817841970E-15 -0.32105443552E+03  0.33088688406E+03  0.80063596427E+02 0.  0.
         66    2    3    3    0    0 -0.17366694600E+02 -0.70374664706E+01 -0.30670929988E+03  0.30728768711E+03  0.20000015063E+01 0.  0.
        -13    1    3    3    0    0  0.17366694600E+02  0.70374664706E+01 -0.14345135648E+02  0.23599196945E+02  0.10566000000E+00 0.  1.
         13    1    4    4    0    0 -0.73491697014E+01 -0.26444316223E+01 -0.11975119320E+03  0.12000567799E+03  0.10566000000E+00 0. -1.
        -13    1    4    4    0    0 -0.25400731766E+01 -0.11617656940E+01 -0.57480357847E+02  0.57548278632E+02  0.10566000000E+00 0.  1.
        -14    1    4    4    0    0 -0.74774517218E+01 -0.32312691543E+01 -0.12947774883E+03  0.12973373049E+03  0.00000000000E+00 0.  1.
<mgrwt>
<rscale>  0 0.80063596E+02</rscale>
<asrwt>0</asrwt>
<pdfrwt beam="1">  1        2 0.50149315E-01 0.80063596E+02</pdfrwt>
<pdfrwt beam="2">  1       -1 0.75634245E-03 0.80063596E+02</pdfrwt>
<totfact> 0.26216086E+05</totfact>
</mgrwt>
</event>
<event>
 8    1  0.2561077E-024  0.7156001E+02  0.7818608E-02  0.1354867E+00
         -1   -1    0    0    0  501 -0.00000000000E+00  0.00000000000E+00  0.12670015456E+02  0.12670016458E+02  0.50400000000E-02 0.  1.
          2   -1    0    0  501    0  0.00000000000E+00 -0.00000000000E+00 -0.10104239985E+03  0.10104239989E+03  0.25500000000E-02 0. -1.
         24    2    1    2    0    0  0.00000000000E+00  0.00000000000E+00 -0.88372384399E+02  0.11371241634E+03  0.71560011924E+02 0.  0.
         66    2    3    3    0    0  0.40111828095E+01 -0.27596520831E+02 -0.79772254507E+02  0.84529699752E+02  0.20000003789E+01 0.  0.
        -13    1    3    3    0    0 -0.40111828095E+01  0.27596520831E+02 -0.86001298921E+01  0.29182716593E+02  0.10566000000E+00 0.  1.
         13    1    4    4    0    0  0.89832740051E+00 -0.38731368442E+01 -0.11615185691E+02  0.12277291388E+02  0.10566000000E+00 0. -1.
        -13    1    4    4    0    0  0.28499815481E+00 -0.64782259039E+01 -0.17199739790E+02  0.18381807519E+02  0.10566000000E+00 0.  1.
        -14    1    4    4    0    0  0.28278572542E+01 -0.17245158083E+02 -0.50957329026E+02  0.53870600845E+02  0.00000000000E+00 0.  1.
<mgrwt>
<rscale>  0 0.71560012E+02</rscale>
<asrwt>0</asrwt>
<pdfrwt beam="1">  1        2 0.15544984E-01 0.71560012E+02</pdfrwt>
<pdfrwt beam="2">  1       -1 0.19492333E-02 0.71560012E+02</pdfrwt>
<totfact> 0.23909773E+05</totfact>
</mgrwt>
</event>
<event>
 8    1  0.2561077E-024  0.7926140E+02  0.7818608E-02  0.1331161E+00
         -1   -1    0    0    0  501 -0.00000000000E+00  0.00000000000E+00  0.14351372537E+01  0.14351461036E+01  0.50400000000E-02 0.  1.
          2   -1    0    0  501    0  0.00000000000E+00 -0.00000000000E+00 -0.10943814657E+04  0.10943814657E+04  0.25500000000E-02 0. -1.
         24    2    1    2    0    0  0.17763568394E-14  0.35527136788E-14 -0.10929463284E+04  0.10958166118E+04  0.79261402000E+02 0.  0.
         66    2    3    3    0    0 -0.10811246916E+02 -0.20572429048E+02 -0.99019796455E+03  0.99047267347E+03  0.19999988110E+01 0.  0.
        -13    1    3    3    0    0  0.10811246916E+02  0.20572429048E+02 -0.10274836390E+03  0.10534393834E+03  0.10566000000E+00 0.  1.
         13    1    4    4    0    0 -0.44026329643E+01 -0.10112887717E+02 -0.46333958433E+03  0.46347085696E+03  0.10566000000E+00 0. -1.
        -13    1    4    4    0    0 -0.62743838308E+01 -0.10257382760E+02 -0.52033683541E+03  0.52047575855E+03  0.10566000000E+00 0.  1.
        -14    1    4    4    0    0 -0.13423012103E+00 -0.20215857121E+00 -0.65215448124E+01  0.65260579643E+01  0.00000000000E+00 0.  1.
<mgrwt>
<rscale>  0 0.79261402E+02</rscale>
<asrwt>0</asrwt>
<pdfrwt beam="1">  1        2 0.16836571E+00 0.79261402E+02</pdfrwt>
<pdfrwt beam="2">  1       -1 0.22079190E-03 0.79261402E+02</pdfrwt>
<totfact> 0.36116120E+05</totfact>
</mgrwt>
</event>
<event>
 8    1  0.2561077E-024  0.7906375E+02  0.7818608E-02  0.1331730E+00
         -1   -1    0    0    0  501 -0.00000000000E+00  0.00000000000E+00  0.27884308248E+01  0.27884353796E+01  0.50400000000E-02 0.  1.
          2   -1    0    0  501    0  0.00000000000E+00 -0.00000000000E+00 -0.56044707154E+03  0.56044707154E+03  0.25500000000E-02 0. -1.
         24    2    1    2    0    0  0.53290705182E-14  0.88817841970E-15 -0.55765864071E+03  0.56323550692E+03  0.79063750841E+02 0.  0.
         66    2    3    3    0    0  0.12027425464E+02  0.27839390400E+01 -0.54635015407E+03  0.54649327547E+03  0.19999997998E+01 0.  0.
        -13    1    3    3    0    0 -0.12027425464E+02 -0.27839390400E+01 -0.11308486639E+02  0.16742231452E+02  0.10566000000E+00 0.  1.
         13    1    4    4    0    0  0.71426846245E+00  0.56360678061E+00 -0.40272874993E+02  0.40283290038E+02  0.10566000000E+00 0.  1.
        -13    1    4    4    0    0  0.32464649647E+01  0.90049989264E+00 -0.16903154354E+03  0.16906514813E+03  0.10566000000E+00 0.  1.
         14    1    4    4    0    0  0.80666920372E+01  0.13198323668E+01 -0.33704573554E+03  0.33714483730E+03  0.00000000000E+00 0. -1.
<mgrwt>
<rscale>  0 0.79063751E+02</rscale>
<asrwt>0</asrwt>
<pdfrwt beam="1">  1        2 0.86222537E-01 0.79063751E+02</pdfrwt>
<pdfrwt beam="2">  1       -1 0.42899016E-03 0.79063751E+02</pdfrwt>
<totfact> 0.32520529E+05</totfact>
</mgrwt>
</event>
<event>
 8    1  0.2561077E-024  0.7877340E+02  0.7818608E-02  0.1332569E+00
         -1   -1    0    0    0  501 -0.00000000000E+00  0.00000000000E+00  0.29887683455E+01  0.29887725950E+01  0.50400000000E-02 0.  1.
          2   -1    0    0  501    0  0.00000000000E+00 -0.00000000000E+00 -0.51904690544E+03  0.51904690545E+03  0.25500000000E-02 0. -1.
         24    2    1    2    0    0  0.00000000000E+00  0.00000000000E+00 -0.51605813709E+03  0.52203567804E+03  0.78773398344E+02 0.  0.
         66    2    3    3    0    0 -0.35345791765E+01  0.17237184177E+02 -0.49152878110E+03  0.49184769636E+03  0.19999998809E+01 0.  0.
        -13    1    3    3    0    0  0.35345791765E+01 -0.17237184177E+02 -0.24529355996E+02  0.30187981680E+02  0.10566000000E+00 0.  1.
         13    1    4    4    0    0 -0.51206344374E+00  0.13269396362E+01 -0.34814039826E+02  0.34843241968E+02  0.10566000000E+00 0.  1.
        -13    1    4    4    0    0 -0.31225566575E+01  0.14428367106E+02 -0.42133913119E+03  0.42159767881E+03  0.10566000000E+00 0. -1.
        -14    1    4    4    0    0  0.10004092482E+00  0.14818774346E+01 -0.35375610077E+02  0.35406775584E+02  0.00000000000E+00 0.  1.
<mgrwt>
<rscale>  0 0.78773398E+02</rscale>
<asrwt>0</asrwt>
<pdfrwt beam="1">  1        2 0.79853298E-01 0.78773398E+02</pdfrwt>
<pdfrwt beam="2">  1       -1 0.45981126E-03 0.78773398E+02</pdfrwt>
<totfact> 0.32076917E+05</totfact>
</mgrwt>
</event>
<event>
 8    1  0.2561077E-024  0.7980195E+02  0.7818608E-02  0.1329614E+00
          2   -1    0    0  501    0  0.00000000000E+00  0.00000000000E+00  0.69004135585E+03  0.69004135586E+03  0.25500000000E-02 0. -1.
         -1   -1    0    0    0  501 -0.00000000000E+00 -0.00000000000E+00 -0.23072324767E+01  0.23072379815E+01  0.50400000000E-02 0.  1.
         24    2    1    2    0    0  0.00000000000E+00  0.00000000000E+00  0.68773412337E+03  0.69234859384E+03  0.79801948190E+02 0.  0.
         66    2    3    3    0    0 -0.14000928281E+02 -0.33019497076E+02  0.49529347419E+03  0.49659434023E+03  0.20000002197E+01 0.  0.
        -13    1    3    3    0    0  0.14000928281E+02  0.33019497076E+02  0.19244064919E+03  0.19575425360E+03  0.10566000000E+00 0.  1.
         13    1    4    4    0    0 -0.70437791598E+01 -0.18011624766E+02  0.26639367344E+03  0.26709480314E+03  0.10566000000E+00 0. -1.
        -13    1    4    4    0    0 -0.68089613347E+00 -0.14170940703E+01  0.17800294401E+02  0.17869902628E+02  0.10566000000E+00 0.  1.
         14    1    4    4    0    0 -0.62762529873E+01 -0.13590778239E+02  0.21109950634E+03  0.21162963446E+03  0.00000000000E+00 0. -1.
<mgrwt>
<rscale>  0 0.79801948E+02</rscale>
<asrwt>0</asrwt>
<pdfrwt beam="1">  1        2 0.10616023E+00 0.79801948E+02</pdfrwt>
<pdfrwt beam="2">  1       -1 0.35495919E-03 0.79801948E+02</pdfrwt>
<totfact> 0.33556463E+05</totfact>
</mgrwt>
</event>
<event>
 8    1  0.2561077E-024  0.7908158E+02  0.7818608E-02  0.1331678E+00
         -1   -1    0    0    0  501 -0.00000000000E+00  0.00000000000E+00  0.64539826669E+01  0.64539846348E+01  0.50400000000E-02 0.  1.
          2   -1    0    0  501    0  0.00000000000E+00 -0.00000000000E+00 -0.24224943802E+03  0.24224943803E+03  0.25500000000E-02 0. -1.
         24    2    1    2    0    0  0.00000000000E+00 -0.35527136788E-14 -0.23579545535E+03  0.24870342267E+03  0.79081576121E+02 0.  0.
         66    2    3    3    0    0  0.32282117075E+02 -0.21178407692E+02 -0.91509229699E+02  0.99340823224E+02  0.20000008840E+01 0.  0.
        -13    1    3    3    0    0 -0.32282117075E+02  0.21178407692E+02 -0.14428622566E+03  0.14936259945E+03  0.10566000000E+00 0.  1.
         13    1    4    4    0    0  0.20947128685E+02 -0.14139674058E+02 -0.59736085131E+02  0.64862343570E+02  0.10566000000E+00 0. -1.
        -13    1    4    4    0    0  0.94998705503E+01 -0.61662900165E+01 -0.27716837850E+02  0.29941692295E+02  0.10566000000E+00 0.  1.
        -14    1    4    4    0    0  0.18351178388E+01 -0.87244361743E+00 -0.40563067175E+01  0.45367873583E+01  0.00000000000E+00 0.  1.
<mgrwt>
<rscale>  0 0.79081576E+02</rscale>
<asrwt>0</asrwt>
<pdfrwt beam="1">  1        2 0.37269137E-01 0.79081576E+02</pdfrwt>
<pdfrwt beam="2">  1       -1 0.99292075E-03 0.79081576E+02</pdfrwt>
<totfact> 0.24328370E+05</totfact>
</mgrwt>
</event>
<event>
 8    1  0.2561077E-024  0.7941882E+02  0.7818608E-02  0.1330709E+00
         -1   -1    0    0    0  501 -0.00000000000E+00  0.00000000000E+00  0.23010101297E+02  0.23010101848E+02  0.50400000000E-02 0.  1.
          2   -1    0    0  501    0  0.00000000000E+00 -0.00000000000E+00 -0.68528034582E+02  0.68528034630E+02  0.25500000000E-02 0. -1.
         24    2    1    2    0    0  0.00000000000E+00  0.00000000000E+00 -0.45517933286E+02  0.91538136478E+02  0.79418815021E+02 0.  0.
         66    2    3    3    0    0  0.31996471765E+02 -0.10665218637E+02 -0.46876513158E+02  0.57783462769E+02  0.19999974439E+01 0.  0.
        -13    1    3    3    0    0 -0.31996471765E+02  0.10665218637E+02  0.13585798717E+01  0.33754673710E+02  0.10566000000E+00 0.  1.
         13    1    4    4    0    0  0.97563160082E+01 -0.26503386109E+01 -0.14659471922E+02  0.17807899311E+02  0.10566000000E+00 0. -1.
        -13    1    4    4    0    0  0.83079790860E+01 -0.34784448326E+01 -0.12742163459E+02  0.15604358000E+02  0.10566000000E+00 0.  1.
        -14    1    4    4    0    0  0.13932176670E+02 -0.45364351930E+01 -0.19474877777E+02  0.24371205458E+02  0.00000000000E+00 0.  1.
<mgrwt>
<rscale>  0 0.79418815E+02</rscale>
<asrwt>0</asrwt>
<pdfrwt beam="1">  1        2 0.10542774E-01 0.79418815E+02</pdfrwt>
<pdfrwt beam="2">  1       -1 0.35400157E-02 0.79418815E+02</pdfrwt>
<totfact> 0.16383500E+05</totfact>
</mgrwt>
</event>
<event>
 8    1  0.2561077E-024  0.8051870E+02  0.7818608E-02  0.1327586E+00
         -1   -1    0    0    0  501 -0.00000000000E+00  0.00000000000E+00  0.26467020724E+02  0.26467021204E+02  0.50400000000E-02 0.  1.
          2   -1    0    0  501    0  0.00000000000E+00 -0.00000000000E+00 -0.61239058350E+02  0.61239058403E+02  0.25500000000E-02 0. -1.
         24    2    1    2    0    0  0.00000000000E+00  0.35527136788E-14 -0.34772037626E+02  0.87706079607E+02  0.80518704655E+02 0.  0.
         66    2    3    3    0    0 -0.26688452478E+01 -0.23176148165E+02 -0.53103194282E+02  0.58036245649E+02  0.19999968676E+01 0.  0.
        -13    1    3    3    0    0  0.26688452478E+01  0.23176148165E+02  0.18331156656E+02  0.29669833958E+02  0.10566000000E+00 0.  1.
         13    1    4    4    0    0 -0.13601145497E+01 -0.82432811724E+01 -0.20133787268E+02  0.21798673122E+02  0.10566000000E+00 0. -1.
        -13    1    4    4    0    0  0.22156753428E+00 -0.17502273634E+01 -0.39929006270E+01  0.43665555588E+01  0.10566000000E+00 0.  1.
        -14    1    4    4    0    0 -0.15302982324E+01 -0.13182639629E+02 -0.28976506387E+02  0.31871016969E+02  0.00000000000E+00 0.  1.
<mgrwt>
<rscale>  0 0.80518705E+02</rscale>
<asrwt>0</asrwt>
<pdfrwt beam="1">  1        2 0.94213936E-02 0.80518705E+02</pdfrwt>
<pdfrwt beam="2">  1       -1 0.40718494E-02 0.80518705E+02</pdfrwt>
<totfact> 0.15367586E+05</totfact>
</mgrwt>
</event>
<event>
 8    1  0.2561077E-024  0.8019415E+02  0.7818608E-02  0.1328501E+00
          2   -1    0    0  501    0  0.00000000000E+00  0.00000000000E+00  0.54279341791E+03  0.54279341791E+03  0.25500000000E-02 0. -1.
         -1   -1    0    0    0  501 -0.00000000000E+00 -0.00000000000E+00 -0.29620368537E+01  0.29620411416E+01  0.50400000000E-02 0.  1.
         24    2    1    2    0    0  0.00000000000E+00  0.00000000000E+00  0.53983138105E+03  0.54575545905E+03  0.80194146407E+02 0.  0.
         66    2    3    3    0    0  0.33106753544E+02  0.16091639491E+02  0.37785244234E+03  0.37964650161E+03  0.20000031588E+01 0.  0.
        -13    1    3    3    0    0 -0.33106753544E+02 -0.16091639491E+02  0.16197893871E+03  0.16610895744E+03  0.10566000000E+00 0.  1.
         13    1    4    4    0    0  0.19684170381E+02  0.96053772751E+01  0.22129230562E+03  0.22237361698E+03  0.10566000000E+00 0. -1.
        -13    1    4    4    0    0  0.43587097763E+00  0.35206946795E+00  0.45053261332E+01  0.45412623819E+01  0.10566000000E+00 0.  1.
         14    1    4    4    0    0  0.12986712185E+02  0.61341927478E+01  0.15205481058E+03  0.15273162225E+03  0.00000000000E+00 0. -1.
<mgrwt>
<rscale>  0 0.80194146E+02</rscale>
<asrwt>0</asrwt>
<pdfrwt beam="1">  1        2 0.83506773E-01 0.80194146E+02</pdfrwt>
<pdfrwt beam="2">  1       -1 0.45569780E-03 0.80194146E+02</pdfrwt>
<totfact> 0.31041898E+05</totfact>
</mgrwt>
</event>
<event>
 8    1  0.2561077E-024  0.8132627E+02  0.7818608E-02  0.1325329E+00
          2   -1    0    0  501    0  0.00000000000E+00  0.00000000000E+00  0.22678051529E+02  0.22678051673E+02  0.25500000000E-02 0. -1.
         -1   -1    0    0    0  501 -0.00000000000E+00 -0.00000000000E+00 -0.72911491025E+02  0.72911491199E+02  0.50400000000E-02 0.  1.
         24    2    1    2    0    0  0.00000000000E+00  0.00000000000E+00 -0.50233439495E+02  0.95589542872E+02  0.81326270435E+02 0.  0.
         66    2    3    3    0    0  0.14718378145E+02 -0.37072546198E+02 -0.34272786824E+02  0.52627257847E+02  0.20000037620E+01 0.  0.
        -13    1    3    3    0    0 -0.14718378145E+02  0.37072546198E+02 -0.15960652671E+02  0.42962285025E+02  0.10566000000E+00 0.  1.
         13    1    4    4    0    0  0.16691103161E+01 -0.49853467400E+01 -0.40050914908E+01  0.66099571292E+01  0.10566000000E+00 0. -1.
        -13    1    4    4    0    0  0.90640446744E+01 -0.21095839507E+02 -0.20565841476E+02  0.30824606243E+02  0.10566000000E+00 0.  1.
        -14    1    4    4    0    0  0.39852231546E+01 -0.10991359950E+02 -0.97018538568E+01  0.15192694475E+02  0.00000000000E+00 0.  1.
<mgrwt>
<rscale>  0 0.81326270E+02</rscale>
<asrwt>0</asrwt>
<pdfrwt beam="1">  1        2 0.34889310E-02 0.81326270E+02</pdfrwt>
<pdfrwt beam="2">  1       -1 0.11217152E-01 0.81326270E+02</pdfrwt>
<totfact> 0.12148812E+05</totfact>
</mgrwt>
</event>
<event>
 8    1  0.2561077E-024  0.8688311E+02  0.7818608E-02  0.1310580E+00
         -1   -1    0    0    0  501 -0.00000000000E+00  0.00000000000E+00  0.36393273829E+01  0.36393308728E+01  0.50400000000E-02 0.  1.
          2   -1    0    0  501    0  0.00000000000E+00 -0.00000000000E+00 -0.51854853637E+03  0.51854853637E+03  0.25500000000E-02 0. -1.
         24    2    1    2    0    0  0.17763568394E-14  0.00000000000E+00 -0.51490920898E+03  0.52218786725E+03  0.86883112296E+02 0.  0.
         66    2    3    3    0    0  0.13849992603E+02 -0.38119996269E+02 -0.35074100832E+03  0.35308385876E+03  0.19999983129E+01 0.  0.
        -13    1    3    3    0    0 -0.13849992603E+02  0.38119996269E+02 -0.16416820067E+03  0.16910400848E+03  0.10566000000E+00 0.  1.
         13    1    4    4    0    0  0.37982021046E+01 -0.10921906118E+02 -0.93500259681E+02  0.94212653593E+02  0.10566000000E+00 0. -1.
        -13    1    4    4    0    0  0.19405468186E+01 -0.47531109814E+01 -0.47895095247E+02  0.48169586864E+02  0.10566000000E+00 0.  1.
         14    1    4    4    0    0  0.81112436801E+01 -0.22444979169E+02 -0.20934565339E+03  0.21070161831E+03  0.00000000000E+00 0. -1.
<mgrwt>
<rscale>  0 0.86883112E+02</rscale>
<asrwt>0</asrwt>
<pdfrwt beam="1">  1        2 0.79776640E-01 0.86883112E+02</pdfrwt>
<pdfrwt beam="2">  1       -1 0.55989720E-03 0.86883112E+02</pdfrwt>
<totfact> 0.24821409E+05</totfact>
</mgrwt>
</event>
<event>
 8    1  0.2561077E-024  0.8290783E+02  0.7818608E-02  0.1320996E+00
         -1   -1    0    0    0  501 -0.00000000000E+00  0.00000000000E+00  0.89408438039E+02  0.89408438181E+02  0.50400000000E-02 0.  1.
          2   -1    0    0  501    0  0.00000000000E+00 -0.00000000000E+00 -0.19219963213E+02  0.19219963382E+02  0.25500000000E-02 0. -1.
         24    2    1    2    0    0  0.00000000000E+00 -0.35527136788E-14  0.70188474827E+02  0.10862840156E+03  0.82907826095E+02 0.  0.
         66    2    3    3    0    0  0.12422974677E+02 -0.31543040303E+02  0.39121675184E+01  0.34184773456E+02  0.19999975393E+01 0.  0.
        -13    1    3    3    0    0 -0.12422974677E+02  0.31543040303E+02  0.66276307308E+02  0.74443628108E+02  0.10566000000E+00 0.  1.
         13    1    4    4    0    0  0.80143487544E+01 -0.21042924833E+02  0.29411529371E+01  0.22708941325E+02  0.10566000000E+00 0. -1.
        -13    1    4    4    0    0  0.11625745067E+01 -0.20231474854E+01  0.48509091047E+00  0.23856199317E+01  0.10566000000E+00 0.  1.
        -14    1    4    4    0    0  0.32460514161E+01 -0.84769679843E+01  0.48592367086E+00  0.90902121987E+01  0.00000000000E+00 0.  1.
<mgrwt>
<rscale>  0 0.82907826E+02</rscale>
<asrwt>0</asrwt>
<pdfrwt beam="1">  1        2 0.29569174E-02 0.82907826E+02</pdfrwt>
<pdfrwt beam="2">  1       -1 0.13755144E-01 0.82907826E+02</pdfrwt>
<totfact> 0.11107829E+05</totfact>
</mgrwt>
</event>
<event>
 8    1  0.2561077E-024  0.8074513E+02  0.7818608E-02  0.1326950E+00
          2   -1    0    0  501    0  0.00000000000E+00  0.00000000000E+00  0.22288946413E+03  0.22288946415E+03  0.25500000000E-02 0. -1.
         -1   -1    0    0    0  501 -0.00000000000E+00 -0.00000000000E+00 -0.73127896154E+01  0.73127913522E+01  0.50400000000E-02 0.  1.
         24    2    1    2    0    0  0.00000000000E+00  0.00000000000E+00  0.21557667452E+03  0.23020225550E+03  0.80745128900E+02 0.  0.
         66    2    3    3    0    0  0.29473879107E+02 -0.10476852768E+02  0.18051022125E+03  0.18321139147E+03  0.19999986941E+01 0.  0.
        -13    1    3    3    0    0 -0.29473879107E+02  0.10476852768E+02  0.35066453266E+02  0.46990864030E+02  0.10566000000E+00 0.  1.
         13    1    4    4    0    0  0.16279520868E+01 -0.49858665127E+00  0.11139797238E+02  0.11269652310E+02  0.10566000000E+00 0. -1.
        -13    1    4    4    0    0  0.51355131824E+01 -0.21507568307E+01  0.28754062028E+02  0.29288333816E+02  0.10566000000E+00 0.  1.
        -14    1    4    4    0    0  0.22710413837E+02 -0.78275092865E+01  0.14061636198E+03  0.14265340534E+03  0.00000000000E+00 0.  1.
<mgrwt>
<rscale>  0 0.80745129E+02</rscale>
<asrwt>0</asrwt>
<pdfrwt beam="1">  1        2 0.34290691E-01 0.80745129E+02</pdfrwt>
<pdfrwt beam="2">  1       -1 0.11250446E-02 0.80745129E+02</pdfrwt>
<totfact> 0.22359612E+05</totfact>
</mgrwt>
</event>
<event>
 8    1  0.2561077E-024  0.8047246E+02  0.7818608E-02  0.1327716E+00
          2   -1    0    0  501    0  0.00000000000E+00  0.00000000000E+00  0.24125529594E+03  0.24125529595E+03  0.25500000000E-02 0. -1.
         -1   -1    0    0    0  501 -0.00000000000E+00 -0.00000000000E+00 -0.67105423544E+01  0.67105442471E+01  0.50400000000E-02 0.  1.
         24    2    1    2    0    0  0.00000000000E+00  0.00000000000E+00  0.23454475359E+03  0.24796584020E+03  0.80472457846E+02 0.  0.
         66    2    3    3    0    0  0.38662943628E+02 -0.43891651846E+01  0.14859607248E+03  0.15361927202E+03  0.19999990508E+01 0.  0.
        -13    1    3    3    0    0 -0.38662943628E+02  0.43891651846E+01  0.85948681103E+02  0.94346568185E+02  0.10566000000E+00 0.  1.
         13    1    4    4    0    0  0.19608019268E+02 -0.22848988733E+01  0.77527418155E+02  0.80001293192E+02  0.10566000000E+00 0. -1.
        -13    1    4    4    0    0  0.39733541628E+01 -0.71921238976E+00  0.16420056815E+02  0.16909590167E+02  0.10566000000E+00 0.  1.
         14    1    4    4    0    0  0.15081570197E+02 -0.13850539215E+01  0.54648597513E+02  0.56708388658E+02  0.00000000000E+00 0. -1.
<mgrwt>
<rscale>  0 0.80472458E+02</rscale>
<asrwt>0</asrwt>
<pdfrwt beam="1">  1        2 0.37116200E-01 0.80472458E+02</pdfrwt>
<pdfrwt beam="2">  1       -1 0.10323913E-02 0.80472458E+02</pdfrwt>
<totfact> 0.23204076E+05</totfact>
</mgrwt>
</event>
<event>
 8    1  0.2561077E-024  0.8974249E+02  0.7818608E-02  0.1303476E+00
         -1   -1    0    0    0  501 -0.00000000000E+00  0.00000000000E+00  0.25780024442E+01  0.25780073708E+01  0.50400000000E-02 0.  1.
          2   -1    0    0  501    0  0.00000000000E+00 -0.00000000000E+00 -0.78100265940E+03  0.78100265940E+03  0.25500000000E-02 0. -1.
         24    2    1    2    0    0  0.00000000000E+00 -0.35527136788E-14 -0.77842465695E+03  0.78358066677E+03  0.89742491534E+02 0.  0.
         66    2    3    3    0    0  0.23102693063E+02  0.31457265234E+02 -0.58231440393E+03  0.58362433037E+03  0.20000030921E+01 0.  0.
        -13    1    3    3    0    0 -0.23102693063E+02 -0.31457265234E+02 -0.19611025303E+03  0.19995633640E+03  0.10566000000E+00 0.  1.
         13    1    4    4    0    0  0.10408538552E+01  0.17909715717E+01 -0.30396095128E+02  0.30466780581E+02  0.10566000000E+00 0.  1.
        -13    1    4    4    0    0  0.12716564607E+02  0.18423602572E+02 -0.33308615389E+03  0.33383759109E+03  0.10566000000E+00 0. -1.
         14    1    4    4    0    0  0.93452746007E+01  0.11242691090E+02 -0.21883215491E+03  0.21931995870E+03  0.00000000000E+00 0. -1.
<mgrwt>
<rscale>  0 0.89742492E+02</rscale>
<asrwt>0</asrwt>
<pdfrwt beam="1">  1        2 0.12015407E+00 0.89742492E+02</pdfrwt>
<pdfrwt beam="2">  1       -1 0.39661676E-03 0.89742492E+02</pdfrwt>
<totfact> 0.25343323E+05</totfact>
</mgrwt>
</event>
<event>
 8    1  0.2561077E-024  0.8259783E+02  0.7818608E-02  0.1321837E+00
          2   -1    0    0  501    0  0.00000000000E+00  0.00000000000E+00  0.48851780527E+02  0.48851780593E+02  0.25500000000E-02 0. -1.
         -1   -1    0    0    0  501 -0.00000000000E+00 -0.00000000000E+00 -0.34913776872E+02  0.34913777236E+02  0.50400000000E-02 0.  1.
         24    2    1    2    0    0  0.00000000000E+00 -0.22204460493E-15  0.13938003654E+02  0.83765557830E+02  0.82597825229E+02 0.  0.
         66    2    3    3    0    0  0.33523125514E+02  0.13344533115E+01  0.31354902439E+02  0.45964231964E+02  0.20000007961E+01 0.  0.
        -13    1    3    3    0    0 -0.33523125514E+02 -0.13344533115E+01 -0.17416898785E+02  0.37801325866E+02  0.10566000000E+00 0.  1.
         13    1    4    4    0    0  0.10132234706E+02  0.10955966993E+01  0.10096542621E+02  0.14346213758E+02  0.10566000000E+00 0. -1.
        -13    1    4    4    0    0  0.15812798590E+01  0.17069828476E+00  0.15236457403E+01  0.22050497215E+01  0.10566000000E+00 0. -1.
         14    1    4    4    0    0  0.21809610949E+02  0.68158327445E-01  0.19734714078E+02  0.29412968484E+02  0.00000000000E+00 0. -1.
<mgrwt>
<rscale>  0 0.82597825E+02</rscale>
<asrwt>0</asrwt>
<pdfrwt beam="1">  1        2 0.75156586E-02 0.82597825E+02</pdfrwt>
<pdfrwt beam="2">  1       -1 0.53713503E-02 0.82597825E+02</pdfrwt>
<totfact> 0.13617889E+05</totfact>
</mgrwt>
</event>
<event>
 8    1  0.2561077E-024  0.7721303E+02  0.7818608E-02  0.1337152E+00
          2   -1    0    0  501    0  0.00000000000E+00  0.00000000000E+00  0.86254052363E+02  0.86254052401E+02  0.25500000000E-02 0. -1.
         -1   -1    0    0    0  501 -0.00000000000E+00 -0.00000000000E+00 -0.17279917265E+02  0.17279918000E+02  0.50400000000E-02 0.  1.
         24    2    1    2    0    0  0.44408920985E-15 -0.17763568394E-14  0.68974135098E+02  0.10353397040E+03  0.77213028139E+02 0.  0.
         66    2    3    3    0    0  0.33468915125E+01 -0.10665218498E+02  0.84023383001E+02  0.84787248158E+02  0.19999977004E+01 0.  0.
        -13    1    3    3    0    0 -0.33468915125E+01  0.10665218498E+02 -0.15049247903E+02  0.18746722243E+02  0.10566000000E+00 0.  1.
         13    1    4    4    0    0  0.20266710243E+01 -0.48833570302E+01  0.35009843954E+02  0.35406989551E+02  0.10566000000E+00 0. -1.
        -13    1    4    4    0    0  0.91854824669E+00 -0.40680243032E+01  0.30663767526E+02  0.30946249458E+02  0.10566000000E+00 0.  1.
        -14    1    4    4    0    0  0.40167224151E+00 -0.17138371642E+01  0.18349771521E+02  0.18434009149E+02  0.00000000000E+00 0.  1.
<mgrwt>
<rscale>  0 0.77213028E+02</rscale>
<asrwt>0</asrwt>
<pdfrwt beam="1">  1        2 0.13269854E-01 0.77213028E+02</pdfrwt>
<pdfrwt beam="2">  1       -1 0.26584489E-02 0.77213028E+02</pdfrwt>
<totfact> 0.18726374E+05</totfact>
</mgrwt>
</event>
<event>
 8    1  0.2561077E-024  0.8045757E+02  0.7818608E-02  0.1327758E+00
         -1   -1    0    0    0  501 -0.00000000000E+00  0.00000000000E+00  0.32601746663E+01  0.32601785620E+01  0.50400000000E-02 0.  1.
          2   -1    0    0  501    0  0.00000000000E+00 -0.00000000000E+00 -0.49640110420E+03  0.49640110420E+03  0.25500000000E-02 0. -1.
         24    2    1    2    0    0  0.00000000000E+00 -0.88817841970E-15 -0.49314092953E+03  0.49966128276E+03  0.80457573395E+02 0.  0.
         66    2    3    3    0    0 -0.29031120180E+02 -0.72551778230E+01 -0.41346567012E+03  0.41455193151E+03  0.20000026826E+01 0.  0.
        -13    1    3    3    0    0  0.29031120180E+02  0.72551778230E+01 -0.79675259412E+02  0.85109351252E+02  0.10566000000E+00 0.  1.
         13    1    4    4    0    0 -0.18308478052E+02 -0.46883606211E+01 -0.24818421455E+03  0.24890278546E+03  0.10566000000E+00 0. -1.
        -13    1    4    4    0    0 -0.15749494217E+01 -0.45000740957E+00 -0.24800195978E+02  0.24854453462E+02  0.10566000000E+00 0.  1.
         14    1    4    4    0    0 -0.91476927063E+01 -0.21168097923E+01 -0.14048125959E+03  0.14079469259E+03  0.00000000000E+00 0. -1.
<mgrwt>
<rscale>  0 0.80457573E+02</rscale>
<asrwt>0</asrwt>
<pdfrwt beam="1">  1        2 0.76369341E-01 0.80457573E+02</pdfrwt>
<pdfrwt beam="2">  1       -1 0.50156603E-03 0.80457573E+02</pdfrwt>
<totfact> 0.29932767E+05</totfact>
</mgrwt>
</event>
<event>
 8    1  0.2561077E-024  0.7985242E+02  0.7818608E-02  0.1329471E+00
          2   -1    0    0  501    0  0.00000000000E+00  0.00000000000E+00  0.39640364787E+02  0.39640364869E+02  0.25500000000E-02 0. -1.
         -1   -1    0    0    0  501 -0.00000000000E+00 -0.00000000000E+00 -0.40214115639E+02  0.40214115954E+02  0.50400000000E-02 0.  1.
         24    2    1    2    0    0 -0.22204460493E-15  0.71054273576E-14 -0.57375085172E+00  0.79854480823E+02  0.79852419610E+02 0.  0.
         66    2    3    3    0    0  0.11498956211E+01 -0.35335603849E+02 -0.18785373172E+02  0.40085126908E+02  0.19999986784E+01 0.  0.
        -13    1    3    3    0    0 -0.11498956211E+01  0.35335603849E+02  0.18211622320E+02  0.39769353916E+02  0.10566000000E+00 0.  1.
         13    1    4    4    0    0  0.14124672773E+00 -0.15349358425E+02 -0.78834709962E+01  0.17256391097E+02  0.10566000000E+00 0. -1.
        -13    1    4    4    0    0  0.71844611733E+00 -0.19272529169E+02 -0.10520569289E+02  0.21969071159E+02  0.10566000000E+00 0.  1.
        -14    1    4    4    0    0  0.29020277599E+00 -0.71371625433E+00 -0.38133288681E+00  0.85966465174E+00  0.00000000000E+00 0.  1.
<mgrwt>
<rscale>  0 0.79852420E+02</rscale>
<asrwt>0</asrwt>
<pdfrwt beam="1">  1        2 0.60985177E-02 0.79852420E+02</pdfrwt>
<pdfrwt beam="2">  1       -1 0.61867871E-02 0.79852420E+02</pdfrwt>
<totfact> 0.14301669E+05</totfact>
</mgrwt>
</event>
<event>
 8    1  0.2561077E-024  0.7972511E+02  0.7818608E-02  0.1329833E+00
          2   -1    0    0  501    0  0.00000000000E+00  0.00000000000E+00  0.12090397648E+03  0.12090397651E+03  0.25500000000E-02 0. -1.
         -1   -1    0    0    0  501 -0.00000000000E+00 -0.00000000000E+00 -0.13142853701E+02  0.13142854667E+02  0.50400000000E-02 0.  1.
         24    2    1    2    0    0  0.00000000000E+00  0.00000000000E+00  0.10776112278E+03  0.13404683118E+03  0.79725111260E+02 0.  0.
         66    2    3    3    0    0  0.20396825914E+02 -0.21115746743E+02  0.99189983509E+02  0.10346283438E+03  0.20000001633E+01 0.  0.
        -13    1    3    3    0    0 -0.20396825914E+02  0.21115746743E+02  0.85711392722E+01  0.30583996801E+02  0.10566000000E+00 0.  1.
         13    1    4    4    0    0  0.15613851426E+02 -0.16424532509E+02  0.76813196965E+02  0.80086428417E+02  0.10566000000E+00 0. -1.
        -13    1    4    4    0    0  0.19190212166E+01 -0.14722858965E+01  0.91921080862E+01  0.95055922117E+01  0.10566000000E+00 0.  1.
         14    1    4    4    0    0  0.28639532713E+01 -0.32189283366E+01  0.13184678457E+02  0.13870813747E+02  0.00000000000E+00 0. -1.
<mgrwt>
<rscale>  0 0.79725111E+02</rscale>
<asrwt>0</asrwt>
<pdfrwt beam="1">  1        2 0.18600612E-01 0.79725111E+02</pdfrwt>
<pdfrwt beam="2">  1       -1 0.20219776E-02 0.79725111E+02</pdfrwt>
<totfact> 0.18901243E+05</totfact>
</mgrwt>
</event>
<event>
 8    1  0.2561077E-024  0.8006733E+02  0.7818608E-02  0.1328860E+00
          2   -1    0    0  501    0  0.00000000000E+00  0.00000000000E+00  0.16945295405E+03  0.16945295407E+03  0.25500000000E-02 0. -1.
         -1   -1    0    0    0  501 -0.00000000000E+00 -0.00000000000E+00 -0.94580471410E+01  0.94580484839E+01  0.50400000000E-02 0.  1.
         24    2    1    2    0    0  0.00000000000E+00  0.00000000000E+00  0.15999490691E+03  0.17891100255E+03  0.80067325406E+02 0.  0.
         66    2    3    3    0    0 -0.46937914253E+01  0.26523127955E+02  0.14615168155E+03  0.14862645126E+03  0.19999999956E+01 0.  0.
        -13    1    3    3    0    0  0.46937914253E+01 -0.26523127955E+02  0.13843225355E+02  0.30284551289E+02  0.10566000000E+00 0.  1.
         13    1    4    4    0    0 -0.21637310905E+01  0.10556815202E+02  0.61142834553E+02  0.62085307929E+02  0.10566000000E+00 0. -1.
        -13    1    4    4    0    0 -0.25554660086E+01  0.15847206169E+02  0.83609175763E+02  0.85136183763E+02  0.10566000000E+00 0.  1.
        -14    1    4    4    0    0  0.25405673763E-01  0.11910658438E+00  0.13996712368E+01  0.14049595716E+01  0.00000000000E+00 0.  1.
<mgrwt>
<rscale>  0 0.80067325E+02</rscale>
<asrwt>0</asrwt>
<pdfrwt beam="1">  1        2 0.26069686E-01 0.80067325E+02</pdfrwt>
<pdfrwt beam="2">  1       -1 0.14550843E-02 0.80067325E+02</pdfrwt>
<totfact> 0.20800545E+05</totfact>
</mgrwt>
</event>
<event>
 8    1  0.2561077E-024  0.7638588E+02  0.7818608E-02  0.1339632E+00
          2   -1    0    0  501    0  0.00000000000E+00  0.00000000000E+00  0.97007315625E+03  0.97007315625E+03  0.25500000000E-02 0. -1.
         -1   -1    0    0    0  501 -0.00000000000E+00 -0.00000000000E+00 -0.15036974086E+01  0.15037058549E+01  0.50400000000E-02 0.  1.
         24    2    1    2    0    0  0.00000000000E+00  0.00000000000E+00  0.96856945884E+03  0.97157686211E+03  0.76385878170E+02 0.  0.
         66    2    3    3    0    0 -0.56107016451E+01  0.12960786364E+02  0.93561118893E+03  0.93571991473E+03  0.20000010031E+01 0.  0.
        -13    1    3    3    0    0  0.56107016451E+01 -0.12960786364E+02  0.32958269910E+02  0.35856947383E+02  0.10566000000E+00 0.  1.
         13    1    4    4    0    0 -0.44990867031E+00  0.85541159115E+00  0.51762422698E+02  0.51771553139E+02  0.10566000000E+00 0. -1.
        -13    1    4    4    0    0 -0.31715125067E+01  0.92748417918E+01  0.66532544687E+03  0.66539765749E+03  0.10566000000E+00 0.  1.
        -14    1    4    4    0    0 -0.19892804680E+01  0.28305329809E+01  0.21852331937E+03  0.21855070410E+03  0.00000000000E+00 0.  1.
<mgrwt>
<rscale>  0 0.76385878E+02</rscale>
<asrwt>0</asrwt>
<pdfrwt beam="1">  1        2 0.14924220E+00 0.76385878E+02</pdfrwt>
<pdfrwt beam="2">  1       -1 0.23133844E-03 0.76385878E+02</pdfrwt>
<totfact> 0.39649372E+05</totfact>
</mgrwt>
</event>
<event>
 8    1  0.2561077E-024  0.8074608E+02  0.7818608E-02  0.1326947E+00
         -1   -1    0    0    0  501 -0.00000000000E+00  0.00000000000E+00  0.55233109305E+01  0.55233132300E+01  0.50400000000E-02 0.  1.
          2   -1    0    0  501    0  0.00000000000E+00 -0.00000000000E+00 -0.29510959949E+03  0.29510959950E+03  0.25500000000E-02 0. -1.
         24    2    1    2    0    0 -0.22204460493E-15 -0.35527136788E-14 -0.28958628856E+03  0.30063291273E+03  0.80746081611E+02 0.  0.
         66    2    3    3    0    0 -0.19071753436E+01 -0.22948964931E+02 -0.26823593320E+03  0.26923002836E+03  0.19999995813E+01 0.  0.
        -13    1    3    3    0    0  0.19071753436E+01  0.22948964931E+02 -0.21350355359E+02  0.31402884377E+02  0.10566000000E+00 0.  1.
         13    1    4    4    0    0 -0.11615059326E+01 -0.11890631979E+02 -0.13231845606E+03  0.13285676950E+03  0.10566000000E+00 0. -1.
        -13    1    4    4    0    0 -0.59689213558E+00 -0.24048219800E+01 -0.28539845592E+02  0.28647397777E+02  0.10566000000E+00 0.  1.
        -14    1    4    4    0    0 -0.14877727535E+00 -0.86535109724E+01 -0.10737763155E+03  0.10772586108E+03  0.00000000000E+00 0.  1.
<mgrwt>
<rscale>  0 0.80746082E+02</rscale>
<asrwt>0</asrwt>
<pdfrwt beam="1">  1        2 0.45401465E-01 0.80746082E+02</pdfrwt>
<pdfrwt beam="2">  1       -1 0.84974055E-03 0.80746082E+02</pdfrwt>
<totfact> 0.24733433E+05</totfact>
</mgrwt>
</event>
<event>
 8    1  0.2561077E-024  0.7554605E+02  0.7818608E-02  0.1342188E+00
         -1   -1    0    0    0  501 -0.00000000000E+00  0.00000000000E+00  0.21110590946E+01  0.21110651109E+01  0.50400000000E-02 0.  1.
          2   -1    0    0  501    0  0.00000000000E+00 -0.00000000000E+00 -0.67586898525E+03  0.67586898526E+03  0.25500000000E-02 0. -1.
         24    2    1    2    0    0  0.44408920985E-15  0.35527136788E-14 -0.67375792616E+03  0.67798005037E+03  0.75546049775E+02 0.  0.
         66    2    3    3    0    0 -0.38447577263E+01 -0.19787938859E+02 -0.62351598688E+03  0.62384495720E+03  0.20000094871E+01 0.  0.
        -13    1    3    3    0    0  0.38447577263E+01  0.19787938859E+02 -0.50241939275E+02  0.54135093169E+02  0.10566000000E+00 0.  1.
         13    1    4    4    0    0 -0.48015348632E+00 -0.39613179721E+01 -0.13152641500E+03  0.13158697350E+03  0.10566000000E+00 0. -1.
        -13    1    4    4    0    0 -0.43394262590E-01 -0.15484658842E+00 -0.11061864641E+02  0.11063538037E+02  0.10566000000E+00 0. -1.
         14    1    4    4    0    0 -0.33212099774E+01 -0.15671774299E+02 -0.48092770724E+03  0.48119444567E+03  0.00000000000E+00 0. -1.
<mgrwt>
<rscale>  0 0.75546050E+02</rscale>
<asrwt>0</asrwt>
<pdfrwt beam="1">  1        2 0.10397967E+00 0.75546050E+02</pdfrwt>
<pdfrwt beam="2">  1       -1 0.32477933E-03 0.75546050E+02</pdfrwt>
<totfact> 0.38488745E+05</totfact>
</mgrwt>
</event>
<event>
 8    1  0.2561077E-024  0.8094776E+02  0.7818608E-02  0.1326383E+00
          2   -1    0    0  501    0  0.00000000000E+00  0.00000000000E+00  0.29155704715E+03  0.29155704716E+03  0.25500000000E-02 0. -1.
         -1   -1    0    0    0  501 -0.00000000000E+00 -0.00000000000E+00 -0.56185736062E+01  0.56185758667E+01  0.50400000000E-02 0.  1.
         24    2    1    2    0    0  0.00000000000E+00  0.00000000000E+00  0.28593847354E+03  0.29717562303E+03  0.80947762597E+02 0.  0.
         66    2    3    3    0    0  0.21887352494E+02  0.14727714396E+02  0.25562328108E+03  0.25698876164E+03  0.20000011966E+01 0.  0.
        -13    1    3    3    0    0 -0.21887352494E+02 -0.14727714396E+02  0.30315192459E+02  0.40186861390E+02  0.10566000000E+00 0.  1.
         13    1    4    4    0    0  0.11177473573E+02  0.77708637052E+01  0.13487133627E+03  0.13555666988E+03  0.10566000000E+00 0. -1.
        -13    1    4    4    0    0  0.56171234651E+01  0.41681834702E+01  0.70261351255E+02  0.70608742190E+02  0.10566000000E+00 0.  1.
        -14    1    4    4    0    0  0.50927554562E+01  0.27886672210E+01  0.50490593561E+02  0.50823349566E+02  0.00000000000E+00 0.  1.
<mgrwt>
<rscale>  0 0.80947763E+02</rscale>
<asrwt>0</asrwt>
<pdfrwt beam="1">  1        2 0.44854935E-01 0.80947763E+02</pdfrwt>
<pdfrwt beam="2">  1       -1 0.86439603E-03 0.80947763E+02</pdfrwt>
<totfact> 0.24464297E+05</totfact>
</mgrwt>
</event>
<event>
 8    1  0.2561077E-024  0.7346949E+02  0.7818608E-02  0.1348677E+00
          2   -1    0    0  501    0  0.00000000000E+00  0.00000000000E+00  0.32498660991E+03  0.32498660992E+03  0.25500000000E-02 0. -1.
         -1   -1    0    0    0  501 -0.00000000000E+00 -0.00000000000E+00 -0.41522969707E+01  0.41523000295E+01  0.50400000000E-02 0.  1.
         24    2    1    2    0    0  0.17763568394E-14 -0.35527136788E-14  0.32083431294E+03  0.32913890995E+03  0.73469488112E+02 0.  0.
         66    2    3    3    0    0  0.86249861599E+01  0.25860180105E+02  0.27066364493E+03  0.27204034259E+03  0.20000029362E+01 0.  0.
        -13    1    3    3    0    0 -0.86249861599E+01 -0.25860180105E+02  0.50170668011E+02  0.57098567355E+02  0.10566000000E+00 0.  1.
         13    1    4    4    0    0  0.12726151824E+01  0.34243746802E+01  0.35163167598E+02  0.35352587047E+02  0.10566000000E+00 0. -1.
        -13    1    4    4    0    0  0.22792981883E+01  0.53698173164E+01  0.52474910380E+02  0.52798271957E+02  0.10566000000E+00 0.  1.
         14    1    4    4    0    0  0.50730727891E+01  0.17065988108E+02  0.18302556695E+03  0.18388948359E+03  0.00000000000E+00 0. -1.
<mgrwt>
<rscale>  0 0.73469488E+02</rscale>
<asrwt>0</asrwt>
<pdfrwt beam="1">  1        2 0.49997942E-01 0.73469488E+02</pdfrwt>
<pdfrwt beam="2">  1       -1 0.63881513E-03 0.73469488E+02</pdfrwt>
<totfact> 0.32764882E+05</totfact>
</mgrwt>
</event>
<event>
 8    1  0.2561077E-024  0.7942908E+02  0.7818608E-02  0.1330679E+00
         -1   -1    0    0    0  501 -0.00000000000E+00  0.00000000000E+00  0.53482477337E+01  0.53482501084E+01  0.50400000000E-02 0.  1.
          2   -1    0    0  501    0  0.00000000000E+00 -0.00000000000E+00 -0.29490863150E+03  0.29490863151E+03  0.25500000000E-02 0. -1.
         24    2    1    2    0    0  0.00000000000E+00  0.17763568394E-14 -0.28956038376E+03  0.30025688161E+03  0.79429082286E+02 0.  0.
         66    2    3    3    0    0 -0.28059707293E+01 -0.10450591740E+02 -0.28922105056E+03  0.28943031011E+03  0.19999965823E+01 0.  0.
        -13    1    3    3    0    0  0.28059707293E+01  0.10450591740E+02 -0.33933320441E+00  0.10826571503E+02  0.10566000000E+00 0.  1.
         13    1    4    4    0    0 -0.64278372238E+00 -0.21073264628E+01 -0.49247200384E+02  0.49296570930E+02  0.10566000000E+00 0. -1.
        -13    1    4    4    0    0 -0.14356568610E+01 -0.38441617108E+01 -0.13184088814E+03  0.13190477489E+03  0.10566000000E+00 0.  1.
        -14    1    4    4    0    0 -0.72753014587E+00 -0.44991035668E+01 -0.10813296203E+03  0.10822896429E+03  0.00000000000E+00 0.  1.
<mgrwt>
<rscale>  0 0.79429082E+02</rscale>
<asrwt>0</asrwt>
<pdfrwt beam="1">  1        2 0.45370546E-01 0.79429082E+02</pdfrwt>
<pdfrwt beam="2">  1       -1 0.82280776E-03 0.79429082E+02</pdfrwt>
<totfact> 0.25817141E+05</totfact>
</mgrwt>
</event>
<event>
 8    1  0.2561077E-024  0.8105799E+02  0.7818608E-02  0.1326076E+00
         -1   -1    0    0    0  501 -0.00000000000E+00  0.00000000000E+00  0.17336302941E+01  0.17336376202E+01  0.50400000000E-02 0.  1.
          2   -1    0    0  501    0  0.00000000000E+00 -0.00000000000E+00 -0.94748919703E+03  0.94748919704E+03  0.25500000000E-02 0. -1.
         24    2    1    2    0    0  0.00000000000E+00  0.00000000000E+00 -0.94575556674E+03  0.94922283466E+03  0.81057990451E+02 0.  0.
         66    2    3    3    0    0  0.23766084578E+02  0.36677060625E+01 -0.85484462400E+03  0.85518513202E+03  0.19999995623E+01 0.  0.
        -13    1    3    3    0    0 -0.23766084578E+02 -0.36677060625E+01 -0.90910942743E+02  0.94037702643E+02  0.10566000000E+00 0.  1.
         13    1    4    4    0    0  0.17522063160E+02  0.28502605226E+01 -0.60831502964E+03  0.60857401615E+03  0.10566000000E+00 0. -1.
        -13    1    4    4    0    0  0.24610326214E+01 -0.37578866268E-02 -0.90661244428E+02  0.90694702717E+02  0.10566000000E+00 0.  1.
         14    1    4    4    0    0  0.37829887967E+01  0.82120342651E+00 -0.15586834993E+03  0.15591641315E+03  0.00000000000E+00 0. -1.
<mgrwt>
<rscale>  0 0.81057990E+02</rscale>
<asrwt>0</asrwt>
<pdfrwt beam="1">  1        2 0.14576715E+00 0.81057990E+02</pdfrwt>
<pdfrwt beam="2">  1       -1 0.26671368E-03 0.81057990E+02</pdfrwt>
<totfact> 0.33938167E+05</totfact>
</mgrwt>
</event>
<event>
 8    1  0.2561077E-024  0.7956914E+02  0.7818608E-02  0.1330279E+00
         -1   -1    0    0    0  501 -0.00000000000E+00  0.00000000000E+00  0.13184610448E+03  0.13184610458E+03  0.50400000000E-02 0.  1.
          2   -1    0    0  501    0  0.00000000000E+00 -0.00000000000E+00 -0.12004995461E+02  0.12004995732E+02  0.25500000000E-02 0. -1.
         24    2    1    2    0    0  0.00000000000E+00  0.00000000000E+00  0.11984110902E+03  0.14385110031E+03  0.79569137542E+02 0.  0.
         66    2    3    3    0    0 -0.28011885752E+01 -0.38156956174E+02  0.40402556719E+02  0.55679139248E+02  0.19999989963E+01 0.  0.
        -13    1    3    3    0    0  0.28011885752E+01  0.38156956174E+02  0.79438552302E+02  0.88171961063E+02  0.10566000000E+00 0.  1.
         13    1    4    4    0    0 -0.60951255313E+00 -0.14324734483E+02  0.15210655467E+02  0.20903222893E+02  0.10566000000E+00 0. -1.
        -13    1    4    4    0    0 -0.19501814096E+01 -0.19182015348E+02  0.19514457630E+02  0.27433157692E+02  0.10566000000E+00 0.  1.
        -14    1    4    4    0    0 -0.24149461249E+00 -0.46502063430E+01  0.56774436225E+01  0.73427586619E+01  0.00000000000E+00 0.  1.
<mgrwt>
<rscale>  0 0.79569138E+02</rscale>
<asrwt>0</asrwt>
<pdfrwt beam="1">  1        2 0.18469224E-02 0.79569138E+02</pdfrwt>
<pdfrwt beam="2">  1       -1 0.20284016E-01 0.79569138E+02</pdfrwt>
<totfact> 0.11288685E+05</totfact>
</mgrwt>
</event>
<event>
 8    1  0.2561077E-024  0.7988180E+02  0.7818608E-02  0.1329387E+00
         -1   -1    0    0    0  501 -0.00000000000E+00  0.00000000000E+00  0.40173576684E+01  0.40173608299E+01  0.50400000000E-02 0.  1.
          2   -1    0    0  501    0  0.00000000000E+00 -0.00000000000E+00 -0.39709554913E+03  0.39709554914E+03  0.25500000000E-02 0. -1.
         24    2    1    2    0    0  0.00000000000E+00  0.00000000000E+00 -0.39307819146E+03  0.40111290997E+03  0.79881799807E+02 0.  0.
         66    2    3    3    0    0 -0.34678815809E+01  0.16626412576E+02 -0.37804299462E+03  0.37842960981E+03  0.20000013147E+01 0.  0.
        -13    1    3    3    0    0  0.34678815809E+01 -0.16626412576E+02 -0.15035196845E+02  0.22683300157E+02  0.10566000000E+00 0.  1.
         13    1    4    4    0    0 -0.19667960445E+01  0.96214807263E+01 -0.23231632659E+03  0.23252382231E+03  0.10566000000E+00 0. -1.
        -13    1    4    4    0    0 -0.92566258607E+00  0.52755563886E+01 -0.10096028920E+03  0.10110232196E+03  0.10566000000E+00 0.  1.
        -14    1    4    4    0    0 -0.57542295040E+00  0.17293754613E+01 -0.44766378832E+02  0.44803465544E+02  0.00000000000E+00 0.  1.
<mgrwt>
<rscale>  0 0.79881800E+02</rscale>
<asrwt>0</asrwt>
<pdfrwt beam="1">  1        2 0.61091592E-01 0.79881800E+02</pdfrwt>
<pdfrwt beam="2">  1       -1 0.61805559E-03 0.79881800E+02</pdfrwt>
<totfact> 0.28290721E+05</totfact>
</mgrwt>
</event>
<event>
 8    1  0.2561077E-024  0.8040657E+02  0.7818608E-02  0.1327902E+00
          2   -1    0    0  501    0  0.00000000000E+00  0.00000000000E+00  0.23051326174E+03  0.23051326176E+03  0.25500000000E-02 0. -1.
         -1   -1    0    0    0  501 -0.00000000000E+00 -0.00000000000E+00 -0.70117616183E+01  0.70117634296E+01  0.50400000000E-02 0.  1.
         24    2    1    2    0    0 -0.44408920985E-15 -0.71054273576E-14  0.22350150012E+03  0.23752502519E+03  0.80406573313E+02 0.  0.
         66    2    3    3    0    0 -0.33062714631E+01 -0.27793725808E+02  0.19696998060E+03  0.19895877935E+03  0.19999998453E+01 0.  0.
        -13    1    3    3    0    0  0.33062714631E+01  0.27793725808E+02  0.26531519524E+02  0.38566245832E+02  0.10566000000E+00 0.  1.
         13    1    4    4    0    0 -0.82329428838E+00 -0.61387035924E+01  0.48102833201E+02  0.48500053828E+02  0.10566000000E+00 0. -1.
        -13    1    4    4    0    0 -0.46322728691E+00 -0.16836385523E+01  0.11178705559E+02  0.11314762053E+02  0.10566000000E+00 0. -1.
         14    1    4    4    0    0 -0.20197498878E+01 -0.19971383663E+02  0.13768844184E+03  0.13914396347E+03  0.00000000000E+00 0. -1.
<mgrwt>
<rscale>  0 0.80406573E+02</rscale>
<asrwt>0</asrwt>
<pdfrwt beam="1">  1        2 0.35463578E-01 0.80406573E+02</pdfrwt>
<pdfrwt beam="2">  1       -1 0.10787327E-02 0.80406573E+02</pdfrwt>
<totfact> 0.22879829E+05</totfact>
</mgrwt>
</event>
<event>
 8    1  0.2561077E-024  0.7848595E+02  0.7818608E-02  0.1333404E+00
         -1   -1    0    0    0  501 -0.00000000000E+00  0.00000000000E+00  0.77524246219E+02  0.77524246383E+02  0.50400000000E-02 0.  1.
          2   -1    0    0  501    0  0.00000000000E+00 -0.00000000000E+00 -0.19864895450E+02  0.19864895613E+02  0.25500000000E-02 0. -1.
         24    2    1    2    0    0  0.00000000000E+00  0.00000000000E+00  0.57659350770E+02  0.97389141997E+02  0.78485949365E+02 0.  0.
         66    2    3    3    0    0 -0.37113220784E+02 -0.11509636535E+02  0.35431067636E+02  0.52623411519E+02  0.19999989746E+01 0.  0.
        -13    1    3    3    0    0  0.37113220784E+02  0.11509636535E+02  0.22228283134E+02  0.44765730478E+02  0.10566000000E+00 0.  1.
         13    1    4    4    0    0 -0.23766627331E+02 -0.69705454861E+01  0.22342984441E+02  0.33356576515E+02  0.10566000000E+00 0.  1.
        -13    1    4    4    0    0 -0.10989662659E+02 -0.35989418490E+01  0.11247838892E+02  0.16132269263E+02  0.10566000000E+00 0. -1.
        -14    1    4    4    0    0 -0.23569307940E+01 -0.94014920046E+00  0.18402443032E+01  0.31345657406E+01  0.00000000000E+00 0.  1.
<mgrwt>
<rscale>  0 0.78485949E+02</rscale>
<asrwt>0</asrwt>
<pdfrwt beam="1">  1        2 0.30561378E-02 0.78485949E+02</pdfrwt>
<pdfrwt beam="2">  1       -1 0.11926807E-01 0.78485949E+02</pdfrwt>
<totfact> 0.13097090E+05</totfact>
</mgrwt>
</event>
<event>
 8    1  0.2561077E-024  0.7886684E+02  0.7818608E-02  0.1332298E+00
          2   -1    0    0  501    0  0.00000000000E+00  0.00000000000E+00  0.88311390786E+02  0.88311390823E+02  0.25500000000E-02 0. -1.
         -1   -1    0    0    0  501 -0.00000000000E+00 -0.00000000000E+00 -0.17608085307E+02  0.17608086029E+02  0.50400000000E-02 0.  1.
         24    2    1    2    0    0  0.17763568394E-14  0.35527136788E-14  0.70703305479E+02  0.10591947685E+03  0.78866838221E+02 0.  0.
         66    2    3    3    0    0  0.12802439997E+02  0.27769632594E+02  0.68759422361E+02  0.75278902284E+02  0.20000003601E+01 0.  0.
        -13    1    3    3    0    0 -0.12802439997E+02 -0.27769632594E+02  0.19438831184E+01  0.30640574568E+02  0.10566000000E+00 0.  1.
         13    1    4    4    0    0  0.56123573045E+01  0.11498895429E+02  0.29730888912E+02  0.32367577453E+02  0.10566000000E+00 0. -1.
        -13    1    4    4    0    0  0.20853953641E+01  0.47940148364E+01  0.10093433646E+02  0.11367498356E+02  0.10566000000E+00 0.  1.
        -14    1    4    4    0    0  0.51046873279E+01  0.11476722328E+02  0.28935099802E+02  0.31543826475E+02  0.00000000000E+00 0.  1.
<mgrwt>
<rscale>  0 0.78866838E+02</rscale>
<asrwt>0</asrwt>
<pdfrwt beam="1">  1        2 0.13586368E-01 0.78866838E+02</pdfrwt>
<pdfrwt beam="2">  1       -1 0.27089363E-02 0.78866838E+02</pdfrwt>
<totfact> 0.17802651E+05</totfact>
</mgrwt>
</event>
<event>
 8    1  0.2561077E-024  0.8011278E+02  0.7818608E-02  0.1328732E+00
          2   -1    0    0  501    0  0.00000000000E+00  0.00000000000E+00  0.19423960399E+04  0.19423960399E+04  0.25500000000E-02 0. -1.
         -1   -1    0    0    0  501 -0.00000000000E+00 -0.00000000000E+00 -0.82604136406E+00  0.82605673942E+00  0.50400000000E-02 0.  1.
         24    2    1    2    0    0  0.00000000000E+00  0.00000000000E+00  0.19415699986E+04  0.19432220967E+04  0.80112780874E+02 0.  0.
         66    2    3    3    0    0  0.38362446903E+01 -0.16598274427E+02  0.18500780467E+04  0.18501575604E+04  0.20000026112E+01 0.  0.
        -13    1    3    3    0    0 -0.38362446903E+01  0.16598274427E+02  0.91491951842E+02  0.93064536227E+02  0.10566000000E+00 0.  1.
         13    1    4    4    0    0  0.33069351961E+01 -0.11229793441E+02  0.12482598675E+04  0.12483147648E+04  0.10566000000E+00 0. -1.
        -13    1    4    4    0    0  0.38302360157E+00 -0.15824862197E+01  0.15684196770E+03  0.15685045414E+03  0.10566000000E+00 0.  1.
        -14    1    4    4    0    0  0.14628589259E+00 -0.37859947667E+01  0.44497621156E+03  0.44499234152E+03  0.00000000000E+00 0.  1.
<mgrwt>
<rscale>  0 0.80112781E+02</rscale>
<asrwt>0</asrwt>
<pdfrwt beam="1">  1        2 0.29882772E+00 0.80112781E+02</pdfrwt>
<pdfrwt beam="2">  1       -1 0.12708551E-03 0.80112781E+02</pdfrwt>
<totfact> 0.28390237E+05</totfact>
</mgrwt>
</event>
<event>
 8    1  0.2561077E-024  0.7633180E+02  0.7818608E-02  0.1339796E+00
          2   -1    0    0  501    0  0.00000000000E+00  0.00000000000E+00  0.32199562306E+03  0.32199562307E+03  0.25500000000E-02 0. -1.
         -1   -1    0    0    0  501 -0.00000000000E+00 -0.00000000000E+00 -0.45237737140E+01  0.45237765215E+01  0.50400000000E-02 0.  1.
         24    2    1    2    0    0 -0.17763568394E-14  0.00000000000E+00  0.31747184935E+03  0.32651939959E+03  0.76331796668E+02 0.  0.
         66    2    3    3    0    0 -0.11564177530E+02  0.41195985018E+01  0.31330976857E+03  0.31355655368E+03  0.19999948424E+01 0.  0.
        -13    1    3    3    0    0  0.11564177530E+02 -0.41195985018E+01  0.41620807768E+01  0.12962845914E+02  0.10566000000E+00 0.  1.
         13    1    4    4    0    0 -0.31854887561E+00  0.29523804431E+00  0.94775194986E+01  0.94880545304E+01  0.10566000000E+00 0. -1.
        -13    1    4    4    0    0 -0.77036731524E+00 -0.12559339057E+00  0.18963639596E+02  0.18979990260E+02  0.10566000000E+00 0.  1.
        -14    1    4    4    0    0 -0.10475261339E+02  0.39499538481E+01  0.28486860948E+03  0.28508850889E+03  0.00000000000E+00 0.  1.
<mgrwt>
<rscale>  0 0.76331797E+02</rscale>
<asrwt>0</asrwt>
<pdfrwt beam="1">  1        2 0.49537798E-01 0.76331797E+02</pdfrwt>
<pdfrwt beam="2">  1       -1 0.69596527E-03 0.76331797E+02</pdfrwt>
<totfact> 0.29567894E+05</totfact>
</mgrwt>
</event>
<event>
 8    1  0.2561077E-024  0.7998430E+02  0.7818608E-02  0.1329096E+00
         -1   -1    0    0    0  501 -0.00000000000E+00  0.00000000000E+00  0.44814138698E+01  0.44814167039E+01  0.50400000000E-02 0.  1.
          2   -1    0    0  501    0  0.00000000000E+00 -0.00000000000E+00 -0.35688994424E+03  0.35688994425E+03  0.25500000000E-02 0. -1.
         24    2    1    2    0    0 -0.17763568394E-14  0.00000000000E+00 -0.35240853037E+03  0.36137136096E+03  0.79984299956E+02 0.  0.
         66    2    3    3    0    0  0.14040534061E+02  0.12352859872E+02 -0.33589953283E+03  0.33642566177E+03  0.20000003630E+01 0.  0.
        -13    1    3    3    0    0 -0.14040534061E+02 -0.12352859872E+02 -0.16508997545E+02  0.24945699183E+02  0.10566000000E+00 0.  1.
         13    1    4    4    0    0  0.20312270573E+00  0.95245217517E-01 -0.56315068054E+01  0.56369640251E+01  0.10566000000E+00 0. -1.
        -13    1    4    4    0    0  0.57017318624E+01  0.49331507471E+01 -0.14852521492E+03  0.14871649657E+03  0.10566000000E+00 0. -1.
         14    1    4    4    0    0  0.81356794932E+01  0.73244639076E+01 -0.18174281111E+03  0.18207220118E+03  0.00000000000E+00 0. -1.
<mgrwt>
<rscale>  0 0.79984300E+02</rscale>
<asrwt>0</asrwt>
<pdfrwt beam="1">  1        2 0.54906123E-01 0.79984300E+02</pdfrwt>
<pdfrwt beam="2">  1       -1 0.68944879E-03 0.79984300E+02</pdfrwt>
<totfact> 0.27151479E+05</totfact>
</mgrwt>
</event>
<event>
 8    1  0.2561077E-024  0.8023588E+02  0.7818608E-02  0.1328383E+00
          2   -1    0    0  501    0  0.00000000000E+00  0.00000000000E+00  0.92157004292E+01  0.92157007820E+01  0.25500000000E-02 0. -1.
         -1   -1    0    0    0  501 -0.00000000000E+00 -0.00000000000E+00 -0.17464208482E+03  0.17464208490E+03  0.50400000000E-02 0.  1.
         24    2    1    2    0    0  0.00000000000E+00  0.00000000000E+00 -0.16542638439E+03  0.18385778568E+03  0.80235881628E+02 0.  0.
         66    2    3    3    0    0  0.25952979318E+02  0.17366385346E+02 -0.25144404697E+02  0.40142116848E+02  0.19999954901E+01 0.  0.
        -13    1    3    3    0    0 -0.25952979318E+02 -0.17366385346E+02 -0.14028197970E+03  0.14371566883E+03  0.10566000000E+00 0.  1.
         13    1    4    4    0    0  0.10618341069E+02  0.64668675494E+01 -0.11017692154E+02  0.16612352254E+02  0.10566000000E+00 0. -1.
        -13    1    4    4    0    0  0.10417550070E+02  0.73213924483E+01 -0.93772388104E+01  0.15813662086E+02  0.10566000000E+00 0.  1.
         14    1    4    4    0    0  0.49170881798E+01  0.35781253484E+01 -0.47494737319E+01  0.77161025076E+01  0.00000000000E+00 0. -1.
<mgrwt>
<rscale>  0 0.80235882E+02</rscale>
<asrwt>0</asrwt>
<pdfrwt beam="1">  1        2 0.14178002E-02 0.80235882E+02</pdfrwt>
<pdfrwt beam="2">  1       -1 0.26868011E-01 0.80235882E+02</pdfrwt>
<totfact> 0.10282696E+05</totfact>
</mgrwt>
</event>
<event>
 8    1  0.2561077E-024  0.7649495E+02  0.7818608E-02  0.1339303E+00
         -1   -1    0    0    0  501 -0.00000000000E+00  0.00000000000E+00  0.14063274791E+02  0.14063275694E+02  0.50400000000E-02 0.  1.
          2   -1    0    0  501    0  0.00000000000E+00 -0.00000000000E+00 -0.10402052777E+03  0.10402052780E+03  0.25500000000E-02 0. -1.
         24    2    1    2    0    0  0.17763568394E-14  0.44408920985E-15 -0.89957252979E+02  0.11808380349E+03  0.76494949404E+02 0.  0.
         66    2    3    3    0    0 -0.13272535438E+02 -0.27783596300E+01 -0.10017261553E+03  0.10110604524E+03  0.20000008479E+01 0.  0.
        -13    1    3    3    0    0  0.13272535438E+02  0.27783596300E+01  0.10215362550E+02  0.16977758252E+02  0.10566000000E+00 0.  1.
         13    1    4    4    0    0 -0.92857862605E+01 -0.18782642284E+01 -0.64642723106E+02  0.65333349199E+02  0.10566000000E+00 0. -1.
        -13    1    4    4    0    0 -0.93596640374E+00 -0.18359189519E+00 -0.11366492981E+02  0.11406930605E+02  0.10566000000E+00 0.  1.
         14    1    4    4    0    0 -0.30507827742E+01 -0.71650350640E+00 -0.24163399442E+02  0.24365765439E+02  0.00000000000E+00 0. -1.
<mgrwt>
<rscale>  0 0.76494949E+02</rscale>
<asrwt>0</asrwt>
<pdfrwt beam="1">  1        2 0.16003158E-01 0.76494949E+02</pdfrwt>
<pdfrwt beam="2">  1       -1 0.21635809E-02 0.76494949E+02</pdfrwt>
<totfact> 0.20200814E+05</totfact>
</mgrwt>
</event>
<event>
 8    1  0.2561077E-024  0.7815000E+02  0.7818608E-02  0.1334385E+00
          2   -1    0    0  501    0  0.00000000000E+00  0.00000000000E+00  0.42376508615E+02  0.42376508691E+02  0.25500000000E-02 0. -1.
         -1   -1    0    0    0  501 -0.00000000000E+00 -0.00000000000E+00 -0.36030704331E+02  0.36030704683E+02  0.50400000000E-02 0.  1.
         24    2    1    2    0    0  0.00000000000E+00 -0.88817841970E-15  0.63458042840E+01  0.78407213375E+02  0.78149996015E+02 0.  0.
         66    2    3    3    0    0  0.35499538006E+02  0.72292885359E+01  0.17795883859E+02  0.40412538778E+02  0.19999992014E+01 0.  0.
        -13    1    3    3    0    0 -0.35499538006E+02 -0.72292885359E+01 -0.11450079575E+02  0.37994674596E+02  0.10566000000E+00 0.  1.
         13    1    4    4    0    0  0.10587018674E+02  0.22340773870E+01  0.45179771173E+01  0.11726011575E+02  0.10566000000E+00 0. -1.
        -13    1    4    4    0    0  0.32033391483E+01  0.81145087224E+00  0.20501643044E+01  0.38902663055E+01  0.10566000000E+00 0.  1.
         14    1    4    4    0    0  0.21709180184E+02  0.41837602767E+01  0.11227742437E+02  0.24796260898E+02  0.00000000000E+00 0. -1.
<mgrwt>
<rscale>  0 0.78149996E+02</rscale>
<asrwt>0</asrwt>
<pdfrwt beam="1">  1        2 0.65194629E-02 0.78149996E+02</pdfrwt>
<pdfrwt beam="2">  1       -1 0.55431853E-02 0.78149996E+02</pdfrwt>
<totfact> 0.15386050E+05</totfact>
</mgrwt>
</event>
<event>
 8    1  0.2561077E-024  0.7945366E+02  0.7818608E-02  0.1330609E+00
         -1   -1    0    0    0  501 -0.00000000000E+00  0.00000000000E+00  0.12435999669E+03  0.12435999679E+03  0.50400000000E-02 0.  1.
          2   -1    0    0  501    0  0.00000000000E+00 -0.00000000000E+00 -0.12690743545E+02  0.12690743801E+02  0.25500000000E-02 0. -1.
         24    2    1    2    0    0  0.00000000000E+00  0.00000000000E+00  0.11166925314E+03  0.13705074059E+03  0.79453655668E+02 0.  0.
         66    2    3    3    0    0 -0.15310612810E+02  0.33723858493E+02  0.31202884951E+02  0.48469923986E+02  0.20000014234E+01 0.  0.
        -13    1    3    3    0    0  0.15310612810E+02 -0.33723858493E+02  0.80466368190E+02  0.88580816602E+02  0.10566000000E+00 0.  1.
         13    1    4    4    0    0 -0.63016889705E+01  0.14843225085E+02  0.14018426852E+02  0.21367266326E+02  0.10566000000E+00 0. -1.
        -13    1    4    4    0    0 -0.43753446245E+01  0.88629333383E+01  0.89153019934E+01  0.13311235916E+02  0.10566000000E+00 0.  1.
        -14    1    4    4    0    0 -0.46335792150E+01  0.10017700070E+02  0.82691561052E+01  0.13791421744E+02  0.00000000000E+00 0.  1.
<mgrwt>
<rscale>  0 0.79453656E+02</rscale>
<asrwt>0</asrwt>
<pdfrwt beam="1">  1        2 0.19524220E-02 0.79453656E+02</pdfrwt>
<pdfrwt beam="2">  1       -1 0.19132308E-01 0.79453656E+02</pdfrwt>
<totfact> 0.11487086E+05</totfact>
</mgrwt>
</event>
<event>
 8    1  0.2561077E-024  0.7763349E+02  0.7818608E-02  0.1335905E+00
         -1   -1    0    0    0  501 -0.00000000000E+00  0.00000000000E+00  0.27942371729E+01  0.27942417182E+01  0.50400000000E-02 0.  1.
          2   -1    0    0  501    0  0.00000000000E+00 -0.00000000000E+00 -0.53923073887E+03  0.53923073887E+03  0.25500000000E-02 0. -1.
         24    2    1    2    0    0  0.71054273576E-14 -0.17763568394E-14 -0.53643650170E+03  0.54202498059E+03  0.77633492999E+02 0.  0.
         66    2    3    3    0    0 -0.36833531921E+02  0.80657034730E+01 -0.33199199291E+03  0.33413238096E+03  0.20000004791E+01 0.  0.
        -13    1    3    3    0    0  0.36833531921E+02 -0.80657034730E+01 -0.20444450879E+03  0.20789259964E+03  0.10566000000E+00 0.  1.
         13    1    4    4    0    0 -0.47026098565E+01  0.14916780254E+01 -0.40766495623E+02  0.41064071550E+02  0.10566000000E+00 0. -1.
        -13    1    4    4    0    0 -0.15914317389E+02  0.27271039230E+01 -0.14410968379E+03  0.14501142962E+03  0.10566000000E+00 0.  1.
        -14    1    4    4    0    0 -0.16216604676E+02  0.38469215246E+01 -0.14711581350E+03  0.14805687979E+03  0.00000000000E+00 0.  1.
<mgrwt>
<rscale>  0 0.77633493E+02</rscale>
<asrwt>0</asrwt>
<pdfrwt beam="1">  1        2 0.82958493E-01 0.77633493E+02</pdfrwt>
<pdfrwt beam="2">  1       -1 0.42988342E-03 0.77633493E+02</pdfrwt>
<totfact> 0.33708034E+05</totfact>
</mgrwt>
</event>
<event>
 8    1  0.2561077E-024  0.7925965E+02  0.7818608E-02  0.1331166E+00
         -1   -1    0    0    0  501 -0.00000000000E+00  0.00000000000E+00  0.36873755882E+02  0.36873756227E+02  0.50400000000E-02 0.  1.
          2   -1    0    0  501    0  0.00000000000E+00 -0.00000000000E+00 -0.42591888833E+02  0.42591888909E+02  0.25500000000E-02 0. -1.
         24    2    1    2    0    0  0.00000000000E+00  0.00000000000E+00 -0.57181329505E+01  0.79465645136E+02  0.79259647441E+02 0.  0.
         66    2    3    3    0    0 -0.24204871168E+02 -0.27066192136E+01 -0.34172105702E+02  0.42011121975E+02  0.19999964020E+01 0.  0.
        -13    1    3    3    0    0  0.24204871168E+02  0.27066192136E+01  0.28453972752E+02  0.37454523161E+02  0.10566000000E+00 0.  1.
         13    1    4    4    0    0 -0.11303875423E+02 -0.20213163041E+01 -0.16093783901E+02  0.19770795722E+02  0.10566000000E+00 0. -1.
        -13    1    4    4    0    0 -0.12175746975E+01 -0.29281664256E+00 -0.15423890901E+01  0.19895622310E+01  0.10566000000E+00 0.  1.
         14    1    4    4    0    0 -0.11683421047E+02 -0.39248626694E+00 -0.16535932711E+02  0.20250764022E+02  0.00000000000E+00 0. -1.
<mgrwt>
<rscale>  0 0.79259647E+02</rscale>
<asrwt>0</asrwt>
<pdfrwt beam="1">  1        2 0.65525983E-02 0.79259647E+02</pdfrwt>
<pdfrwt beam="2">  1       -1 0.56728856E-02 0.79259647E+02</pdfrwt>
<totfact> 0.14816312E+05</totfact>
</mgrwt>
</event>
<event>
 8    1  0.2561077E-024  0.7460404E+02  0.7818608E-02  0.1345102E+00
         -1   -1    0    0    0  501 -0.00000000000E+00  0.00000000000E+00  0.29120159331E+01  0.29120202946E+01  0.50400000000E-02 0.  1.
          2   -1    0    0  501    0  0.00000000000E+00 -0.00000000000E+00 -0.47782696955E+03  0.47782696955E+03  0.25500000000E-02 0. -1.
         24    2    1    2    0    0  0.00000000000E+00  0.00000000000E+00 -0.47491495361E+03  0.48073898985E+03  0.74604042748E+02 0.  0.
         66    2    3    3    0    0  0.35489618858E+02 -0.44120074333E+01 -0.30535183619E+03  0.30744547927E+03  0.19999996519E+01 0.  0.
        -13    1    3    3    0    0 -0.35489618858E+02  0.44120074333E+01 -0.16956311742E+03  0.17329351058E+03  0.10566000000E+00 0.  1.
         13    1    4    4    0    0  0.78619657100E+01 -0.93187114459E+00 -0.64770802114E+02  0.65252945215E+02  0.10566000000E+00 0. -1.
        -13    1    4    4    0    0  0.74543365617E+01 -0.90060680843E+00 -0.58910281805E+02  0.59386957260E+02  0.10566000000E+00 0. -1.
        -14    1    4    4    0    0  0.20173316587E+02 -0.25795294803E+01 -0.18167075227E+03  0.18280557679E+03  0.00000000000E+00 0.  1.
<mgrwt>
<rscale>  0 0.74604043E+02</rscale>
<asrwt>0</asrwt>
<pdfrwt beam="1">  1        2 0.73511779E-01 0.74604043E+02</pdfrwt>
<pdfrwt beam="2">  1       -1 0.44800317E-03 0.74604043E+02</pdfrwt>
<totfact> 0.35978322E+05</totfact>
</mgrwt>
</event>
<event>
 8    1  0.2561077E-024  0.8011067E+02  0.7818608E-02  0.1328738E+00
         -1   -1    0    0    0  501 -0.00000000000E+00  0.00000000000E+00  0.34158337638E+01  0.34158374820E+01  0.50400000000E-02 0.  1.
          2   -1    0    0  501    0  0.00000000000E+00 -0.00000000000E+00 -0.46970351504E+03  0.46970351505E+03  0.25500000000E-02 0. -1.
         24    2    1    2    0    0  0.00000000000E+00  0.00000000000E+00 -0.46628768128E+03  0.47311935253E+03  0.80110673618E+02 0.  0.
         66    2    3    3    0    0 -0.18200581867E+02 -0.25538154116E+02 -0.38021991141E+03  0.38151623758E+03  0.20000006566E+01 0.  0.
        -13    1    3    3    0    0  0.18200581867E+02  0.25538154116E+02 -0.86067769862E+02  0.91603114953E+02  0.10566000000E+00 0.  1.
         13    1    4    4    0    0 -0.12923935327E+02 -0.17123453141E+02 -0.26100857065E+03  0.26188876621E+03  0.10566000000E+00 0. -1.
        -13    1    4    4    0    0 -0.45035347118E+01 -0.73826287142E+01 -0.10026776070E+03  0.10064005182E+03  0.10566000000E+00 0.  1.
        -14    1    4    4    0    0 -0.77311182896E+00 -0.10320722604E+01 -0.18943580067E+02  0.18987419541E+02  0.00000000000E+00 0.  1.
<mgrwt>
<rscale>  0 0.80110674E+02</rscale>
<asrwt>0</asrwt>
<pdfrwt beam="1">  1        2 0.72262028E-01 0.80110674E+02</pdfrwt>
<pdfrwt beam="2">  1       -1 0.52551355E-03 0.80110674E+02</pdfrwt>
<totfact> 0.29733288E+05</totfact>
</mgrwt>
</event>
<event>
 8    1  0.2561077E-024  0.8098633E+02  0.7818608E-02  0.1326275E+00
         -1   -1    0    0    0  501 -0.00000000000E+00  0.00000000000E+00  0.78005800937E+01  0.78005817219E+01  0.50400000000E-02 0.  1.
          2   -1    0    0  501    0  0.00000000000E+00 -0.00000000000E+00 -0.21020183469E+03  0.21020183470E+03  0.25500000000E-02 0. -1.
         24    2    1    2    0    0  0.35527136788E-14  0.00000000000E+00 -0.20240125459E+03  0.21800241642E+03  0.80986330364E+02 0.  0.
         66    2    3    3    0    0  0.20395500942E+02  0.34611211988E+02 -0.88135751776E+02  0.96880458250E+02  0.19999989044E+01 0.  0.
        -13    1    3    3    0    0 -0.20395500942E+02 -0.34611211988E+02 -0.11426550282E+03  0.12112195817E+03  0.10566000000E+00 0.  1.
         13    1    4    4    0    0  0.14890506644E+02  0.25581405645E+02 -0.65803414470E+02  0.72154251592E+02  0.10566000000E+00 0. -1.
        -13    1    4    4    0    0  0.14592367287E+01  0.31805743615E+01 -0.72296422199E+01  0.80327028927E+01  0.10566000000E+00 0.  1.
         14    1    4    4    0    0  0.40457575695E+01  0.58492319814E+01 -0.15102695086E+02  0.16693503765E+02  0.00000000000E+00 0. -1.
<mgrwt>
<rscale>  0 0.80986330E+02</rscale>
<asrwt>0</asrwt>
<pdfrwt beam="1">  1        2 0.32338739E-01 0.80986330E+02</pdfrwt>
<pdfrwt beam="2">  1       -1 0.12000895E-02 0.80986330E+02</pdfrwt>
<totfact> 0.21730787E+05</totfact>
</mgrwt>
</event>
<event>
 8    1  0.2561077E-024  0.8123633E+02  0.7818608E-02  0.1325579E+00
         -1   -1    0    0    0  501 -0.00000000000E+00  0.00000000000E+00  0.19644403582E+01  0.19644468236E+01  0.50400000000E-02 0.  1.
          2   -1    0    0  501    0  0.00000000000E+00 -0.00000000000E+00 -0.83984864714E+03  0.83984864714E+03  0.25500000000E-02 0. -1.
         24    2    1    2    0    0  0.00000000000E+00 -0.35527136788E-14 -0.83788420678E+03  0.84181309397E+03  0.81236329316E+02 0.  0.
         66    2    3    3    0    0 -0.83707358708E+01 -0.27933656134E+02 -0.71182818669E+03  0.71242804951E+03  0.19999992669E+01 0.  0.
        -13    1    3    3    0    0  0.83707358708E+01  0.27933656134E+02 -0.12605602009E+03  0.12938504445E+03  0.10566000000E+00 0.  1.
         13    1    4    4    0    0 -0.24944850439E+01 -0.10697280540E+02 -0.28138537457E+03  0.28159970606E+03  0.10566000000E+00 0. -1.
        -13    1    4    4    0    0 -0.17730181558E+01 -0.51029508127E+01 -0.12113588253E+03  0.12125632726E+03  0.10566000000E+00 0.  1.
         14    1    4    4    0    0 -0.41032326711E+01 -0.12133424781E+02 -0.30930692960E+03  0.30957201619E+03  0.00000000000E+00 0. -1.
<mgrwt>
<rscale>  0 0.81236329E+02</rscale>
<asrwt>0</asrwt>
<pdfrwt beam="1">  1        2 0.12920720E+00 0.81236329E+02</pdfrwt>
<pdfrwt beam="2">  1       -1 0.30222276E-03 0.81236329E+02</pdfrwt>
<totfact> 0.33281428E+05</totfact>
</mgrwt>
</event>
<event>
 8    1  0.2561077E-024  0.7747344E+02  0.7818608E-02  0.1336378E+00
         -1   -1    0    0    0  501 -0.00000000000E+00  0.00000000000E+00  0.27972116687E+01  0.27972162092E+01  0.50400000000E-02 0.  1.
          2   -1    0    0  501    0  0.00000000000E+00 -0.00000000000E+00 -0.53643854217E+03  0.53643854217E+03  0.25500000000E-02 0. -1.
         24    2    1    2    0    0  0.00000000000E+00  0.00000000000E+00 -0.53364133050E+03  0.53923575838E+03  0.77473437397E+02 0.  0.
         66    2    3    3    0    0  0.35920793600E+02 -0.46815582804E+01 -0.36200193819E+03  0.36381537029E+03  0.20000021676E+01 0.  0.
        -13    1    3    3    0    0 -0.35920793600E+02  0.46815582804E+01 -0.17163939231E+03  0.17542038809E+03  0.10566000000E+00 0.  1.
         13    1    4    4    0    0  0.17767056065E+02 -0.24932049168E+01 -0.17883045583E+03  0.17972820438E+03  0.10566000000E+00 0. -1.
        -13    1    4    4    0    0  0.46815255063E+01 -0.58316920336E-01 -0.50210271039E+02  0.50428192152E+02  0.10566000000E+00 0.  1.
        -14    1    4    4    0    0  0.13472212028E+02 -0.21300364433E+01 -0.13296121132E+03  0.13365897376E+03  0.00000000000E+00 0.  1.
<mgrwt>
<rscale>  0 0.77473437E+02</rscale>
<asrwt>0</asrwt>
<pdfrwt beam="1">  1        2 0.82528925E-01 0.77473437E+02</pdfrwt>
<pdfrwt beam="2">  1       -1 0.43034103E-03 0.77473437E+02</pdfrwt>
<totfact> 0.33835787E+05</totfact>
</mgrwt>
</event>
<event>
 8    1  0.2561077E-024  0.8008717E+02  0.7818608E-02  0.1328804E+00
          2   -1    0    0  501    0  0.00000000000E+00  0.00000000000E+00  0.67283782634E+03  0.67283782634E+03  0.25500000000E-02 0. -1.
         -1   -1    0    0    0  501 -0.00000000000E+00 -0.00000000000E+00 -0.23831696869E+01  0.23831750163E+01  0.50400000000E-02 0.  1.
         24    2    1    2    0    0 -0.55511151231E-16  0.35527136788E-14  0.67045465665E+03  0.67522100136E+03  0.80087165334E+02 0.  0.
         66    2    3    3    0    0  0.29617712363E+00 -0.24228082800E+02  0.60396205681E+03  0.60445120049E+03  0.19999982875E+01 0.  0.
        -13    1    3    3    0    0 -0.29617712363E+00  0.24228082800E+02  0.66492599840E+02  0.70769800865E+02  0.10566000000E+00 0.  1.
         13    1    4    4    0    0  0.34502342923E+00 -0.21958290802E+01  0.63554475928E+02  0.63593421681E+02  0.10566000000E+00 0. -1.
        -13    1    4    4    0    0  0.40261661487E-01 -0.21901597567E+02  0.53568550945E+03  0.53613305978E+03  0.10566000000E+00 0.  1.
         14    1    4    4    0    0 -0.89107967083E-01 -0.13065615274E+00  0.47220714381E+01  0.47247190315E+01  0.00000000000E+00 0. -1.
<mgrwt>
<rscale>  0 0.80087165E+02</rscale>
<asrwt>0</asrwt>
<pdfrwt beam="1">  1        2 0.10351365E+00 0.80087165E+02</pdfrwt>
<pdfrwt beam="2">  1       -1 0.36664141E-03 0.80087165E+02</pdfrwt>
<totfact> 0.33047063E+05</totfact>
</mgrwt>
</event>
<event>
 8    1  0.2561077E-024  0.8411930E+02  0.7818608E-02  0.1317752E+00
          2   -1    0    0  501    0  0.00000000000E+00  0.00000000000E+00  0.60866456523E+02  0.60866456576E+02  0.25500000000E-02 0. -1.
         -1   -1    0    0    0  501 -0.00000000000E+00 -0.00000000000E+00 -0.29063859944E+02  0.29063860381E+02  0.50400000000E-02 0.  1.
         24    2    1    2    0    0  0.71054273576E-14  0.00000000000E+00  0.31802596578E+02  0.89930316957E+02  0.84119300752E+02 0.  0.
         66    2    3    3    0    0 -0.41145852014E+02  0.83089213498E+01  0.13522151564E+02  0.44145983983E+02  0.20000017474E+01 0.  0.
        -13    1    3    3    0    0  0.41145852014E+02 -0.83089213498E+01  0.18280445014E+02  0.45784332974E+02  0.10566000000E+00 0.  1.
         13    1    4    4    0    0 -0.67341462728E+01  0.10156778744E+01  0.23459405027E+01  0.72038134656E+01  0.10566000000E+00 0. -1.
        -13    1    4    4    0    0 -0.11460679298E+02  0.28334439559E+01  0.31020538648E+01  0.12206943796E+02  0.10566000000E+00 0.  1.
        -14    1    4    4    0    0 -0.22951026443E+02  0.44597995195E+01  0.80741571968E+01  0.24735226722E+02  0.00000000000E+00 0.  1.
<mgrwt>
<rscale>  0 0.84119301E+02</rscale>
<asrwt>0</asrwt>
<pdfrwt beam="1">  1        2 0.93640703E-02 0.84119301E+02</pdfrwt>
<pdfrwt beam="2">  1       -1 0.44713631E-02 0.84119301E+02</pdfrwt>
<totfact> 0.13618170E+05</totfact>
</mgrwt>
</event>
<event>
 8    1  0.2561077E-024  0.7759153E+02  0.7818608E-02  0.1336029E+00
         -1   -1    0    0    0  501 -0.00000000000E+00  0.00000000000E+00  0.21933219538E+02  0.21933220117E+02  0.50400000000E-02 0.  1.
          2   -1    0    0  501    0  0.00000000000E+00 -0.00000000000E+00 -0.68622456352E+02  0.68622456399E+02  0.25500000000E-02 0. -1.
         24    2    1    2    0    0  0.00000000000E+00  0.71054273576E-14 -0.46689236814E+02  0.90555676516E+02  0.77591531207E+02 0.  0.
         66    2    3    3    0    0  0.13712365160E+02  0.33276224878E+02 -0.40182688581E+02  0.53981335314E+02  0.20000000661E+01 0.  0.
        -13    1    3    3    0    0 -0.13712365160E+02 -0.33276224878E+02 -0.65065482329E+01  0.36574341202E+02  0.10566000000E+00 0.  1.
         13    1    4    4    0    0  0.58800091826E+01  0.13641497200E+02 -0.17730996871E+02  0.23131458405E+02  0.10566000000E+00 0. -1.
        -13    1    4    4    0    0  0.49073658343E+01  0.11166978755E+02 -0.13056550615E+02  0.17868081373E+02  0.10566000000E+00 0.  1.
         14    1    4    4    0    0  0.29249901431E+01  0.84677489228E+01 -0.93951410947E+01  0.12981795536E+02  0.00000000000E+00 0. -1.
<mgrwt>
<rscale>  0 0.77591531E+02</rscale>
<asrwt>0</asrwt>
<pdfrwt beam="1">  1        2 0.10557301E-01 0.77591531E+02</pdfrwt>
<pdfrwt beam="2">  1       -1 0.33743416E-02 0.77591531E+02</pdfrwt>
<totfact> 0.17452808E+05</totfact>
</mgrwt>
</event>
<event>
 8    1  0.2561077E-024  0.7842958E+02  0.7818608E-02  0.1333568E+00
         -1   -1    0    0    0  501 -0.00000000000E+00  0.00000000000E+00  0.20037897785E+01  0.20037961169E+01  0.50400000000E-02 0.  1.
          2   -1    0    0  501    0  0.00000000000E+00 -0.00000000000E+00 -0.76744449079E+03  0.76744449079E+03  0.25500000000E-02 0. -1.
         24    2    1    2    0    0  0.35527136788E-14  0.00000000000E+00 -0.76544070101E+03  0.76944828691E+03  0.78429582847E+02 0.  0.
         66    2    3    3    0    0  0.29981078687E+02  0.11019697525E+02 -0.60571572014E+03  0.60656065849E+03  0.19999989659E+01 0.  0.
        -13    1    3    3    0    0 -0.29981078687E+02 -0.11019697525E+02 -0.15972498087E+03  0.16288762842E+03  0.10566000000E+00 0.  1.
         13    1    4    4    0    0  0.45347904787E+01  0.15442914895E+01 -0.80993617997E+02  0.81135235756E+02  0.10566000000E+00 0. -1.
        -13    1    4    4    0    0  0.32256149103E+01  0.10188137187E+01 -0.59451501577E+02  0.59547752071E+02  0.10566000000E+00 0.  1.
         14    1    4    4    0    0  0.22220673298E+02  0.84565923165E+01 -0.46527060057E+03  0.46587767067E+03  0.00000000000E+00 0. -1.
<mgrwt>
<rscale>  0 0.78429583E+02</rscale>
<asrwt>0</asrwt>
<pdfrwt beam="1">  1        2 0.11806815E+00 0.78429583E+02</pdfrwt>
<pdfrwt beam="2">  1       -1 0.30827645E-03 0.78429583E+02</pdfrwt>
<totfact> 0.35907646E+05</totfact>
</mgrwt>
</event>
<event>
 8    1  0.2561077E-024  0.8003659E+02  0.7818608E-02  0.1328948E+00
         -1   -1    0    0    0  501 -0.00000000000E+00  0.00000000000E+00  0.11824712521E+03  0.11824712531E+03  0.50400000000E-02 0.  1.
          2   -1    0    0  501    0  0.00000000000E+00 -0.00000000000E+00 -0.13543364317E+02  0.13543364557E+02  0.25500000000E-02 0. -1.
         24    2    1    2    0    0  0.00000000000E+00  0.00000000000E+00  0.10470376089E+03  0.13179048987E+03  0.80036589609E+02 0.  0.
         66    2    3    3    0    0 -0.20117086893E+02  0.13441305594E+01 -0.44887049972E+01  0.20752164765E+02  0.19999994650E+01 0.  0.
        -13    1    3    3    0    0  0.20117086893E+02 -0.13441305594E+01  0.10919246589E+03  0.11103832511E+03  0.10566000000E+00 0.  1.
         13    1    4    4    0    0 -0.15070024283E+02  0.14631375191E+01 -0.28955441682E+01  0.15415633083E+02  0.10566000000E+00 0. -1.
        -13    1    4    4    0    0 -0.46426698961E+01 -0.18183429659E+00 -0.12778542755E+01  0.48199090304E+01  0.10566000000E+00 0.  1.
         14    1    4    4    0    0 -0.40439271383E+00  0.62827336829E-01 -0.31530655352E+00  0.51662265141E+00  0.00000000000E+00 0. -1.
<mgrwt>
<rscale>  0 0.80036590E+02</rscale>
<asrwt>0</asrwt>
<pdfrwt beam="1">  1        2 0.20835945E-02 0.80036590E+02</pdfrwt>
<pdfrwt beam="2">  1       -1 0.18191866E-01 0.80036590E+02</pdfrwt>
<totfact> 0.11409677E+05</totfact>
</mgrwt>
</event>
<event>
 8    1  0.2561077E-024  0.8197544E+02  0.7818608E-02  0.1323537E+00
         -1   -1    0    0    0  501 -0.00000000000E+00  0.00000000000E+00  0.36657905175E+03  0.36657905179E+03  0.50400000000E-02 0.  1.
          2   -1    0    0  501    0  0.00000000000E+00 -0.00000000000E+00 -0.45828943288E+01  0.45828950382E+01  0.25500000000E-02 0. -1.
         24    2    1    2    0    0  0.00000000000E+00  0.00000000000E+00  0.36199615742E+03  0.37116194682E+03  0.81975440113E+02 0.  0.
         66    2    3    3    0    0 -0.38752915849E+02  0.10896596589E+02  0.14678314811E+03  0.15221634892E+03  0.20000007075E+01 0.  0.
        -13    1    3    3    0    0  0.38752915849E+02 -0.10896596589E+02  0.21521300931E+03  0.21894559791E+03  0.10566000000E+00 0.  1.
         13    1    4    4    0    0 -0.17363420880E+02  0.47334294619E+01  0.65495957448E+02  0.67923672936E+02  0.10566000000E+00 0. -1.
        -13    1    4    4    0    0 -0.86543438310E+01  0.30992791024E+01  0.31946409373E+02  0.33242855382E+02  0.10566000000E+00 0.  1.
        -14    1    4    4    0    0 -0.12735151138E+02  0.30638880243E+01  0.49340781293E+02  0.51049820597E+02  0.00000000000E+00 0.  1.
<mgrwt>
<rscale>  0 0.81975440E+02</rscale>
<asrwt>0</asrwt>
<pdfrwt beam="1">  1        2 0.70506047E-03 0.81975440E+02</pdfrwt>
<pdfrwt beam="2">  1       -1 0.56396797E-01 0.81975440E+02</pdfrwt>
<totfact> 0.74332565E+04</totfact>
</mgrwt>
</event>
<event>
 8    1  0.2561077E-024  0.7917737E+02  0.7818608E-02  0.1331402E+00
         -1   -1    0    0    0  501 -0.00000000000E+00  0.00000000000E+00  0.71771571860E+02  0.71771572037E+02  0.50400000000E-02 0.  1.
          2   -1    0    0  501    0  0.00000000000E+00 -0.00000000000E+00 -0.21836836785E+02  0.21836836934E+02  0.25500000000E-02 0. -1.
         24    2    1    2    0    0  0.00000000000E+00  0.00000000000E+00  0.49934735075E+02  0.93608408970E+02  0.79177373428E+02 0.  0.
         66    2    3    3    0    0  0.15026049227E+02 -0.16085613360E+02 -0.13882973812E+02  0.26101074227E+02  0.20000003467E+01 0.  0.
        -13    1    3    3    0    0 -0.15026049227E+02  0.16085613360E+02  0.63817708887E+02  0.67507334744E+02  0.10566000000E+00 0.  1.
         13    1    4    4    0    0  0.67920281513E+01 -0.70479744391E+01 -0.55857198099E+01  0.11270182782E+02  0.10566000000E+00 0. -1.
        -13    1    4    4    0    0  0.26004388527E+01 -0.28684922626E+01 -0.19343845552E+01  0.43293807560E+01  0.10566000000E+00 0.  1.
         14    1    4    4    0    0  0.56335822233E+01 -0.61691466579E+01 -0.63628694470E+01  0.10501510689E+02  0.00000000000E+00 0. -1.
<mgrwt>
<rscale>  0 0.79177373E+02</rscale>
<asrwt>0</asrwt>
<pdfrwt beam="1">  1        2 0.33595133E-02 0.79177373E+02</pdfrwt>
<pdfrwt beam="2">  1       -1 0.11041781E-01 0.79177373E+02</pdfrwt>
<totfact> 0.13014949E+05</totfact>
</mgrwt>
</event>
<event>
 8    1  0.2561077E-024  0.8081646E+02  0.7818608E-02  0.1326750E+00
         -1   -1    0    0    0  501 -0.00000000000E+00  0.00000000000E+00  0.96195294003E+01  0.96195307206E+01  0.50400000000E-02 0.  1.
          2   -1    0    0  501    0  0.00000000000E+00 -0.00000000000E+00 -0.16974062056E+03  0.16974062058E+03  0.25500000000E-02 0. -1.
         24    2    1    2    0    0  0.35527136788E-14  0.71054273576E-14 -0.16012109116E+03  0.17936015130E+03  0.80816458968E+02 0.  0.
         66    2    3    3    0    0  0.22516879021E+02  0.19758872606E+02 -0.14021238573E+03  0.14339085045E+03  0.19999985939E+01 0.  0.
        -13    1    3    3    0    0 -0.22516879021E+02 -0.19758872606E+02 -0.19908705433E+02  0.35969300849E+02  0.10566000000E+00 0.  1.
         13    1    4    4    0    0  0.26373871316E+01  0.19314918659E+01 -0.13295794335E+02  0.13692179620E+02  0.10566000000E+00 0. -1.
        -13    1    4    4    0    0  0.84549887373E+01  0.73357330394E+01 -0.55284652276E+02  0.56406593188E+02  0.10566000000E+00 0.  1.
         14    1    4    4    0    0  0.11424503152E+02  0.10491647700E+02 -0.71631939116E+02  0.73292077643E+02  0.00000000000E+00 0. -1.
<mgrwt>
<rscale>  0 0.80816459E+02</rscale>
<asrwt>0</asrwt>
<pdfrwt beam="1">  1        2 0.26113939E-01 0.80816459E+02</pdfrwt>
<pdfrwt beam="2">  1       -1 0.14799278E-02 0.80816459E+02</pdfrwt>
<totfact> 0.20305257E+05</totfact>
</mgrwt>
</event>
<event>
 8    1  0.2561077E-024  0.7302132E+02  0.7818608E-02  0.1350110E+00
          2   -1    0    0  501    0  0.00000000000E+00  0.00000000000E+00  0.81011257731E+02  0.81011257771E+02  0.25500000000E-02 0. -1.
         -1   -1    0    0    0  501 -0.00000000000E+00 -0.00000000000E+00 -0.16454853748E+02  0.16454854520E+02  0.50400000000E-02 0.  1.
         24    2    1    2    0    0  0.35527136788E-14  0.00000000000E+00  0.64556403983E+02  0.97466112291E+02  0.73021323940E+02 0.  0.
         66    2    3    3    0    0 -0.31077495438E+02 -0.16544984228E+02  0.45068453860E+02  0.57225105969E+02  0.19999985084E+01 0.  0.
        -13    1    3    3    0    0  0.31077495438E+02  0.16544984228E+02  0.19487950122E+02  0.40241006322E+02  0.10566000000E+00 0.  1.
         13    1    4    4    0    0 -0.19947943384E+02 -0.99323013926E+01  0.28723710940E+02  0.36354281597E+02  0.10566000000E+00 0. -1.
        -13    1    4    4    0    0 -0.31075181782E+01 -0.17590156788E+01  0.38921577685E+01  0.52830731129E+01  0.10566000000E+00 0.  1.
        -14    1    4    4    0    0 -0.80220338750E+01 -0.48536671571E+01  0.12452585152E+02  0.15587751260E+02  0.00000000000E+00 0.  1.
<mgrwt>
<rscale>  0 0.73021324E+02</rscale>
<asrwt>0</asrwt>
<pdfrwt beam="1">  1        2 0.12463270E-01 0.73021324E+02</pdfrwt>
<pdfrwt beam="2">  1       -1 0.25315161E-02 0.73021324E+02</pdfrwt>
<totfact> 0.21386409E+05</totfact>
</mgrwt>
</event>
<event>
 8    1  0.2561077E-024  0.8108899E+02  0.7818608E-02  0.1325989E+00
         -1   -1    0    0    0  501 -0.00000000000E+00  0.00000000000E+00  0.32042514189E+01  0.32042553826E+01  0.50400000000E-02 0.  1.
          2   -1    0    0  501    0  0.00000000000E+00 -0.00000000000E+00 -0.51302306998E+03  0.51302306998E+03  0.25500000000E-02 0. -1.
         24    2    1    2    0    0 -0.35527136788E-14  0.11102230246E-15 -0.50981881856E+03  0.51622732537E+03  0.81088986296E+02 0.  0.
         66    2    3    3    0    0 -0.27893429540E+02 -0.27804237254E+00 -0.44216162767E+03  0.44304517343E+03  0.19999991429E+01 0.  0.
        -13    1    3    3    0    0  0.27893429540E+02  0.27804237254E+00 -0.67657190884E+02  0.73182151932E+02  0.10566000000E+00 0.  1.
         13    1    4    4    0    0 -0.80535435343E+00  0.25206186413E+00 -0.13141579368E+02  0.13169069942E+02  0.10566000000E+00 0. -1.
        -13    1    4    4    0    0 -0.24244977524E+01  0.21701518449E+00 -0.36409292911E+02  0.36490725661E+02  0.10566000000E+00 0.  1.
         14    1    4    4    0    0 -0.24663577434E+02 -0.74711942116E+00 -0.39261075539E+03  0.39338537783E+03  0.00000000000E+00 0. -1.
<mgrwt>
<rscale>  0 0.81088986E+02</rscale>
<asrwt>0</asrwt>
<pdfrwt beam="1">  1        2 0.78926561E-01 0.81088986E+02</pdfrwt>
<pdfrwt beam="2">  1       -1 0.49296247E-03 0.81088986E+02</pdfrwt>
<totfact> 0.29636568E+05</totfact>
</mgrwt>
</event>
<event>
 8    1  0.2561077E-024  0.8058382E+02  0.7818608E-02  0.1327403E+00
         -1   -1    0    0    0  501 -0.00000000000E+00  0.00000000000E+00  0.29852981498E+02  0.29852981924E+02  0.50400000000E-02 0.  1.
          2   -1    0    0  501    0  0.00000000000E+00 -0.00000000000E+00 -0.54381100750E+02  0.54381100809E+02  0.25500000000E-02 0. -1.
         24    2    1    2    0    0 -0.35527136788E-14  0.00000000000E+00 -0.24528119251E+02  0.84234082733E+02  0.80583820087E+02 0.  0.
         66    2    3    3    0    0  0.24144471782E+02  0.19967604538E+02 -0.38711061061E+02  0.49841819780E+02  0.20000004730E+01 0.  0.
        -13    1    3    3    0    0 -0.24144471782E+02 -0.19967604538E+02  0.14182941810E+02  0.34392262953E+02  0.10566000000E+00 0.  1.
         13    1    4    4    0    0  0.30942884424E+01  0.28331579962E+01 -0.54894746751E+01  0.69099132730E+01  0.10566000000E+00 0. -1.
        -13    1    4    4    0    0  0.18726183163E+02  0.15249775973E+02 -0.30335090971E+02  0.38774405364E+02  0.10566000000E+00 0.  1.
        -14    1    4    4    0    0  0.23240001762E+01  0.18846705686E+01 -0.28864954153E+01  0.41575011429E+01  0.00000000000E+00 0.  1.
<mgrwt>
<rscale>  0 0.80583820E+02</rscale>
<asrwt>0</asrwt>
<pdfrwt beam="1">  1        2 0.83663232E-02 0.80583820E+02</pdfrwt>
<pdfrwt beam="2">  1       -1 0.45927664E-02 0.80583820E+02</pdfrwt>
<totfact> 0.14922939E+05</totfact>
</mgrwt>
</event>
<event>
 8    1  0.2561077E-024  0.8209104E+02  0.7818608E-02  0.1323220E+00
          2   -1    0    0  501    0  0.00000000000E+00  0.00000000000E+00  0.22809820963E+02  0.22809821106E+02  0.25500000000E-02 0. -1.
         -1   -1    0    0    0  501 -0.00000000000E+00 -0.00000000000E+00 -0.73860060260E+02  0.73860060432E+02  0.50400000000E-02 0.  1.
         24    2    1    2    0    0  0.00000000000E+00  0.88817841970E-15 -0.51050239296E+02  0.96669881538E+02  0.82091041316E+02 0.  0.
         66    2    3    3    0    0  0.15830513597E+02  0.77649924616E+01  0.18075737415E+02  0.25330466843E+02  0.19999996758E+01 0.  0.
        -13    1    3    3    0    0 -0.15830513597E+02 -0.77649924616E+01 -0.69125976711E+02  0.71339414695E+02  0.10566000000E+00 0.  1.
         13    1    4    4    0    0  0.15269322333E+02  0.75152815698E+01  0.17135991015E+02  0.24151294245E+02  0.10566000000E+00 0. -1.
        -13    1    4    4    0    0  0.39907576709E+00  0.17648045381E+00  0.36837564560E+00  0.58075078160E+00  0.10566000000E+00 0.  1.
         14    1    4    4    0    0  0.16211549619E+00  0.73230437959E-01  0.57137075438E+00  0.59842181621E+00  0.00000000000E+00 0. -1.
<mgrwt>
<rscale>  0 0.82091041E+02</rscale>
<asrwt>0</asrwt>
<pdfrwt beam="1">  1        2 0.35092033E-02 0.82091041E+02</pdfrwt>
<pdfrwt beam="2">  1       -1 0.11363086E-01 0.82091041E+02</pdfrwt>
<totfact> 0.11841835E+05</totfact>
</mgrwt>
</event>
<event>
 8    1  0.2561077E-024  0.8247919E+02  0.7818608E-02  0.1322160E+00
         -1   -1    0    0    0  501 -0.00000000000E+00  0.00000000000E+00  0.40077068734E+01  0.40077100425E+01  0.50400000000E-02 0.  1.
          2   -1    0    0  501    0  0.00000000000E+00 -0.00000000000E+00 -0.42435822978E+03  0.42435822979E+03  0.25500000000E-02 0. -1.
         24    2    1    2    0    0  0.35527136788E-14  0.44408920985E-15 -0.42035052291E+03  0.42836593983E+03  0.82479187064E+02 0.  0.
         66    2    3    3    0    0 -0.24862121084E+02 -0.19815964256E+01 -0.38071328862E+03  0.38153461170E+03  0.19999995456E+01 0.  0.
        -13    1    3    3    0    0  0.24862121084E+02  0.19815964256E+01 -0.39637234283E+02  0.46831328134E+02  0.10566000000E+00 0.  1.
         13    1    4    4    0    0 -0.10682163907E+02 -0.12461820187E+01 -0.17397831254E+03  0.17431042997E+03  0.10566000000E+00 0. -1.
        -13    1    4    4    0    0 -0.65458241119E+01 -0.80655289193E+00 -0.95898453321E+02  0.96125037603E+02  0.10566000000E+00 0.  1.
         14    1    4    4    0    0 -0.76341330652E+01  0.71138485037E-01 -0.11083652276E+03  0.11109914413E+03  0.00000000000E+00 0. -1.
<mgrwt>
<rscale>  0 0.82479187E+02</rscale>
<asrwt>0</asrwt>
<pdfrwt beam="1">  1        2 0.65285846E-01 0.82479187E+02</pdfrwt>
<pdfrwt beam="2">  1       -1 0.61657087E-03 0.82479187E+02</pdfrwt>
<totfact> 0.26626656E+05</totfact>
</mgrwt>
</event>
<event>
 8    1  0.2561077E-024  0.7982863E+02  0.7818608E-02  0.1329538E+00
          2   -1    0    0  501    0  0.00000000000E+00  0.00000000000E+00  0.10766121748E+03  0.10766121751E+03  0.25500000000E-02 0. -1.
         -1   -1    0    0    0  501 -0.00000000000E+00 -0.00000000000E+00 -0.14797831566E+02  0.14797832424E+02  0.50400000000E-02 0.  1.
         24    2    1    2    0    0  0.00000000000E+00  0.00000000000E+00  0.92863385916E+02  0.12245904994E+03  0.79828631878E+02 0.  0.
         66    2    3    3    0    0 -0.18205474429E+02 -0.34203519983E+02  0.60999840376E+02  0.72293157371E+02  0.19999995922E+01 0.  0.
        -13    1    3    3    0    0  0.18205474429E+02  0.34203519983E+02  0.31863545540E+02  0.50165892565E+02  0.10566000000E+00 0.  1.
         13    1    4    4    0    0 -0.48553117154E+00 -0.89373716593E+00  0.16221516924E+01  0.19175627210E+01  0.10566000000E+00 0. -1.
        -13    1    4    4    0    0 -0.11865836816E+02 -0.23282124097E+02  0.39738756998E+02  0.47560859513E+02  0.10566000000E+00 0.  1.
        -14    1    4    4    0    0 -0.58541064409E+01 -0.10027658721E+02  0.19638931685E+02  0.22814735137E+02  0.00000000000E+00 0.  1.
<mgrwt>
<rscale>  0 0.79828632E+02</rscale>
<asrwt>0</asrwt>
<pdfrwt beam="1">  1        2 0.16563264E-01 0.79828632E+02</pdfrwt>
<pdfrwt beam="2">  1       -1 0.22765896E-02 0.79828632E+02</pdfrwt>
<totfact> 0.18205161E+05</totfact>
</mgrwt>
</event>
<event>
 8    1  0.2561077E-024  0.7738489E+02  0.7818608E-02  0.1336641E+00
          2   -1    0    0  501    0  0.00000000000E+00  0.00000000000E+00  0.25382988012E+04  0.25382988012E+04  0.25500000000E-02 0. -1.
         -1   -1    0    0    0  501 -0.00000000000E+00 -0.00000000000E+00 -0.58979586232E+00  0.58981739616E+00  0.50400000000E-02 0.  1.
         24    2    1    2    0    0 -0.17763568394E-14 -0.88817841970E-15  0.25377090053E+04  0.25388886186E+04  0.77384894337E+02 0.  0.
         66    2    3    3    0    0 -0.94516864081E+01 -0.53934777323E+01  0.24870159153E+04  0.24870405278E+04  0.19999932905E+01 0.  0.
        -13    1    3    3    0    0  0.94516864081E+01  0.53934777323E+01  0.50693090037E+02  0.51848090800E+02  0.10566000000E+00 0.  1.
         13    1    4    4    0    0 -0.46723732904E+01 -0.27489705513E+01  0.12113353608E+04  0.12113474957E+04  0.10566000000E+00 0. -1.
        -13    1    4    4    0    0 -0.59788158235E+00 -0.52506657136E-01  0.78321390603E+02  0.78323761461E+02  0.10566000000E+00 0.  1.
        -14    1    4    4    0    0 -0.41814315354E+01 -0.25920005239E+01  0.11973591639E+04  0.11973692706E+04  0.00000000000E+00 0.  1.
<mgrwt>
<rscale>  0 0.77384894E+02</rscale>
<asrwt>0</asrwt>
<pdfrwt beam="1">  1        2 0.39051144E+00 0.77384894E+02</pdfrwt>
<pdfrwt beam="2">  1       -1 0.90738569E-04 0.77384894E+02</pdfrwt>
<totfact> 0.22322361E+05</totfact>
</mgrwt>
</event>
<event>
 8    1  0.2561077E-024  0.8165651E+02  0.7818608E-02  0.1324415E+00
         -1   -1    0    0    0  501 -0.00000000000E+00  0.00000000000E+00  0.22460411693E+02  0.22460412258E+02  0.50400000000E-02 0.  1.
          2   -1    0    0  501    0  0.00000000000E+00 -0.00000000000E+00 -0.74217085481E+02  0.74217085525E+02  0.25500000000E-02 0. -1.
         24    2    1    2    0    0  0.00000000000E+00  0.44408920985E-15 -0.51756673788E+02  0.96677497784E+02  0.81656507983E+02 0.  0.
         66    2    3    3    0    0  0.38602312457E+02 -0.36212032550E+01 -0.40948645271E+02  0.56427326548E+02  0.19999979293E+01 0.  0.
        -13    1    3    3    0    0 -0.38602312457E+02  0.36212032550E+01 -0.10808028518E+02  0.40250171236E+02  0.10566000000E+00 0.  1.
         13    1    4    4    0    0  0.31483802453E+02 -0.30140640100E+01 -0.32342608554E+02  0.45236820079E+02  0.10566000000E+00 0. -1.
        -13    1    4    4    0    0  0.50187769940E+01 -0.27901223318E+00 -0.60377435568E+01  0.78569384391E+01  0.10566000000E+00 0.  1.
         14    1    4    4    0    0  0.20997330103E+01 -0.32812701182E+00 -0.25682931602E+01  0.33335680295E+01  0.00000000000E+00 0. -1.
<mgrwt>
<rscale>  0 0.81656508E+02</rscale>
<asrwt>0</asrwt>
<pdfrwt beam="1">  1        2 0.11418013E-01 0.81656508E+02</pdfrwt>
<pdfrwt beam="2">  1       -1 0.34554481E-02 0.81656508E+02</pdfrwt>
<totfact> 0.15497807E+05</totfact>
</mgrwt>
</event>
<event>
 8    1  0.2561077E-024  0.7892904E+02  0.7818608E-02  0.1332118E+00
         -1   -1    0    0    0  501 -0.00000000000E+00  0.00000000000E+00  0.92164793123E+01  0.92164806904E+01  0.50400000000E-02 0.  1.
          2   -1    0    0  501    0  0.00000000000E+00 -0.00000000000E+00 -0.16898515501E+03  0.16898515503E+03  0.25500000000E-02 0. -1.
         24    2    1    2    0    0  0.00000000000E+00  0.00000000000E+00 -0.15976867570E+03  0.17820163572E+03  0.78929039263E+02 0.  0.
         66    2    3    3    0    0  0.21556953586E+02 -0.24367365920E+02 -0.13026712761E+03  0.13428326515E+03  0.19999985993E+01 0.  0.
        -13    1    3    3    0    0 -0.21556953586E+02  0.24367365920E+02 -0.29501548091E+02  0.43918370571E+02  0.10566000000E+00 0.  1.
         13    1    4    4    0    0  0.14579657708E+02 -0.17031571717E+02 -0.88950056023E+02  0.91732025403E+02  0.10566000000E+00 0. -1.
        -13    1    4    4    0    0  0.12480021364E+01 -0.10217958731E+01 -0.79007503878E+01  0.80644030693E+01  0.10566000000E+00 0.  1.
        -14    1    4    4    0    0  0.57292937418E+01 -0.63139983302E+01 -0.33416321199E+02  0.34486836679E+02  0.00000000000E+00 0.  1.
<mgrwt>
<rscale>  0 0.78929039E+02</rscale>
<asrwt>0</asrwt>
<pdfrwt beam="1">  1        2 0.25997714E-01 0.78929039E+02</pdfrwt>
<pdfrwt beam="2">  1       -1 0.14179201E-02 0.78929039E+02</pdfrwt>
<totfact> 0.21583656E+05</totfact>
</mgrwt>
</event>
<event>
 8    1  0.2561077E-024  0.7971807E+02  0.7818608E-02  0.1329853E+00
          2   -1    0    0  501    0  0.00000000000E+00  0.00000000000E+00  0.81498611008E+02  0.81498611048E+02  0.25500000000E-02 0. -1.
         -1   -1    0    0    0  501 -0.00000000000E+00 -0.00000000000E+00 -0.19494106239E+02  0.19494106890E+02  0.50400000000E-02 0.  1.
         24    2    1    2    0    0  0.00000000000E+00 -0.71054273576E-14  0.62004504769E+02  0.10099271794E+03  0.79718068622E+02 0.  0.
         66    2    3    3    0    0  0.31918812008E+01  0.37098538954E+02  0.48949113582E+02  0.61534586948E+02  0.19999930737E+01 0.  0.
        -13    1    3    3    0    0 -0.31918812008E+01 -0.37098538954E+02  0.13055391187E+02  0.39458130990E+02  0.10566000000E+00 0.  1.
         13    1    4    4    0    0 -0.44153884884E-01  0.12500169329E+01  0.12691170514E+01  0.17850249364E+01  0.10566000000E+00 0. -1.
        -13    1    4    4    0    0  0.16724498374E+01  0.16502856002E+02  0.22749752585E+02  0.28154995141E+02  0.10566000000E+00 0.  1.
         14    1    4    4    0    0  0.15635852482E+01  0.19345666019E+02  0.24930243946E+02  0.31594566871E+02  0.00000000000E+00 0. -1.
<mgrwt>
<rscale>  0 0.79718069E+02</rscale>
<asrwt>0</asrwt>
<pdfrwt beam="1">  1        2 0.12538248E-01 0.79718069E+02</pdfrwt>
<pdfrwt beam="2">  1       -1 0.29990934E-02 0.79718069E+02</pdfrwt>
<totfact> 0.16936023E+05</totfact>
</mgrwt>
</event>
<event>
 8    1  0.2561077E-024  0.7963291E+02  0.7818608E-02  0.1330096E+00
          2   -1    0    0  501    0  0.00000000000E+00  0.00000000000E+00  0.24825544311E+03  0.24825544312E+03  0.25500000000E-02 0. -1.
         -1   -1    0    0    0  501 -0.00000000000E+00 -0.00000000000E+00 -0.63859613599E+01  0.63859633488E+01  0.50400000000E-02 0.  1.
         24    2    1    2    0    0  0.00000000000E+00  0.17763568394E-14  0.24186948175E+03  0.25464140647E+03  0.79632905811E+02 0.  0.
         66    2    3    3    0    0 -0.36125206333E+02  0.12141949186E+02  0.15759433597E+03  0.16214941319E+03  0.20000005733E+01 0.  0.
        -13    1    3    3    0    0  0.36125206333E+02 -0.12141949186E+02  0.84275145774E+02  0.92491993286E+02  0.10566000000E+00 0.  1.
         13    1    4    4    0    0 -0.22779293586E+02  0.68445911053E+01  0.97220600497E+02  0.10008796615E+03  0.10566000000E+00 0.  1.
        -13    1    4    4    0    0 -0.34907374239E+01  0.16940902303E+01  0.16364844671E+02  0.16818873167E+02  0.10566000000E+00 0. -1.
        -14    1    4    4    0    0 -0.98551753235E+01  0.36032678504E+01  0.44008890807E+02  0.45242573865E+02  0.00000000000E+00 0.  1.
<mgrwt>
<rscale>  0 0.79632906E+02</rscale>
<asrwt>0</asrwt>
<pdfrwt beam="1">  1        2 0.38193144E-01 0.79632906E+02</pdfrwt>
<pdfrwt beam="2">  1       -1 0.98245579E-03 0.79632906E+02</pdfrwt>
<totfact> 0.24098181E+05</totfact>
</mgrwt>
</event>
<event>
 8    1  0.2561077E-024  0.7878751E+02  0.7818608E-02  0.1332528E+00
         -1   -1    0    0    0  501 -0.00000000000E+00  0.00000000000E+00  0.17017218784E+02  0.17017219530E+02  0.50400000000E-02 0.  1.
          2   -1    0    0  501    0  0.00000000000E+00 -0.00000000000E+00 -0.91193986251E+02  0.91193986287E+02  0.25500000000E-02 0. -1.
         24    2    1    2    0    0  0.17763568394E-14 -0.71054273576E-14 -0.74176767467E+02  0.10821120582E+03  0.78787513177E+02 0.  0.
         66    2    3    3    0    0  0.15342529526E+02 -0.32032831312E+02 -0.60435414645E+02  0.70127988575E+02  0.19999860274E+01 0.  0.
        -13    1    3    3    0    0 -0.15342529526E+02  0.32032831312E+02 -0.13741352822E+02  0.38083217242E+02  0.10566000000E+00 0.  1.
         13    1    4    4    0    0  0.18500091816E+01 -0.49953111532E+01 -0.85706078191E+01  0.10091687169E+02  0.10566000000E+00 0. -1.
        -13    1    4    4    0    0  0.24705697046E+01 -0.48223391807E+01 -0.84757204440E+01  0.10060202330E+02  0.10566000000E+00 0.  1.
         14    1    4    4    0    0  0.11021950640E+02 -0.22215180978E+02 -0.43389086382E+02  0.49976099076E+02  0.00000000000E+00 0. -1.
<mgrwt>
<rscale>  0 0.78787513E+02</rscale>
<asrwt>0</asrwt>
<pdfrwt beam="1">  1        2 0.14029844E-01 0.78787513E+02</pdfrwt>
<pdfrwt beam="2">  1       -1 0.26180338E-02 0.78787513E+02</pdfrwt>
<totfact> 0.18004837E+05</totfact>
</mgrwt>
</event>
<event>
 8    1  0.2561077E-024  0.7982667E+02  0.7818608E-02  0.1329544E+00
         -1   -1    0    0    0  501 -0.00000000000E+00  0.00000000000E+00  0.70251232345E+01  0.70251250424E+01  0.50400000000E-02 0.  1.
          2   -1    0    0  501    0  0.00000000000E+00 -0.00000000000E+00 -0.22676815878E+03  0.22676815879E+03  0.25500000000E-02 0. -1.
         24    2    1    2    0    0  0.00000000000E+00  0.00000000000E+00 -0.21974303554E+03  0.23379328383E+03  0.79826674091E+02 0.  0.
         66    2    3    3    0    0 -0.15827313935E+02  0.96590134034E+01 -0.21337447425E+03  0.21418792377E+03  0.20000052973E+01 0.  0.
        -13    1    3    3    0    0  0.15827313935E+02 -0.96590134034E+01 -0.63685612956E+01  0.19605360067E+02  0.10566000000E+00 0.  1.
         13    1    4    4    0    0 -0.16222658993E+01  0.49625843011E+00 -0.16737012419E+02  0.16823102206E+02  0.10566000000E+00 0. -1.
        -13    1    4    4    0    0 -0.12916836030E+01  0.70265495220E+00 -0.14829410180E+02  0.14902507870E+02  0.10566000000E+00 0.  1.
         14    1    4    4    0    0 -0.12913364433E+02  0.84601000211E+01 -0.18180805165E+03  0.18246231369E+03  0.00000000000E+00 0. -1.
<mgrwt>
<rscale>  0 0.79826674E+02</rscale>
<asrwt>0</asrwt>
<pdfrwt beam="1">  1        2 0.34887403E-01 0.79826674E+02</pdfrwt>
<pdfrwt beam="2">  1       -1 0.10807885E-02 0.79826674E+02</pdfrwt>
<totfact> 0.23184937E+05</totfact>
</mgrwt>
</event>
<event>
 8    1  0.2561077E-024  0.8198589E+02  0.7818608E-02  0.1323508E+00
         -1   -1    0    0    0  501 -0.00000000000E+00  0.00000000000E+00  0.28199372824E+02  0.28199373274E+02  0.50400000000E-02 0.  1.
          2   -1    0    0  501    0  0.00000000000E+00 -0.00000000000E+00 -0.59590735366E+02  0.59590735420E+02  0.25500000000E-02 0. -1.
         24    2    1    2    0    0  0.35527136788E-14  0.00000000000E+00 -0.31391362542E+02  0.87790108695E+02  0.81985886239E+02 0.  0.
         66    2    3    3    0    0 -0.23809575633E+02  0.13645096906E+02 -0.48277806638E+02  0.55568257108E+02  0.20000057088E+01 0.  0.
        -13    1    3    3    0    0  0.23809575633E+02 -0.13645096906E+02  0.16886444097E+02  0.32221851587E+02  0.10566000000E+00 0.  1.
         13    1    4    4    0    0 -0.76528580985E+01  0.43749258260E+01 -0.16789598581E+02  0.18963332977E+02  0.10566000000E+00 0. -1.
        -13    1    4    4    0    0 -0.96578943539E+00  0.35301043347E+00 -0.14089685038E+01  0.17474901659E+01  0.10566000000E+00 0.  1.
        -14    1    4    4    0    0 -0.15190928099E+02  0.89171606466E+01 -0.30079239554E+02  0.34857433965E+02  0.00000000000E+00 0.  1.
<mgrwt>
<rscale>  0 0.81985886E+02</rscale>
<asrwt>0</asrwt>
<pdfrwt beam="1">  1        2 0.91678054E-02 0.81985886E+02</pdfrwt>
<pdfrwt beam="2">  1       -1 0.43383651E-02 0.81985886E+02</pdfrwt>
<totfact> 0.14536709E+05</totfact>
</mgrwt>
</event>
<event>
 8    1  0.2561077E-024  0.8013259E+02  0.7818608E-02  0.1328676E+00
         -1   -1    0    0    0  501 -0.00000000000E+00  0.00000000000E+00  0.17494718540E+03  0.17494718547E+03  0.50400000000E-02 0.  1.
          2   -1    0    0  501    0  0.00000000000E+00 -0.00000000000E+00 -0.91759572537E+01  0.91759576080E+01  0.25500000000E-02 0. -1.
         24    2    1    2    0    0 -0.17763568394E-14  0.00000000000E+00  0.16577122814E+03  0.18412314308E+03  0.80132588481E+02 0.  0.
         66    2    3    3    0    0 -0.12218246144E+02 -0.35131918316E+02  0.11699981323E+03  0.12278637352E+03  0.20000005265E+01 0.  0.
        -13    1    3    3    0    0  0.12218246144E+02  0.35131918316E+02  0.48771414907E+02  0.61336769555E+02  0.10566000000E+00 0.  1.
         13    1    4    4    0    0 -0.98022721945E+01 -0.28368907175E+02  0.92552900922E+02  0.97298150381E+02  0.10566000000E+00 0. -1.
        -13    1    4    4    0    0 -0.19525049465E+01 -0.60381417842E+01  0.21785037611E+02  0.22690757138E+02  0.10566000000E+00 0.  1.
        -14    1    4    4    0    0 -0.46346900341E+00 -0.72486935640E+00  0.26618747017E+01  0.27974660013E+01  0.00000000000E+00 0.  1.
<mgrwt>
<rscale>  0 0.80132588E+02</rscale>
<asrwt>0</asrwt>
<pdfrwt beam="1">  1        2 0.14116858E-02 0.80132588E+02</pdfrwt>
<pdfrwt beam="2">  1       -1 0.26914950E-01 0.80132588E+02</pdfrwt>
<totfact> 0.10311367E+05</totfact>
</mgrwt>
</event>
<event>
 8    1  0.2561077E-024  0.7994852E+02  0.7818608E-02  0.1329198E+00
          2   -1    0    0  501    0  0.00000000000E+00  0.00000000000E+00  0.16061424585E+02  0.16061424787E+02  0.25500000000E-02 0. -1.
         -1   -1    0    0    0  501 -0.00000000000E+00 -0.00000000000E+00 -0.99489387222E+02  0.99489387349E+02  0.50400000000E-02 0.  1.
         24    2    1    2    0    0  0.00000000000E+00  0.00000000000E+00 -0.83427962637E+02  0.11555081214E+03  0.79948516156E+02 0.  0.
         66    2    3    3    0    0 -0.19249524800E+02  0.27739501492E+02 -0.10879495949E+02  0.35530094001E+02  0.19999998959E+01 0.  0.
        -13    1    3    3    0    0  0.19249524800E+02 -0.27739501492E+02 -0.72548466688E+02  0.80020718135E+02  0.10566000000E+00 0.  1.
         13    1    4    4    0    0 -0.14594420406E+02  0.21827296632E+02 -0.89693192501E+01  0.27746852742E+02  0.10566000000E+00 0. -1.
        -13    1    4    4    0    0 -0.16780072967E+01  0.23464680507E+01 -0.50763126882E+00  0.29309510985E+01  0.10566000000E+00 0.  1.
         14    1    4    4    0    0 -0.29770970974E+01  0.35657368094E+01 -0.14025454301E+01  0.48522901608E+01  0.00000000000E+00 0. -1.
<mgrwt>
<rscale>  0 0.79948516E+02</rscale>
<asrwt>0</asrwt>
<pdfrwt beam="1">  1        2 0.24709885E-02 0.79948516E+02</pdfrwt>
<pdfrwt beam="2">  1       -1 0.15306059E-01 0.79948516E+02</pdfrwt>
<totfact> 0.11885050E+05</totfact>
</mgrwt>
</event>
<event>
 8    1  0.2561077E-024  0.8099343E+02  0.7818608E-02  0.1326256E+00
         -1   -1    0    0    0  501 -0.00000000000E+00  0.00000000000E+00  0.40463352036E+01  0.40463383425E+01  0.50400000000E-02 0.  1.
          2   -1    0    0  501    0  0.00000000000E+00 -0.00000000000E+00 -0.40530089610E+03  0.40530089611E+03  0.25500000000E-02 0. -1.
         24    2    1    2    0    0  0.00000000000E+00  0.00000000000E+00 -0.40125456089E+03  0.40934723445E+03  0.80993430055E+02 0.  0.
         66    2    3    3    0    0  0.14333563178E+02  0.19811466152E+02 -0.36374108322E+03  0.36456758064E+03  0.20000006044E+01 0.  0.
        -13    1    3    3    0    0 -0.14333563178E+02 -0.19811466152E+02 -0.37513477671E+02  0.44779653811E+02  0.10566000000E+00 0.  1.
         13    1    4    4    0    0  0.47055251435E+01  0.72551910564E+01 -0.13828822317E+03  0.13855837613E+03  0.10566000000E+00 0. -1.
        -13    1    4    4    0    0  0.26618834449E+01  0.36196425229E+01 -0.58672910242E+02  0.58844787329E+02  0.10566000000E+00 0.  1.
         14    1    4    4    0    0  0.69661545901E+01  0.89366325724E+01 -0.16677994981E+03  0.16716441718E+03  0.00000000000E+00 0. -1.
<mgrwt>
<rscale>  0 0.80993430E+02</rscale>
<asrwt>0</asrwt>
<pdfrwt beam="1">  1        2 0.62353952E-01 0.80993430E+02</pdfrwt>
<pdfrwt beam="2">  1       -1 0.62251367E-03 0.80993430E+02</pdfrwt>
<totfact> 0.27482828E+05</totfact>
</mgrwt>
</event>
<event>
 8    1  0.2561077E-024  0.7172065E+02  0.7818608E-02  0.1354338E+00
          2   -1    0    0  501    0  0.00000000000E+00  0.00000000000E+00  0.15280531033E+03  0.15280531035E+03  0.25500000000E-02 0. -1.
         -1   -1    0    0    0  501 -0.00000000000E+00 -0.00000000000E+00 -0.84156934364E+01  0.84156949456E+01  0.50400000000E-02 0.  1.
         24    2    1    2    0    0  0.00000000000E+00  0.00000000000E+00  0.14438961689E+03  0.16122100530E+03  0.71720646137E+02 0.  0.
         66    2    3    3    0    0  0.12269330697E+02 -0.96297402907E+01  0.14476749304E+03  0.14561900773E+03  0.19999992779E+01 0.  0.
        -13    1    3    3    0    0 -0.12269330697E+02  0.96297402907E+01 -0.37787614210E+00  0.15601997572E+02  0.10566000000E+00 0.  1.
         13    1    4    4    0    0  0.49489901418E+01 -0.36817624352E+01  0.53384242194E+02  0.53739523227E+02  0.10566000000E+00 0.  1.
        -13    1    4    4    0    0  0.14395939758E+01 -0.14362667031E+01  0.25313702549E+02  0.25395471912E+02  0.10566000000E+00 0. -1.
         14    1    4    4    0    0  0.58807465795E+01 -0.45117111524E+01  0.66069548294E+02  0.66484012587E+02  0.00000000000E+00 0. -1.
<mgrwt>
<rscale>  0 0.71720646E+02</rscale>
<asrwt>0</asrwt>
<pdfrwt beam="1">  1        2 0.23508509E-01 0.71720646E+02</pdfrwt>
<pdfrwt beam="2">  1       -1 0.12947222E-02 0.71720646E+02</pdfrwt>
<totfact> 0.26870843E+05</totfact>
</mgrwt>
</event>
<event>
 8    1  0.2561077E-024  0.7488540E+02  0.7818608E-02  0.1344226E+00
          2   -1    0    0  501    0  0.00000000000E+00  0.00000000000E+00  0.37419439494E+02  0.37419439581E+02  0.25500000000E-02 0. -1.
         -1   -1    0    0    0  501 -0.00000000000E+00 -0.00000000000E+00 -0.37465972305E+02  0.37465972644E+02  0.50400000000E-02 0.  1.
         24    2    1    2    0    0  0.00000000000E+00  0.17763568394E-14 -0.46532810801E-01  0.74885412224E+02  0.74885397767E+02 0.  0.
         66    2    3    3    0    0  0.23107780363E+02  0.13804977695E+02  0.25965256097E+02  0.37453190160E+02  0.20000016391E+01 0.  0.
        -13    1    3    3    0    0 -0.23107780363E+02 -0.13804977695E+02 -0.26011788907E+02  0.37432222064E+02  0.10566000000E+00 0.  1.
         13    1    4    4    0    0  0.10397766655E+01  0.60137680322E+00  0.10593844503E+01  0.16050697875E+01  0.10566000000E+00 0. -1.
        -13    1    4    4    0    0  0.62411784063E+01  0.29764828394E+01  0.60062552784E+01  0.91595864807E+01  0.10566000000E+00 0. -1.
         14    1    4    4    0    0  0.15826825291E+02  0.10227118053E+02  0.18899616368E+02  0.26688533892E+02  0.00000000000E+00 0. -1.
<mgrwt>
<rscale>  0 0.74885398E+02</rscale>
<asrwt>0</asrwt>
<pdfrwt beam="1">  1        2 0.57568369E-02 0.74885398E+02</pdfrwt>
<pdfrwt beam="2">  1       -1 0.57639958E-02 0.74885398E+02</pdfrwt>
<totfact> 0.16872902E+05</totfact>
</mgrwt>
</event>
<event>
 8    1  0.2561077E-024  0.7912444E+02  0.7818608E-02  0.1331555E+00
         -1   -1    0    0    0  501 -0.00000000000E+00  0.00000000000E+00  0.51014396117E+02  0.51014396366E+02  0.50400000000E-02 0.  1.
          2   -1    0    0  501    0  0.00000000000E+00 -0.00000000000E+00 -0.30680933307E+02  0.30680933413E+02  0.25500000000E-02 0. -1.
         24    2    1    2    0    0  0.17763568394E-14  0.35527136788E-14  0.20333462810E+02  0.81695329780E+02  0.79124441217E+02 0.  0.
         66    2    3    3    0    0 -0.96373372692E+01 -0.21499143964E+02 -0.22608571890E+02  0.32714507318E+02  0.20000013237E+01 0.  0.
        -13    1    3    3    0    0  0.96373372692E+01  0.21499143964E+02  0.42942034700E+02  0.48980822462E+02  0.10566000000E+00 0.  1.
         13    1    4    4    0    0 -0.29151522972E+01 -0.73255963869E+01 -0.66727248884E+01  0.10329515807E+02  0.10566000000E+00 0. -1.
        -13    1    4    4    0    0 -0.10481424104E+01 -0.27070855979E+01 -0.34252782767E+01  0.44911702546E+01  0.10566000000E+00 0.  1.
         14    1    4    4    0    0 -0.56740425615E+01 -0.11466461979E+02 -0.12510568725E+02  0.17893821256E+02  0.00000000000E+00 0. -1.
<mgrwt>
<rscale>  0 0.79124441E+02</rscale>
<asrwt>0</asrwt>
<pdfrwt beam="1">  1        2 0.47201436E-02 0.79124441E+02</pdfrwt>
<pdfrwt beam="2">  1       -1 0.78483687E-02 0.79124441E+02</pdfrwt>
<totfact> 0.13937480E+05</totfact>
</mgrwt>
</event>
<event>
 8    1  0.2561077E-024  0.7765087E+02  0.7818608E-02  0.1335853E+00
         -1   -1    0    0    0  501 -0.00000000000E+00  0.00000000000E+00  0.38462521153E+01  0.38462554174E+01  0.50400000000E-02 0.  1.
          2   -1    0    0  501    0  0.00000000000E+00 -0.00000000000E+00 -0.39191757313E+03  0.39191757314E+03  0.25500000000E-02 0. -1.
         24    2    1    2    0    0  0.17763568394E-14  0.00000000000E+00 -0.38807132101E+03  0.39576382856E+03  0.77650871206E+02 0.  0.
         66    2    3    3    0    0 -0.58904568942E+01  0.38349059482E+02 -0.19289819647E+03  0.19677159867E+03  0.19999992484E+01 0.  0.
        -13    1    3    3    0    0  0.58904568942E+01 -0.38349059482E+02 -0.19517312454E+03  0.19899222988E+03  0.10566000000E+00 0.  1.
         13    1    4    4    0    0 -0.40045548877E+01  0.22860407390E+02 -0.11444697738E+03  0.11677652367E+03  0.10566000000E+00 0. -1.
        -13    1    4    4    0    0 -0.15034050688E+01  0.12554810256E+02 -0.61312817727E+02  0.62603165008E+02  0.10566000000E+00 0.  1.
        -14    1    4    4    0    0 -0.38249693763E+00  0.29338418353E+01 -0.17138401366E+02  0.17391909993E+02  0.00000000000E+00 0.  1.
<mgrwt>
<rscale>  0 0.77650871E+02</rscale>
<asrwt>0</asrwt>
<pdfrwt beam="1">  1        2 0.60294980E-01 0.77650871E+02</pdfrwt>
<pdfrwt beam="2">  1       -1 0.59173166E-03 0.77650871E+02</pdfrwt>
<totfact> 0.30320506E+05</totfact>
</mgrwt>
</event>
<event>
 8    1  0.2561077E-024  0.7950804E+02  0.7818608E-02  0.1330453E+00
         -1   -1    0    0    0  501 -0.00000000000E+00  0.00000000000E+00  0.12653390662E+01  0.12653491037E+01  0.50400000000E-02 0.  1.
          2   -1    0    0  501    0  0.00000000000E+00 -0.00000000000E+00 -0.12489743338E+04  0.12489743338E+04  0.25500000000E-02 0. -1.
         24    2    1    2    0    0  0.00000000000E+00 -0.22204460493E-15 -0.12477089948E+04  0.12502396829E+04  0.79508044713E+02 0.  0.
         66    2    3    3    0    0 -0.22620673894E+02 -0.12976163265E+01 -0.11374127971E+04  0.11376402110E+04  0.20000000293E+01 0.  0.
        -13    1    3    3    0    0  0.22620673894E+02  0.12976163265E+01 -0.11029619770E+03  0.11259947196E+03  0.10566000000E+00 0.  1.
         13    1    4    4    0    0 -0.90581602687E+00 -0.62990535733E-01 -0.67509664196E+02  0.67515852911E+02  0.10566000000E+00 0. -1.
        -13    1    4    4    0    0 -0.74326178775E+01 -0.64407677638E+00 -0.37502742293E+03  0.37510163657E+03  0.10566000000E+00 0.  1.
         14    1    4    4    0    0 -0.14282239990E+02 -0.59054901438E+00 -0.69487570994E+03  0.69502272149E+03  0.00000000000E+00 0. -1.
<mgrwt>
<rscale>  0 0.79508045E+02</rscale>
<asrwt>0</asrwt>
<pdfrwt beam="1">  1        2 0.19214891E+00 0.79508045E+02</pdfrwt>
<pdfrwt beam="2">  1       -1 0.19466932E-03 0.79508045E+02</pdfrwt>
<totfact> 0.35418670E+05</totfact>
</mgrwt>
</event>
<event>
 8    1  0.2561077E-024  0.7988915E+02  0.7818608E-02  0.1329366E+00
          2   -1    0    0  501    0  0.00000000000E+00  0.00000000000E+00  0.67316608180E+02  0.67316608228E+02  0.25500000000E-02 0. -1.
         -1   -1    0    0    0  501 -0.00000000000E+00 -0.00000000000E+00 -0.23702458306E+02  0.23702458842E+02  0.50400000000E-02 0.  1.
         24    2    1    2    0    0  0.17763568394E-14 -0.35527136788E-14  0.43614149873E+02  0.91019067070E+02  0.79889151336E+02 0.  0.
         66    2    3    3    0    0 -0.12652041151E+02  0.18384289100E+02  0.59530339694E+02  0.63607527650E+02  0.19999996701E+01 0.  0.
        -13    1    3    3    0    0  0.12652041151E+02 -0.18384289100E+02 -0.15916189820E+02  0.27411539421E+02  0.10566000000E+00 0.  1.
         13    1    4    4    0    0 -0.17694815625E+01  0.26798837365E+01  0.93630700984E+01  0.98990447794E+01  0.10566000000E+00 0. -1.
        -13    1    4    4    0    0 -0.15679088959E+01  0.28587430373E+01  0.71839742433E+01  0.78899556414E+01  0.10566000000E+00 0.  1.
         14    1    4    4    0    0 -0.93146506922E+01  0.12845662326E+02  0.42983295352E+02  0.45818527229E+02  0.00000000000E+00 0. -1.
<mgrwt>
<rscale>  0 0.79889151E+02</rscale>
<asrwt>0</asrwt>
<pdfrwt beam="1">  1        2 0.10356401E-01 0.79889151E+02</pdfrwt>
<pdfrwt beam="2">  1       -1 0.36465321E-02 0.79889151E+02</pdfrwt>
<totfact> 0.16054424E+05</totfact>
</mgrwt>
</event>
<event>
 8    1  0.2561077E-024  0.7465526E+02  0.7818608E-02  0.1344942E+00
          2   -1    0    0  501    0  0.00000000000E+00  0.00000000000E+00  0.14258129223E+02  0.14258129451E+02  0.25500000000E-02 0. -1.
         -1   -1    0    0    0  501 -0.00000000000E+00 -0.00000000000E+00 -0.97723329957E+02  0.97723330087E+02  0.50400000000E-02 0.  1.
         24    2    1    2    0    0  0.35527136788E-14  0.35527136788E-14 -0.83465200733E+02  0.11198145954E+03  0.74655257998E+02 0.  0.
         66    2    3    3    0    0  0.30871024952E+02 -0.18764665608E+02 -0.27834908535E+02  0.45649917786E+02  0.20000009414E+01 0.  0.
        -13    1    3    3    0    0 -0.30871024952E+02  0.18764665608E+02 -0.55630292199E+02  0.66331541751E+02  0.10566000000E+00 0.  1.
         13    1    4    4    0    0  0.14331875839E+01 -0.13016757172E+01 -0.17129609718E+01  0.25872351362E+01  0.10566000000E+00 0. -1.
        -13    1    4    4    0    0  0.71982272981E+01 -0.44542091360E+01 -0.61567596924E+01  0.10467631499E+02  0.10566000000E+00 0.  1.
         14    1    4    4    0    0  0.22239610070E+02 -0.13008780755E+02 -0.19965187871E+02  0.32595051151E+02  0.00000000000E+00 0. -1.
<mgrwt>
<rscale>  0 0.74655258E+02</rscale>
<asrwt>0</asrwt>
<pdfrwt beam="1">  1        2 0.21935584E-02 0.74655258E+02</pdfrwt>
<pdfrwt beam="2">  1       -1 0.15034358E-01 0.74655258E+02</pdfrwt>
<totfact> 0.14148971E+05</totfact>
</mgrwt>
</event>
<event>
 8    1  0.2561077E-024  0.8203533E+02  0.7818608E-02  0.1323373E+00
          2   -1    0    0  501    0  0.00000000000E+00  0.00000000000E+00  0.20456175706E+03  0.20456175707E+03  0.25500000000E-02 0. -1.
         -1   -1    0    0    0  501 -0.00000000000E+00 -0.00000000000E+00 -0.82246493382E+01  0.82246508824E+01  0.50400000000E-02 0.  1.
         24    2    1    2    0    0  0.00000000000E+00  0.00000000000E+00  0.19633710772E+03  0.21278640796E+03  0.82035331066E+02 0.  0.
         66    2    3    3    0    0 -0.18133407481E+01 -0.16026703681E+02  0.19598040748E+03  0.19665315550E+03  0.20000042037E+01 0.  0.
        -13    1    3    3    0    0  0.18133407481E+01  0.16026703681E+02  0.35670023532E+00  0.16133252451E+02  0.10566000000E+00 0.  1.
         13    1    4    4    0    0  0.55962555219E-01 -0.42590421631E+01  0.48852494338E+02  0.49037943870E+02  0.10566000000E+00 0. -1.
        -13    1    4    4    0    0 -0.12494499259E+01 -0.88570598161E+01  0.10344729035E+03  0.10383333607E+03  0.10566000000E+00 0.  1.
        -14    1    4    4    0    0 -0.61985337741E+00 -0.29106017021E+01  0.43680622793E+02  0.43781875566E+02  0.00000000000E+00 0.  1.
<mgrwt>
<rscale>  0 0.82035331E+02</rscale>
<asrwt>0</asrwt>
<pdfrwt beam="1">  1        2 0.31471038E-01 0.82035331E+02</pdfrwt>
<pdfrwt beam="2">  1       -1 0.12653308E-02 0.82035331E+02</pdfrwt>
<totfact> 0.20805069E+05</totfact>
</mgrwt>
</event>
<event>
 8    1  0.2561077E-024  0.8360505E+02  0.7818608E-02  0.1319121E+00
          2   -1    0    0  501    0  0.00000000000E+00  0.00000000000E+00  0.16105490827E+04  0.16105490827E+04  0.25500000000E-02 0. -1.
         -1   -1    0    0    0  501 -0.00000000000E+00 -0.00000000000E+00 -0.10849974001E+01  0.10850091059E+01  0.50400000000E-02 0.  1.
         24    2    1    2    0    0 -0.35527136788E-14  0.00000000000E+00  0.16094640853E+04  0.16116340918E+04  0.83605047739E+02 0.  0.
         66    2    3    3    0    0 -0.16853520437E+02 -0.98718789621E+01  0.15171147377E+04  0.15172417811E+04  0.19999933193E+01 0.  0.
        -13    1    3    3    0    0  0.16853520437E+02  0.98718789621E+01  0.92349347610E+02  0.94392310669E+02  0.10566000000E+00 0.  1.
         13    1    4    4    0    0 -0.10590518401E+02 -0.64516332012E+01  0.94888174626E+03  0.94896278231E+03  0.10566000000E+00 0. -1.
        -13    1    4    4    0    0 -0.41094880958E+01 -0.21398573472E+01  0.40970601328E+03  0.40973222398E+03  0.10566000000E+00 0.  1.
        -14    1    4    4    0    0 -0.21535139405E+01 -0.12803884137E+01  0.15852697813E+03  0.15854677483E+03  0.00000000000E+00 0.  1.
<mgrwt>
<rscale>  0 0.83605048E+02</rscale>
<asrwt>0</asrwt>
<pdfrwt beam="1">  1        2 0.24777613E+00 0.83605048E+02</pdfrwt>
<pdfrwt beam="2">  1       -1 0.16692402E-03 0.83605048E+02</pdfrwt>
<totfact> 0.28748989E+05</totfact>
</mgrwt>
</event>
<event>
 8    1  0.2561077E-024  0.8056445E+02  0.7818608E-02  0.1327457E+00
          2   -1    0    0  501    0  0.00000000000E+00  0.00000000000E+00  0.25918929568E+03  0.25918929569E+03  0.25500000000E-02 0. -1.
         -1   -1    0    0    0  501 -0.00000000000E+00 -0.00000000000E+00 -0.62605110321E+01  0.62605130608E+01  0.50400000000E-02 0.  1.
         24    2    1    2    0    0  0.00000000000E+00  0.17763568394E-14  0.25292878465E+03  0.26544980875E+03  0.80564451613E+02 0.  0.
         66    2    3    3    0    0 -0.37239230562E+02 -0.12648229037E+02  0.98214854910E+02  0.10581538512E+03  0.20000029717E+01 0.  0.
        -13    1    3    3    0    0  0.37239230562E+02  0.12648229037E+02  0.15471392974E+03  0.15963442363E+03  0.10566000000E+00 0.  1.
         13    1    4    4    0    0 -0.15500262514E+02 -0.55602662966E+01  0.42007424253E+02  0.45119946317E+02  0.10566000000E+00 0. -1.
        -13    1    4    4    0    0 -0.20095859533E+02 -0.67793742445E+01  0.51311384263E+02  0.55521822778E+02  0.10566000000E+00 0.  1.
        -14    1    4    4    0    0 -0.16431085148E+01 -0.30858849568E+00  0.48960463945E+01  0.51736160225E+01  0.00000000000E+00 0.  1.
<mgrwt>
<rscale>  0 0.80564452E+02</rscale>
<asrwt>0</asrwt>
<pdfrwt beam="1">  1        2 0.39875279E-01 0.80564452E+02</pdfrwt>
<pdfrwt beam="2">  1       -1 0.96315565E-03 0.80564452E+02</pdfrwt>
<totfact> 0.23737231E+05</totfact>
</mgrwt>
</event>
<event>
 8    1  0.2561077E-024  0.8809031E+02  0.7818608E-02  0.1307543E+00
          2   -1    0    0  501    0  0.00000000000E+00  0.00000000000E+00  0.12141389251E+04  0.12141389251E+04  0.25500000000E-02 0. -1.
         -1   -1    0    0    0  501 -0.00000000000E+00 -0.00000000000E+00 -0.15978161354E+01  0.15978240842E+01  0.50400000000E-02 0.  1.
         24    2    1    2    0    0  0.00000000000E+00 -0.17763568394E-14  0.12125411089E+04  0.12157367491E+04  0.88090308173E+02 0.  0.
         66    2    3    3    0    0 -0.33520568549E+01 -0.13661130819E+02  0.11822865135E+04  0.11823718800E+04  0.19999994392E+01 0.  0.
        -13    1    3    3    0    0  0.33520568549E+01  0.13661130819E+02  0.30254595471E+02  0.33364869123E+02  0.10566000000E+00 0.  1.
         13    1    4    4    0    0 -0.15002501070E+01 -0.62469501102E+01  0.47834181669E+03  0.47838497039E+03  0.10566000000E+00 0. -1.
        -13    1    4    4    0    0 -0.24418283355E+00 -0.95023490917E+00  0.64918642341E+02  0.64926141570E+02  0.10566000000E+00 0.  1.
         14    1    4    4    0    0 -0.16076239143E+01 -0.64639457995E+01  0.63902605442E+03  0.63906076806E+03  0.00000000000E+00 0. -1.
<mgrwt>
<rscale>  0 0.88090308E+02</rscale>
<asrwt>0</asrwt>
<pdfrwt beam="1">  1        2 0.18679099E+00 0.88090308E+02</pdfrwt>
<pdfrwt beam="2">  1       -1 0.24581797E-03 0.88090308E+02</pdfrwt>
<totfact> 0.27213048E+05</totfact>
</mgrwt>
</event>
<event>
 8    1  0.2561077E-024  0.8076032E+02  0.7818608E-02  0.1326907E+00
         -1   -1    0    0    0  501 -0.00000000000E+00  0.00000000000E+00  0.25938533690E+02  0.25938534180E+02  0.50400000000E-02 0.  1.
          2   -1    0    0  501    0  0.00000000000E+00 -0.00000000000E+00 -0.62862361263E+02  0.62862361315E+02  0.25500000000E-02 0. -1.
         24    2    1    2    0    0  0.00000000000E+00  0.88817841970E-15 -0.36923827573E+02  0.88800895494E+02  0.80760324404E+02 0.  0.
         66    2    3    3    0    0  0.39140971941E+02 -0.75318023504E+01 -0.11535612014E+02  0.41542918554E+02  0.20000015796E+01 0.  0.
        -13    1    3    3    0    0 -0.39140971941E+02  0.75318023504E+01 -0.25388215559E+02  0.47257976940E+02  0.10566000000E+00 0.  1.
         13    1    4    4    0    0  0.25706887774E+02 -0.58467902038E+01 -0.76038190565E+01  0.27438262755E+02  0.10566000000E+00 0. -1.
        -13    1    4    4    0    0  0.11787647148E+02 -0.16010296550E+01 -0.34979186966E+01  0.12399940342E+02  0.10566000000E+00 0.  1.
        -14    1    4    4    0    0  0.16464370188E+01 -0.83982491627E-01 -0.43387426068E+00  0.17047154571E+01  0.00000000000E+00 0.  1.
<mgrwt>
<rscale>  0 0.80760324E+02</rscale>
<asrwt>0</asrwt>
<pdfrwt beam="1">  1        2 0.96711325E-02 0.80760324E+02</pdfrwt>
<pdfrwt beam="2">  1       -1 0.39905437E-02 0.80760324E+02</pdfrwt>
<totfact> 0.15336603E+05</totfact>
</mgrwt>
</event>
<event>
 8    1  0.2561077E-024  0.8213766E+02  0.7818608E-02  0.1323092E+00
         -1   -1    0    0    0  501 -0.00000000000E+00  0.00000000000E+00  0.48908500783E+01  0.48908526751E+01  0.50400000000E-02 0.  1.
          2   -1    0    0  501    0  0.00000000000E+00 -0.00000000000E+00 -0.34485793491E+03  0.34485793491E+03  0.25500000000E-02 0. -1.
         24    2    1    2    0    0  0.35527136788E-14  0.35527136788E-14 -0.33996708483E+03  0.34974878759E+03  0.82137662828E+02 0.  0.
         66    2    3    3    0    0 -0.27267173889E+02 -0.20117969951E+02 -0.26870365616E+03  0.27083922596E+03  0.19999998099E+01 0.  0.
        -13    1    3    3    0    0  0.27267173889E+02  0.20117969951E+02 -0.71263428669E+02  0.78909561630E+02  0.10566000000E+00 0.  1.
         13    1    4    4    0    0 -0.43019464218E+01 -0.23931258133E+01 -0.38328144575E+02  0.38643131664E+02  0.10566000000E+00 0. -1.
        -13    1    4    4    0    0 -0.10699197322E+02 -0.84913816868E+01 -0.10588916354E+03  0.10676657954E+03  0.10566000000E+00 0.  1.
         14    1    4    4    0    0 -0.12266030145E+02 -0.92334624512E+01 -0.12448634804E+03  0.12542951476E+03  0.00000000000E+00 0. -1.
<mgrwt>
<rscale>  0 0.82137663E+02</rscale>
<asrwt>0</asrwt>
<pdfrwt beam="1">  1        2 0.53055048E-01 0.82137663E+02</pdfrwt>
<pdfrwt beam="2">  1       -1 0.75243895E-03 0.82137663E+02</pdfrwt>
<totfact> 0.25017557E+05</totfact>
</mgrwt>
</event>
<event>
 8    1  0.2561077E-024  0.7935980E+02  0.7818608E-02  0.1330878E+00
         -1   -1    0    0    0  501 -0.00000000000E+00  0.00000000000E+00  0.43437438288E+02  0.43437438581E+02  0.50400000000E-02 0.  1.
          2   -1    0    0  501    0  0.00000000000E+00 -0.00000000000E+00 -0.36247405554E+02  0.36247405644E+02  0.25500000000E-02 0. -1.
         24    2    1    2    0    0  0.00000000000E+00  0.11102230246E-15  0.71900327338E+01  0.79684844225E+02  0.79359799826E+02 0.  0.
         66    2    3    3    0    0  0.18705828603E+02  0.45582866190E+00 -0.31508368429E+02  0.36700042026E+02  0.20000000384E+01 0.  0.
        -13    1    3    3    0    0 -0.18705828603E+02 -0.45582866190E+00  0.38698401163E+02  0.42984802199E+02  0.10566000000E+00 0.  1.
         13    1    4    4    0    0  0.10319976357E+02  0.42900552860E+00 -0.18154585301E+02  0.20887462490E+02  0.10566000000E+00 0. -1.
        -13    1    4    4    0    0  0.43591868942E+01 -0.84223443580E-01 -0.58608577589E+01  0.73055062571E+01  0.10566000000E+00 0.  1.
        -14    1    4    4    0    0  0.40266653520E+01  0.11104657688E+00 -0.74929253685E+01  0.85070732792E+01  0.00000000000E+00 0.  1.
<mgrwt>
<rscale>  0 0.79359800E+02</rscale>
<asrwt>0</asrwt>
<pdfrwt beam="1">  1        2 0.55765239E-02 0.79359800E+02</pdfrwt>
<pdfrwt beam="2">  1       -1 0.66826829E-02 0.79359800E+02</pdfrwt>
<totfact> 0.14287178E+05</totfact>
</mgrwt>
</event>
<event>
 8    1  0.2561077E-024  0.7796056E+02  0.7818608E-02  0.1334941E+00
         -1   -1    0    0    0  501 -0.00000000000E+00  0.00000000000E+00  0.40586649588E+02  0.40586649901E+02  0.50400000000E-02 0.  1.
          2   -1    0    0  501    0  0.00000000000E+00 -0.00000000000E+00 -0.37437488431E+02  0.37437488518E+02  0.25500000000E-02 0. -1.
         24    2    1    2    0    0  0.00000000000E+00 -0.17763568394E-14  0.31491611562E+01  0.78024138419E+02  0.77960560285E+02 0.  0.
         66    2    3    3    0    0  0.17679574517E+02  0.14895343970E+02 -0.29803084028E+02  0.37771185064E+02  0.19999941205E+01 0.  0.
        -13    1    3    3    0    0 -0.17679574517E+02 -0.14895343970E+02  0.32952245184E+02  0.40252953355E+02  0.10566000000E+00 0.  1.
         13    1    4    4    0    0  0.27293291659E+01  0.16436888636E+01 -0.43828349606E+01  0.54195347682E+01  0.10566000000E+00 0. -1.
        -13    1    4    4    0    0  0.14613725597E+02  0.13147346824E+02 -0.24928996441E+02  0.31747121632E+02  0.10566000000E+00 0.  1.
        -14    1    4    4    0    0  0.33651975362E+00  0.10430828308E+00 -0.49125262576E+00  0.60452866335E+00  0.00000000000E+00 0.  1.
<mgrwt>
<rscale>  0 0.77960560E+02</rscale>
<asrwt>0</asrwt>
<pdfrwt beam="1">  1        2 0.57596136E-02 0.77960560E+02</pdfrwt>
<pdfrwt beam="2">  1       -1 0.62441000E-02 0.77960560E+02</pdfrwt>
<totfact> 0.15105555E+05</totfact>
</mgrwt>
</event>
<event>
 8    1  0.2561077E-024  0.8068713E+02  0.7818608E-02  0.1327113E+00
          2   -1    0    0  501    0  0.00000000000E+00  0.00000000000E+00  0.16775609772E+03  0.16775609774E+03  0.25500000000E-02 0. -1.
         -1   -1    0    0    0  501 -0.00000000000E+00 -0.00000000000E+00 -0.97021992262E+01  0.97022005352E+01  0.50400000000E-02 0.  1.
         24    2    1    2    0    0  0.00000000000E+00  0.00000000000E+00  0.15805389849E+03  0.17745829827E+03  0.80687129069E+02 0.  0.
         66    2    3    3    0    0 -0.11513937300E+02  0.28704735273E+02  0.13596412084E+03  0.13945169332E+03  0.20000088238E+01 0.  0.
        -13    1    3    3    0    0  0.11513937300E+02 -0.28704735273E+02  0.22089777654E+02  0.38006604953E+02  0.10566000000E+00 0.  1.
         13    1    4    4    0    0 -0.71681364554E+01  0.15881865035E+02  0.75046778890E+02  0.77043143777E+02  0.10566000000E+00 0. -1.
        -13    1    4    4    0    0 -0.86417099728E+00  0.17820660310E+01  0.86412708252E+01  0.88659616715E+01  0.10566000000E+00 0.  1.
         14    1    4    4    0    0 -0.34816298469E+01  0.11040804207E+02  0.52276071122E+02  0.53542587871E+02  0.00000000000E+00 0. -1.
<mgrwt>
<rscale>  0 0.80687129E+02</rscale>
<asrwt>0</asrwt>
<pdfrwt beam="1">  1        2 0.25808629E-01 0.80687129E+02</pdfrwt>
<pdfrwt beam="2">  1       -1 0.14926462E-02 0.80687129E+02</pdfrwt>
<totfact> 0.20311823E+05</totfact>
</mgrwt>
</event>
<event>
 8    1  0.2561077E-024  0.8441400E+02  0.7818608E-02  0.1316972E+00
          2   -1    0    0  501    0  0.00000000000E+00  0.00000000000E+00  0.16896103156E+03  0.16896103158E+03  0.25500000000E-02 0. -1.
         -1   -1    0    0    0  501 -0.00000000000E+00 -0.00000000000E+00 -0.10543441300E+02  0.10543442504E+02  0.50400000000E-02 0.  1.
         24    2    1    2    0    0 -0.88817841970E-15  0.00000000000E+00  0.15841759026E+03  0.17950447408E+03  0.84413999503E+02 0.  0.
         66    2    3    3    0    0  0.60197830502E+01 -0.38381897244E+02  0.11419588976E+03  0.12064041219E+03  0.19999975075E+01 0.  0.
        -13    1    3    3    0    0 -0.60197830502E+01  0.38381897244E+02  0.44221700499E+02  0.58864061898E+02  0.10566000000E+00 0.  1.
         13    1    4    4    0    0  0.49598746866E+01 -0.31066793867E+02  0.92668400354E+02  0.97863116782E+02  0.10566000000E+00 0. -1.
        -13    1    4    4    0    0  0.22129714978E+00 -0.11493742525E+01  0.44093640348E+01  0.45632980210E+01  0.10566000000E+00 0.  1.
        -14    1    4    4    0    0  0.83861121380E+00 -0.61657291246E+01  0.17118125373E+02  0.18213997383E+02  0.00000000000E+00 0.  1.
<mgrwt>
<rscale>  0 0.84414000E+02</rscale>
<asrwt>0</asrwt>
<pdfrwt beam="1">  1        2 0.25994004E-01 0.84414000E+02</pdfrwt>
<pdfrwt beam="2">  1       -1 0.16220680E-02 0.84414000E+02</pdfrwt>
<totfact> 0.18059271E+05</totfact>
</mgrwt>
</event>
<event>
 8    1  0.2561077E-024  0.7750633E+02  0.7818608E-02  0.1336281E+00
          2   -1    0    0  501    0  0.00000000000E+00  0.00000000000E+00  0.17676465094E+03  0.17676465096E+03  0.25500000000E-02 0. -1.
         -1   -1    0    0    0  501 -0.00000000000E+00 -0.00000000000E+00 -0.84960860838E+01  0.84960875787E+01  0.50400000000E-02 0.  1.
         24    2    1    2    0    0  0.17763568394E-14 -0.17763568394E-14  0.16826856486E+03  0.18526073854E+03  0.77506330868E+02 0.  0.
         66    2    3    3    0    0 -0.13074962418E+02  0.10430239617E+02  0.16768054344E+03  0.16852450617E+03  0.19999976405E+01 0.  0.
        -13    1    3    3    0    0  0.13074962418E+02 -0.10430239617E+02  0.58802141734E+00  0.16736232369E+02  0.10566000000E+00 0.  1.
         13    1    4    4    0    0 -0.99733579477E+01  0.83855333809E+01  0.12792698144E+03  0.12858891392E+03  0.10566000000E+00 0. -1.
        -13    1    4    4    0    0 -0.31367885732E+01  0.20334439111E+01  0.38433985596E+02  0.38615498825E+02  0.10566000000E+00 0.  1.
        -14    1    4    4    0    0  0.35184103040E-01  0.11262324464E-01  0.13195764062E+01  0.13200934258E+01  0.00000000000E+00 0.  1.
<mgrwt>
<rscale>  0 0.77506331E+02</rscale>
<asrwt>0</asrwt>
<pdfrwt beam="1">  1        2 0.27194563E-01 0.77506331E+02</pdfrwt>
<pdfrwt beam="2">  1       -1 0.13070902E-02 0.77506331E+02</pdfrwt>
<totfact> 0.22987895E+05</totfact>
</mgrwt>
</event>
<event>
 8    1  0.2561077E-024  0.7138662E+02  0.7818608E-02  0.1355440E+00
         -1   -1    0    0    0  501 -0.00000000000E+00  0.00000000000E+00  0.42001830089E+01  0.42001860328E+01  0.50400000000E-02 0.  1.
          2   -1    0    0  501    0  0.00000000000E+00 -0.00000000000E+00 -0.30332292102E+03  0.30332292103E+03  0.25500000000E-02 0. -1.
         24    2    1    2    0    0  0.00000000000E+00  0.00000000000E+00 -0.29912273801E+03  0.30752310707E+03  0.71386616273E+02 0.  0.
         66    2    3    3    0    0  0.66181622505E+01  0.86593208803E+01 -0.29596946796E+03  0.29617682196E+03  0.19999983021E+01 0.  0.
        -13    1    3    3    0    0 -0.66181622505E+01 -0.86593208803E+01 -0.31532700586E+01  0.11346285109E+02  0.10566000000E+00 0.  1.
         13    1    4    4    0    0  0.19740168244E+01  0.22489975842E+01 -0.94753836626E+02  0.94801136343E+02  0.10566000000E+00 0. -1.
        -13    1    4    4    0    0  0.48785278849E+00  0.15124678196E+01 -0.44318211591E+02  0.44346821779E+02  0.10566000000E+00 0.  1.
         14    1    4    4    0    0  0.41562926376E+01  0.48978554766E+01 -0.15689741974E+03  0.15702886384E+03  0.00000000000E+00 0. -1.
<mgrwt>
<rscale>  0 0.71386616E+02</rscale>
<asrwt>0</asrwt>
<pdfrwt beam="1">  1        2 0.46665048E-01 0.71386616E+02</pdfrwt>
<pdfrwt beam="2">  1       -1 0.64618247E-03 0.71386616E+02</pdfrwt>
<totfact> 0.34438864E+05</totfact>
</mgrwt>
</event>
<event>
 8    1  0.2561077E-024  0.8353675E+02  0.7818608E-02  0.1319304E+00
         -1   -1    0    0    0  501 -0.00000000000E+00  0.00000000000E+00  0.16567382757E+03  0.16567382764E+03  0.50400000000E-02 0.  1.
          2   -1    0    0  501    0  0.00000000000E+00 -0.00000000000E+00 -0.10530312137E+02  0.10530312445E+02  0.25500000000E-02 0. -1.
         24    2    1    2    0    0  0.00000000000E+00  0.00000000000E+00  0.15514351543E+03  0.17620414009E+03  0.83536750023E+02 0.  0.
         66    2    3    3    0    0  0.27902098000E+02 -0.22444981310E+02  0.32362479926E+02  0.48307705024E+02  0.19999997334E+01 0.  0.
        -13    1    3    3    0    0 -0.27902098000E+02  0.22444981310E+02  0.12278103550E+03  0.12789643507E+03  0.10566000000E+00 0.  1.
         13    1    4    4    0    0  0.10773591920E+02 -0.94766237532E+01  0.12478710476E+02  0.19015942253E+02  0.10566000000E+00 0. -1.
        -13    1    4    4    0    0  0.24988761344E+01 -0.23024930585E+01  0.29229889491E+01  0.44834010140E+01  0.10566000000E+00 0.  1.
         14    1    4    4    0    0  0.14629629946E+02 -0.10665864499E+02  0.16960780501E+02  0.24808361757E+02  0.00000000000E+00 0. -1.
<mgrwt>
<rscale>  0 0.83536750E+02</rscale>
<asrwt>0</asrwt>
<pdfrwt beam="1">  1        2 0.16200481E-02 0.83536750E+02</pdfrwt>
<pdfrwt beam="2">  1       -1 0.25488281E-01 0.83536750E+02</pdfrwt>
<totfact> 0.94182234E+04</totfact>
</mgrwt>
</event>
<event>
 8    1  0.2561077E-024  0.8021218E+02  0.7818608E-02  0.1328450E+00
         -1   -1    0    0    0  501 -0.00000000000E+00  0.00000000000E+00  0.16780497671E+01  0.16780573359E+01  0.50400000000E-02 0.  1.
          2   -1    0    0  501    0  0.00000000000E+00 -0.00000000000E+00 -0.95855009545E+03  0.95855009545E+03  0.25500000000E-02 0. -1.
         24    2    1    2    0    0 -0.35527136788E-14  0.17763568394E-14 -0.95687204568E+03  0.96022815279E+03  0.80212178625E+02 0.  0.
         66    2    3    3    0    0  0.26927811645E+02 -0.15816383946E+02 -0.77949769937E+03  0.78012558497E+03  0.19999901000E+01 0.  0.
        -13    1    3    3    0    0 -0.26927811645E+02  0.15816383946E+02 -0.17737434631E+03  0.18010256781E+03  0.10566000000E+00 0.  1.
         13    1    4    4    0    0  0.68233884007E+01 -0.34085947363E+01 -0.19257578179E+03  0.19272680157E+03  0.10566000000E+00 0. -1.
        -13    1    4    4    0    0  0.28727665590E+01 -0.21794357408E+01 -0.98095895904E+02  0.98162205991E+02  0.10566000000E+00 0.  1.
        -14    1    4    4    0    0  0.17231656686E+02 -0.10228353468E+02 -0.48882602168E+03  0.48923657741E+03  0.00000000000E+00 0.  1.
<mgrwt>
<rscale>  0 0.80212179E+02</rscale>
<asrwt>0</asrwt>
<pdfrwt beam="1">  1        2 0.14746881E+00 0.80212179E+02</pdfrwt>
<pdfrwt beam="2">  1       -1 0.25816285E-03 0.80212179E+02</pdfrwt>
<totfact> 0.34906117E+05</totfact>
</mgrwt>
</event>
<event>
 8    1  0.2561077E-024  0.8246525E+02  0.7818608E-02  0.1322197E+00
         -1   -1    0    0    0  501 -0.00000000000E+00  0.00000000000E+00  0.19524962993E+02  0.19524963644E+02  0.50400000000E-02 0.  1.
          2   -1    0    0  501    0  0.00000000000E+00 -0.00000000000E+00 -0.87074652703E+02  0.87074652740E+02  0.25500000000E-02 0. -1.
         24    2    1    2    0    0  0.44408920985E-15 -0.35527136788E-14 -0.67549689710E+02  0.10659961638E+03  0.82465251065E+02 0.  0.
         66    2    3    3    0    0 -0.18263470848E+01  0.30742781358E+02 -0.69187852852E+02  0.75758914513E+02  0.19999991429E+01 0.  0.
        -13    1    3    3    0    0  0.18263470848E+01 -0.30742781358E+02  0.16381631428E+01  0.30840701870E+02  0.10566000000E+00 0.  1.
         13    1    4    4    0    0 -0.18450676771E+01  0.20633530813E+02 -0.45130762247E+02  0.49658269539E+02  0.10566000000E+00 0. -1.
        -13    1    4    4    0    0  0.16122016760E+00  0.77265809172E+01 -0.17920883150E+02  0.19516538154E+02  0.10566000000E+00 0.  1.
         14    1    4    4    0    0 -0.14249957525E+00  0.23826696278E+01 -0.61362074548E+01  0.65841068197E+01  0.00000000000E+00 0. -1.
<mgrwt>
<rscale>  0 0.82465251E+02</rscale>
<asrwt>0</asrwt>
<pdfrwt beam="1">  1        2 0.13396100E-01 0.82465251E+02</pdfrwt>
<pdfrwt beam="2">  1       -1 0.30038406E-02 0.82465251E+02</pdfrwt>
<totfact> 0.15729136E+05</totfact>
</mgrwt>
</event>
<event>
 8    1  0.2561077E-024  0.8820790E+02  0.7818608E-02  0.1307250E+00
         -1   -1    0    0    0  501 -0.00000000000E+00  0.00000000000E+00  0.46000389200E+01  0.46000416810E+01  0.50400000000E-02 0.  1.
          2   -1    0    0  501    0  0.00000000000E+00 -0.00000000000E+00 -0.42285677363E+03  0.42285677364E+03  0.25500000000E-02 0. -1.
         24    2    1    2    0    0  0.00000000000E+00  0.00000000000E+00 -0.41825673471E+03  0.42745681532E+03  0.88207895521E+02 0.  0.
         66    2    3    3    0    0 -0.43769137634E+02 -0.49042151219E+01 -0.20034686669E+03  0.20514057552E+03  0.19999989210E+01 0.  0.
        -13    1    3    3    0    0  0.43769137634E+02  0.49042151219E+01 -0.21790986802E+03  0.22231623980E+03  0.10566000000E+00 0.  1.
         13    1    4    4    0    0 -0.19467252287E+02 -0.20342568962E+01 -0.90395752698E+02  0.92490623215E+02  0.10566000000E+00 0. -1.
        -13    1    4    4    0    0 -0.19971707551E+02 -0.27769233848E+01 -0.91979883217E+02  0.94164167742E+02  0.10566000000E+00 0.  1.
        -14    1    4    4    0    0 -0.43301777951E+01 -0.93034840929E-01 -0.17971230778E+02  0.18485784562E+02  0.00000000000E+00 0.  1.
<mgrwt>
<rscale>  0 0.88207896E+02</rscale>
<asrwt>0</asrwt>
<pdfrwt beam="1">  1        2 0.65054858E-01 0.88207896E+02</pdfrwt>
<pdfrwt beam="2">  1       -1 0.70769884E-03 0.88207896E+02</pdfrwt>
<totfact> 0.22293309E+05</totfact>
</mgrwt>
</event>
<event>
 8    1  0.2561077E-024  0.8313390E+02  0.7818608E-02  0.1320386E+00
         -1   -1    0    0    0  501 -0.00000000000E+00  0.00000000000E+00  0.18334780727E+01  0.18334849998E+01  0.50400000000E-02 0.  1.
          2   -1    0    0  501    0  0.00000000000E+00 -0.00000000000E+00 -0.94236640437E+03  0.94236640438E+03  0.25500000000E-02 0. -1.
         24    2    1    2    0    0  0.00000000000E+00  0.00000000000E+00 -0.94053292630E+03  0.94419988938E+03  0.83133901888E+02 0.  0.
         66    2    3    3    0    0 -0.25271823603E+02 -0.34933222960E+01 -0.84291028834E+03  0.84329865561E+03  0.19999994843E+01 0.  0.
        -13    1    3    3    0    0  0.25271823603E+02  0.34933222960E+01 -0.97622637962E+02  0.10090123377E+03  0.10566000000E+00 0.  1.
         13    1    4    4    0    0 -0.53555897836E+01 -0.11022184273E+01 -0.16332175245E+03  0.16341328959E+03  0.10566000000E+00 0. -1.
        -13    1    4    4    0    0 -0.35802542841E+01 -0.78391039862E+00 -0.11745036162E+03  0.11750757995E+03  0.10566000000E+00 0.  1.
        -14    1    4    4    0    0 -0.16335979536E+02 -0.16071934701E+01 -0.56213817427E+03  0.56237778607E+03  0.00000000000E+00 0.  1.
<mgrwt>
<rscale>  0 0.83133902E+02</rscale>
<asrwt>0</asrwt>
<pdfrwt beam="1">  1        2 0.14497906E+00 0.83133902E+02</pdfrwt>
<pdfrwt beam="2">  1       -1 0.28207484E-03 0.83133902E+02</pdfrwt>
<totfact> 0.31762221E+05</totfact>
</mgrwt>
</event>
<event>
 8    1  0.2561077E-024  0.8841093E+02  0.7818608E-02  0.1306746E+00
         -1   -1    0    0    0  501 -0.00000000000E+00  0.00000000000E+00  0.81831004695E+02  0.81831004851E+02  0.50400000000E-02 0.  1.
          2   -1    0    0  501    0  0.00000000000E+00 -0.00000000000E+00 -0.23879982620E+02  0.23879982756E+02  0.25500000000E-02 0. -1.
         24    2    1    2    0    0 -0.35527136788E-14  0.00000000000E+00  0.57951022076E+02  0.10571098761E+03  0.88410926594E+02 0.  0.
         66    2    3    3    0    0 -0.29564293344E+02 -0.14509123242E+02 -0.62275573793E+01  0.33575952270E+02  0.20000004231E+01 0.  0.
        -13    1    3    3    0    0  0.29564293344E+02  0.14509123242E+02  0.64178579455E+02  0.72135035337E+02  0.10566000000E+00 0.  1.
         13    1    4    4    0    0 -0.92739080178E+01 -0.40771923137E+01 -0.19955627133E+01  0.10325807555E+02  0.10566000000E+00 0. -1.
        -13    1    4    4    0    0 -0.68303312119E+01 -0.31220120992E+01 -0.79830021770E+00  0.75530676738E+01  0.10566000000E+00 0.  1.
        -14    1    4    4    0    0 -0.13460054115E+02 -0.73099188293E+01 -0.34336944483E+01  0.15697077041E+02  0.00000000000E+00 0.  1.
<mgrwt>
<rscale>  0 0.88410927E+02</rscale>
<asrwt>0</asrwt>
<pdfrwt beam="1">  1        2 0.36738435E-02 0.88410927E+02</pdfrwt>
<pdfrwt beam="2">  1       -1 0.12589385E-01 0.88410927E+02</pdfrwt>
<totfact> 0.96578350E+04</totfact>
</mgrwt>
</event>
<event>
 8    1  0.2561077E-024  0.7617380E+02  0.7818608E-02  0.1340274E+00
         -1   -1    0    0    0  501 -0.00000000000E+00  0.00000000000E+00  0.19780944782E+01  0.19781008989E+01  0.50400000000E-02 0.  1.
          2   -1    0    0  501    0  0.00000000000E+00 -0.00000000000E+00 -0.73333685989E+03  0.73333685990E+03  0.25500000000E-02 0. -1.
         24    2    1    2    0    0  0.00000000000E+00  0.35527136788E-14 -0.73135876542E+03  0.73531496080E+03  0.76173800101E+02 0.  0.
         66    2    3    3    0    0 -0.19698965951E+02  0.25392962011E+02 -0.56275866885E+03  0.56367913847E+03  0.20000008992E+01 0.  0.
        -13    1    3    3    0    0  0.19698965951E+02 -0.25392962011E+02 -0.16860009657E+03  0.17163582233E+03  0.10566000000E+00 0.  1.
         13    1    4    4    0    0 -0.76929371920E+01  0.10340887839E+02 -0.23991072591E+03  0.24025670192E+03  0.10566000000E+00 0. -1.
        -13    1    4    4    0    0 -0.48453647798E+01  0.57677134239E+01 -0.12123862812E+03  0.12147246680E+03  0.10566000000E+00 0.  1.
        -14    1    4    4    0    0 -0.71606639788E+01  0.92843607485E+01 -0.20160931482E+03  0.20194996976E+03  0.00000000000E+00 0.  1.
<mgrwt>
<rscale>  0 0.76173800E+02</rscale>
<asrwt>0</asrwt>
<pdfrwt beam="1">  1        2 0.11282084E+00 0.76173800E+02</pdfrwt>
<pdfrwt beam="2">  1       -1 0.30432331E-03 0.76173800E+02</pdfrwt>
<totfact> 0.38374241E+05</totfact>
</mgrwt>
</event>
<event>
 8    1  0.2561077E-024  0.7966363E+02  0.7818608E-02  0.1330009E+00
          2   -1    0    0  501    0  0.00000000000E+00  0.00000000000E+00  0.90762752129E+02  0.90762752165E+02  0.25500000000E-02 0. -1.
         -1   -1    0    0    0  501 -0.00000000000E+00 -0.00000000000E+00 -0.17480447298E+02  0.17480448024E+02  0.50400000000E-02 0.  1.
         24    2    1    2    0    0  0.71054273576E-14  0.11102230246E-15  0.73282304831E+02  0.10824320019E+03  0.79663631513E+02 0.  0.
         66    2    3    3    0    0  0.34256397165E+02 -0.92109246780E+00  0.64184195678E+02  0.72787087708E+02  0.20000010094E+01 0.  0.
        -13    1    3    3    0    0 -0.34256397165E+02  0.92109246780E+00  0.90981091527E+01  0.35456112481E+02  0.10566000000E+00 0.  1.
         13    1    4    4    0    0  0.17944316201E+02 -0.67408076804E+00  0.34547634001E+02  0.38935883808E+02  0.10566000000E+00 0. -1.
        -13    1    4    4    0    0  0.10940895541E+02  0.36608636982E+00  0.19474929107E+02  0.22341021513E+02  0.10566000000E+00 0.  1.
        -14    1    4    4    0    0  0.53711854230E+01 -0.61309806958E+00  0.10161632570E+02  0.11510182387E+02  0.00000000000E+00 0.  1.
<mgrwt>
<rscale>  0 0.79663632E+02</rscale>
<asrwt>0</asrwt>
<pdfrwt beam="1">  1        2 0.13963500E-01 0.79663632E+02</pdfrwt>
<pdfrwt beam="2">  1       -1 0.26892997E-02 0.79663632E+02</pdfrwt>
<totfact> 0.17456284E+05</totfact>
</mgrwt>
</event>
<event>
 8    1  0.2561077E-024  0.7972150E+02  0.7818608E-02  0.1329844E+00
         -1   -1    0    0    0  501 -0.00000000000E+00  0.00000000000E+00  0.12028921645E+01  0.12029027230E+01  0.50400000000E-02 0.  1.
          2   -1    0    0  501    0  0.00000000000E+00 -0.00000000000E+00 -0.13208767791E+04  0.13208767791E+04  0.25500000000E-02 0. -1.
         24    2    1    2    0    0  0.00000000000E+00  0.00000000000E+00 -0.13196738869E+04  0.13220796818E+04  0.79721497954E+02 0.  0.
         66    2    3    3    0    0  0.17040725589E+02 -0.12597047599E+00 -0.12573740383E+04  0.12574911031E+04  0.19999998257E+01 0.  0.
        -13    1    3    3    0    0 -0.17040725589E+02  0.12597047599E+00 -0.62299848644E+02  0.64588578729E+02  0.10566000000E+00 0.  1.
         13    1    4    4    0    0  0.12577518097E+02 -0.13364995825E+00 -0.86985967538E+03  0.86995061804E+03  0.10566000000E+00 0. -1.
        -13    1    4    4    0    0  0.17006266444E+01 -0.43290706012E-01 -0.17093891610E+03  0.17094741357E+03  0.10566000000E+00 0.  1.
        -14    1    4    4    0    0  0.27625808475E+01  0.50970188281E-01 -0.21657544680E+03  0.21659307146E+03  0.00000000000E+00 0.  1.
<mgrwt>
<rscale>  0 0.79721498E+02</rscale>
<asrwt>0</asrwt>
<pdfrwt beam="1">  1        2 0.20321065E+00 0.79721498E+02</pdfrwt>
<pdfrwt beam="2">  1       -1 0.18506220E-03 0.79721498E+02</pdfrwt>
<totfact> 0.34819222E+05</totfact>
</mgrwt>
</event>
<event>
 8    1  0.2561077E-024  0.7868515E+02  0.7818608E-02  0.1332825E+00
          2   -1    0    0  501    0  0.00000000000E+00  0.00000000000E+00  0.11700557816E+02  0.11700558094E+02  0.25500000000E-02 0. -1.
         -1   -1    0    0    0  501 -0.00000000000E+00 -0.00000000000E+00 -0.13228754224E+03  0.13228754234E+03  0.50400000000E-02 0.  1.
         24    2    1    2    0    0 -0.35527136788E-14  0.00000000000E+00 -0.12058698442E+03  0.14398810043E+03  0.78685146330E+02 0.  0.
         66    2    3    3    0    0  0.18091745338E+02  0.19854812746E+02 -0.77937145202E+01  0.28040449578E+02  0.19999969900E+01 0.  0.
        -13    1    3    3    0    0 -0.18091745338E+02 -0.19854812746E+02 -0.11279326990E+03  0.11594765085E+03  0.10566000000E+00 0.  1.
         13    1    4    4    0    0  0.66030823827E+01  0.79979783196E+01 -0.21848036270E+01  0.10599664385E+02  0.10566000000E+00 0. -1.
        -13    1    4    4    0    0  0.45996991079E+01  0.46115769721E+01 -0.23605140565E+01  0.69287130623E+01  0.10566000000E+00 0.  1.
         14    1    4    4    0    0  0.68889638470E+01  0.72452574543E+01 -0.32483968366E+01  0.10512072130E+02  0.00000000000E+00 0. -1.
<mgrwt>
<rscale>  0 0.78685146E+02</rscale>
<asrwt>0</asrwt>
<pdfrwt beam="1">  1        2 0.18000859E-02 0.78685146E+02</pdfrwt>
<pdfrwt beam="2">  1       -1 0.20351929E-01 0.78685146E+02</pdfrwt>
<totfact> 0.11601410E+05</totfact>
</mgrwt>
</event>
<event>
 8    1  0.2561077E-024  0.8063650E+02  0.7818608E-02  0.1327255E+00
         -1   -1    0    0    0  501 -0.00000000000E+00  0.00000000000E+00  0.13225161463E+03  0.13225161472E+03  0.50400000000E-02 0.  1.
          2   -1    0    0  501    0  0.00000000000E+00 -0.00000000000E+00 -0.12291429878E+02  0.12291430142E+02  0.25500000000E-02 0. -1.
         24    2    1    2    0    0  0.00000000000E+00  0.00000000000E+00  0.11996018475E+03  0.14454304486E+03  0.80636504722E+02 0.  0.
         66    2    3    3    0    0 -0.32943934916E+02  0.13641027483E+02  0.26377708001E+02  0.44397792372E+02  0.20000023955E+01 0.  0.
        -13    1    3    3    0    0  0.32943934916E+02 -0.13641027483E+02  0.93582476748E+02  0.10014525249E+03  0.10566000000E+00 0.  1.
         13    1    4    4    0    0 -0.59003810408E+01  0.19499325185E+01  0.47678716018E+01  0.78332941283E+01  0.10566000000E+00 0.  1.
        -13    1    4    4    0    0 -0.15131069209E+02  0.64239609200E+01  0.11211032739E+02  0.19897611626E+02  0.10566000000E+00 0. -1.
        -14    1    4    4    0    0 -0.11912484666E+02  0.52671340442E+01  0.10398803660E+02  0.16666886618E+02  0.00000000000E+00 0.  1.
<mgrwt>
<rscale>  0 0.80636505E+02</rscale>
<asrwt>0</asrwt>
<pdfrwt beam="1">  1        2 0.18909892E-02 0.80636505E+02</pdfrwt>
<pdfrwt beam="2">  1       -1 0.20346403E-01 0.80636505E+02</pdfrwt>
<totfact> 0.10908216E+05</totfact>
</mgrwt>
</event>
<event>
 8    1  0.2561077E-024  0.8460767E+02  0.7818608E-02  0.1316462E+00
          2   -1    0    0  501    0  0.00000000000E+00  0.00000000000E+00  0.15514789859E+02  0.15514790068E+02  0.25500000000E-02 0. -1.
         -1   -1    0    0    0  501 -0.00000000000E+00 -0.00000000000E+00 -0.11534892914E+03  0.11534892925E+03  0.50400000000E-02 0.  1.
         24    2    1    2    0    0  0.35527136788E-14 -0.88817841970E-15 -0.99834139286E+02  0.13086371932E+03  0.84607669085E+02 0.  0.
         66    2    3    3    0    0  0.31875527397E+02 -0.72755760968E+01 -0.84818554420E+01  0.33836742755E+02  0.20000085329E+01 0.  0.
        -13    1    3    3    0    0 -0.31875527397E+02  0.72755760968E+01 -0.91352283844E+02  0.97026976568E+02  0.10566000000E+00 0.  1.
         13    1    4    4    0    0  0.24666326736E+02 -0.49757703747E+01 -0.64045908403E+01  0.25965667974E+02  0.10566000000E+00 0. -1.
        -13    1    4    4    0    0  0.65392252845E+01 -0.21454851385E+01 -0.17127470163E+01  0.70929006885E+01  0.10566000000E+00 0.  1.
         14    1    4    4    0    0  0.66997537709E+00 -0.15432058360E+00 -0.36451758538E+00  0.77817409266E+00  0.00000000000E+00 0. -1.
<mgrwt>
<rscale>  0 0.84607669E+02</rscale>
<asrwt>0</asrwt>
<pdfrwt beam="1">  1        2 0.23868908E-02 0.84607669E+02</pdfrwt>
<pdfrwt beam="2">  1       -1 0.17745989E-01 0.84607669E+02</pdfrwt>
<totfact> 0.99828065E+04</totfact>
</mgrwt>
</event>
<event>
 8    1  0.2561077E-024  0.8222102E+02  0.7818608E-02  0.1322864E+00
         -1   -1    0    0    0  501 -0.00000000000E+00  0.00000000000E+00  0.98207546766E+01  0.98207559698E+01  0.50400000000E-02 0.  1.
          2   -1    0    0  501    0  0.00000000000E+00 -0.00000000000E+00 -0.17209206218E+03  0.17209206219E+03  0.25500000000E-02 0. -1.
         24    2    1    2    0    0 -0.55511151231E-16  0.00000000000E+00 -0.16227130750E+03  0.18191281816E+03  0.82221020275E+02 0.  0.
         66    2    3    3    0    0 -0.63349337370E-01  0.34388048231E+02 -0.13092890162E+03  0.13538433824E+03  0.19999713048E+01 0.  0.
        -13    1    3    3    0    0  0.63349337370E-01 -0.34388048231E+02 -0.31342405875E+02  0.46528479927E+02  0.10566000000E+00 0.  1.
         13    1    4    4    0    0 -0.16836535891E+00  0.18302479834E+02 -0.69649211787E+02  0.72014116544E+02  0.10566000000E+00 0. -1.
        -13    1    4    4    0    0  0.72492071389E+00  0.91833584666E+01 -0.35087859139E+02  0.36277108564E+02  0.10566000000E+00 0.  1.
        -14    1    4    4    0    0 -0.61990469236E+00  0.69022099297E+01 -0.26191830698E+02  0.27093113129E+02  0.00000000000E+00 0.  1.
<mgrwt>
<rscale>  0 0.82221020E+02</rscale>
<asrwt>0</asrwt>
<pdfrwt beam="1">  1        2 0.26475700E-01 0.82221020E+02</pdfrwt>
<pdfrwt beam="2">  1       -1 0.15108856E-02 0.82221020E+02</pdfrwt>
<totfact> 0.19487933E+05</totfact>
</mgrwt>
</event>
<event>
 8    1  0.2561077E-024  0.6960484E+02  0.7818608E-02  0.1361442E+00
          2   -1    0    0  501    0  0.00000000000E+00  0.00000000000E+00  0.25642529817E+02  0.25642529944E+02  0.25500000000E-02 0. -1.
         -1   -1    0    0    0  501 -0.00000000000E+00 -0.00000000000E+00 -0.47234361711E+02  0.47234361979E+02  0.50400000000E-02 0.  1.
         24    2    1    2    0    0  0.00000000000E+00 -0.17763568394E-14 -0.21591831893E+02  0.72876891924E+02  0.69604843021E+02 0.  0.
         66    2    3    3    0    0  0.50365300114E+01  0.10657322347E+02  0.23447890909E+02  0.26320120684E+02  0.20000026374E+01 0.  0.
        -13    1    3    3    0    0 -0.50365300114E+01 -0.10657322347E+02 -0.45039722802E+02  0.46556771240E+02  0.10566000000E+00 0.  1.
         13    1    4    4    0    0  0.13090541980E+01  0.36584983799E+01  0.86705627271E+01  0.95020027010E+01  0.10566000000E+00 0. -1.
        -13    1    4    4    0    0  0.30062909922E+00  0.12189353651E+01  0.17055104093E+01  0.21204035162E+01  0.10566000000E+00 0.  1.
         14    1    4    4    0    0  0.34268467142E+01  0.57798886020E+01  0.13071817773E+02  0.14697714466E+02  0.00000000000E+00 0. -1.
<mgrwt>
<rscale>  0 0.69604843E+02</rscale>
<asrwt>0</asrwt>
<pdfrwt beam="1">  1        2 0.39450046E-02 0.69604843E+02</pdfrwt>
<pdfrwt beam="2">  1       -1 0.72668250E-02 0.69604843E+02</pdfrwt>
<totfact> 0.19233797E+05</totfact>
</mgrwt>
</event>
<event>
 8    1  0.2561077E-024  0.8004900E+02  0.7818608E-02  0.1328912E+00
          2   -1    0    0  501    0  0.00000000000E+00  0.00000000000E+00  0.29857793495E+03  0.29857793496E+03  0.25500000000E-02 0. -1.
         -1   -1    0    0    0  501 -0.00000000000E+00 -0.00000000000E+00 -0.53653007538E+01  0.53653031210E+01  0.50400000000E-02 0.  1.
         24    2    1    2    0    0  0.00000000000E+00  0.71054273576E-14  0.29321263420E+03  0.30394323808E+03  0.80049004512E+02 0.  0.
         66    2    3    3    0    0  0.19266832704E+02  0.35043504863E+02  0.14352599598E+03  0.14900660942E+03  0.20000135727E+01 0.  0.
        -13    1    3    3    0    0 -0.19266832704E+02 -0.35043504863E+02  0.14968663822E+03  0.15493662866E+03  0.10566000000E+00 0.  1.
         13    1    4    4    0    0  0.65138451311E+00  0.87051188083E+00  0.45091161062E+01  0.46395457550E+01  0.10566000000E+00 0. -1.
        -13    1    4    4    0    0  0.44341122678E+01  0.90573272789E+01  0.37467972811E+02  0.38801503575E+02  0.10566000000E+00 0.  1.
         14    1    4    4    0    0  0.14181335923E+02  0.25115665703E+02  0.10154890706E+03  0.10556556009E+03  0.00000000000E+00 0. -1.
<mgrwt>
<rscale>  0 0.80049005E+02</rscale>
<asrwt>0</asrwt>
<pdfrwt beam="1">  1        2 0.45935064E-01 0.80049005E+02</pdfrwt>
<pdfrwt beam="2">  1       -1 0.82543112E-03 0.80049005E+02</pdfrwt>
<totfact> 0.25409833E+05</totfact>
</mgrwt>
</event>
<event>
 8    1  0.2561077E-024  0.7831312E+02  0.7818608E-02  0.1333908E+00
         -1   -1    0    0    0  501 -0.00000000000E+00  0.00000000000E+00  0.50161468961E+01  0.50161494281E+01  0.50400000000E-02 0.  1.
          2   -1    0    0  501    0  0.00000000000E+00 -0.00000000000E+00 -0.30566010238E+03  0.30566010240E+03  0.25500000000E-02 0. -1.
         24    2    1    2    0    0  0.17763568394E-14  0.00000000000E+00 -0.30064395549E+03  0.31067625182E+03  0.78313124540E+02 0.  0.
         66    2    3    3    0    0  0.14200946090E+02  0.16842955545E+02 -0.27871609980E+03  0.27959258987E+03  0.20000000955E+01 0.  0.
        -13    1    3    3    0    0 -0.14200946090E+02 -0.16842955545E+02 -0.21927855686E+02  0.31083661952E+02  0.10566000000E+00 0.  1.
         13    1    4    4    0    0  0.11249894604E+02  0.12855507736E+02 -0.21191784028E+03  0.21260528310E+03  0.10566000000E+00 0. -1.
        -13    1    4    4    0    0  0.48229567888E+00  0.65478737549E+00 -0.76541439524E+01  0.76979503317E+01  0.10566000000E+00 0.  1.
        -14    1    4    4    0    0  0.24687558068E+01  0.33326604336E+01 -0.59144115569E+02  0.59289356441E+02  0.00000000000E+00 0.  1.
<mgrwt>
<rscale>  0 0.78313125E+02</rscale>
<asrwt>0</asrwt>
<pdfrwt beam="1">  1        2 0.47024617E-01 0.78313125E+02</pdfrwt>
<pdfrwt beam="2">  1       -1 0.77171534E-03 0.78313125E+02</pdfrwt>
<totfact> 0.27140515E+05</totfact>
</mgrwt>
</event>
<event>
 8    1  0.2561077E-024  0.8020377E+02  0.7818608E-02  0.1328474E+00
          2   -1    0    0  501    0  0.00000000000E+00  0.00000000000E+00  0.50301153061E+03  0.50301153062E+03  0.25500000000E-02 0. -1.
         -1   -1    0    0    0  501 -0.00000000000E+00 -0.00000000000E+00 -0.31970641020E+01  0.31970680747E+01  0.50400000000E-02 0.  1.
         24    2    1    2    0    0  0.00000000000E+00  0.00000000000E+00  0.49981446651E+03  0.50620859869E+03  0.80203768354E+02 0.  0.
         66    2    3    3    0    0 -0.25779983824E+02  0.28618764050E+02  0.31992230711E+03  0.32223892347E+03  0.19999987400E+01 0.  0.
        -13    1    3    3    0    0  0.25779983824E+02 -0.28618764050E+02  0.17989215940E+03  0.18396967522E+03  0.10566000000E+00 0.  1.
         13    1    4    4    0    0 -0.42411131899E+01  0.47778892181E+01  0.51325323490E+02  0.51721516431E+02  0.10566000000E+00 0. -1.
        -13    1    4    4    0    0 -0.13783239490E+02  0.14169453159E+02  0.16148865961E+03  0.16269403628E+03  0.10566000000E+00 0.  1.
        -14    1    4    4    0    0 -0.77556311439E+01  0.96714216730E+01  0.10710832400E+03  0.10782337076E+03  0.00000000000E+00 0.  1.
<mgrwt>
<rscale>  0 0.80203768E+02</rscale>
<asrwt>0</asrwt>
<pdfrwt beam="1">  1        2 0.77386361E-01 0.80203768E+02</pdfrwt>
<pdfrwt beam="2">  1       -1 0.49185650E-03 0.80203768E+02</pdfrwt>
<totfact> 0.30307940E+05</totfact>
</mgrwt>
</event>
<event>
 8    1  0.2561077E-024  0.7627553E+02  0.7818608E-02  0.1339966E+00
         -1   -1    0    0    0  501 -0.00000000000E+00  0.00000000000E+00  0.91036785341E+01  0.91036799292E+01  0.50400000000E-02 0.  1.
          2   -1    0    0  501    0  0.00000000000E+00 -0.00000000000E+00 -0.15976937421E+03  0.15976937423E+03  0.25500000000E-02 0. -1.
         24    2    1    2    0    0  0.35527136788E-14  0.88817841970E-15 -0.15066569568E+03  0.16887305416E+03  0.76275530596E+02 0.  0.
         66    2    3    3    0    0 -0.27508261537E+02 -0.67643093750E+01 -0.13183135609E+03  0.13485535515E+03  0.20000076324E+01 0.  0.
        -13    1    3    3    0    0  0.27508261537E+02  0.67643093750E+01 -0.18834339586E+02  0.34017699008E+02  0.10566000000E+00 0.  1.
         13    1    4    4    0    0 -0.18708612943E+02 -0.44590699759E+01 -0.89699383425E+02  0.91738138493E+02  0.10566000000E+00 0. -1.
        -13    1    4    4    0    0 -0.78812168727E+01 -0.22992786932E+01 -0.36609223159E+02  0.37518617329E+02  0.10566000000E+00 0.  1.
         14    1    4    4    0    0 -0.91843172128E+00 -0.59607059050E-02 -0.55227495075E+01  0.55985993320E+01  0.00000000000E+00 0. -1.
<mgrwt>
<rscale>  0 0.76275531E+02</rscale>
<asrwt>0</asrwt>
<pdfrwt beam="1">  1        2 0.24579902E-01 0.76275531E+02</pdfrwt>
<pdfrwt beam="2">  1       -1 0.14005662E-02 0.76275531E+02</pdfrwt>
<totfact> 0.23191047E+05</totfact>
</mgrwt>
</event>
<event>
 8    1  0.2561077E-024  0.7908676E+02  0.7818608E-02  0.1331663E+00
         -1   -1    0    0    0  501 -0.00000000000E+00  0.00000000000E+00  0.22739165885E+02  0.22739166443E+02  0.50400000000E-02 0.  1.
          2   -1    0    0  501    0  0.00000000000E+00 -0.00000000000E+00 -0.68765885077E+02  0.68765885125E+02  0.25500000000E-02 0. -1.
         24    2    1    2    0    0  0.00000000000E+00 -0.17763568394E-14 -0.46026719193E+02  0.91505051568E+02  0.79086759845E+02 0.  0.
         66    2    3    3    0    0  0.11724357093E+02 -0.13748881770E+02 -0.63691718174E+02  0.66235392840E+02  0.20000003816E+01 0.  0.
        -13    1    3    3    0    0 -0.11724357093E+02  0.13748881770E+02  0.17664998982E+02  0.25269658728E+02  0.10566000000E+00 0.  1.
         13    1    4    4    0    0  0.50981239789E+01 -0.61890930783E+01 -0.27676854013E+02  0.28815189628E+02  0.10566000000E+00 0. -1.
        -13    1    4    4    0    0  0.40983119737E+01 -0.46430289400E+01 -0.24714372837E+02  0.25478721858E+02  0.10566000000E+00 0.  1.
        -14    1    4    4    0    0  0.25279211404E+01 -0.29167597515E+01 -0.11300491325E+02  0.11941481354E+02  0.00000000000E+00 0.  1.
<mgrwt>
<rscale>  0 0.79086760E+02</rscale>
<asrwt>0</asrwt>
<pdfrwt beam="1">  1        2 0.10579367E-01 0.79086760E+02</pdfrwt>
<pdfrwt beam="2">  1       -1 0.34983333E-02 0.79086760E+02</pdfrwt>
<totfact> 0.16584135E+05</totfact>
</mgrwt>
</event>
<event>
 8    1  0.2561077E-024  0.7796158E+02  0.7818608E-02  0.1334938E+00
          2   -1    0    0  501    0  0.00000000000E+00  0.00000000000E+00  0.60451432563E+03  0.60451432563E+03  0.25500000000E-02 0. -1.
         -1   -1    0    0    0  501 -0.00000000000E+00 -0.00000000000E+00 -0.25135889418E+01  0.25135939946E+01  0.50400000000E-02 0.  1.
         24    2    1    2    0    0  0.17763568394E-14 -0.17763568394E-14  0.60200073669E+03  0.60702791963E+03  0.77961581803E+02 0.  0.
         66    2    3    3    0    0  0.14076210555E+02 -0.11055538944E+02  0.57059886295E+03  0.57088302396E+03  0.19999992544E+01 0.  0.
        -13    1    3    3    0    0 -0.14076210555E+02  0.11055538944E+02  0.31401873737E+02  0.36144895672E+02  0.10566000000E+00 0.  1.
         13    1    4    4    0    0  0.11854556138E+01 -0.75092540561E+00  0.50169194302E+02  0.50188927214E+02  0.10566000000E+00 0. -1.
        -13    1    4    4    0    0  0.51550482025E+01 -0.38948282101E+01  0.17871297337E+03  0.17882975766E+03  0.10566000000E+00 0.  1.
         14    1    4    4    0    0  0.77357067387E+01 -0.64097853282E+01  0.34171669528E+03  0.34186433908E+03  0.00000000000E+00 0. -1.
<mgrwt>
<rscale>  0 0.77961582E+02</rscale>
<asrwt>0</asrwt>
<pdfrwt beam="1">  1        2 0.93002161E-01 0.77961582E+02</pdfrwt>
<pdfrwt beam="2">  1       -1 0.38670656E-03 0.77961582E+02</pdfrwt>
<totfact> 0.34466381E+05</totfact>
</mgrwt>
</event>
<event>
 8    1  0.2561077E-024  0.8235206E+02  0.7818608E-02  0.1322506E+00
         -1   -1    0    0    0  501 -0.00000000000E+00  0.00000000000E+00  0.38643539264E+03  0.38643539267E+03  0.50400000000E-02 0.  1.
          2   -1    0    0  501    0  0.00000000000E+00 -0.00000000000E+00 -0.43874485517E+01  0.43874492928E+01  0.25500000000E-02 0. -1.
         24    2    1    2    0    0  0.71054273576E-14  0.35527136788E-14  0.38204794408E+03  0.39082284196E+03  0.82352062633E+02 0.  0.
         66    2    3    3    0    0  0.34462258126E+02  0.22209012424E+02  0.17430855802E+03  0.17907641069E+03  0.20000000417E+01 0.  0.
        -13    1    3    3    0    0 -0.34462258126E+02 -0.22209012424E+02  0.20773938607E+03  0.21174643127E+03  0.10566000000E+00 0.  1.
         13    1    4    4    0    0  0.29794136238E+01  0.24355141791E+01  0.16810177331E+02  0.17245343162E+02  0.10566000000E+00 0. -1.
        -13    1    4    4    0    0  0.10294141133E+02  0.64059107053E+01  0.53760452610E+02  0.55110819831E+02  0.10566000000E+00 0.  1.
        -14    1    4    4    0    0  0.21188703369E+02  0.13367587539E+02  0.10373792808E+03  0.10672024770E+03  0.00000000000E+00 0.  1.
<mgrwt>
<rscale>  0 0.82352063E+02</rscale>
<asrwt>0</asrwt>
<pdfrwt beam="1">  1        2 0.67499224E-03 0.82352063E+02</pdfrwt>
<pdfrwt beam="2">  1       -1 0.59451590E-01 0.82352063E+02</pdfrwt>
<totfact> 0.71590227E+04</totfact>
</mgrwt>
</event>
<event>
 8    1  0.2561077E-024  0.8005768E+02  0.7818608E-02  0.1328888E+00
          2   -1    0    0  501    0  0.00000000000E+00  0.00000000000E+00  0.91302279025E+02  0.91302279060E+02  0.25500000000E-02 0. -1.
         -1   -1    0    0    0  501 -0.00000000000E+00 -0.00000000000E+00 -0.17549484400E+02  0.17549485124E+02  0.50400000000E-02 0.  1.
         24    2    1    2    0    0 -0.35527136788E-14  0.00000000000E+00  0.73752794625E+02  0.10885176418E+03  0.80057678276E+02 0.  0.
         66    2    3    3    0    0  0.31237058761E+02 -0.16096535930E+02  0.62891777103E+02  0.72070992379E+02  0.20000015894E+01 0.  0.
        -13    1    3    3    0    0 -0.31237058761E+02  0.16096535930E+02  0.10861017522E+02  0.36780771805E+02  0.10566000000E+00 0.  1.
         13    1    4    4    0    0  0.20863771495E+02 -0.11034561138E+02  0.42916772383E+02  0.48978760870E+02  0.10566000000E+00 0. -1.
        -13    1    4    4    0    0  0.30042579679E+01 -0.12140692296E+01  0.48637888663E+01  0.58452661363E+01  0.10566000000E+00 0.  1.
        -14    1    4    4    0    0  0.73690292980E+01 -0.38479055616E+01  0.15111215853E+02  0.17246965373E+02  0.00000000000E+00 0.  1.
<mgrwt>
<rscale>  0 0.80057678E+02</rscale>
<asrwt>0</asrwt>
<pdfrwt beam="1">  1        2 0.14046505E-01 0.80057678E+02</pdfrwt>
<pdfrwt beam="2">  1       -1 0.26999207E-02 0.80057678E+02</pdfrwt>
<totfact> 0.17254132E+05</totfact>
</mgrwt>
</event>
<event>
 8    1  0.2561077E-024  0.7604355E+02  0.7818608E-02  0.1340670E+00
          2   -1    0    0  501    0  0.00000000000E+00  0.00000000000E+00  0.94481674769E+01  0.94481678211E+01  0.25500000000E-02 0. -1.
         -1   -1    0    0    0  501 -0.00000000000E+00 -0.00000000000E+00 -0.15300907178E+03  0.15300907186E+03  0.50400000000E-02 0.  1.
         24    2    1    2    0    0  0.00000000000E+00 -0.35527136788E-14 -0.14356090430E+03  0.16245723969E+03  0.76043549901E+02 0.  0.
         66    2    3    3    0    0 -0.17305188317E+02  0.17075784341E+02 -0.94494492821E+01  0.26159970873E+02  0.20000076945E+01 0.  0.
        -13    1    3    3    0    0  0.17305188317E+02 -0.17075784341E+02 -0.13411145502E+03  0.13629726881E+03  0.10566000000E+00 0.  1.
         13    1    4    4    0    0 -0.89008325900E+01  0.93943732288E+01 -0.44371348598E+01  0.13681315688E+02  0.10566000000E+00 0. -1.
        -13    1    4    4    0    0 -0.59476851840E+01  0.59653005396E+01 -0.35089394171E+01  0.91259843000E+01  0.10566000000E+00 0.  1.
        -14    1    4    4    0    0 -0.24566705431E+01  0.17161105728E+01 -0.15033750053E+01  0.33526708848E+01  0.00000000000E+00 0.  1.
<mgrwt>
<rscale>  0 0.76043550E+02</rscale>
<asrwt>0</asrwt>
<pdfrwt beam="1">  1        2 0.14535644E-02 0.76043550E+02</pdfrwt>
<pdfrwt beam="2">  1       -1 0.23539855E-01 0.76043550E+02</pdfrwt>
<totfact> 0.12200297E+05</totfact>
</mgrwt>
</event>
<event>
 8    1  0.2561077E-024  0.7999339E+02  0.7818608E-02  0.1329070E+00
         -1   -1    0    0    0  501 -0.00000000000E+00  0.00000000000E+00  0.17834013228E+01  0.17834084445E+01  0.50400000000E-02 0.  1.
          2   -1    0    0  501    0  0.00000000000E+00 -0.00000000000E+00 -0.89701200792E+03  0.89701200793E+03  0.25500000000E-02 0. -1.
         24    2    1    2    0    0  0.00000000000E+00  0.88817841970E-15 -0.89522860660E+03  0.89879541637E+03  0.79993389817E+02 0.  0.
         66    2    3    3    0    0 -0.29606048847E+02 -0.45772852216E+01 -0.74522194459E+03  0.74582653235E+03  0.19999962636E+01 0.  0.
        -13    1    3    3    0    0  0.29606048847E+02  0.45772852216E+01 -0.15000666201E+03  0.15296888403E+03  0.10566000000E+00 0.  1.
         13    1    4    4    0    0 -0.54112670663E+01 -0.90525404594E+00 -0.13950097836E+03  0.13960886585E+03  0.10566000000E+00 0. -1.
        -13    1    4    4    0    0 -0.23144637383E+02 -0.35400426357E+01 -0.58703167081E+03  0.58749842540E+03  0.10566000000E+00 0.  1.
        -14    1    4    4    0    0 -0.10501443974E+01 -0.13198853990E+00 -0.18689295415E+02  0.18719241099E+02  0.00000000000E+00 0.  1.
<mgrwt>
<rscale>  0 0.79993390E+02</rscale>
<asrwt>0</asrwt>
<pdfrwt beam="1">  1        2 0.13800149E+00 0.79993390E+02</pdfrwt>
<pdfrwt beam="2">  1       -1 0.27437070E-03 0.79993390E+02</pdfrwt>
<totfact> 0.34941157E+05</totfact>
</mgrwt>
</event>
<event>
 8    1  0.2561077E-024  0.7639229E+02  0.7818608E-02  0.1339613E+00
         -1   -1    0    0    0  501 -0.00000000000E+00  0.00000000000E+00  0.28566880759E+01  0.28566925219E+01  0.50400000000E-02 0.  1.
          2   -1    0    0  501    0  0.00000000000E+00 -0.00000000000E+00 -0.51071181954E+03  0.51071181955E+03  0.25500000000E-02 0. -1.
         24    2    1    2    0    0  0.00000000000E+00 -0.35527136788E-14 -0.50785513147E+03  0.51356851207E+03  0.76392290407E+02 0.  0.
         66    2    3    3    0    0  0.10780690368E+02  0.26697365024E+02 -0.42256920752E+03  0.42355366567E+03  0.19999949063E+01 0.  0.
        -13    1    3    3    0    0 -0.10780690368E+02 -0.26697365024E+02 -0.85285923950E+02  0.90014846398E+02  0.10566000000E+00 0.  1.
         13    1    4    4    0    0  0.34219500680E+01  0.69964437093E+01 -0.11891930648E+03  0.11917412716E+03  0.10566000000E+00 0. -1.
        -13    1    4    4    0    0  0.11427592665E+01  0.43931647271E+01 -0.66345161132E+02  0.66500356125E+02  0.10566000000E+00 0.  1.
         14    1    4    4    0    0  0.62159810336E+01  0.15307756587E+02 -0.23730473990E+03  0.23787918239E+03  0.00000000000E+00 0. -1.
<mgrwt>
<rscale>  0 0.76392290E+02</rscale>
<asrwt>0</asrwt>
<pdfrwt beam="1">  1        2 0.78570977E-01 0.76392290E+02</pdfrwt>
<pdfrwt beam="2">  1       -1 0.43949122E-03 0.76392290E+02</pdfrwt>
<totfact> 0.34563793E+05</totfact>
</mgrwt>
</event>
<event>
 8    1  0.2561077E-024  0.7983833E+02  0.7818608E-02  0.1329511E+00
         -1   -1    0    0    0  501 -0.00000000000E+00  0.00000000000E+00  0.12853672309E+01  0.12853771119E+01  0.50400000000E-02 0.  1.
          2   -1    0    0  501    0  0.00000000000E+00 -0.00000000000E+00 -0.12397498164E+04  0.12397498164E+04  0.25500000000E-02 0. -1.
         24    2    1    2    0    0 -0.13877787808E-16  0.00000000000E+00 -0.12384644492E+04  0.12410351935E+04  0.79838334688E+02 0.  0.
         66    2    3    3    0    0 -0.92386638237E-01  0.10728628454E+02 -0.12168997985E+04  0.12169487383E+04  0.19999941590E+01 0.  0.
        -13    1    3    3    0    0  0.92386638237E-01 -0.10728628454E+02 -0.21564650654E+02  0.24086455232E+02  0.10566000000E+00 0.  1.
         13    1    4    4    0    0 -0.22111767502E+00  0.11060289994E+01 -0.13935013927E+03  0.13935474399E+03  0.10566000000E+00 0. -1.
        -13    1    4    4    0    0 -0.38615640136E+00  0.47877696245E+01 -0.61558813098E+03  0.61560687945E+03  0.10566000000E+00 0.  1.
        -14    1    4    4    0    0  0.51488743814E+00  0.48348298300E+01 -0.46196152825E+03  0.46198711484E+03  0.00000000000E+00 0.  1.
<mgrwt>
<rscale>  0 0.79838335E+02</rscale>
<asrwt>0</asrwt>
<pdfrwt beam="1">  1        2 0.19072978E+00 0.79838335E+02</pdfrwt>
<pdfrwt beam="2">  1       -1 0.19775056E-03 0.79838335E+02</pdfrwt>
<totfact> 0.35077748E+05</totfact>
</mgrwt>
</event>
<event>
 8    1  0.2561077E-024  0.7980640E+02  0.7818608E-02  0.1329602E+00
          2   -1    0    0  501    0  0.00000000000E+00  0.00000000000E+00  0.13522006189E+03  0.13522006192E+03  0.25500000000E-02 0. -1.
         -1   -1    0    0    0  501 -0.00000000000E+00 -0.00000000000E+00 -0.11775363939E+02  0.11775365017E+02  0.50400000000E-02 0.  1.
         24    2    1    2    0    0  0.00000000000E+00  0.00000000000E+00  0.12344469796E+03  0.14699542694E+03  0.79806403794E+02 0.  0.
         66    2    3    3    0    0  0.78298286886E+01 -0.32395345145E+02  0.10209382192E+03  0.10741467813E+03  0.19999999714E+01 0.  0.
        -13    1    3    3    0    0 -0.78298286886E+01  0.32395345145E+02  0.21350876040E+02  0.39580748806E+02  0.10566000000E+00 0.  1.
         13    1    4    4    0    0  0.31617577954E+01 -0.12557080808E+02  0.38693180358E+02  0.40802577872E+02  0.10566000000E+00 0. -1.
        -13    1    4    4    0    0  0.35401936850E+00 -0.37323983240E+01  0.12438982420E+02  0.12992135108E+02  0.10566000000E+00 0.  1.
        -14    1    4    4    0    0  0.43140515247E+01 -0.16105866014E+02  0.50961659138E+02  0.53619965150E+02  0.00000000000E+00 0.  1.
<mgrwt>
<rscale>  0 0.79806404E+02</rscale>
<asrwt>0</asrwt>
<pdfrwt beam="1">  1        2 0.20803087E-01 0.79806404E+02</pdfrwt>
<pdfrwt beam="2">  1       -1 0.18115945E-02 0.79806404E+02</pdfrwt>
<totfact> 0.19506962E+05</totfact>
</mgrwt>
</event>
<event>
 8    1  0.2561077E-024  0.8226549E+02  0.7818608E-02  0.1322743E+00
         -1   -1    0    0    0  501 -0.00000000000E+00  0.00000000000E+00  0.29577510339E+01  0.29577553279E+01  0.50400000000E-02 0.  1.
          2   -1    0    0  501    0  0.00000000000E+00 -0.00000000000E+00 -0.57202297826E+03  0.57202297826E+03  0.25500000000E-02 0. -1.
         24    2    1    2    0    0  0.00000000000E+00  0.00000000000E+00 -0.56906522722E+03  0.57498073359E+03  0.82265491951E+02 0.  0.
         66    2    3    3    0    0 -0.11330863804E+02  0.25797167679E+02 -0.49391557132E+03  0.49472262321E+03  0.19999982331E+01 0.  0.
        -13    1    3    3    0    0  0.11330863804E+02 -0.25797167679E+02 -0.75149655908E+02  0.80258110381E+02  0.10566000000E+00 0.  1.
         13    1    4    4    0    0 -0.53915823023E+01  0.12624614670E+02 -0.24609694170E+03  0.24647954466E+03  0.10566000000E+00 0. -1.
        -13    1    4    4    0    0 -0.26120699264E+01  0.73800982376E+01 -0.13228712650E+03  0.13251861666E+03  0.10566000000E+00 0.  1.
         14    1    4    4    0    0 -0.33272115758E+01  0.57924547715E+01 -0.11553150312E+03  0.11572446190E+03  0.00000000000E+00 0. -1.
<mgrwt>
<rscale>  0 0.82265492E+02</rscale>
<asrwt>0</asrwt>
<pdfrwt beam="1">  1        2 0.88003447E-01 0.82265492E+02</pdfrwt>
<pdfrwt beam="2">  1       -1 0.45503941E-03 0.82265492E+02</pdfrwt>
<totfact> 0.29501658E+05</totfact>
</mgrwt>
</event>
<event>
 8    1  0.2561077E-024  0.8075263E+02  0.7818608E-02  0.1326929E+00
         -1   -1    0    0    0  501 -0.00000000000E+00  0.00000000000E+00  0.95411247690E+01  0.95411261002E+01  0.50400000000E-02 0.  1.
          2   -1    0    0  501    0  0.00000000000E+00 -0.00000000000E+00 -0.17086523583E+03  0.17086523585E+03  0.25500000000E-02 0. -1.
         24    2    1    2    0    0 -0.17763568394E-14  0.35527136788E-14 -0.16132411106E+03  0.18040636195E+03  0.80752626101E+02 0.  0.
         66    2    3    3    0    0 -0.11701688061E+02  0.26972249564E+02 -0.14245441262E+03  0.14547058611E+03  0.19999999047E+01 0.  0.
        -13    1    3    3    0    0  0.11701688061E+02 -0.26972249564E+02 -0.18869698446E+02  0.34935775839E+02  0.10566000000E+00 0.  1.
         13    1    4    4    0    0 -0.57064484414E+01  0.10915884442E+02 -0.58416094682E+02  0.59700681478E+02  0.10566000000E+00 0.  1.
        -13    1    4    4    0    0 -0.36171653338E+01  0.10399704021E+02 -0.53919715351E+02  0.55032577592E+02  0.10566000000E+00 0. -1.
         14    1    4    4    0    0 -0.23780742858E+01  0.56566611017E+01 -0.30118602582E+02  0.30737327041E+02  0.00000000000E+00 0. -1.
<mgrwt>
<rscale>  0 0.80752626E+02</rscale>
<asrwt>0</asrwt>
<pdfrwt beam="1">  1        2 0.26286957E-01 0.80752626E+02</pdfrwt>
<pdfrwt beam="2">  1       -1 0.14678656E-02 0.80752626E+02</pdfrwt>
<totfact> 0.20392765E+05</totfact>
</mgrwt>
</event>
<event>
 8    1  0.2561077E-024  0.7951113E+02  0.7818608E-02  0.1330445E+00
          2   -1    0    0  501    0  0.00000000000E+00  0.00000000000E+00  0.11563039240E+03  0.11563039243E+03  0.25500000000E-02 0. -1.
         -1   -1    0    0    0  501 -0.00000000000E+00 -0.00000000000E+00 -0.13668593763E+02  0.13668594692E+02  0.50400000000E-02 0.  1.
         24    2    1    2    0    0 -0.35527136788E-14 -0.35527136788E-14  0.10196179864E+03  0.12929898712E+03  0.79511129342E+02 0.  0.
         66    2    3    3    0    0 -0.19012404454E+02 -0.17513886866E+02  0.10007646239E+03  0.10338039509E+03  0.20000018167E+01 0.  0.
        -13    1    3    3    0    0  0.19012404454E+02  0.17513886866E+02  0.18853362481E+01  0.25918592035E+02  0.10566000000E+00 0.  1.
         13    1    4    4    0    0 -0.14230710548E+02 -0.13862040195E+02  0.76979589330E+02  0.79501808901E+02  0.10566000000E+00 0. -1.
        -13    1    4    4    0    0 -0.15075770981E+00 -0.13988260518E+00  0.59796270531E+00  0.64110721633E+00  0.10566000000E+00 0. -1.
        -14    1    4    4    0    0 -0.46309361965E+01 -0.35119640666E+01  0.22498910358E+02  0.23237478972E+02  0.00000000000E+00 0.  1.
<mgrwt>
<rscale>  0 0.79511129E+02</rscale>
<asrwt>0</asrwt>
<pdfrwt beam="1">  1        2 0.17789291E-01 0.79511129E+02</pdfrwt>
<pdfrwt beam="2">  1       -1 0.21028607E-02 0.79511129E+02</pdfrwt>
<totfact> 0.18786487E+05</totfact>
</mgrwt>
</event>
<event>
 8    1  0.2561077E-024  0.7909337E+02  0.7818608E-02  0.1331644E+00
          2   -1    0    0  501    0  0.00000000000E+00  0.00000000000E+00  0.27712381366E+03  0.27712381367E+03  0.25500000000E-02 0. -1.
         -1   -1    0    0    0  501 -0.00000000000E+00 -0.00000000000E+00 -0.56434697500E+01  0.56434720006E+01  0.50400000000E-02 0.  1.
         24    2    1    2    0    0  0.00000000000E+00  0.00000000000E+00  0.27148034391E+03  0.28276728567E+03  0.79093367086E+02 0.  0.
         66    2    3    3    0    0 -0.22693905006E+02 -0.29366414889E+02  0.87261076917E+02  0.94846693019E+02  0.19999959996E+01 0.  0.
        -13    1    3    3    0    0  0.22693905006E+02  0.29366414889E+02  0.18421926699E+03  0.18792059265E+03  0.10566000000E+00 0.  1.
         13    1    4    4    0    0 -0.11299160165E+02 -0.14313643993E+02  0.42297264854E+02  0.46061059508E+02  0.10566000000E+00 0. -1.
        -13    1    4    4    0    0 -0.44317240414E+01 -0.48974700436E+01  0.14962409757E+02  0.16355740906E+02  0.10566000000E+00 0.  1.
         14    1    4    4    0    0 -0.69630207988E+01 -0.10155300853E+02  0.30001402306E+02  0.32429892605E+02  0.00000000000E+00 0. -1.
<mgrwt>
<rscale>  0 0.79093367E+02</rscale>
<asrwt>0</asrwt>
<pdfrwt beam="1">  1        2 0.42634420E-01 0.79093367E+02</pdfrwt>
<pdfrwt beam="2">  1       -1 0.86822655E-03 0.79093367E+02</pdfrwt>
<totfact> 0.25524189E+05</totfact>
</mgrwt>
</event>
<event>
 8    1  0.2561077E-024  0.7936626E+02  0.7818608E-02  0.1330860E+00
         -1   -1    0    0    0  501 -0.00000000000E+00  0.00000000000E+00  0.32154016670E+02  0.32154017065E+02  0.50400000000E-02 0.  1.
          2   -1    0    0  501    0  0.00000000000E+00 -0.00000000000E+00 -0.48975242264E+02  0.48975242331E+02  0.25500000000E-02 0. -1.
         24    2    1    2    0    0  0.00000000000E+00  0.00000000000E+00 -0.16821225594E+02  0.81129259396E+02  0.79366259201E+02 0.  0.
         66    2    3    3    0    0 -0.63912808318E+01  0.36750021749E+02  0.53491915154E+01  0.37736274617E+02  0.20000007199E+01 0.  0.
        -13    1    3    3    0    0  0.63912808318E+01 -0.36750021749E+02 -0.22170417110E+02  0.43392984779E+02  0.10566000000E+00 0.  1.
         13    1    4    4    0    0 -0.23807152455E+01  0.17299395807E+02  0.30049700646E+01  0.17719421816E+02  0.10566000000E+00 0. -1.
        -13    1    4    4    0    0 -0.21522596251E+01  0.12498933416E+02  0.14950042853E+01  0.12771129937E+02  0.10566000000E+00 0.  1.
        -14    1    4    4    0    0 -0.18583059612E+01  0.69516925258E+01  0.84921716550E+00  0.72457228634E+01  0.00000000000E+00 0.  1.
<mgrwt>
<rscale>  0 0.79366259E+02</rscale>
<asrwt>0</asrwt>
<pdfrwt beam="1">  1        2 0.75346527E-02 0.79366259E+02</pdfrwt>
<pdfrwt beam="2">  1       -1 0.49467718E-02 0.79366259E+02</pdfrwt>
<totfact> 0.15203721E+05</totfact>
</mgrwt>
</event>
<event>
 8    1  0.2561077E-024  0.7982964E+02  0.7818608E-02  0.1329536E+00
          2   -1    0    0  501    0  0.00000000000E+00  0.00000000000E+00  0.34768709112E+02  0.34768709205E+02  0.25500000000E-02 0. -1.
         -1   -1    0    0    0  501 -0.00000000000E+00 -0.00000000000E+00 -0.45822604993E+02  0.45822605270E+02  0.50400000000E-02 0.  1.
         24    2    1    2    0    0 -0.35527136788E-14  0.88817841970E-15 -0.11053895882E+02  0.80591314475E+02  0.79829639575E+02 0.  0.
         66    2    3    3    0    0  0.23254475240E+02 -0.41965727127E+01  0.26913522621E+02  0.35870873143E+02  0.19999997276E+01 0.  0.
        -13    1    3    3    0    0 -0.23254475240E+02  0.41965727127E+01 -0.37967418502E+02  0.44720441333E+02  0.10566000000E+00 0.  1.
         13    1    4    4    0    0  0.22237899044E+02 -0.39197219730E+01  0.25982351754E+02  0.34423569556E+02  0.10566000000E+00 0. -1.
        -13    1    4    4    0    0  0.53869306773E+00 -0.17652377333E+00  0.30218094867E+00  0.65102090989E+00  0.10566000000E+00 0.  1.
         14    1    4    4    0    0  0.47788312813E+00 -0.10032696635E+00  0.62898991841E+00  0.79628267706E+00  0.00000000000E+00 0. -1.
<mgrwt>
<rscale>  0 0.79829640E+02</rscale>
<asrwt>0</asrwt>
<pdfrwt beam="1">  1        2 0.53490322E-02 0.79829640E+02</pdfrwt>
<pdfrwt beam="2">  1       -1 0.70496316E-02 0.79829640E+02</pdfrwt>
<totfact> 0.13937978E+05</totfact>
</mgrwt>
</event>
<event>
 8    1  0.2561077E-024  0.7941817E+02  0.7818608E-02  0.1330711E+00
          2   -1    0    0  501    0  0.00000000000E+00  0.00000000000E+00  0.11620931836E+03  0.11620931839E+03  0.25500000000E-02 0. -1.
         -1   -1    0    0    0  501 -0.00000000000E+00 -0.00000000000E+00 -0.13568717925E+02  0.13568718861E+02  0.50400000000E-02 0.  1.
         24    2    1    2    0    0  0.00000000000E+00  0.00000000000E+00  0.10264060044E+03  0.12977803725E+03  0.79418172320E+02 0.  0.
         66    2    3    3    0    0 -0.10766523731E+02 -0.30026685337E+01  0.11357507952E+03  0.11414128413E+03  0.20000008133E+01 0.  0.
        -13    1    3    3    0    0  0.10766523731E+02  0.30026685337E+01 -0.10934479079E+02  0.15636753126E+02  0.10566000000E+00 0.  1.
         13    1    4    4    0    0 -0.68449592797E+01 -0.10852248974E+01  0.66181646443E+02  0.66543614800E+02  0.10566000000E+00 0. -1.
        -13    1    4    4    0    0 -0.33535013894E+00 -0.12102727146E+00  0.55465300744E+01  0.55589807715E+01  0.10566000000E+00 0.  1.
         14    1    4    4    0    0 -0.35862143122E+01 -0.17964163648E+01  0.41846902998E+02  0.42038688554E+02  0.00000000000E+00 0. -1.
<mgrwt>
<rscale>  0 0.79418172E+02</rscale>
<asrwt>0</asrwt>
<pdfrwt beam="1">  1        2 0.17878357E-01 0.79418172E+02</pdfrwt>
<pdfrwt beam="2">  1       -1 0.20874951E-02 0.79418172E+02</pdfrwt>
<totfact> 0.18872977E+05</totfact>
</mgrwt>
</event>
<event>
 8    1  0.2561077E-024  0.7812555E+02  0.7818608E-02  0.1334457E+00
         -1   -1    0    0    0  501 -0.00000000000E+00  0.00000000000E+00  0.68135193880E+02  0.68135194067E+02  0.50400000000E-02 0.  1.
          2   -1    0    0  501    0  0.00000000000E+00 -0.00000000000E+00 -0.22395187205E+02  0.22395187351E+02  0.25500000000E-02 0. -1.
         24    2    1    2    0    0  0.00000000000E+00  0.00000000000E+00  0.45740006675E+02  0.90530381417E+02  0.78125551191E+02 0.  0.
         66    2    3    3    0    0  0.20847905312E+02  0.28120981241E+02  0.28654992762E+01  0.35180049073E+02  0.20000062090E+01 0.  0.
        -13    1    3    3    0    0 -0.20847905312E+02 -0.28120981241E+02  0.42874507399E+02  0.55350332344E+02  0.10566000000E+00 0.  1.
         13    1    4    4    0    0  0.10896315423E+02  0.15803311746E+02  0.19330992495E+01  0.19293065818E+02  0.10566000000E+00 0. -1.
        -13    1    4    4    0    0  0.25683260101E+01  0.32920068328E+01 -0.12279698146E+00  0.41784986078E+01  0.10566000000E+00 0. -1.
         14    1    4    4    0    0  0.73832638788E+01  0.90256626631E+01  0.10551970081E+01  0.11708484647E+02  0.00000000000E+00 0. -1.
<mgrwt>
<rscale>  0 0.78125551E+02</rscale>
<asrwt>0</asrwt>
<pdfrwt beam="1">  1        2 0.34454134E-02 0.78125551E+02</pdfrwt>
<pdfrwt beam="2">  1       -1 0.10482338E-01 0.78125551E+02</pdfrwt>
<totfact> 0.13586599E+05</totfact>
</mgrwt>
</event>
<event>
 8    1  0.2561077E-024  0.7890254E+02  0.7818608E-02  0.1332195E+00
         -1   -1    0    0    0  501 -0.00000000000E+00  0.00000000000E+00  0.32625661484E+01  0.32625700413E+01  0.50400000000E-02 0.  1.
          2   -1    0    0  501    0  0.00000000000E+00 -0.00000000000E+00 -0.47704839400E+03  0.47704839400E+03  0.25500000000E-02 0. -1.
         24    2    1    2    0    0  0.00000000000E+00 -0.17763568394E-14 -0.47378582785E+03  0.48031096404E+03  0.78902544394E+02 0.  0.
         66    2    3    3    0    0  0.25010435124E+02  0.14272786724E+02 -0.40097132010E+03  0.40200899722E+03  0.19999993094E+01 0.  0.
        -13    1    3    3    0    0 -0.25010435124E+02 -0.14272786724E+02 -0.72814507747E+02  0.78301966823E+02  0.10566000000E+00 0.  1.
         13    1    4    4    0    0  0.99401803299E+01  0.54662025750E+01 -0.15045950686E+03  0.15088658298E+03  0.10566000000E+00 0. -1.
        -13    1    4    4    0    0  0.12925373737E+02  0.72468665795E+01 -0.20683812891E+03  0.20736828372E+03  0.10566000000E+00 0.  1.
        -14    1    4    4    0    0  0.21448810572E+01  0.15597175691E+01 -0.43673684339E+02  0.43754130518E+02  0.00000000000E+00 0.  1.
<mgrwt>
<rscale>  0 0.78902544E+02</rscale>
<asrwt>0</asrwt>
<pdfrwt beam="1">  1        2 0.73392005E-01 0.78902544E+02</pdfrwt>
<pdfrwt beam="2">  1       -1 0.50193393E-03 0.78902544E+02</pdfrwt>
<totfact> 0.31092108E+05</totfact>
</mgrwt>
</event>
<event>
 8    1  0.2561077E-024  0.8041077E+02  0.7818608E-02  0.1327890E+00
          2   -1    0    0  501    0  0.00000000000E+00  0.00000000000E+00  0.76160629890E+03  0.76160629890E+03  0.25500000000E-02 0. -1.
         -1   -1    0    0    0  501 -0.00000000000E+00 -0.00000000000E+00 -0.21224493858E+01  0.21224553698E+01  0.50400000000E-02 0.  1.
         24    2    1    2    0    0 -0.35527136788E-14 -0.35527136788E-14  0.75948384951E+03  0.76372875427E+03  0.80410773109E+02 0.  0.
         66    2    3    3    0    0  0.27503690159E+02  0.16621877042E+02  0.60905505649E+03  0.60990556778E+03  0.20000006486E+01 0.  0.
        -13    1    3    3    0    0 -0.27503690159E+02 -0.16621877042E+02  0.15042879302E+03  0.15382318649E+03  0.10566000000E+00 0.  1.
         13    1    4    4    0    0  0.57477553243E+01  0.33006234261E+01  0.12571554557E+03  0.12589019171E+03  0.10566000000E+00 0. -1.
        -13    1    4    4    0    0  0.13307667311E+02  0.80595623928E+01  0.27858114044E+03  0.27901525680E+03  0.10566000000E+00 0.  1.
        -14    1    4    4    0    0  0.84482675241E+01  0.52616912231E+01  0.20475837048E+03  0.20500011927E+03  0.00000000000E+00 0.  1.
<mgrwt>
<rscale>  0 0.80410773E+02</rscale>
<asrwt>0</asrwt>
<pdfrwt beam="1">  1        2 0.11717013E+00 0.80410773E+02</pdfrwt>
<pdfrwt beam="2">  1       -1 0.32653132E-03 0.80410773E+02</pdfrwt>
<totfact> 0.33605989E+05</totfact>
</mgrwt>
</event>
<event>
 8    1  0.2561077E-024  0.7974934E+02  0.7818608E-02  0.1329764E+00
         -1   -1    0    0    0  501 -0.00000000000E+00  0.00000000000E+00  0.78774451860E+01  0.78774467983E+01  0.50400000000E-02 0.  1.
          2   -1    0    0  501    0  0.00000000000E+00 -0.00000000000E+00 -0.20184071030E+03  0.20184071031E+03  0.25500000000E-02 0. -1.
         24    2    1    2    0    0 -0.35527136788E-14 -0.88817841970E-15 -0.19396326511E+03  0.20971815711E+03  0.79749339870E+02 0.  0.
         66    2    3    3    0    0 -0.28688446511E+02 -0.42660723584E+01 -0.16890438813E+03  0.17138821038E+03  0.19999979936E+01 0.  0.
        -13    1    3    3    0    0  0.28688446511E+02  0.42660723584E+01 -0.25058876979E+02  0.38329946727E+02  0.10566000000E+00 0.  1.
         13    1    4    4    0    0 -0.12785090577E+02 -0.17412697126E+01 -0.70728293439E+02  0.71895710707E+02  0.10566000000E+00 0. -1.
        -13    1    4    4    0    0 -0.20270620001E+01 -0.59663342648E+00 -0.12006999543E+02  0.12191970877E+02  0.10566000000E+00 0.  1.
         14    1    4    4    0    0 -0.13876293934E+02 -0.19281692193E+01 -0.86169095148E+02  0.87300528799E+02  0.00000000000E+00 0. -1.
<mgrwt>
<rscale>  0 0.79749340E+02</rscale>
<asrwt>0</asrwt>
<pdfrwt beam="1">  1        2 0.31052413E-01 0.79749340E+02</pdfrwt>
<pdfrwt beam="2">  1       -1 0.12119149E-02 0.79749340E+02</pdfrwt>
<totfact> 0.22312852E+05</totfact>
</mgrwt>
</event>
<event>
 8    1  0.2561077E-024  0.8475243E+02  0.7818608E-02  0.1316081E+00
         -1   -1    0    0    0  501 -0.00000000000E+00  0.00000000000E+00  0.47453323168E+02  0.47453323436E+02  0.50400000000E-02 0.  1.
          2   -1    0    0  501    0  0.00000000000E+00 -0.00000000000E+00 -0.37842313239E+02  0.37842313325E+02  0.25500000000E-02 0. -1.
         24    2    1    2    0    0  0.00000000000E+00  0.44408920985E-15  0.96110099297E+01  0.85295636761E+02  0.84752428511E+02 0.  0.
         66    2    3    3    0    0  0.28995830305E+02 -0.28620249156E+01 -0.26126255933E+02  0.39185847159E+02  0.20000017076E+01 0.  0.
        -13    1    3    3    0    0 -0.28995830305E+02  0.28620249156E+01  0.35737265863E+02  0.46109789601E+02  0.10566000000E+00 0.  1.
         13    1    4    4    0    0  0.75432650691E+01 -0.69292834038E+00 -0.57247706399E+01  0.94955337134E+01  0.10566000000E+00 0. -1.
        -13    1    4    4    0    0  0.80847006675E+01 -0.10073544826E+01 -0.74141085649E+01  0.11016229745E+02  0.10566000000E+00 0.  1.
         14    1    4    4    0    0  0.13367864568E+02 -0.11617420926E+01 -0.12987376728E+02  0.18674083701E+02  0.00000000000E+00 0. -1.
<mgrwt>
<rscale>  0 0.84752429E+02</rscale>
<asrwt>0</asrwt>
<pdfrwt beam="1">  1        2 0.58218943E-02 0.84752429E+02</pdfrwt>
<pdfrwt beam="2">  1       -1 0.73005113E-02 0.84752429E+02</pdfrwt>
<totfact> 0.12002528E+05</totfact>
</mgrwt>
</event>
<event>
 8    1  0.2561077E-024  0.7926726E+02  0.7818608E-02  0.1331144E+00
          2   -1    0    0  501    0  0.00000000000E+00  0.00000000000E+00  0.22798631030E+03  0.22798631031E+03  0.25500000000E-02 0. -1.
         -1   -1    0    0    0  501 -0.00000000000E+00 -0.00000000000E+00 -0.68899939291E+01  0.68899957724E+01  0.50400000000E-02 0.  1.
         24    2    1    2    0    0  0.00000000000E+00  0.00000000000E+00  0.22109631637E+03  0.23487630609E+03  0.79267257100E+02 0.  0.
         66    2    3    3    0    0  0.34469946402E+02  0.12324505552E+02  0.15543349244E+03  0.15969859494E+03  0.20000032136E+01 0.  0.
        -13    1    3    3    0    0 -0.34469946402E+02 -0.12324505552E+02  0.65662823931E+02  0.75177711143E+02  0.10566000000E+00 0.  1.
         13    1    4    4    0    0  0.78201215365E+01  0.24292926101E+01  0.35423672781E+02  0.36357991154E+02  0.10566000000E+00 0. -1.
        -13    1    4    4    0    0  0.18682036352E+02  0.73667644286E+01  0.87200684488E+02  0.89483284694E+02  0.10566000000E+00 0.  1.
        -14    1    4    4    0    0  0.79677885133E+01  0.25284485130E+01  0.32809135171E+02  0.33857319096E+02  0.00000000000E+00 0.  1.
<mgrwt>
<rscale>  0 0.79267257E+02</rscale>
<asrwt>0</asrwt>
<pdfrwt beam="1">  1        2 0.35074814E-01 0.79267257E+02</pdfrwt>
<pdfrwt beam="2">  1       -1 0.10599993E-02 0.79267257E+02</pdfrwt>
<totfact> 0.23662853E+05</totfact>
</mgrwt>
</event>
<event>
 8    1  0.2561077E-024  0.7794536E+02  0.7818608E-02  0.1334985E+00
          2   -1    0    0  501    0  0.00000000000E+00  0.00000000000E+00  0.27441670359E+03  0.27441670360E+03  0.25500000000E-02 0. -1.
         -1   -1    0    0    0  501 -0.00000000000E+00 -0.00000000000E+00 -0.55349023522E+01  0.55349046469E+01  0.50400000000E-02 0.  1.
         24    2    1    2    0    0  0.00000000000E+00  0.00000000000E+00  0.26888180124E+03  0.27995160825E+03  0.77945364995E+02 0.  0.
         66    2    3    3    0    0  0.37673600783E+02  0.24666511998E+01  0.16888155417E+03  0.17306173435E+03  0.19999984630E+01 0.  0.
        -13    1    3    3    0    0 -0.37673600783E+02 -0.24666511998E+01  0.10000024707E+03  0.10688987390E+03  0.10566000000E+00 0.  1.
         13    1    4    4    0    0  0.18923999649E+02  0.11837353747E+01  0.82524684606E+02  0.84674988783E+02  0.10566000000E+00 0. -1.
        -13    1    4    4    0    0  0.14204539337E+00  0.30571648139E-01  0.10301497050E+01  0.10456978387E+01  0.10566000000E+00 0.  1.
         14    1    4    4    0    0  0.18607555740E+02  0.12523441770E+01  0.85326719860E+02  0.87341047731E+02  0.00000000000E+00 0. -1.
<mgrwt>
<rscale>  0 0.77945365E+02</rscale>
<asrwt>0</asrwt>
<pdfrwt beam="1">  1        2 0.42217960E-01 0.77945365E+02</pdfrwt>
<pdfrwt beam="2">  1       -1 0.85152350E-03 0.77945365E+02</pdfrwt>
<totfact> 0.26426968E+05</totfact>
</mgrwt>
</event>
<event>
 8    1  0.2561077E-024  0.8044168E+02  0.7818608E-02  0.1327803E+00
          2   -1    0    0  501    0  0.00000000000E+00  0.00000000000E+00  0.19841065974E+03  0.19841065976E+03  0.25500000000E-02 0. -1.
         -1   -1    0    0    0  501 -0.00000000000E+00 -0.00000000000E+00 -0.81533723417E+01  0.81533738994E+01  0.50400000000E-02 0.  1.
         24    2    1    2    0    0  0.17763568394E-14  0.44408920985E-15  0.19025728740E+03  0.20656403366E+03  0.80441684418E+02 0.  0.
         66    2    3    3    0    0  0.15292049542E+02  0.27354991930E+01  0.19038514509E+03  0.19102835708E+03  0.20000006766E+01 0.  0.
        -13    1    3    3    0    0 -0.15292049542E+02 -0.27354991930E+01 -0.12785769247E+00  0.15535676575E+02  0.10566000000E+00 0.  1.
         13    1    4    4    0    0  0.78621835716E+01  0.72220995051E+00  0.94200552098E+02  0.94530898109E+02  0.10566000000E+00 0.  1.
        -13    1    4    4    0    0  0.34838795342E+01  0.81021817037E+00  0.38733050148E+02  0.38897997479E+02  0.10566000000E+00 0. -1.
        -14    1    4    4    0    0  0.39459864358E+01  0.12030710721E+01  0.57451542846E+02  0.57599461494E+02  0.00000000000E+00 0.  1.
<mgrwt>
<rscale>  0 0.80441684E+02</rscale>
<asrwt>0</asrwt>
<pdfrwt beam="1">  1        2 0.30524712E-01 0.80441684E+02</pdfrwt>
<pdfrwt beam="2">  1       -1 0.12543653E-02 0.80441684E+02</pdfrwt>
<totfact> 0.21680164E+05</totfact>
</mgrwt>
</event>
<event>
 8    1  0.2561077E-024  0.7967651E+02  0.7818608E-02  0.1329972E+00
         -1   -1    0    0    0  501 -0.00000000000E+00  0.00000000000E+00  0.12420075311E+02  0.12420076333E+02  0.50400000000E-02 0.  1.
          2   -1    0    0  501    0  0.00000000000E+00 -0.00000000000E+00 -0.12778395462E+03  0.12778395465E+03  0.25500000000E-02 0. -1.
         24    2    1    2    0    0 -0.35527136788E-14 -0.71054273576E-14 -0.11536387931E+03  0.14020403098E+03  0.79676506284E+02 0.  0.
         66    2    3    3    0    0  0.22450553787E+02  0.32686919872E+02 -0.63969174383E+02  0.75289556827E+02  0.19999999737E+01 0.  0.
        -13    1    3    3    0    0 -0.22450553787E+02 -0.32686919872E+02 -0.51394704932E+02  0.64914474157E+02  0.10566000000E+00 0.  1.
         13    1    4    4    0    0  0.83536579850E+01  0.11491925301E+02 -0.22566224931E+02  0.26666338716E+02  0.10566000000E+00 0. -1.
        -13    1    4    4    0    0  0.12319485120E+02  0.18552018133E+02 -0.37078320859E+02  0.43252284705E+02  0.10566000000E+00 0.  1.
         14    1    4    4    0    0  0.17774106822E+01  0.26429764373E+01 -0.43246285935E+01  0.53709334061E+01  0.00000000000E+00 0. -1.
<mgrwt>
<rscale>  0 0.79676506E+02</rscale>
<asrwt>0</asrwt>
<pdfrwt beam="1">  1        2 0.19659069E-01 0.79676506E+02</pdfrwt>
<pdfrwt beam="2">  1       -1 0.19107810E-02 0.79676506E+02</pdfrwt>
<totfact> 0.19252223E+05</totfact>
</mgrwt>
</event>
<event>
 8    1  0.2561077E-024  0.7678958E+02  0.7818608E-02  0.1338417E+00
          2   -1    0    0  501    0  0.00000000000E+00  0.00000000000E+00  0.48576287788E+01  0.48576294481E+01  0.25500000000E-02 0. -1.
         -1   -1    0    0    0  501 -0.00000000000E+00 -0.00000000000E+00 -0.30347312136E+03  0.30347312140E+03  0.50400000000E-02 0.  1.
         24    2    1    2    0    0  0.00000000000E+00  0.00000000000E+00 -0.29861549258E+03  0.30833075085E+03  0.76789579438E+02 0.  0.
         66    2    3    3    0    0  0.37323222099E+02 -0.72558895772E+01 -0.12874507911E+03  0.13425709007E+03  0.19999992315E+01 0.  0.
        -13    1    3    3    0    0 -0.37323222099E+02  0.72558895772E+01 -0.16987041347E+03  0.17407366078E+03  0.10566000000E+00 0.  1.
         13    1    4    4    0    0  0.14446010998E+02 -0.21786583700E+01 -0.51037779905E+02  0.53087662670E+02  0.10566000000E+00 0. -1.
        -13    1    4    4    0    0  0.58848764390E+01 -0.14588635291E+01 -0.21441246069E+02  0.22282240698E+02  0.10566000000E+00 0.  1.
        -14    1    4    4    0    0  0.16992334662E+02 -0.36183676780E+01 -0.56266053137E+02  0.58887186701E+02  0.00000000000E+00 0.  1.
<mgrwt>
<rscale>  0 0.76789579E+02</rscale>
<asrwt>0</asrwt>
<pdfrwt beam="1">  1        2 0.74732780E-03 0.76789579E+02</pdfrwt>
<pdfrwt beam="2">  1       -1 0.46688158E-01 0.76789579E+02</pdfrwt>
<totfact> 0.95543761E+04</totfact>
</mgrwt>
</event>
<event>
 8    1  0.2561077E-024  0.7801540E+02  0.7818608E-02  0.1334780E+00
          2   -1    0    0  501    0  0.00000000000E+00  0.00000000000E+00  0.70668310518E+03  0.70668310518E+03  0.25500000000E-02 0. -1.
         -1   -1    0    0    0  501 -0.00000000000E+00 -0.00000000000E+00 -0.21531554804E+01  0.21531613791E+01  0.50400000000E-02 0.  1.
         24    2    1    2    0    0 -0.71054273576E-14  0.00000000000E+00  0.70452994970E+03  0.70883626656E+03  0.78015400866E+02 0.  0.
         66    2    3    3    0    0 -0.35260991051E+02  0.65458880560E+01  0.49130718451E+03  0.49261844838E+03  0.19999985886E+01 0.  0.
        -13    1    3    3    0    0  0.35260991051E+02 -0.65458880560E+01  0.21322276519E+03  0.21621781818E+03  0.10566000000E+00 0.  1.
         13    1    4    4    0    0 -0.53963300147E+01  0.10006393810E+01  0.77346254069E+02  0.77540801126E+02  0.10566000000E+00 0. -1.
        -13    1    4    4    0    0 -0.10130104566E+02  0.15371778478E+01  0.15021213896E+03  0.15056121609E+03  0.10566000000E+00 0.  1.
         14    1    4    4    0    0 -0.19734556470E+02  0.40080708272E+01  0.26374879148E+03  0.26451643117E+03  0.00000000000E+00 0. -1.
<mgrwt>
<rscale>  0 0.78015401E+02</rscale>
<asrwt>0</asrwt>
<pdfrwt beam="1">  1        2 0.10872043E+00 0.78015401E+02</pdfrwt>
<pdfrwt beam="2">  1       -1 0.33125529E-03 0.78015401E+02</pdfrwt>
<totfact> 0.35783078E+05</totfact>
</mgrwt>
</event>
<event>
 8    1  0.2561077E-024  0.7977220E+02  0.7818608E-02  0.1329699E+00
          2   -1    0    0  501    0  0.00000000000E+00  0.00000000000E+00  0.16674600139E+03  0.16674600141E+03  0.25500000000E-02 0. -1.
         -1   -1    0    0    0  501 -0.00000000000E+00 -0.00000000000E+00 -0.95408643717E+01  0.95408657029E+01  0.50400000000E-02 0.  1.
         24    2    1    2    0    0  0.35527136788E-14  0.71054273576E-14  0.15720513702E+03  0.17628686711E+03  0.79772203250E+02 0.  0.
         66    2    3    3    0    0  0.18150853156E+02  0.25847512879E+02  0.13239091675E+03  0.13612091033E+03  0.20000001280E+01 0.  0.
        -13    1    3    3    0    0 -0.18150853156E+02 -0.25847512879E+02  0.24814220273E+02  0.40165956781E+02  0.10566000000E+00 0.  1.
         13    1    4    4    0    0  0.18936321565E+00  0.21975859041E+00  0.17124267196E+01  0.17400349339E+01  0.10566000000E+00 0.  1.
        -13    1    4    4    0    0  0.52616029558E+01  0.70540488868E+01  0.34363570477E+02  0.35472668511E+02  0.10566000000E+00 0.  1.
         14    1    4    4    0    0  0.12699886984E+02  0.18573705402E+02  0.96314919550E+02  0.98908206888E+02  0.00000000000E+00 0. -1.
<mgrwt>
<rscale>  0 0.79772203E+02</rscale>
<asrwt>0</asrwt>
<pdfrwt beam="1">  1        2 0.25653228E-01 0.79772203E+02</pdfrwt>
<pdfrwt beam="2">  1       -1 0.14678256E-02 0.79772203E+02</pdfrwt>
<totfact> 0.20892700E+05</totfact>
</mgrwt>
</event>
<event>
 8    1  0.2561077E-024  0.7998704E+02  0.7818608E-02  0.1329088E+00
         -1   -1    0    0    0  501 -0.00000000000E+00  0.00000000000E+00  0.11751384085E+03  0.11751384096E+03  0.50400000000E-02 0.  1.
          2   -1    0    0  501    0  0.00000000000E+00 -0.00000000000E+00 -0.13611007261E+02  0.13611007499E+02  0.25500000000E-02 0. -1.
         24    2    1    2    0    0  0.35527136788E-14  0.00000000000E+00  0.10390283359E+03  0.13112484846E+03  0.79987043047E+02 0.  0.
         66    2    3    3    0    0  0.30721571616E+02  0.14856402975E+02  0.17873643346E+02  0.38574535601E+02  0.19999996191E+01 0.  0.
        -13    1    3    3    0    0 -0.30721571616E+02 -0.14856402975E+02  0.86029190248E+02  0.92550312861E+02  0.10566000000E+00 0.  1.
         13    1    4    4    0    0  0.26105261742E+01  0.15954910386E+01  0.13253715875E+01  0.33358975465E+01  0.10566000000E+00 0. -1.
        -13    1    4    4    0    0  0.13845113112E+01  0.87125637592E+00  0.64658698044E+00  0.17621572013E+01  0.10566000000E+00 0.  1.
        -14    1    4    4    0    0  0.26726534131E+02  0.12389655560E+02  0.15901684778E+02  0.33476480853E+02  0.00000000000E+00 0.  1.
<mgrwt>
<rscale>  0 0.79987043E+02</rscale>
<asrwt>0</asrwt>
<pdfrwt beam="1">  1        2 0.20940011E-02 0.79987043E+02</pdfrwt>
<pdfrwt beam="2">  1       -1 0.18079053E-01 0.79987043E+02</pdfrwt>
<totfact> 0.11443586E+05</totfact>
</mgrwt>
</event>
<event>
 8    1  0.2561077E-024  0.7851957E+02  0.7818608E-02  0.1333306E+00
          2   -1    0    0  501    0  0.00000000000E+00  0.00000000000E+00  0.18827718907E+02  0.18827719080E+02  0.25500000000E-02 0. -1.
         -1   -1    0    0    0  501 -0.00000000000E+00 -0.00000000000E+00 -0.81864977177E+02  0.81864977332E+02  0.50400000000E-02 0.  1.
         24    2    1    2    0    0 -0.35527136788E-14  0.17763568394E-14 -0.63037258269E+02  0.10069269641E+03  0.78519571959E+02 0.  0.
         66    2    3    3    0    0  0.25863096318E+02 -0.97675150896E+01  0.41617006372E+01  0.28028982329E+02  0.19999989992E+01 0.  0.
        -13    1    3    3    0    0 -0.25863096318E+02  0.97675150896E+01 -0.67198958907E+02  0.72663714083E+02  0.10566000000E+00 0.  1.
         13    1    4    4    0    0  0.18028064469E+02 -0.58453073848E+01  0.29647474235E+01  0.19182794850E+02  0.10566000000E+00 0. -1.
        -13    1    4    4    0    0  0.18340125034E+01 -0.89683388508E+00  0.29256901645E+00  0.20651086037E+01  0.10566000000E+00 0. -1.
         14    1    4    4    0    0  0.60010193458E+01 -0.30253738197E+01  0.90438419727E+00  0.67810788754E+01  0.00000000000E+00 0. -1.
<mgrwt>
<rscale>  0 0.78519572E+02</rscale>
<asrwt>0</asrwt>
<pdfrwt beam="1">  1        2 0.28965722E-02 0.78519572E+02</pdfrwt>
<pdfrwt beam="2">  1       -1 0.12594612E-01 0.78519572E+02</pdfrwt>
<totfact> 0.12941549E+05</totfact>
</mgrwt>
</event>
<event>
 8    1  0.2561077E-024  0.8298358E+02  0.7818608E-02  0.1320792E+00
         -1   -1    0    0    0  501 -0.00000000000E+00  0.00000000000E+00  0.21752884545E+03  0.21752884551E+03  0.50400000000E-02 0.  1.
          2   -1    0    0  501    0  0.00000000000E+00 -0.00000000000E+00 -0.79142074596E+01  0.79142078704E+01  0.25500000000E-02 0. -1.
         24    2    1    2    0    0  0.88817841970E-15 -0.35527136788E-14  0.20961463799E+03  0.22544305338E+03  0.82983575827E+02 0.  0.
         66    2    3    3    0    0 -0.73974140152E+01  0.30016213390E+02  0.29782877126E+02  0.42973417055E+02  0.20000007869E+01 0.  0.
        -13    1    3    3    0    0  0.73974140152E+01 -0.30016213390E+02  0.17983176087E+03  0.18246963633E+03  0.10566000000E+00 0.  1.
         13    1    4    4    0    0 -0.89678677987E+00  0.22991638691E+01  0.25308176161E+01  0.35364647414E+01  0.10566000000E+00 0. -1.
        -13    1    4    4    0    0 -0.37993663685E+01  0.19083469789E+02  0.18792391404E+02  0.27051416649E+02  0.10566000000E+00 0.  1.
         14    1    4    4    0    0 -0.27012608669E+01  0.86335797312E+01  0.84596681056E+01  0.12385535665E+02  0.00000000000E+00 0. -1.
<mgrwt>
<rscale>  0 0.82983576E+02</rscale>
<asrwt>0</asrwt>
<pdfrwt beam="1">  1        2 0.12175702E-02 0.82983576E+02</pdfrwt>
<pdfrwt beam="2">  1       -1 0.33465983E-01 0.82983576E+02</pdfrwt>
<totfact> 0.88379179E+04</totfact>
</mgrwt>
</event>
<event>
 8    1  0.2561077E-024  0.8044107E+02  0.7818608E-02  0.1327804E+00
          2   -1    0    0  501    0  0.00000000000E+00  0.00000000000E+00  0.24505899166E+03  0.24505899167E+03  0.25500000000E-02 0. -1.
         -1   -1    0    0    0  501 -0.00000000000E+00 -0.00000000000E+00 -0.66012319135E+01  0.66012338375E+01  0.50400000000E-02 0.  1.
         24    2    1    2    0    0  0.00000000000E+00 -0.44408920985E-15  0.23845775974E+03  0.25166022551E+03  0.80441071107E+02 0.  0.
         66    2    3    3    0    0 -0.40095235365E+02  0.27080163286E+01  0.12196668454E+03  0.12843221320E+03  0.19999995569E+01 0.  0.
        -13    1    3    3    0    0  0.40095235365E+02 -0.27080163286E+01  0.11649107521E+03  0.12322801231E+03  0.10566000000E+00 0.  1.
         13    1    4    4    0    0 -0.29013917650E+02  0.18306988598E+01  0.89556582415E+02  0.94157057588E+02  0.10566000000E+00 0. -1.
        -13    1    4    4    0    0 -0.40886189125E+01  0.55725258128E-01  0.10911251556E+02  0.11652745791E+02  0.10566000000E+00 0.  1.
        -14    1    4    4    0    0 -0.69926988020E+01  0.82159221071E+00  0.21498850569E+02  0.22622409820E+02  0.00000000000E+00 0.  1.
<mgrwt>
<rscale>  0 0.80441071E+02</rscale>
<asrwt>0</asrwt>
<pdfrwt beam="1">  1        2 0.37701383E-01 0.80441071E+02</pdfrwt>
<pdfrwt beam="2">  1       -1 0.10155743E-02 0.80441071E+02</pdfrwt>
<totfact> 0.23358173E+05</totfact>
</mgrwt>
</event>
<event>
 8    1  0.2561077E-024  0.8256951E+02  0.7818608E-02  0.1321914E+00
          2   -1    0    0  501    0  0.00000000000E+00  0.00000000000E+00  0.53890642440E+01  0.53890648473E+01  0.25500000000E-02 0. -1.
         -1   -1    0    0    0  501 -0.00000000000E+00 -0.00000000000E+00 -0.31627582885E+03  0.31627582889E+03  0.50400000000E-02 0.  1.
         24    2    1    2    0    0  0.00000000000E+00  0.00000000000E+00 -0.31088676460E+03  0.32166489374E+03  0.82569506816E+02 0.  0.
         66    2    3    3    0    0  0.38722433315E+02  0.27143507648E+01 -0.10104603779E+03  0.10826401198E+03  0.19999985387E+01 0.  0.
        -13    1    3    3    0    0 -0.38722433315E+02 -0.27143507648E+01 -0.20984072681E+03  0.21340088176E+03  0.10566000000E+00 0.  1.
         13    1    4    4    0    0  0.16868417642E+02  0.71502316271E+00 -0.42293938890E+02  0.45539468626E+02  0.10566000000E+00 0. -1.
        -13    1    4    4    0    0  0.13309171717E+02  0.16930906117E+01 -0.35815989345E+02  0.38246527481E+02  0.10566000000E+00 0.  1.
         14    1    4    4    0    0  0.85448439564E+01  0.30623699037E+00 -0.22936109560E+02  0.24478015873E+02  0.00000000000E+00 0. -1.
<mgrwt>
<rscale>  0 0.82569507E+02</rscale>
<asrwt>0</asrwt>
<pdfrwt beam="1">  1        2 0.82908710E-03 0.82569507E+02</pdfrwt>
<pdfrwt beam="2">  1       -1 0.48657806E-01 0.82569507E+02</pdfrwt>
<totfact> 0.77969223E+04</totfact>
</mgrwt>
</event>
<event>
 8    1  0.2561077E-024  0.7910859E+02  0.7818608E-02  0.1331600E+00
          2   -1    0    0  501    0  0.00000000000E+00  0.00000000000E+00  0.22269370952E+03  0.22269370954E+03  0.25500000000E-02 0. -1.
         -1   -1    0    0    0  501 -0.00000000000E+00 -0.00000000000E+00 -0.70255325909E+01  0.70255343987E+01  0.50400000000E-02 0.  1.
         24    2    1    2    0    0 -0.71054273576E-14  0.17763568394E-14  0.21566817693E+03  0.22971924394E+03  0.79108586724E+02 0.  0.
         66    2    3    3    0    0  0.26321384756E+02 -0.13311080954E+02  0.18432074553E+03  0.18667655825E+03  0.19999989273E+01 0.  0.
        -13    1    3    3    0    0 -0.26321384756E+02  0.13311080954E+02  0.31347431407E+02  0.43042685691E+02  0.10566000000E+00 0.  1.
         13    1    4    4    0    0  0.27096724691E+01 -0.99057359866E+00  0.18703178211E+02  0.18924682300E+02  0.10566000000E+00 0. -1.
        -13    1    4    4    0    0  0.18731824174E+02 -0.97410019395E+01  0.13491649602E+03  0.13655856040E+03  0.10566000000E+00 0.  1.
        -14    1    4    4    0    0  0.48798881127E+01 -0.25795054158E+01  0.30701071294E+02  0.31193315547E+02  0.00000000000E+00 0.  1.
<mgrwt>
<rscale>  0 0.79108587E+02</rscale>
<asrwt>0</asrwt>
<pdfrwt beam="1">  1        2 0.34260576E-01 0.79108587E+02</pdfrwt>
<pdfrwt beam="2">  1       -1 0.10808511E-02 0.79108587E+02</pdfrwt>
<totfact> 0.23591146E+05</totfact>
</mgrwt>
</event>
<event>
 8    1  0.2561077E-024  0.8015554E+02  0.7818608E-02  0.1328611E+00
         -1   -1    0    0    0  501 -0.00000000000E+00  0.00000000000E+00  0.18430271710E+02  0.18430272399E+02  0.50400000000E-02 0.  1.
          2   -1    0    0  501    0  0.00000000000E+00 -0.00000000000E+00 -0.87151600118E+02  0.87151600156E+02  0.25500000000E-02 0. -1.
         24    2    1    2    0    0  0.00000000000E+00  0.00000000000E+00 -0.68721328408E+02  0.10558187256E+03  0.80155541506E+02 0.  0.
         66    2    3    3    0    0 -0.12511664712E+02 -0.36877779244E+02 -0.46718194727E+02  0.60853118810E+02  0.19999986109E+01 0.  0.
        -13    1    3    3    0    0  0.12511664712E+02  0.36877779244E+02 -0.22003133681E+02  0.44728753745E+02  0.10566000000E+00 0.  1.
         13    1    4    4    0    0 -0.73526706374E+01 -0.19490581454E+02 -0.25421229787E+02  0.32866314348E+02  0.10566000000E+00 0. -1.
        -13    1    4    4    0    0 -0.46365050740E+01 -0.15255535205E+02 -0.18297365566E+02  0.24270007919E+02  0.10566000000E+00 0.  1.
         14    1    4    4    0    0 -0.52248900038E+00 -0.21316625854E+01 -0.29995993739E+01  0.37167965423E+01  0.00000000000E+00 0. -1.
<mgrwt>
<rscale>  0 0.80155542E+02</rscale>
<asrwt>0</asrwt>
<pdfrwt beam="1">  1        2 0.13407938E-01 0.80155542E+02</pdfrwt>
<pdfrwt beam="2">  1       -1 0.28354265E-02 0.80155542E+02</pdfrwt>
<totfact> 0.16984363E+05</totfact>
</mgrwt>
</event>
<event>
 8    1  0.2561077E-024  0.8081499E+02  0.7818608E-02  0.1326754E+00
          2   -1    0    0  501    0  0.00000000000E+00  0.00000000000E+00  0.48621140942E+02  0.48621141009E+02  0.25500000000E-02 0. -1.
         -1   -1    0    0    0  501 -0.00000000000E+00 -0.00000000000E+00 -0.33581393928E+02  0.33581394306E+02  0.50400000000E-02 0.  1.
         24    2    1    2    0    0  0.35527136788E-14  0.00000000000E+00  0.15039747014E+02  0.82202535315E+02  0.80814991320E+02 0.  0.
         66    2    3    3    0    0  0.19206443553E+02 -0.17845434048E+02  0.38766865805E+02  0.46842468567E+02  0.19999966917E+01 0.  0.
        -13    1    3    3    0    0 -0.19206443553E+02  0.17845434048E+02 -0.23727118791E+02  0.35360066749E+02  0.10566000000E+00 0.  1.
         13    1    4    4    0    0  0.64274392184E+01 -0.61657229394E+01  0.14577098195E+02  0.17083063838E+02  0.10566000000E+00 0. -1.
        -13    1    4    4    0    0  0.75613867924E+01 -0.69572239554E+01  0.13628559617E+02  0.17068284526E+02  0.10566000000E+00 0.  1.
        -14    1    4    4    0    0  0.52176175424E+01 -0.47224871529E+01  0.10561207994E+02  0.12691120203E+02  0.00000000000E+00 0.  1.
<mgrwt>
<rscale>  0 0.80814991E+02</rscale>
<asrwt>0</asrwt>
<pdfrwt beam="1">  1        2 0.74801755E-02 0.80814991E+02</pdfrwt>
<pdfrwt beam="2">  1       -1 0.51663684E-02 0.80814991E+02</pdfrwt>
<totfact> 0.14445253E+05</totfact>
</mgrwt>
</event>
<event>
 8    1  0.2561077E-024  0.7918594E+02  0.7818608E-02  0.1331378E+00
         -1   -1    0    0    0  501 -0.00000000000E+00  0.00000000000E+00  0.47667693455E+02  0.47667693722E+02  0.50400000000E-02 0.  1.
          2   -1    0    0  501    0  0.00000000000E+00 -0.00000000000E+00 -0.32886069146E+02  0.32886069245E+02  0.25500000000E-02 0. -1.
         24    2    1    2    0    0  0.00000000000E+00  0.00000000000E+00  0.14781624309E+02  0.80553762967E+02  0.79185935057E+02 0.  0.
         66    2    3    3    0    0 -0.67184722973E+01  0.82866875582E+01 -0.31365028716E+02  0.33189939112E+02  0.19999927949E+01 0.  0.
        -13    1    3    3    0    0  0.67184722973E+01 -0.82866875582E+01  0.46146653025E+02  0.47363823855E+02  0.10566000000E+00 0.  1.
         13    1    4    4    0    0 -0.26723137791E+01  0.42543971749E+01 -0.13461933646E+02  0.14369271999E+02  0.10566000000E+00 0. -1.
        -13    1    4    4    0    0 -0.18904700481E+01  0.25522960785E+01 -0.10422866265E+02  0.10896577329E+02  0.10566000000E+00 0.  1.
        -14    1    4    4    0    0 -0.21556884701E+01  0.14799943048E+01 -0.74802288049E+01  0.79240897835E+01  0.00000000000E+00 0.  1.
<mgrwt>
<rscale>  0 0.79185935E+02</rscale>
<asrwt>0</asrwt>
<pdfrwt beam="1">  1        2 0.50593953E-02 0.79185935E+02</pdfrwt>
<pdfrwt beam="2">  1       -1 0.73334913E-02 0.79185935E+02</pdfrwt>
<totfact> 0.14098630E+05</totfact>
</mgrwt>
</event>
<event>
 8    1  0.2561077E-024  0.7992784E+02  0.7818608E-02  0.1329256E+00
          2   -1    0    0  501    0  0.00000000000E+00  0.00000000000E+00  0.39367769539E+02  0.39367769622E+02  0.25500000000E-02 0. -1.
         -1   -1    0    0    0  501 -0.00000000000E+00 -0.00000000000E+00 -0.40569093944E+02  0.40569094257E+02  0.50400000000E-02 0.  1.
         24    2    1    2    0    0  0.00000000000E+00  0.00000000000E+00 -0.12013244047E+01  0.79936863879E+02  0.79927836368E+02 0.  0.
         66    2    3    3    0    0  0.10468825020E+02  0.35966984953E+02  0.13252945672E+02  0.39785184071E+02  0.19999996744E+01 0.  0.
        -13    1    3    3    0    0 -0.10468825020E+02 -0.35966984953E+02 -0.14454270077E+02  0.40151679808E+02  0.10566000000E+00 0.  1.
         13    1    4    4    0    0  0.14351621840E+01  0.68800466663E+01  0.28068731266E+01  0.75686480569E+01  0.10566000000E+00 0. -1.
        -13    1    4    4    0    0  0.44882319211E+01  0.12695630847E+02  0.45878195101E+01  0.14226121055E+02  0.10566000000E+00 0. -1.
        -14    1    4    4    0    0  0.45454309148E+01  0.16391307439E+02  0.58582530357E+01  0.17990414959E+02  0.00000000000E+00 0.  1.
<mgrwt>
<rscale>  0 0.79927836E+02</rscale>
<asrwt>0</asrwt>
<pdfrwt beam="1">  1        2 0.60565800E-02 0.79927836E+02</pdfrwt>
<pdfrwt beam="2">  1       -1 0.62413991E-02 0.79927836E+02</pdfrwt>
<totfact> 0.14244224E+05</totfact>
</mgrwt>
</event>
<event>
 8    1  0.2561077E-024  0.7916460E+02  0.7818608E-02  0.1331439E+00
          2   -1    0    0  501    0  0.00000000000E+00  0.00000000000E+00  0.28756115468E+03  0.28756115470E+03  0.25500000000E-02 0. -1.
         -1   -1    0    0    0  501 -0.00000000000E+00 -0.00000000000E+00 -0.54484346864E+01  0.54484370175E+01  0.50400000000E-02 0.  1.
         24    2    1    2    0    0  0.00000000000E+00  0.00000000000E+00  0.28211272000E+03  0.29300959171E+03  0.79164600998E+02 0.  0.
         66    2    3    3    0    0  0.25167396279E+01 -0.30432600484E+02  0.23421497951E+03  0.23620570225E+03  0.19999990820E+01 0.  0.
        -13    1    3    3    0    0 -0.25167396279E+01  0.30432600484E+02  0.47897740486E+02  0.56803889464E+02  0.10566000000E+00 0.  1.
         13    1    4    4    0    0  0.20083013855E+01 -0.20392102463E+02  0.15240221359E+03  0.15377359002E+03  0.10566000000E+00 0. -1.
        -13    1    4    4    0    0  0.10536642548E+00 -0.35129519955E+00  0.37186861779E+01  0.37382216796E+01  0.10566000000E+00 0.  1.
         14    1    4    4    0    0  0.40307181689E+00 -0.96892028217E+01  0.78094079749E+02  0.78693890551E+02  0.00000000000E+00 0. -1.
<mgrwt>
<rscale>  0 0.79164601E+02</rscale>
<asrwt>0</asrwt>
<pdfrwt beam="1">  1        2 0.44240174E-01 0.79164601E+02</pdfrwt>
<pdfrwt beam="2">  1       -1 0.83822098E-03 0.79164601E+02</pdfrwt>
<totfact> 0.25807024E+05</totfact>
</mgrwt>
</event>
<event>
 8    1  0.2561077E-024  0.7950872E+02  0.7818608E-02  0.1330451E+00
          2   -1    0    0  501    0  0.00000000000E+00  0.00000000000E+00  0.11657058073E+03  0.11657058076E+03  0.25500000000E-02 0. -1.
         -1   -1    0    0    0  501 -0.00000000000E+00 -0.00000000000E+00 -0.13557528118E+02  0.13557529055E+02  0.50400000000E-02 0.  1.
         24    2    1    2    0    0  0.71054273576E-14  0.17763568394E-14  0.10301305261E+03  0.13012810982E+03  0.79508716222E+02 0.  0.
         66    2    3    3    0    0 -0.37861858417E+02 -0.11402080089E+02  0.57851557344E+02  0.70102285604E+02  0.20000016770E+01 0.  0.
        -13    1    3    3    0    0  0.37861858417E+02  0.11402080089E+02  0.45161495271E+02  0.60025824211E+02  0.10566000000E+00 0.  1.
         13    1    4    4    0    0 -0.31877101551E+01 -0.52423287238E+00  0.42400129643E+01  0.53315279339E+01  0.10566000000E+00 0.  1.
        -13    1    4    4    0    0 -0.18198090401E+02 -0.54810822854E+01  0.28452030673E+02  0.34216106891E+02  0.10566000000E+00 0. -1.
        -14    1    4    4    0    0 -0.16476057860E+02 -0.53967649317E+01  0.25159513706E+02  0.30554650780E+02  0.00000000000E+00 0.  1.
<mgrwt>
<rscale>  0 0.79508716E+02</rscale>
<asrwt>0</asrwt>
<pdfrwt beam="1">  1        2 0.17933936E-01 0.79508716E+02</pdfrwt>
<pdfrwt beam="2">  1       -1 0.20857736E-02 0.79508716E+02</pdfrwt>
<totfact> 0.18832979E+05</totfact>
</mgrwt>
</event>
<event>
 8    1  0.2561077E-024  0.8116977E+02  0.7818608E-02  0.1325764E+00
          2   -1    0    0  501    0  0.00000000000E+00  0.00000000000E+00  0.20412392621E+03  0.20412392622E+03  0.25500000000E-02 0. -1.
         -1   -1    0    0    0  501 -0.00000000000E+00 -0.00000000000E+00 -0.80692789527E+01  0.80692805266E+01  0.50400000000E-02 0.  1.
         24    2    1    2    0    0  0.00000000000E+00  0.00000000000E+00  0.19605464725E+03  0.21219320675E+03  0.81169774428E+02 0.  0.
         66    2    3    3    0    0 -0.30784804256E+02  0.19790840679E+02  0.14379737617E+03  0.14839496936E+03  0.19999981093E+01 0.  0.
        -13    1    3    3    0    0  0.30784804256E+02 -0.19790840679E+02  0.52257271088E+02  0.63798237385E+02  0.10566000000E+00 0.  1.
         13    1    4    4    0    0 -0.15124420991E+02  0.10300317694E+02  0.73193631683E+02  0.75446428265E+02  0.10566000000E+00 0. -1.
        -13    1    4    4    0    0 -0.10308214688E+01  0.77713351104E+00  0.60201611108E+01  0.61579244255E+01  0.10566000000E+00 0. -1.
         14    1    4    4    0    0 -0.14629561796E+02  0.87133894738E+01  0.64583583373E+02  0.66790616674E+02  0.00000000000E+00 0. -1.
<mgrwt>
<rscale>  0 0.81169774E+02</rscale>
<asrwt>0</asrwt>
<pdfrwt beam="1">  1        2 0.31403679E-01 0.81169774E+02</pdfrwt>
<pdfrwt beam="2">  1       -1 0.12414278E-02 0.81169774E+02</pdfrwt>
<totfact> 0.21380582E+05</totfact>
</mgrwt>
</event>
<event>
 8    1  0.2561077E-024  0.7970681E+02  0.7818608E-02  0.1329886E+00
         -1   -1    0    0    0  501 -0.00000000000E+00  0.00000000000E+00  0.18164021805E+01  0.18164091727E+01  0.50400000000E-02 0.  1.
          2   -1    0    0  501    0  0.00000000000E+00 -0.00000000000E+00 -0.87441572318E+03  0.87441572319E+03  0.25500000000E-02 0. -1.
         24    2    1    2    0    0  0.00000000000E+00  0.00000000000E+00 -0.87259932100E+03  0.87623213236E+03  0.79706805011E+02 0.  0.
         66    2    3    3    0    0 -0.21885217750E+02  0.54484983581E+01 -0.79745174627E+03  0.79777311094E+03  0.20000037283E+01 0.  0.
        -13    1    3    3    0    0  0.21885217750E+02 -0.54484983581E+01 -0.75147574731E+02  0.78459021421E+02  0.10566000000E+00 0.  1.
         13    1    4    4    0    0 -0.11398830032E+02  0.29824697945E+01 -0.43066077048E+03  0.43082193403E+03  0.10566000000E+00 0. -1.
        -13    1    4    4    0    0 -0.94730157023E+01  0.18398127125E+01 -0.32622116580E+03  0.32636388145E+03  0.10566000000E+00 0.  1.
        -14    1    4    4    0    0 -0.10133720160E+01  0.62621585111E+00 -0.40569809995E+02  0.40587295453E+02  0.00000000000E+00 0.  1.
<mgrwt>
<rscale>  0 0.79706805E+02</rscale>
<asrwt>0</asrwt>
<pdfrwt beam="1">  1        2 0.13452516E+00 0.79706805E+02</pdfrwt>
<pdfrwt beam="2">  1       -1 0.27944773E-03 0.79706805E+02</pdfrwt>
<totfact> 0.35161092E+05</totfact>
</mgrwt>
</event>
<event>
 8    1  0.2561077E-024  0.7787578E+02  0.7818608E-02  0.1335190E+00
          2   -1    0    0  501    0  0.00000000000E+00  0.00000000000E+00  0.42106660652E+03  0.42106660653E+03  0.25500000000E-02 0. -1.
         -1   -1    0    0    0  501 -0.00000000000E+00 -0.00000000000E+00 -0.36007566946E+01  0.36007602218E+01  0.50400000000E-02 0.  1.
         24    2    1    2    0    0 -0.71054273576E-14  0.00000000000E+00  0.41746584982E+03  0.42466736675E+03  0.77875776796E+02 0.  0.
         66    2    3    3    0    0 -0.24875173201E+02 -0.22786478584E+02  0.31463247187E+03  0.31644208027E+03  0.19999904382E+01 0.  0.
        -13    1    3    3    0    0  0.24875173201E+02  0.22786478584E+02  0.10283337795E+03  0.10822528648E+03  0.10566000000E+00 0.  1.
         13    1    4    4    0    0 -0.46755123000E+01 -0.50595879167E+01  0.65344717164E+02  0.65706948418E+02  0.10566000000E+00 0.  1.
        -13    1    4    4    0    0 -0.50219887071E+01 -0.50999759991E+01  0.66941327861E+02  0.67322972793E+02  0.10566000000E+00 0. -1.
        -14    1    4    4    0    0 -0.15177672194E+02 -0.12626914668E+02  0.18234642685E+03  0.18341215906E+03  0.00000000000E+00 0.  1.
<mgrwt>
<rscale>  0 0.77875777E+02</rscale>
<asrwt>0</asrwt>
<pdfrwt beam="1">  1        2 0.64779448E-01 0.77875777E+02</pdfrwt>
<pdfrwt beam="2">  1       -1 0.55396310E-03 0.77875777E+02</pdfrwt>
<totfact> 0.30851734E+05</totfact>
</mgrwt>
</event>
<event>
 8    1  0.2561077E-024  0.8011505E+02  0.7818608E-02  0.1328725E+00
          2   -1    0    0  501    0  0.00000000000E+00  0.00000000000E+00  0.45407539744E+03  0.45407539745E+03  0.25500000000E-02 0. -1.
         -1   -1    0    0    0  501 -0.00000000000E+00 -0.00000000000E+00 -0.35337841666E+01  0.35337877607E+01  0.50400000000E-02 0.  1.
         24    2    1    2    0    0  0.00000000000E+00  0.00000000000E+00  0.45054161328E+03  0.45760918521E+03  0.80115049121E+02 0.  0.
         66    2    3    3    0    0  0.20862931344E+02 -0.20996526436E+02  0.37936578511E+03  0.38052400048E+03  0.19999995558E+01 0.  0.
        -13    1    3    3    0    0 -0.20862931344E+02  0.20996526436E+02  0.71175828164E+02  0.77085184734E+02  0.10566000000E+00 0.  1.
         13    1    4    4    0    0  0.15500079496E+02 -0.15365449712E+02  0.28727278958E+03  0.28810070515E+03  0.10566000000E+00 0. -1.
        -13    1    4    4    0    0  0.46016880504E+01 -0.44731801475E+01  0.74794586700E+02  0.75069476069E+02  0.10566000000E+00 0.  1.
        -14    1    4    4    0    0  0.76116379768E+00 -0.11578965760E+01  0.17298408829E+02  0.17353819258E+02  0.00000000000E+00 0.  1.
<mgrwt>
<rscale>  0 0.80115049E+02</rscale>
<asrwt>0</asrwt>
<pdfrwt beam="1">  1        2 0.69857751E-01 0.80115049E+02</pdfrwt>
<pdfrwt beam="2">  1       -1 0.54365940E-03 0.80115049E+02</pdfrwt>
<totfact> 0.29397062E+05</totfact>
</mgrwt>
</event>
<event>
 8    1  0.2561077E-024  0.7826851E+02  0.7818608E-02  0.1334038E+00
         -1   -1    0    0    0  501 -0.00000000000E+00  0.00000000000E+00  0.22847304388E+02  0.22847304944E+02  0.50400000000E-02 0.  1.
          2   -1    0    0  501    0  0.00000000000E+00 -0.00000000000E+00 -0.67031530939E+02  0.67031530988E+02  0.25500000000E-02 0. -1.
         24    2    1    2    0    0 -0.88817841970E-15  0.00000000000E+00 -0.44184226551E+02  0.89878835932E+02  0.78268507540E+02 0.  0.
         66    2    3    3    0    0 -0.41704953546E+01  0.35047923819E+02 -0.41449628603E+02  0.54477717511E+02  0.19999995812E+01 0.  0.
        -13    1    3    3    0    0  0.41704953546E+01 -0.35047923819E+02 -0.27345979475E+01  0.35401118421E+02  0.10566000000E+00 0.  1.
         13    1    4    4    0    0 -0.30650818168E+01  0.17982019510E+02 -0.21431221009E+02  0.28143492146E+02  0.10566000000E+00 0. -1.
        -13    1    4    4    0    0 -0.36871427980E+00  0.96295677403E+01 -0.11327471384E+02  0.14872366896E+02  0.10566000000E+00 0.  1.
         14    1    4    4    0    0 -0.73669925795E+00  0.74363365686E+01 -0.86909362104E+01  0.11461858469E+02  0.00000000000E+00 0. -1.
<mgrwt>
<rscale>  0 0.78268508E+02</rscale>
<asrwt>0</asrwt>
<pdfrwt beam="1">  1        2 0.10312543E-01 0.78268508E+02</pdfrwt>
<pdfrwt beam="2">  1       -1 0.35149700E-02 0.78268508E+02</pdfrwt>
<totfact> 0.16952807E+05</totfact>
</mgrwt>
</event>
<event>
 8    1  0.2561077E-024  0.8113412E+02  0.7818608E-02  0.1325863E+00
         -1   -1    0    0    0  501 -0.00000000000E+00  0.00000000000E+00  0.49632696083E+02  0.49632696339E+02  0.50400000000E-02 0.  1.
          2   -1    0    0  501    0  0.00000000000E+00 -0.00000000000E+00 -0.33157302224E+02  0.33157302322E+02  0.25500000000E-02 0. -1.
         24    2    1    2    0    0  0.35527136788E-14 -0.71054273576E-14  0.16475393859E+02  0.82789998661E+02  0.81134119059E+02 0.  0.
         66    2    3    3    0    0  0.26539387731E+02 -0.30533915090E+02  0.55386486983E+01  0.40881972812E+02  0.19999999219E+01 0.  0.
        -13    1    3    3    0    0 -0.26539387731E+02  0.30533915090E+02  0.10936745160E+02  0.41908025850E+02  0.10566000000E+00 0.  1.
         13    1    4    4    0    0  0.23366121287E+02 -0.26627441840E+02  0.51218806679E+01  0.35794428457E+02  0.10566000000E+00 0. -1.
        -13    1    4    4    0    0  0.18795214103E+01 -0.24284783613E+01  0.53866384527E+00  0.31195241074E+01  0.10566000000E+00 0.  1.
         14    1    4    4    0    0  0.12937450338E+01 -0.14779948884E+01 -0.12189581489E+00  0.19680202469E+01  0.00000000000E+00 0. -1.
<mgrwt>
<rscale>  0 0.81134119E+02</rscale>
<asrwt>0</asrwt>
<pdfrwt beam="1">  1        2 0.51011235E-02 0.81134119E+02</pdfrwt>
<pdfrwt beam="2">  1       -1 0.76357994E-02 0.81134119E+02</pdfrwt>
<totfact> 0.13195823E+05</totfact>
</mgrwt>
</event>
<event>
 8    1  0.2561077E-024  0.7935277E+02  0.7818608E-02  0.1330898E+00
         -1   -1    0    0    0  501 -0.00000000000E+00  0.00000000000E+00  0.14659810031E+01  0.14659896668E+01  0.50400000000E-02 0.  1.
          2   -1    0    0  501    0  0.00000000000E+00 -0.00000000000E+00 -0.10738275177E+04  0.10738275178E+04  0.25500000000E-02 0. -1.
         24    2    1    2    0    0 -0.17763568394E-14 -0.17763568394E-14 -0.10723615367E+04  0.10752935074E+04  0.79352766840E+02 0.  0.
         66    2    3    3    0    0 -0.87681294485E+01 -0.12470923054E+02 -0.10325253333E+04  0.10326398055E+04  0.20000100925E+01 0.  0.
        -13    1    3    3    0    0  0.87681294485E+01  0.12470923054E+02 -0.39836203435E+02  0.42653701879E+02  0.10566000000E+00 0.  1.
         13    1    4    4    0    0 -0.41107633227E+01 -0.49019383011E+01 -0.46836283759E+03  0.46840653942E+03  0.10566000000E+00 0. -1.
        -13    1    4    4    0    0 -0.10138908616E+00 -0.47432851191E+00 -0.26242404119E+02  0.26247098988E+02  0.10566000000E+00 0.  1.
         14    1    4    4    0    0 -0.45559770397E+01 -0.70946562412E+01 -0.53792009160E+03  0.53798616713E+03  0.00000000000E+00 0. -1.
<mgrwt>
<rscale>  0 0.79352767E+02</rscale>
<asrwt>0</asrwt>
<pdfrwt beam="1">  1        2 0.16520360E+00 0.79352767E+02</pdfrwt>
<pdfrwt beam="2">  1       -1 0.22553706E-03 0.79352767E+02</pdfrwt>
<totfact> 0.36021706E+05</totfact>
</mgrwt>
</event>
<event>
 8    1  0.2561077E-024  0.8347609E+02  0.7818608E-02  0.1319467E+00
         -1   -1    0    0    0  501 -0.00000000000E+00  0.00000000000E+00  0.67916955481E+01  0.67916974181E+01  0.50400000000E-02 0.  1.
          2   -1    0    0  501    0  0.00000000000E+00 -0.00000000000E+00 -0.25649914658E+03  0.25649914659E+03  0.25500000000E-02 0. -1.
         24    2    1    2    0    0  0.00000000000E+00  0.00000000000E+00 -0.24970745103E+03  0.26329084401E+03  0.83476089025E+02 0.  0.
         66    2    3    3    0    0 -0.99881005141E+01 -0.21978156132E+02 -0.23222247993E+03  0.23348250831E+03  0.20000006538E+01 0.  0.
        -13    1    3    3    0    0  0.99881005141E+01  0.21978156132E+02 -0.17484971102E+02  0.29808335702E+02  0.10566000000E+00 0.  1.
         13    1    4    4    0    0 -0.25411032105E+01 -0.69268665926E+01 -0.76582925859E+02  0.76937600583E+02  0.10566000000E+00 0. -1.
        -13    1    4    4    0    0 -0.42837755896E+01 -0.78905760551E+01 -0.84955145227E+02  0.85428331298E+02  0.10566000000E+00 0.  1.
         14    1    4    4    0    0 -0.31632217140E+01 -0.71607134842E+01 -0.70684408839E+02  0.71116576423E+02  0.00000000000E+00 0. -1.
<mgrwt>
<rscale>  0 0.83476089E+02</rscale>
<asrwt>0</asrwt>
<pdfrwt beam="1">  1        2 0.39461400E-01 0.83476089E+02</pdfrwt>
<pdfrwt beam="2">  1       -1 0.10448766E-02 0.83476089E+02</pdfrwt>
<totfact> 0.21536341E+05</totfact>
</mgrwt>
</event>
<event>
 8    1  0.2561077E-024  0.8177708E+02  0.7818608E-02  0.1324083E+00
         -1   -1    0    0    0  501 -0.00000000000E+00  0.00000000000E+00  0.25433421707E+01  0.25433471645E+01  0.50400000000E-02 0.  1.
          2   -1    0    0  501    0  0.00000000000E+00 -0.00000000000E+00 -0.65735207643E+03  0.65735207643E+03  0.25500000000E-02 0. -1.
         24    2    1    2    0    0 -0.35527136788E-14  0.00000000000E+00 -0.65480873426E+03  0.65989542360E+03  0.81777084964E+02 0.  0.
         66    2    3    3    0    0 -0.31571446177E+02  0.66483982922E+01 -0.52996582294E+03  0.53095078011E+03  0.20000006665E+01 0.  0.
        -13    1    3    3    0    0  0.31571446177E+02 -0.66483982922E+01 -0.12484291132E+03  0.12894464349E+03  0.10566000000E+00 0.  1.
         13    1    4    4    0    0 -0.10171638432E+01  0.29788524106E+00 -0.16447455572E+02  0.16481908771E+02  0.10566000000E+00 0. -1.
        -13    1    4    4    0    0 -0.55746292646E+01  0.13934886053E+01 -0.84329871706E+02  0.84525479756E+02  0.10566000000E+00 0.  1.
        -14    1    4    4    0    0 -0.24979653069E+02  0.49570244459E+01 -0.42918849566E+03  0.42994339158E+03  0.00000000000E+00 0.  1.
<mgrwt>
<rscale>  0 0.81777085E+02</rscale>
<asrwt>0</asrwt>
<pdfrwt beam="1">  1        2 0.10113095E+00 0.81777085E+02</pdfrwt>
<pdfrwt beam="2">  1       -1 0.39128432E-03 0.81777085E+02</pdfrwt>
<totfact> 0.31119008E+05</totfact>
</mgrwt>
</event>
<event>
 8    1  0.2561077E-024  0.8208687E+02  0.7818608E-02  0.1323231E+00
          2   -1    0    0  501    0  0.00000000000E+00  0.00000000000E+00  0.51986533420E+02  0.51986533483E+02  0.25500000000E-02 0. -1.
         -1   -1    0    0    0  501 -0.00000000000E+00 -0.00000000000E+00 -0.32403841032E+02  0.32403841424E+02  0.50400000000E-02 0.  1.
         24    2    1    2    0    0  0.00000000000E+00  0.00000000000E+00  0.19582692389E+02  0.84390374907E+02  0.82086865793E+02 0.  0.
         66    2    3    3    0    0 -0.10296746595E+02  0.34679230548E+02  0.29675891991E+02  0.46833007266E+02  0.19999955571E+01 0.  0.
        -13    1    3    3    0    0  0.10296746595E+02 -0.34679230548E+02 -0.10093199602E+02  0.37557367641E+02  0.10566000000E+00 0.  1.
         13    1    4    4    0    0 -0.22276362280E+01  0.91921450345E+01  0.74834894234E+01  0.12061163770E+02  0.10566000000E+00 0.  1.
        -13    1    4    4    0    0 -0.16654560249E+01  0.72001631816E+01  0.59275863055E+01  0.94743620924E+01  0.10566000000E+00 0. -1.
         14    1    4    4    0    0 -0.64036543426E+01  0.18286922332E+02  0.16264816262E+02  0.25297481403E+02  0.00000000000E+00 0. -1.
<mgrwt>
<rscale>  0 0.82086866E+02</rscale>
<asrwt>0</asrwt>
<pdfrwt beam="1">  1        2 0.79979282E-02 0.82086866E+02</pdfrwt>
<pdfrwt beam="2">  1       -1 0.49852064E-02 0.82086866E+02</pdfrwt>
<totfact> 0.14044197E+05</totfact>
</mgrwt>
</event>
<event>
 8    1  0.2561077E-024  0.8039891E+02  0.7818608E-02  0.1327923E+00
          2   -1    0    0  501    0  0.00000000000E+00  0.00000000000E+00  0.18244731161E+02  0.18244731339E+02  0.25500000000E-02 0. -1.
         -1   -1    0    0    0  501 -0.00000000000E+00 -0.00000000000E+00 -0.88573308857E+02  0.88573309000E+02  0.50400000000E-02 0.  1.
         24    2    1    2    0    0  0.00000000000E+00  0.00000000000E+00 -0.70328577696E+02  0.10681804034E+03  0.80398911069E+02 0.  0.
         66    2    3    3    0    0  0.12066654348E+01 -0.39996173269E+02 -0.30424972739E+02  0.50307344270E+02  0.20000009094E+01 0.  0.
        -13    1    3    3    0    0 -0.12066654348E+01  0.39996173269E+02 -0.39903604957E+02  0.56510696069E+02  0.10566000000E+00 0.  1.
         13    1    4    4    0    0  0.11813625878E+01 -0.25210638759E+02 -0.19106801389E+02  0.31655219910E+02  0.10566000000E+00 0. -1.
        -13    1    4    4    0    0 -0.23744966149E+00 -0.11697612511E+02 -0.93870554538E+01  0.15000616485E+02  0.10566000000E+00 0.  1.
        -14    1    4    4    0    0  0.26275250850E+00 -0.30879219994E+01 -0.19311158968E+01  0.36515078751E+01  0.00000000000E+00 0.  1.
<mgrwt>
<rscale>  0 0.80398911E+02</rscale>
<asrwt>0</asrwt>
<pdfrwt beam="1">  1        2 0.28068818E-02 0.80398911E+02</pdfrwt>
<pdfrwt beam="2">  1       -1 0.13626663E-01 0.80398911E+02</pdfrwt>
<totfact> 0.12010717E+05</totfact>
</mgrwt>
</event>
<event>
 8    1  0.2561077E-024  0.8015760E+02  0.7818608E-02  0.1328605E+00
         -1   -1    0    0    0  501 -0.00000000000E+00  0.00000000000E+00  0.49745100873E+01  0.49745126405E+01  0.50400000000E-02 0.  1.
          2   -1    0    0  501    0  0.00000000000E+00 -0.00000000000E+00 -0.32290817065E+03  0.32290817066E+03  0.25500000000E-02 0. -1.
         24    2    1    2    0    0  0.00000000000E+00  0.71054273576E-14 -0.31793366056E+03  0.32788268330E+03  0.80157604066E+02 0.  0.
         66    2    3    3    0    0 -0.17057567812E+02 -0.36235714638E+02 -0.15675965523E+03  0.16180722215E+03  0.19999998678E+01 0.  0.
        -13    1    3    3    0    0  0.17057567812E+02  0.36235714638E+02 -0.16117400533E+03  0.16607546114E+03  0.10566000000E+00 0.  1.
         13    1    4    4    0    0 -0.34617542244E+01 -0.73141189840E+01 -0.32868040015E+02  0.33849657269E+02  0.10566000000E+00 0. -1.
        -13    1    4    4    0    0 -0.11530851032E+02 -0.24393712747E+02 -0.10211977290E+03  0.10562420616E+03  0.10566000000E+00 0.  1.
        -14    1    4    4    0    0 -0.20649625550E+01 -0.45278829064E+01 -0.21771842315E+02  0.22333358720E+02  0.00000000000E+00 0.  1.
<mgrwt>
<rscale>  0 0.80157604E+02</rscale>
<asrwt>0</asrwt>
<pdfrwt beam="1">  1        2 0.49678164E-01 0.80157604E+02</pdfrwt>
<pdfrwt beam="2">  1       -1 0.76530969E-03 0.80157604E+02</pdfrwt>
<totfact> 0.26046880E+05</totfact>
</mgrwt>
</event>
<event>
 8    1  0.2561077E-024  0.7932287E+02  0.7818608E-02  0.1330984E+00
          2   -1    0    0  501    0  0.00000000000E+00  0.00000000000E+00  0.62994632765E+02  0.62994632817E+02  0.25500000000E-02 0. -1.
         -1   -1    0    0    0  501 -0.00000000000E+00 -0.00000000000E+00 -0.24970846389E+02  0.24970846898E+02  0.50400000000E-02 0.  1.
         24    2    1    2    0    0  0.71054273576E-14  0.00000000000E+00  0.38023786376E+02  0.87965479715E+02  0.79322867390E+02 0.  0.
         66    2    3    3    0    0  0.22414838520E+02  0.11500018074E+01  0.55252618231E+02  0.59670757572E+02  0.19999994392E+01 0.  0.
        -13    1    3    3    0    0 -0.22414838520E+02 -0.11500018074E+01 -0.17228831855E+02  0.28294722143E+02  0.10566000000E+00 0.  1.
         13    1    4    4    0    0  0.54858850045E+01  0.51220246894E+00  0.12508134718E+02  0.13668280207E+02  0.10566000000E+00 0.  1.
        -13    1    4    4    0    0  0.49870084567E+01  0.66585506341E+00  0.11461576694E+02  0.12517688312E+02  0.10566000000E+00 0. -1.
         14    1    4    4    0    0  0.11941945059E+02 -0.28055724923E-01  0.31282906818E+02  0.33484789053E+02  0.00000000000E+00 0. -1.
<mgrwt>
<rscale>  0 0.79322867E+02</rscale>
<asrwt>0</asrwt>
<pdfrwt beam="1">  1        2 0.96914818E-02 0.79322867E+02</pdfrwt>
<pdfrwt beam="2">  1       -1 0.38416688E-02 0.79322867E+02</pdfrwt>
<totfact> 0.16111313E+05</totfact>
</mgrwt>
</event>
<event>
 8    1  0.2561077E-024  0.7858375E+02  0.7818608E-02  0.1333119E+00
          2   -1    0    0  501    0  0.00000000000E+00  0.00000000000E+00  0.53049301815E+03  0.53049301815E+03  0.25500000000E-02 0. -1.
         -1   -1    0    0    0  501 -0.00000000000E+00 -0.00000000000E+00 -0.29102178388E+01  0.29102222030E+01  0.50400000000E-02 0.  1.
         24    2    1    2    0    0  0.00000000000E+00 -0.88817841970E-15  0.52758280031E+03  0.53340324036E+03  0.78583749220E+02 0.  0.
         66    2    3    3    0    0 -0.38314901699E+02 -0.57475890819E+01  0.30730753759E+03  0.30974665315E+03  0.20000009285E+01 0.  0.
        -13    1    3    3    0    0  0.38314901699E+02  0.57475890819E+01  0.22027526272E+03  0.22365658721E+03  0.10566000000E+00 0.  1.
         13    1    4    4    0    0 -0.21600441726E+02 -0.32277748393E+01  0.17123455402E+03  0.17262178677E+03  0.10566000000E+00 0. -1.
        -13    1    4    4    0    0 -0.46040301083E+01 -0.11402329382E+01  0.35276527585E+02  0.35594125735E+02  0.10566000000E+00 0.  1.
         14    1    4    4    0    0 -0.12110429864E+02 -0.13795813043E+01  0.10079645598E+03  0.10153074064E+03  0.00000000000E+00 0. -1.
<mgrwt>
<rscale>  0 0.78583749E+02</rscale>
<asrwt>0</asrwt>
<pdfrwt beam="1">  1        2 0.81614354E-01 0.78583749E+02</pdfrwt>
<pdfrwt beam="2">  1       -1 0.44772592E-03 0.78583749E+02</pdfrwt>
<totfact> 0.32496907E+05</totfact>
</mgrwt>
</event>
<event>
 8    1  0.2561077E-024  0.7755283E+02  0.7818608E-02  0.1336143E+00
          2   -1    0    0  501    0  0.00000000000E+00  0.00000000000E+00  0.17521330968E+02  0.17521331153E+02  0.25500000000E-02 0. -1.
         -1   -1    0    0    0  501 -0.00000000000E+00 -0.00000000000E+00 -0.85815994041E+02  0.85815994189E+02  0.50400000000E-02 0.  1.
         24    2    1    2    0    0  0.00000000000E+00  0.00000000000E+00 -0.68294663074E+02  0.10333732534E+03  0.77552832345E+02 0.  0.
         66    2    3    3    0    0  0.29615954155E+02  0.18254067216E+02 -0.11428316205E+02  0.36673179952E+02  0.20000015210E+01 0.  0.
        -13    1    3    3    0    0 -0.29615954155E+02 -0.18254067216E+02 -0.56866346869E+02  0.66664145391E+02  0.10566000000E+00 0.  1.
         13    1    4    4    0    0  0.20450967622E+02  0.11839844870E+02 -0.81529280633E+01  0.24998107994E+02  0.10566000000E+00 0.  1.
        -13    1    4    4    0    0  0.61772061922E+01  0.43041851170E+01 -0.18849425485E+01  0.77619622718E+01  0.10566000000E+00 0. -1.
        -14    1    4    4    0    0  0.29877803408E+01  0.21100372287E+01 -0.13904455927E+01  0.39131096864E+01  0.00000000000E+00 0.  1.
<mgrwt>
<rscale>  0 0.77552832E+02</rscale>
<asrwt>0</asrwt>
<pdfrwt beam="1">  1        2 0.26955894E-02 0.77552832E+02</pdfrwt>
<pdfrwt beam="2">  1       -1 0.13202460E-01 0.77552832E+02</pdfrwt>
<totfact> 0.13218133E+05</totfact>
</mgrwt>
</event>
<event>
 8    1  0.2561077E-024  0.7994617E+02  0.7818608E-02  0.1329204E+00
         -1   -1    0    0    0  501 -0.00000000000E+00  0.00000000000E+00  0.59512313558E+01  0.59512334899E+01  0.50400000000E-02 0.  1.
          2   -1    0    0  501    0  0.00000000000E+00 -0.00000000000E+00 -0.26849018335E+03  0.26849018337E+03  0.25500000000E-02 0. -1.
         24    2    1    2    0    0 -0.71054273576E-14  0.00000000000E+00 -0.26253895200E+03  0.27444141686E+03  0.79946169199E+02 0.  0.
         66    2    3    3    0    0 -0.39791468309E+02 -0.35058564048E+01 -0.13284994510E+03  0.13873990009E+03  0.19999959025E+01 0.  0.
        -13    1    3    3    0    0  0.39791468309E+02  0.35058564048E+01 -0.12968900689E+03  0.13570151677E+03  0.10566000000E+00 0.  1.
         13    1    4    4    0    0 -0.33290067635E+02 -0.29499344582E+01 -0.11070111661E+03  0.11563597667E+03  0.10566000000E+00 0. -1.
        -13    1    4    4    0    0 -0.13963523619E+01 -0.37826198918E+00 -0.42674350172E+01  0.45072217288E+01  0.10566000000E+00 0.  1.
         14    1    4    4    0    0 -0.51050483118E+01 -0.17765995750E+00 -0.17881393472E+02  0.18596701692E+02  0.00000000000E+00 0. -1.
<mgrwt>
<rscale>  0 0.79946169E+02</rscale>
<asrwt>0</asrwt>
<pdfrwt beam="1">  1        2 0.41306173E-01 0.79946169E+02</pdfrwt>
<pdfrwt beam="2">  1       -1 0.91557443E-03 0.79946169E+02</pdfrwt>
<totfact> 0.24533434E+05</totfact>
</mgrwt>
</event>
<event>
 8    1  0.2561077E-024  0.8025802E+02  0.7818608E-02  0.1328321E+00
         -1   -1    0    0    0  501 -0.00000000000E+00  0.00000000000E+00  0.14924007217E+02  0.14924008068E+02  0.50400000000E-02 0.  1.
          2   -1    0    0  501    0  0.00000000000E+00 -0.00000000000E+00 -0.10790247784E+03  0.10790247787E+03  0.25500000000E-02 0. -1.
         24    2    1    2    0    0  0.00000000000E+00 -0.71054273576E-14 -0.92978470627E+02  0.12282648594E+03  0.80258019218E+02 0.  0.
         66    2    3    3    0    0  0.17479847566E+02  0.35921190561E+02 -0.51919133220E+02  0.65539861372E+02  0.20000080534E+01 0.  0.
        -13    1    3    3    0    0 -0.17479847566E+02 -0.35921190561E+02 -0.41059337408E+02  0.57286624570E+02  0.10566000000E+00 0.  1.
         13    1    4    4    0    0  0.87259487296E+01  0.19733629739E+02 -0.28043196901E+02  0.35383476092E+02  0.10566000000E+00 0. -1.
        -13    1    4    4    0    0  0.68699193847E+00  0.10010487335E+01 -0.17884929004E+01  0.21642382911E+01  0.10566000000E+00 0.  1.
         14    1    4    4    0    0  0.80669068979E+01  0.15186512088E+02 -0.22087443419E+02  0.27992146990E+02  0.00000000000E+00 0. -1.
<mgrwt>
<rscale>  0 0.80258019E+02</rscale>
<asrwt>0</asrwt>
<pdfrwt beam="1">  1        2 0.16600381E-01 0.80258019E+02</pdfrwt>
<pdfrwt beam="2">  1       -1 0.22960013E-02 0.80258019E+02</pdfrwt>
<totfact> 0.17957449E+05</totfact>
</mgrwt>
</event>
<event>
 8    1  0.2561077E-024  0.7936652E+02  0.7818608E-02  0.1330859E+00
          2   -1    0    0  501    0  0.00000000000E+00  0.00000000000E+00  0.37012933270E+02  0.37012933358E+02  0.25500000000E-02 0. -1.
         -1   -1    0    0    0  501 -0.00000000000E+00 -0.00000000000E+00 -0.42546236460E+02  0.42546236759E+02  0.50400000000E-02 0.  1.
         24    2    1    2    0    0  0.00000000000E+00 -0.88817841970E-15 -0.55333031903E+01  0.79559170117E+02  0.79366517534E+02 0.  0.
         66    2    3    3    0    0  0.37711837647E+02 -0.46695528627E+01 -0.14143576248E+02  0.40595913210E+02  0.19999993912E+01 0.  0.
        -13    1    3    3    0    0 -0.37711837647E+02  0.46695528627E+01  0.86102730577E+01  0.38963256907E+02  0.10566000000E+00 0.  1.
         13    1    4    4    0    0  0.21742006299E+02 -0.23299521165E+01 -0.88229418130E+01  0.23579630639E+02  0.10566000000E+00 0. -1.
        -13    1    4    4    0    0  0.23509288642E+01 -0.15808898369E+00 -0.10109216729E+01  0.25661226229E+01  0.10566000000E+00 0.  1.
         14    1    4    4    0    0  0.13618902484E+02 -0.21815117626E+01 -0.43097127621E+01  0.14450159948E+02  0.00000000000E+00 0. -1.
<mgrwt>
<rscale>  0 0.79366518E+02</rscale>
<asrwt>0</asrwt>
<pdfrwt beam="1">  1        2 0.56942974E-02 0.79366518E+02</pdfrwt>
<pdfrwt beam="2">  1       -1 0.65455749E-02 0.79366518E+02</pdfrwt>
<totfact> 0.14344004E+05</totfact>
</mgrwt>
</event>
<event>
 8    1  0.2561077E-024  0.7687531E+02  0.7818608E-02  0.1338160E+00
          2   -1    0    0  501    0  0.00000000000E+00  0.00000000000E+00  0.27970795291E+02  0.27970795407E+02  0.25500000000E-02 0. -1.
         -1   -1    0    0    0  501 -0.00000000000E+00 -0.00000000000E+00 -0.52821286289E+02  0.52821286529E+02  0.50400000000E-02 0.  1.
         24    2    1    2    0    0  0.00000000000E+00  0.00000000000E+00 -0.24850490998E+02  0.80792081936E+02  0.76875312037E+02 0.  0.
         66    2    3    3    0    0  0.22014053295E+02 -0.20941847115E+02  0.12264109170E+02  0.32826633823E+02  0.20000028391E+01 0.  0.
        -13    1    3    3    0    0 -0.22014053295E+02  0.20941847115E+02 -0.37114600168E+02  0.47965448113E+02  0.10566000000E+00 0.  1.
         13    1    4    4    0    0  0.12758401309E+02 -0.12045528104E+02  0.60525888590E+01  0.18561156947E+02  0.10566000000E+00 0. -1.
        -13    1    4    4    0    0  0.62644223844E+01 -0.58265767010E+01  0.41712356698E+01  0.95185269297E+01  0.10566000000E+00 0.  1.
         14    1    4    4    0    0  0.29912296009E+01 -0.30697423104E+01  0.20402846412E+01  0.47469499465E+01  0.00000000000E+00 0. -1.
<mgrwt>
<rscale>  0 0.76875312E+02</rscale>
<asrwt>0</asrwt>
<pdfrwt beam="1">  1        2 0.43031993E-02 0.76875312E+02</pdfrwt>
<pdfrwt beam="2">  1       -1 0.81263518E-02 0.76875312E+02</pdfrwt>
<totfact> 0.14839128E+05</totfact>
</mgrwt>
</event>
<event>
 8    1  0.2561077E-024  0.7395780E+02  0.7818608E-02  0.1347129E+00
          2   -1    0    0  501    0  0.00000000000E+00  0.00000000000E+00  0.15195279153E+03  0.15195279155E+03  0.25500000000E-02 0. -1.
         -1   -1    0    0    0  501 -0.00000000000E+00 -0.00000000000E+00 -0.89991025804E+01  0.89991039918E+01  0.50400000000E-02 0.  1.
         24    2    1    2    0    0 -0.22204460493E-15  0.00000000000E+00  0.14295368894E+03  0.16095189554E+03  0.73957795360E+02 0.  0.
         66    2    3    3    0    0  0.16542385533E+01 -0.16086814312E+02  0.14383580388E+03  0.14475586545E+03  0.20000007966E+01 0.  0.
        -13    1    3    3    0    0 -0.16542385533E+01  0.16086814312E+02 -0.88211493731E+00  0.16196030091E+02  0.10566000000E+00 0.  1.
         13    1    4    4    0    0  0.50386449752E+00 -0.50590625446E+01  0.46872336966E+02  0.47147376703E+02  0.10566000000E+00 0. -1.
        -13    1    4    4    0    0  0.45320368610E+00 -0.12426289902E+01  0.85318680050E+01  0.86344343230E+01  0.10566000000E+00 0.  1.
        -14    1    4    4    0    0  0.69717036964E+00 -0.97851227773E+01  0.88431598911E+02  0.88974054421E+02  0.00000000000E+00 0.  1.
<mgrwt>
<rscale>  0 0.73957795E+02</rscale>
<asrwt>0</asrwt>
<pdfrwt beam="1">  1        2 0.23377352E-01 0.73957795E+02</pdfrwt>
<pdfrwt beam="2">  1       -1 0.13844775E-02 0.73957795E+02</pdfrwt>
<totfact> 0.24748318E+05</totfact>
</mgrwt>
</event>
<event>
 8    1  0.2561077E-024  0.7969675E+02  0.7818608E-02  0.1329914E+00
          2   -1    0    0  501    0  0.00000000000E+00  0.00000000000E+00  0.11035370611E+02  0.11035370905E+02  0.25500000000E-02 0. -1.
         -1   -1    0    0    0  501 -0.00000000000E+00 -0.00000000000E+00 -0.14389120606E+03  0.14389120615E+03  0.50400000000E-02 0.  1.
         24    2    1    2    0    0 -0.71054273576E-14  0.88817841970E-15 -0.13285583545E+03  0.15492657705E+03  0.79696745633E+02 0.  0.
         66    2    3    3    0    0  0.36888812409E+02 -0.54915194946E+01 -0.39327552663E+02  0.54236497540E+02  0.19999999246E+01 0.  0.
        -13    1    3    3    0    0 -0.36888812409E+02  0.54915194946E+01 -0.93528282786E+02  0.10069007951E+03  0.10566000000E+00 0.  1.
         13    1    4    4    0    0  0.11620025764E+02 -0.17376296075E+01 -0.12016892566E+02  0.16806582829E+02  0.10566000000E+00 0. -1.
        -13    1    4    4    0    0  0.13670128070E+02 -0.13226754721E+01 -0.14129470888E+02  0.19704694453E+02  0.10566000000E+00 0.  1.
         14    1    4    4    0    0  0.11598658576E+02 -0.24312144150E+01 -0.13181189209E+02  0.17725220259E+02  0.00000000000E+00 0. -1.
<mgrwt>
<rscale>  0 0.79696746E+02</rscale>
<asrwt>0</asrwt>
<pdfrwt beam="1">  1        2 0.16977494E-02 0.79696746E+02</pdfrwt>
<pdfrwt beam="2">  1       -1 0.22137107E-01 0.79696746E+02</pdfrwt>
<totfact> 0.11005979E+05</totfact>
</mgrwt>
</event>
<event>
 8    1  0.2561077E-024  0.7875638E+02  0.7818608E-02  0.1332618E+00
         -1   -1    0    0    0  501 -0.00000000000E+00  0.00000000000E+00  0.71115554109E+02  0.71115554288E+02  0.50400000000E-02 0.  1.
          2   -1    0    0  501    0  0.00000000000E+00 -0.00000000000E+00 -0.21804540775E+02  0.21804540924E+02  0.25500000000E-02 0. -1.
         24    2    1    2    0    0 -0.35527136788E-14 -0.35527136788E-14  0.49311013335E+02  0.92920095211E+02  0.78756384236E+02 0.  0.
         66    2    3    3    0    0  0.16929780312E+02  0.24253791564E+02 -0.59539652927E+01  0.30237618447E+02  0.19999999917E+01 0.  0.
        -13    1    3    3    0    0 -0.16929780312E+02 -0.24253791564E+02  0.55264978627E+02  0.62682476765E+02  0.10566000000E+00 0.  1.
         13    1    4    4    0    0  0.12118357523E+02  0.18018213147E+02 -0.41938606405E+01  0.22115836524E+02  0.10566000000E+00 0. -1.
        -13    1    4    4    0    0  0.31681263076E+01  0.38209985149E+01 -0.69595387922E+00  0.50132394507E+01  0.10566000000E+00 0.  1.
         14    1    4    4    0    0  0.16432964808E+01  0.24145799026E+01 -0.10641507729E+01  0.31085424715E+01  0.00000000000E+00 0. -1.
<mgrwt>
<rscale>  0 0.78756384E+02</rscale>
<asrwt>0</asrwt>
<pdfrwt beam="1">  1        2 0.33545447E-02 0.78756384E+02</pdfrwt>
<pdfrwt beam="2">  1       -1 0.10940855E-01 0.78756384E+02</pdfrwt>
<totfact> 0.13210234E+05</totfact>
</mgrwt>
</event>
<event>
 8    1  0.2561077E-024  0.8360623E+02  0.7818608E-02  0.1319118E+00
          2   -1    0    0  501    0  0.00000000000E+00  0.00000000000E+00  0.13993818783E+04  0.13993818783E+04  0.25500000000E-02 0. -1.
         -1   -1    0    0    0  501 -0.00000000000E+00 -0.00000000000E+00 -0.12487607925E+01  0.12487709632E+01  0.50400000000E-02 0.  1.
         24    2    1    2    0    0  0.00000000000E+00  0.00000000000E+00  0.13981331175E+04  0.14006306492E+04  0.83606228181E+02 0.  0.
         66    2    3    3    0    0  0.88749352926E+01 -0.14535505752E+02  0.13385872774E+04  0.13386971071E+04  0.19999998630E+01 0.  0.
        -13    1    3    3    0    0 -0.88749352926E+01  0.14535505752E+02  0.59545840060E+02  0.61933542095E+02  0.10566000000E+00 0.  1.
         13    1    4    4    0    0  0.27103030497E+01 -0.38484175319E+01  0.38343960323E+03  0.38346850790E+03  0.10566000000E+00 0. -1.
        -13    1    4    4    0    0  0.20369279827E+01 -0.26032020763E+01  0.21899463038E+03  0.21901959966E+03  0.10566000000E+00 0.  1.
         14    1    4    4    0    0  0.41277042603E+01 -0.80838861437E+01  0.73615304380E+03  0.73620899957E+03  0.00000000000E+00 0. -1.
<mgrwt>
<rscale>  0 0.83606228E+02</rscale>
<asrwt>0</asrwt>
<pdfrwt beam="1">  1        2 0.21529013E+00 0.83606228E+02</pdfrwt>
<pdfrwt beam="2">  1       -1 0.19211728E-03 0.83606228E+02</pdfrwt>
<totfact> 0.30328135E+05</totfact>
</mgrwt>
</event>
<event>
 8    1  0.2561077E-024  0.8010238E+02  0.7818608E-02  0.1328761E+00
          2   -1    0    0  501    0  0.00000000000E+00  0.00000000000E+00  0.48161891379E+03  0.48161891380E+03  0.25500000000E-02 0. -1.
         -1   -1    0    0    0  501 -0.00000000000E+00 -0.00000000000E+00 -0.33306348080E+01  0.33306386213E+01  0.50400000000E-02 0.  1.
         24    2    1    2    0    0 -0.17763568394E-14  0.00000000000E+00  0.47828827899E+03  0.48494955242E+03  0.80102375614E+02 0.  0.
         66    2    3    3    0    0  0.15370732885E+02  0.22575579104E+02  0.41643940353E+03  0.41733882280E+03  0.19999997720E+01 0.  0.
        -13    1    3    3    0    0 -0.15370732885E+02 -0.22575579104E+02  0.61848875453E+02  0.67610729623E+02  0.10566000000E+00 0.  1.
         13    1    4    4    0    0  0.20862472748E+00  0.32105187876E+00  0.69143462337E+01  0.69257451918E+01  0.10566000000E+00 0.  1.
        -13    1    4    4    0    0  0.24309947383E+01  0.31336050634E+01  0.52401259395E+02  0.52551235631E+02  0.10566000000E+00 0.  1.
         14    1    4    4    0    0  0.12731113419E+02  0.19120922162E+02  0.35712379790E+03  0.35786184198E+03  0.00000000000E+00 0. -1.
<mgrwt>
<rscale>  0 0.80102376E+02</rscale>
<asrwt>0</asrwt>
<pdfrwt beam="1">  1        2 0.74095274E-01 0.80102376E+02</pdfrwt>
<pdfrwt beam="2">  1       -1 0.51240526E-03 0.80102376E+02</pdfrwt>
<totfact> 0.29986181E+05</totfact>
</mgrwt>
</event>
<event>
 8    1  0.2561077E-024  0.7785266E+02  0.7818608E-02  0.1335258E+00
         -1   -1    0    0    0  501 -0.00000000000E+00  0.00000000000E+00  0.30826291213E+02  0.30826291625E+02  0.50400000000E-02 0.  1.
          2   -1    0    0  501    0  0.00000000000E+00 -0.00000000000E+00 -0.49154769570E+02  0.49154769636E+02  0.25500000000E-02 0. -1.
         24    2    1    2    0    0  0.35527136788E-14  0.00000000000E+00 -0.18328478356E+02  0.79981061261E+02  0.77852662392E+02 0.  0.
         66    2    3    3    0    0  0.26406096159E+02  0.90214575262E+01 -0.37014481967E+02  0.46397635211E+02  0.20000169018E+01 0.  0.
        -13    1    3    3    0    0 -0.26406096159E+02 -0.90214575262E+01  0.18686003611E+02  0.33583426050E+02  0.10566000000E+00 0.  1.
         13    1    4    4    0    0  0.23775032466E+00 -0.52570648454E-01 -0.33700142942E+00  0.42897889107E+00  0.10566000000E+00 0. -1.
        -13    1    4    4    0    0  0.87808963415E+01  0.32920342499E+01 -0.11875141624E+02  0.15131813596E+02  0.10566000000E+00 0.  1.
         14    1    4    4    0    0  0.17387449493E+02  0.57819939248E+01 -0.24802338914E+02  0.30836842724E+02  0.00000000000E+00 0. -1.
<mgrwt>
<rscale>  0 0.77852662E+02</rscale>
<asrwt>0</asrwt>
<pdfrwt beam="1">  1        2 0.75622723E-02 0.77852662E+02</pdfrwt>
<pdfrwt beam="2">  1       -1 0.47425064E-02 0.77852662E+02</pdfrwt>
<totfact> 0.16038247E+05</totfact>
</mgrwt>
</event>
<event>
 8    1  0.2561077E-024  0.8122688E+02  0.7818608E-02  0.1325605E+00
         -1   -1    0    0    0  501 -0.00000000000E+00  0.00000000000E+00  0.77505494707E+01  0.77505511094E+01  0.50400000000E-02 0.  1.
          2   -1    0    0  501    0  0.00000000000E+00 -0.00000000000E+00 -0.21281736338E+03  0.21281736340E+03  0.25500000000E-02 0. -1.
         24    2    1    2    0    0  0.35527136788E-14 -0.88817841970E-15 -0.20506681391E+03  0.22056791451E+03  0.81226884356E+02 0.  0.
         66    2    3    3    0    0 -0.21514633776E+02  0.51876610514E+01 -0.19498693320E+03  0.19624906476E+03  0.20000017250E+01 0.  0.
        -13    1    3    3    0    0  0.21514633776E+02 -0.51876610514E+01 -0.10079880709E+02  0.24318849743E+02  0.10566000000E+00 0.  1.
         13    1    4    4    0    0 -0.29702355129E+01  0.58314060122E+00 -0.28699386111E+02  0.28858764339E+02  0.10566000000E+00 0. -1.
        -13    1    4    4    0    0 -0.12323818508E+02  0.33309049863E+01 -0.10430809435E+03  0.10508644604E+03  0.10566000000E+00 0.  1.
        -14    1    4    4    0    0 -0.62205797553E+01  0.12736154639E+01 -0.61979452748E+02  0.62303854389E+02  0.00000000000E+00 0.  1.
<mgrwt>
<rscale>  0 0.81226884E+02</rscale>
<asrwt>0</asrwt>
<pdfrwt beam="1">  1        2 0.32741128E-01 0.81226884E+02</pdfrwt>
<pdfrwt beam="2">  1       -1 0.11923925E-02 0.81226884E+02</pdfrwt>
<totfact> 0.21655191E+05</totfact>
</mgrwt>
</event>
<event>
 8    1  0.2561077E-024  0.7792342E+02  0.7818608E-02  0.1335050E+00
         -1   -1    0    0    0  501 -0.00000000000E+00  0.00000000000E+00  0.11099957997E+02  0.11099959141E+02  0.50400000000E-02 0.  1.
          2   -1    0    0  501    0  0.00000000000E+00 -0.00000000000E+00 -0.13675862123E+03  0.13675862125E+03  0.25500000000E-02 0. -1.
         24    2    1    2    0    0  0.00000000000E+00 -0.17763568394E-14 -0.12565866323E+03  0.14785858039E+03  0.77923424916E+02 0.  0.
         66    2    3    3    0    0  0.35652777144E+02 -0.90828987908E+01 -0.38690461660E+02  0.53428189008E+02  0.19999971755E+01 0.  0.
        -13    1    3    3    0    0 -0.35652777144E+02  0.90828987908E+01 -0.86968201571E+02  0.94430391384E+02  0.10566000000E+00 0.  1.
         13    1    4    4    0    0  0.20767327446E+02 -0.56390201158E+01 -0.22015915068E+02  0.30786232596E+02  0.10566000000E+00 0. -1.
        -13    1    4    4    0    0  0.98523987089E+01 -0.17550614762E+01 -0.10967573547E+02  0.14847519478E+02  0.10566000000E+00 0.  1.
        -14    1    4    4    0    0  0.50330509884E+01 -0.16888171988E+01 -0.57069730445E+01  0.77944369337E+01  0.00000000000E+00 0.  1.
<mgrwt>
<rscale>  0 0.77923425E+02</rscale>
<asrwt>0</asrwt>
<pdfrwt beam="1">  1        2 0.21039787E-01 0.77923425E+02</pdfrwt>
<pdfrwt beam="2">  1       -1 0.17076860E-02 0.77923425E+02</pdfrwt>
<totfact> 0.20856958E+05</totfact>
</mgrwt>
</event>
<event>
 8    1  0.2561077E-024  0.7990948E+02  0.7818608E-02  0.1329309E+00
          2   -1    0    0  501    0  0.00000000000E+00  0.00000000000E+00  0.17006654053E+02  0.17006654244E+02  0.25500000000E-02 0. -1.
         -1   -1    0    0    0  501 -0.00000000000E+00 -0.00000000000E+00 -0.93868040431E+02  0.93868040567E+02  0.50400000000E-02 0.  1.
         24    2    1    2    0    0  0.00000000000E+00 -0.35527136788E-14 -0.76861386379E+02  0.11087469481E+03  0.79909481498E+02 0.  0.
         66    2    3    3    0    0  0.65892132463E+01  0.17623205870E+02  0.10411854782E+02  0.21596338514E+02  0.20000002176E+01 0.  0.
        -13    1    3    3    0    0 -0.65892132463E+01 -0.17623205870E+02 -0.87273241160E+02  0.89278356296E+02  0.10566000000E+00 0.  1.
         13    1    4    4    0    0  0.28457950343E+01  0.65474907766E+01  0.38720142581E+01  0.81223052945E+01  0.10566000000E+00 0. -1.
        -13    1    4    4    0    0  0.11869625444E+01  0.44203293883E+01  0.32965176379E+01  0.56414877963E+01  0.10566000000E+00 0.  1.
        -14    1    4    4    0    0  0.25564556675E+01  0.66553857053E+01  0.32433228857E+01  0.78325454233E+01  0.00000000000E+00 0.  1.
<mgrwt>
<rscale>  0 0.79909481E+02</rscale>
<asrwt>0</asrwt>
<pdfrwt beam="1">  1        2 0.26164084E-02 0.79909481E+02</pdfrwt>
<pdfrwt beam="2">  1       -1 0.14441237E-01 0.79909481E+02</pdfrwt>
<totfact> 0.12047139E+05</totfact>
</mgrwt>
</event>
<event>
 8    1  0.2561077E-024  0.7981420E+02  0.7818608E-02  0.1329580E+00
         -1   -1    0    0    0  501 -0.00000000000E+00  0.00000000000E+00  0.58556783305E+02  0.58556783522E+02  0.50400000000E-02 0.  1.
          2   -1    0    0  501    0  0.00000000000E+00 -0.00000000000E+00 -0.27197130627E+02  0.27197130747E+02  0.25500000000E-02 0. -1.
         24    2    1    2    0    0  0.17763568394E-14  0.00000000000E+00  0.31359652678E+02  0.85753914269E+02  0.79814196709E+02 0.  0.
         66    2    3    3    0    0 -0.85749583573E+01 -0.94914530974E+01 -0.24896592315E+02  0.28061680325E+02  0.20000002529E+01 0.  0.
        -13    1    3    3    0    0  0.85749583573E+01  0.94914530974E+01  0.56256244993E+02  0.57692233944E+02  0.10566000000E+00 0.  1.
         13    1    4    4    0    0 -0.16621151936E+01 -0.19082916484E+01 -0.57744383098E+01  0.63055139173E+01  0.10566000000E+00 0. -1.
        -13    1    4    4    0    0 -0.50423500893E+01 -0.47761186683E+01 -0.13907540352E+02  0.15545656841E+02  0.10566000000E+00 0.  1.
        -14    1    4    4    0    0 -0.18704930745E+01 -0.28070427808E+01 -0.52146136533E+01  0.62105095659E+01  0.00000000000E+00 0.  1.
<mgrwt>
<rscale>  0 0.79814197E+02</rscale>
<asrwt>0</asrwt>
<pdfrwt beam="1">  1        2 0.41841740E-02 0.79814197E+02</pdfrwt>
<pdfrwt beam="2">  1       -1 0.90087359E-02 0.79814197E+02</pdfrwt>
<totfact> 0.13284463E+05</totfact>
</mgrwt>
</event>
<event>
 8    1  0.2561077E-024  0.8003208E+02  0.7818608E-02  0.1328960E+00
          2   -1    0    0  501    0  0.00000000000E+00  0.00000000000E+00  0.12754520240E+02  0.12754520495E+02  0.25500000000E-02 0. -1.
         -1   -1    0    0    0  501 -0.00000000000E+00 -0.00000000000E+00 -0.12554634945E+03  0.12554634955E+03  0.50400000000E-02 0.  1.
         24    2    1    2    0    0  0.00000000000E+00  0.00000000000E+00 -0.11279182921E+03  0.13830087005E+03  0.80032080561E+02 0.  0.
         66    2    3    3    0    0 -0.66912497712E+01 -0.38978051026E+02 -0.66686100635E+02  0.77557058372E+02  0.20000000423E+01 0.  0.
        -13    1    3    3    0    0  0.66912497712E+01  0.38978051026E+02 -0.46105728579E+02  0.60743811677E+02  0.10566000000E+00 0.  1.
         13    1    4    4    0    0 -0.18170228293E+01 -0.12554814659E+02 -0.20841087826E+02  0.24398505054E+02  0.10566000000E+00 0. -1.
        -13    1    4    4    0    0 -0.35660021078E+01 -0.19869196171E+02 -0.33184615022E+02  0.38842388774E+02  0.10566000000E+00 0.  1.
         14    1    4    4    0    0 -0.13082248342E+01 -0.65540401965E+01 -0.12660397788E+02  0.14316164544E+02  0.00000000000E+00 0. -1.
<mgrwt>
<rscale>  0 0.80032081E+02</rscale>
<asrwt>0</asrwt>
<pdfrwt beam="1">  1        2 0.19622340E-02 0.80032081E+02</pdfrwt>
<pdfrwt beam="2">  1       -1 0.19314822E-01 0.80032081E+02</pdfrwt>
<totfact> 0.11254640E+05</totfact>
</mgrwt>
</event>
<event>
 8    1  0.2561077E-024  0.7929511E+02  0.7818608E-02  0.1331064E+00
          2   -1    0    0  501    0  0.00000000000E+00  0.00000000000E+00  0.44572463047E+03  0.44572463048E+03  0.25500000000E-02 0. -1.
         -1   -1    0    0    0  501 -0.00000000000E+00 -0.00000000000E+00 -0.35266796850E+01  0.35266832864E+01  0.50400000000E-02 0.  1.
         24    2    1    2    0    0  0.00000000000E+00  0.00000000000E+00  0.44219795079E+03  0.44925131376E+03  0.79295114856E+02 0.  0.
         66    2    3    3    0    0  0.38034754035E+01 -0.21249875195E+02  0.40947747012E+03  0.41005099948E+03  0.20000043564E+01 0.  0.
        -13    1    3    3    0    0 -0.38034754035E+01  0.21249875195E+02  0.32720480663E+02  0.39200314282E+02  0.10566000000E+00 0.  1.
         13    1    4    4    0    0  0.33370059182E+00 -0.97636039970E+00  0.20232325298E+02  0.20258894015E+02  0.10566000000E+00 0. -1.
        -13    1    4    4    0    0  0.25107385687E+01 -0.10534345297E+02  0.21422586871E+03  0.21449944109E+03  0.10566000000E+00 0.  1.
        -14    1    4    4    0    0  0.95903624298E+00 -0.97391694988E+01  0.17501927612E+03  0.17529266438E+03  0.00000000000E+00 0.  1.
<mgrwt>
<rscale>  0 0.79295115E+02</rscale>
<asrwt>0</asrwt>
<pdfrwt beam="1">  1        2 0.68573010E-01 0.79295115E+02</pdfrwt>
<pdfrwt beam="2">  1       -1 0.54256647E-03 0.79295115E+02</pdfrwt>
<totfact> 0.30008916E+05</totfact>
</mgrwt>
</event>
<event>
 8    1  0.2561077E-024  0.7921229E+02  0.7818608E-02  0.1331302E+00
          2   -1    0    0  501    0  0.00000000000E+00  0.00000000000E+00  0.58022751568E+03  0.58022751568E+03  0.25500000000E-02 0. -1.
         -1   -1    0    0    0  501 -0.00000000000E+00 -0.00000000000E+00 -0.27035003686E+01  0.27035050665E+01  0.50400000000E-02 0.  1.
         24    2    1    2    0    0  0.00000000000E+00  0.00000000000E+00  0.57752401531E+03  0.58293102075E+03  0.79212288779E+02 0.  0.
         66    2    3    3    0    0 -0.10319809202E+02 -0.16458242927E+02  0.54272987420E+03  0.54308110680E+03  0.19999981527E+01 0.  0.
        -13    1    3    3    0    0  0.10319809202E+02  0.16458242927E+02  0.34794141111E+02  0.39849913951E+02  0.10566000000E+00 0.  1.
         13    1    4    4    0    0 -0.30873249924E+01 -0.52921516256E+01  0.14812991526E+03  0.14825660661E+03  0.10566000000E+00 0. -1.
        -13    1    4    4    0    0 -0.29142388508E+01 -0.40646749515E+01  0.14804462502E+03  0.14812912115E+03  0.10566000000E+00 0.  1.
        -14    1    4    4    0    0 -0.43182453591E+01 -0.71014163496E+01  0.24655533392E+03  0.24669537904E+03  0.00000000000E+00 0.  1.
<mgrwt>
<rscale>  0 0.79212289E+02</rscale>
<asrwt>0</asrwt>
<pdfrwt beam="1">  1        2 0.89265785E-01 0.79212289E+02</pdfrwt>
<pdfrwt beam="2">  1       -1 0.41592343E-03 0.79212289E+02</pdfrwt>
<totfact> 0.32690955E+05</totfact>
</mgrwt>
</event>
<event>
 8    1  0.2561077E-024  0.8103743E+02  0.7818608E-02  0.1326133E+00
         -1   -1    0    0    0  501 -0.00000000000E+00  0.00000000000E+00  0.30879318965E+02  0.30879319377E+02  0.50400000000E-02 0.  1.
          2   -1    0    0  501    0  0.00000000000E+00 -0.00000000000E+00 -0.53167172974E+02  0.53167173035E+02  0.25500000000E-02 0. -1.
         24    2    1    2    0    0 -0.35527136788E-14  0.00000000000E+00 -0.22287854008E+02  0.84046492411E+02  0.81037426232E+02 0.  0.
         66    2    3    3    0    0 -0.24507541135E+02 -0.12356391952E+02 -0.42029736909E+02  0.50237424116E+02  0.20000006594E+01 0.  0.
        -13    1    3    3    0    0  0.24507541135E+02  0.12356391952E+02  0.19741882901E+02  0.33809068296E+02  0.10566000000E+00 0.  1.
         13    1    4    4    0    0 -0.88852150218E+01 -0.35743761554E+01 -0.14001902982E+02  0.16964305528E+02  0.10566000000E+00 0. -1.
        -13    1    4    4    0    0 -0.45969794791E+01 -0.28377947392E+01 -0.87050860400E+01  0.10245730150E+02  0.10566000000E+00 0.  1.
         14    1    4    4    0    0 -0.11025346634E+02 -0.59442210569E+01 -0.19322747887E+02  0.23027388438E+02  0.00000000000E+00 0. -1.
<mgrwt>
<rscale>  0 0.81037426E+02</rscale>
<asrwt>0</asrwt>
<pdfrwt beam="1">  1        2 0.81795651E-02 0.81037426E+02</pdfrwt>
<pdfrwt beam="2">  1       -1 0.47506645E-02 0.81037426E+02</pdfrwt>
<totfact> 0.14621514E+05</totfact>
</mgrwt>
</event>
<event>
 8    1  0.2561077E-024  0.8024964E+02  0.7818608E-02  0.1328344E+00
          2   -1    0    0  501    0  0.00000000000E+00  0.00000000000E+00  0.54076916357E+03  0.54076916358E+03  0.25500000000E-02 0. -1.
         -1   -1    0    0    0  501 -0.00000000000E+00 -0.00000000000E+00 -0.29772410841E+01  0.29772453500E+01  0.50400000000E-02 0.  1.
         24    2    1    2    0    0  0.35527136788E-14  0.17763568394E-14  0.53779192249E+03  0.54374640893E+03  0.80249643793E+02 0.  0.
         66    2    3    3    0    0  0.30563657592E+02  0.15221260033E+02  0.41154094387E+03  0.41295977089E+03  0.19999931553E+01 0.  0.
        -13    1    3    3    0    0 -0.30563657592E+02 -0.15221260033E+02  0.12625097862E+03  0.13078663804E+03  0.10566000000E+00 0.  1.
         13    1    4    4    0    0  0.11175659556E+01  0.68003342364E+00  0.13798176747E+02  0.13860456151E+02  0.10566000000E+00 0. -1.
        -13    1    4    4    0    0  0.15391309505E+02  0.68306830984E+01  0.19944667598E+03  0.20015628484E+03  0.10566000000E+00 0.  1.
         14    1    4    4    0    0  0.14054782131E+02  0.77105435111E+01  0.19829609114E+03  0.19894302990E+03  0.00000000000E+00 0. -1.
<mgrwt>
<rscale>  0 0.80249644E+02</rscale>
<asrwt>0</asrwt>
<pdfrwt beam="1">  1        2 0.83195251E-01 0.80249644E+02</pdfrwt>
<pdfrwt beam="2">  1       -1 0.45803745E-03 0.80249644E+02</pdfrwt>
<totfact> 0.30950843E+05</totfact>
</mgrwt>
</event>
<event>
 8    1  0.2561077E-024  0.8126772E+02  0.7818608E-02  0.1325492E+00
          2   -1    0    0  501    0  0.00000000000E+00  0.00000000000E+00  0.19444298966E+02  0.19444299133E+02  0.25500000000E-02 0. -1.
         -1   -1    0    0    0  501 -0.00000000000E+00 -0.00000000000E+00 -0.84914892758E+02  0.84914892907E+02  0.50400000000E-02 0.  1.
         24    2    1    2    0    0 -0.35527136788E-14  0.88817841970E-15 -0.65470593792E+02  0.10435919204E+03  0.81267719987E+02 0.  0.
         66    2    3    3    0    0  0.23533291628E+02 -0.67124552665E+01  0.88604599700E+01  0.26103268380E+02  0.19999996714E+01 0.  0.
        -13    1    3    3    0    0 -0.23533291628E+02  0.67124552665E+01 -0.74331053762E+02  0.78255923660E+02  0.10566000000E+00 0.  1.
         13    1    4    4    0    0  0.81588176905E+01 -0.29474600293E+01  0.30512247265E+01  0.91964647065E+01  0.10566000000E+00 0. -1.
        -13    1    4    4    0    0  0.85606463195E+01 -0.24218456945E+01  0.27024550071E+01  0.92986251176E+01  0.10566000000E+00 0.  1.
         14    1    4    4    0    0  0.68138276179E+01 -0.13431495427E+01  0.31067802364E+01  0.76081785558E+01  0.00000000000E+00 0. -1.
<mgrwt>
<rscale>  0 0.81267720E+02</rscale>
<asrwt>0</asrwt>
<pdfrwt beam="1">  1        2 0.29914307E-02 0.81267720E+02</pdfrwt>
<pdfrwt beam="2">  1       -1 0.13063829E-01 0.81267720E+02</pdfrwt>
<totfact> 0.11797936E+05</totfact>
</mgrwt>
</event>
<event>
 8    1  0.2561077E-024  0.7442297E+02  0.7818608E-02  0.1345667E+00
          2   -1    0    0  501    0  0.00000000000E+00  0.00000000000E+00  0.27449595759E+03  0.27449595760E+03  0.25500000000E-02 0. -1.
         -1   -1    0    0    0  501 -0.00000000000E+00 -0.00000000000E+00 -0.50444983642E+01  0.50445008820E+01  0.50400000000E-02 0.  1.
         24    2    1    2    0    0  0.71054273576E-14  0.88817841970E-15  0.26945145923E+03  0.27954045849E+03  0.74422973943E+02 0.  0.
         66    2    3    3    0    0  0.34215648849E+02  0.69984043726E+01  0.18277772127E+03  0.18609509313E+03  0.20000016003E+01 0.  0.
        -13    1    3    3    0    0 -0.34215648849E+02 -0.69984043726E+01  0.86673737961E+02  0.93445365354E+02  0.10566000000E+00 0.  1.
         13    1    4    4    0    0  0.32663268390E+01  0.38900793233E+00  0.15894719710E+02  0.16231866710E+02  0.10566000000E+00 0.  1.
        -13    1    4    4    0    0  0.22941460817E+02  0.48989771485E+01  0.12696077226E+03  0.12910987359E+03  0.10566000000E+00 0. -1.
         14    1    4    4    0    0  0.80078611932E+01  0.17104192917E+01  0.39922229293E+02  0.40753352828E+02  0.00000000000E+00 0. -1.
<mgrwt>
<rscale>  0 0.74422974E+02</rscale>
<asrwt>0</asrwt>
<pdfrwt beam="1">  1        2 0.42230166E-01 0.74422974E+02</pdfrwt>
<pdfrwt beam="2">  1       -1 0.77607653E-03 0.74422974E+02</pdfrwt>
<totfact> 0.29821670E+05</totfact>
</mgrwt>
</event>
<event>
 8    1  0.2561077E-024  0.8054825E+02  0.7818608E-02  0.1327503E+00
          2   -1    0    0  501    0  0.00000000000E+00  0.00000000000E+00  0.62872873549E+03  0.62872873550E+03  0.25500000000E-02 0. -1.
         -1   -1    0    0    0  501 -0.00000000000E+00 -0.00000000000E+00 -0.25798147027E+01  0.25798196258E+01  0.50400000000E-02 0.  1.
         24    2    1    2    0    0  0.00000000000E+00  0.17763568394E-14  0.62614892079E+03  0.63130855512E+03  0.80548251165E+02 0.  0.
         66    2    3    3    0    0 -0.51727849128E+01  0.14234243651E+02  0.60554160459E+03  0.60573427036E+03  0.20000010624E+01 0.  0.
        -13    1    3    3    0    0  0.51727849128E+01 -0.14234243651E+02  0.20607316195E+02  0.25574284757E+02  0.10566000000E+00 0.  1.
         13    1    4    4    0    0 -0.10085388267E+01  0.17139568713E+01  0.96884932239E+02  0.96905397465E+02  0.10566000000E+00 0. -1.
        -13    1    4    4    0    0 -0.17559493726E+00  0.14140266950E+01  0.49948084251E+02  0.49968515982E+02  0.10566000000E+00 0.  1.
         14    1    4    4    0    0 -0.39886511488E+01  0.11106260085E+02  0.45870858810E+03  0.45886035692E+03  0.00000000000E+00 0. -1.
<mgrwt>
<rscale>  0 0.80548251E+02</rscale>
<asrwt>0</asrwt>
<pdfrwt beam="1">  1        2 0.96727655E-01 0.80548251E+02</pdfrwt>
<pdfrwt beam="2">  1       -1 0.39689431E-03 0.80548251E+02</pdfrwt>
<totfact> 0.32000949E+05</totfact>
</mgrwt>
</event>
<event>
 8    1  0.2561077E-024  0.8059120E+02  0.7818608E-02  0.1327382E+00
          2   -1    0    0  501    0  0.00000000000E+00  0.00000000000E+00  0.73161095420E+01  0.73161099864E+01  0.25500000000E-02 0. -1.
         -1   -1    0    0    0  501 -0.00000000000E+00 -0.00000000000E+00 -0.22193973631E+03  0.22193973637E+03  0.50400000000E-02 0.  1.
         24    2    1    2    0    0  0.00000000000E+00  0.13322676296E-14 -0.21462362677E+03  0.22925584636E+03  0.80591202500E+02 0.  0.
         66    2    3    3    0    0  0.30037982193E+02 -0.37192624924E+01 -0.31813296402E+02  0.43956787154E+02  0.20000052981E+01 0.  0.
        -13    1    3    3    0    0 -0.30037982193E+02  0.37192624924E+01 -0.18281033037E+03  0.18529905920E+03  0.10566000000E+00 0.  1.
         13    1    4    4    0    0  0.24833960492E+02 -0.26734038108E+01 -0.25660586057E+02  0.35809908161E+02  0.10566000000E+00 0. -1.
        -13    1    4    4    0    0  0.22515991307E+01 -0.42851794102E+00 -0.30849893554E+01  0.38446910968E+01  0.10566000000E+00 0.  1.
        -14    1    4    4    0    0  0.29524225707E+01 -0.61734074060E+00 -0.30677209898E+01  0.43021878965E+01  0.00000000000E+00 0.  1.
<mgrwt>
<rscale>  0 0.80591202E+02</rscale>
<asrwt>0</asrwt>
<pdfrwt beam="1">  1        2 0.11255555E-02 0.80591202E+02</pdfrwt>
<pdfrwt beam="2">  1       -1 0.34144570E-01 0.80591202E+02</pdfrwt>
<totfact> 0.94615448E+04</totfact>
</mgrwt>
</event>
<event>
 8    1  0.2561077E-024  0.7716167E+02  0.7818608E-02  0.1337305E+00
         -1   -1    0    0    0  501 -0.00000000000E+00  0.00000000000E+00  0.19894281103E+01  0.19894344944E+01  0.50400000000E-02 0.  1.
          2   -1    0    0  501    0  0.00000000000E+00 -0.00000000000E+00 -0.74819407333E+03  0.74819407333E+03  0.25500000000E-02 0. -1.
         24    2    1    2    0    0  0.17763568394E-14  0.00000000000E+00 -0.74620464522E+03  0.75018350783E+03  0.77161667107E+02 0.  0.
         66    2    3    3    0    0 -0.14598883879E+02 -0.16224761987E+02 -0.68234573484E+03  0.68269764330E+03  0.20000008187E+01 0.  0.
        -13    1    3    3    0    0  0.14598883879E+02  0.16224761987E+02 -0.63858910382E+02  0.67485864529E+02  0.10566000000E+00 0.  1.
         13    1    4    4    0    0 -0.24234373129E+01 -0.19172296575E+01 -0.10180130981E+03  0.10184825311E+03  0.10566000000E+00 0.  1.
        -13    1    4    4    0    0 -0.69173782770E+01 -0.75150530171E+01 -0.32701705207E+03  0.32717654203E+03  0.10566000000E+00 0. -1.
         14    1    4    4    0    0 -0.52580682894E+01 -0.67924793125E+01 -0.25352737296E+03  0.25367284817E+03  0.00000000000E+00 0. -1.
<mgrwt>
<rscale>  0 0.77161667E+02</rscale>
<asrwt>0</asrwt>
<pdfrwt beam="1">  1        2 0.11510656E+00 0.77161667E+02</pdfrwt>
<pdfrwt beam="2">  1       -1 0.30606695E-03 0.77161667E+02</pdfrwt>
<totfact> 0.37269704E+05</totfact>
</mgrwt>
</event>
<event>
 8    1  0.2561077E-024  0.7927211E+02  0.7818608E-02  0.1331130E+00
          2   -1    0    0  501    0  0.00000000000E+00  0.00000000000E+00  0.64954663829E+01  0.64954668834E+01  0.25500000000E-02 0. -1.
         -1   -1    0    0    0  501 -0.00000000000E+00 -0.00000000000E+00 -0.24186358109E+03  0.24186358114E+03  0.50400000000E-02 0.  1.
         24    2    1    2    0    0  0.00000000000E+00  0.00000000000E+00 -0.23536811471E+03  0.24835904803E+03  0.79272109317E+02 0.  0.
         66    2    3    3    0    0 -0.52676739981E+01 -0.36172024079E+02 -0.16556625196E+03  0.16956517186E+03  0.20000005464E+01 0.  0.
        -13    1    3    3    0    0  0.52676739981E+01  0.36172024079E+02 -0.69801862745E+02  0.78793876170E+02  0.10566000000E+00 0.  1.
         13    1    4    4    0    0 -0.13279272883E+01 -0.13096574138E+02 -0.58942796250E+02  0.60394933884E+02  0.10566000000E+00 0. -1.
        -13    1    4    4    0    0 -0.20774289157E+01 -0.13196317798E+02 -0.58054437054E+02  0.59571699153E+02  0.10566000000E+00 0.  1.
        -14    1    4    4    0    0 -0.18623177942E+01 -0.98791321432E+01 -0.48569018661E+02  0.49598538820E+02  0.00000000000E+00 0.  1.
<mgrwt>
<rscale>  0 0.79272109E+02</rscale>
<asrwt>0</asrwt>
<pdfrwt beam="1">  1        2 0.99930275E-03 0.79272109E+02</pdfrwt>
<pdfrwt beam="2">  1       -1 0.37209775E-01 0.79272109E+02</pdfrwt>
<totfact> 0.95893856E+04</totfact>
</mgrwt>
</event>
<event>
 8    1  0.2561077E-024  0.7950959E+02  0.7818608E-02  0.1330449E+00
          2   -1    0    0  501    0  0.00000000000E+00  0.00000000000E+00  0.15866819413E+03  0.15866819415E+03  0.25500000000E-02 0. -1.
         -1   -1    0    0    0  501 -0.00000000000E+00 -0.00000000000E+00 -0.99606829427E+01  0.99606842178E+01  0.50400000000E-02 0.  1.
         24    2    1    2    0    0  0.00000000000E+00  0.00000000000E+00  0.14870751118E+03  0.16862887836E+03  0.79509588957E+02 0.  0.
         66    2    3    3    0    0  0.74325217657E+01 -0.16920745156E+02  0.14899006082E+03  0.15014523709E+03  0.20000005618E+01 0.  0.
        -13    1    3    3    0    0 -0.74325217657E+01  0.16920745156E+02 -0.28254963301E+00  0.18483641275E+02  0.10566000000E+00 0.  1.
         13    1    4    4    0    0  0.37152694714E+01 -0.92200634574E+01  0.80192861493E+02  0.80806676679E+02  0.10566000000E+00 0. -1.
        -13    1    4    4    0    0  0.92831657405E+00 -0.24202145984E+01  0.25464666369E+02  0.25596476470E+02  0.10566000000E+00 0.  1.
         14    1    4    4    0    0  0.27889357202E+01 -0.52804671004E+01  0.43332532954E+02  0.43742083940E+02  0.00000000000E+00 0. -1.
<mgrwt>
<rscale>  0 0.79509589E+02</rscale>
<asrwt>0</asrwt>
<pdfrwt beam="1">  1        2 0.24410488E-01 0.79509589E+02</pdfrwt>
<pdfrwt beam="2">  1       -1 0.15324131E-02 0.79509589E+02</pdfrwt>
<totfact> 0.20733966E+05</totfact>
</mgrwt>
</event>
<event>
 8    1  0.2561077E-024  0.8088910E+02  0.7818608E-02  0.1326547E+00
         -1   -1    0    0    0  501 -0.00000000000E+00  0.00000000000E+00  0.63472301502E+01  0.63472321512E+01  0.50400000000E-02 0.  1.
          2   -1    0    0  501    0  0.00000000000E+00 -0.00000000000E+00 -0.25771263224E+03  0.25771263226E+03  0.25500000000E-02 0. -1.
         24    2    1    2    0    0  0.00000000000E+00 -0.35527136788E-14 -0.25136540209E+03  0.26405986441E+03  0.80889100757E+02 0.  0.
         66    2    3    3    0    0  0.53001061559E+01  0.29415470345E+02 -0.21458618312E+03  0.21666700489E+03  0.20000003114E+01 0.  0.
        -13    1    3    3    0    0 -0.53001061559E+01 -0.29415470345E+02 -0.36779218972E+02  0.47392859516E+02  0.10566000000E+00 0.  1.
         13    1    4    4    0    0  0.12033878110E+01  0.79689521375E+01 -0.60352629139E+02  0.60888450041E+02  0.10566000000E+00 0. -1.
        -13    1    4    4    0    0  0.51664848647E+00  0.39433465625E+01 -0.24576496843E+02  0.24896430847E+02  0.10566000000E+00 0.  1.
        -14    1    4    4    0    0  0.35800698584E+01  0.17503171645E+02 -0.12965705714E+03  0.13088212400E+03  0.00000000000E+00 0.  1.
<mgrwt>
<rscale>  0 0.80889101E+02</rscale>
<asrwt>0</asrwt>
<pdfrwt beam="1">  1        2 0.39648089E-01 0.80889101E+02</pdfrwt>
<pdfrwt beam="2">  1       -1 0.97649730E-03 0.80889101E+02</pdfrwt>
<totfact> 0.23439022E+05</totfact>
</mgrwt>
</event>
<event>
 8    1  0.2561077E-024  0.7975002E+02  0.7818608E-02  0.1329762E+00
         -1   -1    0    0    0  501 -0.00000000000E+00  0.00000000000E+00  0.10667665694E+02  0.10667666885E+02  0.50400000000E-02 0.  1.
          2   -1    0    0  501    0  0.00000000000E+00 -0.00000000000E+00 -0.14905006865E+03  0.14905006867E+03  0.25500000000E-02 0. -1.
         24    2    1    2    0    0 -0.35527136788E-14  0.00000000000E+00 -0.13838240295E+03  0.15971773555E+03  0.79750019456E+02 0.  0.
         66    2    3    3    0    0  0.22159769925E+02 -0.20761113108E+02 -0.12091636431E+03  0.12468699348E+03  0.19999907151E+01 0.  0.
        -13    1    3    3    0    0 -0.22159769925E+02  0.20761113108E+02 -0.17466038639E+02  0.35030742076E+02  0.10566000000E+00 0.  1.
         13    1    4    4    0    0  0.12964285109E+02 -0.12678497965E+02 -0.72930892525E+02  0.75151468698E+02  0.10566000000E+00 0. -1.
        -13    1    4    4    0    0  0.38355044213E+01 -0.32449844275E+01 -0.21909076734E+02  0.22477985352E+02  0.10566000000E+00 0.  1.
        -14    1    4    4    0    0  0.53599803951E+01 -0.48376307149E+01 -0.26076395056E+02  0.27057539428E+02  0.00000000000E+00 0.  1.
<mgrwt>
<rscale>  0 0.79750019E+02</rscale>
<asrwt>0</asrwt>
<pdfrwt beam="1">  1        2 0.22930778E-01 0.79750019E+02</pdfrwt>
<pdfrwt beam="2">  1       -1 0.16411795E-02 0.79750019E+02</pdfrwt>
<totfact> 0.20155773E+05</totfact>
</mgrwt>
</event>
<event>
 8    1  0.2561077E-024  0.7955727E+02  0.7818608E-02  0.1330313E+00
          2   -1    0    0  501    0  0.00000000000E+00  0.00000000000E+00  0.38429978040E+03  0.38429978041E+03  0.25500000000E-02 0. -1.
         -1   -1    0    0    0  501 -0.00000000000E+00 -0.00000000000E+00 -0.41174607866E+01  0.41174638712E+01  0.50400000000E-02 0.  1.
         24    2    1    2    0    0  0.00000000000E+00 -0.88817841970E-15  0.38018231961E+03  0.38841724428E+03  0.79557271869E+02 0.  0.
         66    2    3    3    0    0 -0.22999530059E+02 -0.79549296931E+01  0.34367750222E+03  0.34454387940E+03  0.20000017401E+01 0.  0.
        -13    1    3    3    0    0  0.22999530059E+02  0.79549296931E+01  0.36504817392E+02  0.43873364884E+02  0.10566000000E+00 0.  1.
         13    1    4    4    0    0 -0.10481253154E+02 -0.36877382347E+01  0.15289034094E+03  0.15329358629E+03  0.10566000000E+00 0. -1.
        -13    1    4    4    0    0 -0.20902761129E+01 -0.45943719431E+00  0.24862840316E+02  0.24955006098E+02  0.10566000000E+00 0.  1.
         14    1    4    4    0    0 -0.10428000792E+02 -0.38077542641E+01  0.16592432097E+03  0.16629528701E+03  0.00000000000E+00 0. -1.
<mgrwt>
<rscale>  0 0.79557272E+02</rscale>
<asrwt>0</asrwt>
<pdfrwt beam="1">  1        2 0.59123060E-01 0.79557272E+02</pdfrwt>
<pdfrwt beam="2">  1       -1 0.63345557E-03 0.79557272E+02</pdfrwt>
<totfact> 0.28265780E+05</totfact>
</mgrwt>
</event>
<event>
 8    1  0.2561077E-024  0.8044170E+02  0.7818608E-02  0.1327803E+00
          2   -1    0    0  501    0  0.00000000000E+00  0.00000000000E+00  0.61160418913E+03  0.61160418914E+03  0.25500000000E-02 0. -1.
         -1   -1    0    0    0  501 -0.00000000000E+00 -0.00000000000E+00 -0.26450362575E+01  0.26450410592E+01  0.50400000000E-02 0.  1.
         24    2    1    2    0    0  0.00000000000E+00  0.00000000000E+00  0.60895915287E+03  0.61424923020E+03  0.80441698934E+02 0.  0.
         66    2    3    3    0    0  0.14835194853E+02 -0.35653146526E+02  0.38986273465E+03  0.39177567782E+03  0.20000000682E+01 0.  0.
        -13    1    3    3    0    0 -0.14835194853E+02  0.35653146526E+02  0.21909641823E+03  0.22247355238E+03  0.10566000000E+00 0.  1.
         13    1    4    4    0    0  0.89385248148E+01 -0.20965368382E+02  0.23893197440E+03  0.24001654829E+03  0.10566000000E+00 0. -1.
        -13    1    4    4    0    0  0.41529651017E+01 -0.10775121115E+02  0.11137015806E+03  0.11196728819E+03  0.10566000000E+00 0.  1.
         14    1    4    4    0    0  0.17437049361E+01 -0.39126570289E+01  0.39560602181E+02  0.39791841335E+02  0.00000000000E+00 0. -1.
<mgrwt>
<rscale>  0 0.80441699E+02</rscale>
<asrwt>0</asrwt>
<pdfrwt beam="1">  1        2 0.94092982E-01 0.80441699E+02</pdfrwt>
<pdfrwt beam="2">  1       -1 0.40692890E-03 0.80441699E+02</pdfrwt>
<totfact> 0.31873767E+05</totfact>
</mgrwt>
</event>
<event>
 8    1  0.2561077E-024  0.8164459E+02  0.7818608E-02  0.1324448E+00
          2   -1    0    0  501    0  0.00000000000E+00  0.00000000000E+00  0.51900881033E+02  0.51900881096E+02  0.25500000000E-02 0. -1.
         -1   -1    0    0    0  501 -0.00000000000E+00 -0.00000000000E+00 -0.32108507006E+02  0.32108507402E+02  0.50400000000E-02 0.  1.
         24    2    1    2    0    0  0.71054273576E-14 -0.17763568394E-14  0.19792374027E+02  0.84009388497E+02  0.81644591285E+02 0.  0.
         66    2    3    3    0    0 -0.38142857420E+02  0.14462537492E+02  0.92414263545E+01  0.41874174914E+02  0.20000002020E+01 0.  0.
        -13    1    3    3    0    0  0.38142857420E+02 -0.14462537492E+02  0.10550947673E+02  0.42135213583E+02  0.10566000000E+00 0.  1.
         13    1    4    4    0    0 -0.13729691560E+02  0.52027602536E+01  0.26773462190E+01  0.14924895021E+02  0.10566000000E+00 0. -1.
        -13    1    4    4    0    0 -0.34011389385E+01  0.90529585635E+00  0.10559926376E+01  0.36760836705E+01  0.10566000000E+00 0.  1.
        -14    1    4    4    0    0 -0.21012026922E+02  0.83544813821E+01  0.55080874979E+01  0.23273196222E+02  0.00000000000E+00 0.  1.
<mgrwt>
<rscale>  0 0.81644591E+02</rscale>
<asrwt>0</asrwt>
<pdfrwt beam="1">  1        2 0.79847509E-02 0.81644591E+02</pdfrwt>
<pdfrwt beam="2">  1       -1 0.49397704E-02 0.81644591E+02</pdfrwt>
<totfact> 0.14248734E+05</totfact>
</mgrwt>
</event>
<event>
 8    1  0.2561077E-024  0.7926707E+02  0.7818608E-02  0.1331144E+00
          2   -1    0    0  501    0  0.00000000000E+00  0.00000000000E+00  0.23417183376E+02  0.23417183515E+02  0.25500000000E-02 0. -1.
         -1   -1    0    0    0  501 -0.00000000000E+00 -0.00000000000E+00 -0.67079676878E+02  0.67079677067E+02  0.50400000000E-02 0.  1.
         24    2    1    2    0    0 -0.71054273576E-14  0.88817841970E-15 -0.43662493501E+02  0.90496860583E+02  0.79267070316E+02 0.  0.
         66    2    3    3    0    0 -0.33550147748E+02  0.47050607315E+01  0.15817391876E+01  0.33974283093E+02  0.20000006022E+01 0.  0.
        -13    1    3    3    0    0  0.33550147748E+02 -0.47050607315E+01 -0.45244232689E+02  0.56522577490E+02  0.10566000000E+00 0.  1.
         13    1    4    4    0    0 -0.70413794931E+00 -0.69071091269E-01  0.17782683302E+00  0.73713464540E+00  0.10566000000E+00 0. -1.
        -13    1    4    4    0    0 -0.96232862882E+01  0.16516722330E+01  0.80672519779E+00  0.97978380131E+01  0.10566000000E+00 0.  1.
         14    1    4    4    0    0 -0.23222723511E+02  0.31224595898E+01  0.59718715679E+00  0.23439310434E+02  0.00000000000E+00 0. -1.
<mgrwt>
<rscale>  0 0.79267070E+02</rscale>
<asrwt>0</asrwt>
<pdfrwt beam="1">  1        2 0.36026436E-02 0.79267070E+02</pdfrwt>
<pdfrwt beam="2">  1       -1 0.10319950E-01 0.79267070E+02</pdfrwt>
<totfact> 0.13153003E+05</totfact>
</mgrwt>
</event>
<event>
 8    1  0.2561077E-024  0.7986236E+02  0.7818608E-02  0.1329442E+00
         -1   -1    0    0    0  501 -0.00000000000E+00  0.00000000000E+00  0.12657036317E+02  0.12657037320E+02  0.50400000000E-02 0.  1.
          2   -1    0    0  501    0  0.00000000000E+00 -0.00000000000E+00 -0.12597728372E+03  0.12597728375E+03  0.25500000000E-02 0. -1.
         24    2    1    2    0    0  0.00000000000E+00  0.00000000000E+00 -0.11332024740E+03  0.13863432107E+03  0.79862359757E+02 0.  0.
         66    2    3    3    0    0 -0.19455638252E+02 -0.34301707718E+02 -0.46084419926E+02  0.60686924235E+02  0.20000002623E+01 0.  0.
        -13    1    3    3    0    0  0.19455638252E+02  0.34301707718E+02 -0.67235827477E+02  0.77947396831E+02  0.10566000000E+00 0.  1.
         13    1    4    4    0    0 -0.13045059350E+02 -0.21534735197E+02 -0.29931771244E+02  0.39113175367E+02  0.10566000000E+00 0. -1.
        -13    1    4    4    0    0 -0.48962410907E+01 -0.92522450294E+01 -0.11561226120E+02  0.15596484487E+02  0.10566000000E+00 0.  1.
        -14    1    4    4    0    0 -0.15143378113E+01 -0.35147274916E+01 -0.45914225613E+01  0.59772643813E+01  0.00000000000E+00 0.  1.
<mgrwt>
<rscale>  0 0.79862360E+02</rscale>
<asrwt>0</asrwt>
<pdfrwt beam="1">  1        2 0.19381120E-01 0.79862360E+02</pdfrwt>
<pdfrwt beam="2">  1       -1 0.19472365E-02 0.79862360E+02</pdfrwt>
<totfact> 0.19050158E+05</totfact>
</mgrwt>
</event>
<event>
 8    1  0.2561077E-024  0.7556059E+02  0.7818608E-02  0.1342144E+00
          2   -1    0    0  501    0  0.00000000000E+00  0.00000000000E+00  0.60585723849E+01  0.60585729215E+01  0.25500000000E-02 0. -1.
         -1   -1    0    0    0  501 -0.00000000000E+00 -0.00000000000E+00 -0.23559188235E+03  0.23559188241E+03  0.50400000000E-02 0.  1.
         24    2    1    2    0    0  0.00000000000E+00  0.00000000000E+00 -0.22953330997E+03  0.24165045533E+03  0.75560586125E+02 0.  0.
         66    2    3    3    0    0 -0.10231695097E+02 -0.33828579465E+02 -0.72384847309E+02  0.80576835970E+02  0.20000004313E+01 0.  0.
        -13    1    3    3    0    0  0.10231695097E+02  0.33828579465E+02 -0.15714846266E+03  0.16107361936E+03  0.10566000000E+00 0.  1.
         13    1    4    4    0    0 -0.12230663743E+01 -0.34378317213E+01 -0.67192207722E+01  0.76468078386E+01  0.10566000000E+00 0. -1.
        -13    1    4    4    0    0 -0.57618087796E+00 -0.21866672535E+01 -0.39369970282E+01  0.45414323421E+01  0.10566000000E+00 0.  1.
        -14    1    4    4    0    0 -0.84324478445E+01 -0.28204080491E+02 -0.61728629509E+02  0.68388595789E+02  0.00000000000E+00 0.  1.
<mgrwt>
<rscale>  0 0.75560586E+02</rscale>
<asrwt>0</asrwt>
<pdfrwt beam="1">  1        2 0.93208829E-03 0.75560586E+02</pdfrwt>
<pdfrwt beam="2">  1       -1 0.36244898E-01 0.75560586E+02</pdfrwt>
<totfact> 0.10933954E+05</totfact>
</mgrwt>
</event>
<event>
 8    1  0.2561077E-024  0.7741537E+02  0.7818608E-02  0.1336550E+00
          2   -1    0    0  501    0  0.00000000000E+00  0.00000000000E+00  0.48106552139E+03  0.48106552139E+03  0.25500000000E-02 0. -1.
         -1   -1    0    0    0  501 -0.00000000000E+00 -0.00000000000E+00 -0.31145110438E+01  0.31145151217E+01  0.50400000000E-02 0.  1.
         24    2    1    2    0    0  0.00000000000E+00 -0.35527136788E-14  0.47795101034E+03  0.48418003652E+03  0.77415369741E+02 0.  0.
         66    2    3    3    0    0 -0.33042366630E+01 -0.27473432015E+02  0.40818306968E+03  0.40912482913E+03  0.19999986005E+01 0.  0.
        -13    1    3    3    0    0  0.33042366630E+01  0.27473432015E+02  0.69767940665E+02  0.75055207382E+02  0.10566000000E+00 0.  1.
         13    1    4    4    0    0 -0.34148464893E+01 -0.24302771386E+02  0.35766742844E+03  0.35850841887E+03  0.10566000000E+00 0. -1.
        -13    1    4    4    0    0  0.12644157843E+00 -0.13943161170E+01  0.24490412939E+02  0.24530625651E+02  0.10566000000E+00 0.  1.
         14    1    4    4    0    0 -0.15831752085E-01 -0.17763445118E+01  0.26025228303E+02  0.26085784610E+02  0.00000000000E+00 0. -1.
<mgrwt>
<rscale>  0 0.77415370E+02</rscale>
<asrwt>0</asrwt>
<pdfrwt beam="1">  1        2 0.74010066E-01 0.77415370E+02</pdfrwt>
<pdfrwt beam="2">  1       -1 0.47915595E-03 0.77415370E+02</pdfrwt>
<totfact> 0.32759110E+05</totfact>
</mgrwt>
</event>
<event>
 8    1  0.2561077E-024  0.8074382E+02  0.7818608E-02  0.1326954E+00
         -1   -1    0    0    0  501 -0.00000000000E+00  0.00000000000E+00  0.21819835143E+01  0.21819893350E+01  0.50400000000E-02 0.  1.
          2   -1    0    0  501    0  0.00000000000E+00 -0.00000000000E+00 -0.74697580516E+03  0.74697580517E+03  0.25500000000E-02 0. -1.
         24    2    1    2    0    0  0.17763568394E-14  0.71054273576E-14 -0.74479382165E+03  0.74915779450E+03  0.80743818944E+02 0.  0.
         66    2    3    3    0    0  0.15605438196E+02  0.32926074901E+02 -0.53338958781E+03  0.53463642643E+03  0.19999936507E+01 0.  0.
        -13    1    3    3    0    0 -0.15605438196E+02 -0.32926074901E+02 -0.21140423384E+03  0.21452136807E+03  0.10566000000E+00 0.  1.
         13    1    4    4    0    0  0.29993086283E+01  0.56291589570E+01 -0.10384666297E+03  0.10404241374E+03  0.10566000000E+00 0. -1.
        -13    1    4    4    0    0  0.77297230543E+01  0.16658217352E+02 -0.26335074327E+03  0.26399028385E+03  0.10566000000E+00 0.  1.
         14    1    4    4    0    0  0.48764065139E+01  0.10638698591E+02 -0.16619218157E+03  0.16660372884E+03  0.00000000000E+00 0. -1.
<mgrwt>
<rscale>  0 0.80743819E+02</rscale>
<asrwt>0</asrwt>
<pdfrwt beam="1">  1        2 0.11491915E+00 0.80743819E+02</pdfrwt>
<pdfrwt beam="2">  1       -1 0.33569082E-03 0.80743819E+02</pdfrwt>
<totfact> 0.33118483E+05</totfact>
</mgrwt>
</event>
<event>
 8    1  0.2561077E-024  0.8108338E+02  0.7818608E-02  0.1326005E+00
         -1   -1    0    0    0  501 -0.00000000000E+00  0.00000000000E+00  0.10642481682E+02  0.10642482875E+02  0.50400000000E-02 0.  1.
          2   -1    0    0  501    0  0.00000000000E+00 -0.00000000000E+00 -0.15444035702E+03  0.15444035704E+03  0.25500000000E-02 0. -1.
         24    2    1    2    0    0  0.00000000000E+00  0.00000000000E+00 -0.14379787534E+03  0.16508283991E+03  0.81083383519E+02 0.  0.
         66    2    3    3    0    0 -0.21419485919E+02  0.34216126733E+02 -0.64864520848E+02  0.76426067356E+02  0.20000002546E+01 0.  0.
        -13    1    3    3    0    0  0.21419485919E+02 -0.34216126733E+02 -0.78933354488E+02  0.88656772558E+02  0.10566000000E+00 0.  1.
         13    1    4    4    0    0 -0.48234636946E+01  0.84607693748E+01 -0.16852282260E+02  0.19464352079E+02  0.10566000000E+00 0. -1.
        -13    1    4    4    0    0 -0.25376651973E+01  0.44602986399E+01 -0.78786828750E+01  0.94031280163E+01  0.10566000000E+00 0.  1.
         14    1    4    4    0    0 -0.14058357027E+02  0.21295058718E+02 -0.40133555712E+02  0.47558587261E+02  0.00000000000E+00 0. -1.
<mgrwt>
<rscale>  0 0.81083384E+02</rscale>
<asrwt>0</asrwt>
<pdfrwt beam="1">  1        2 0.23760053E-01 0.81083384E+02</pdfrwt>
<pdfrwt beam="2">  1       -1 0.16373051E-02 0.81083384E+02</pdfrwt>
<totfact> 0.19510911E+05</totfact>
</mgrwt>
</event>
<event>
 8    1  0.2561077E-024  0.7877239E+02  0.7818608E-02  0.1332572E+00
          2   -1    0    0  501    0  0.00000000000E+00  0.00000000000E+00  0.26350487289E+02  0.26350487412E+02  0.25500000000E-02 0. -1.
         -1   -1    0    0    0  501 -0.00000000000E+00 -0.00000000000E+00 -0.58870728814E+02  0.58870729030E+02  0.50400000000E-02 0.  1.
         24    2    1    2    0    0 -0.17763568394E-14  0.00000000000E+00 -0.32520241525E+02  0.85221216442E+02  0.78772391249E+02 0.  0.
         66    2    3    3    0    0  0.12052778931E+02  0.16523312769E+02  0.20112619216E+02  0.28754247879E+02  0.19999936260E+01 0.  0.
        -13    1    3    3    0    0 -0.12052778931E+02 -0.16523312769E+02 -0.52632860742E+02  0.56466968563E+02  0.10566000000E+00 0.  1.
         13    1    4    4    0    0  0.72655297769E+01  0.96576930492E+01  0.12263564525E+02  0.17218162994E+02  0.10566000000E+00 0. -1.
        -13    1    4    4    0    0  0.46885685049E+01  0.67113625757E+01  0.73432823520E+01  0.10998182667E+02  0.10566000000E+00 0.  1.
         14    1    4    4    0    0  0.98680649555E-01  0.15425714434E+00  0.50577233919E+00  0.53790221813E+00  0.00000000000E+00 0. -1.
<mgrwt>
<rscale>  0 0.78772391E+02</rscale>
<asrwt>0</asrwt>
<pdfrwt beam="1">  1        2 0.40539212E-02 0.78772391E+02</pdfrwt>
<pdfrwt beam="2">  1       -1 0.90570352E-02 0.78772391E+02</pdfrwt>
<totfact> 0.13700171E+05</totfact>
</mgrwt>
</event>
<event>
 8    1  0.2561077E-024  0.7710299E+02  0.7818608E-02  0.1337480E+00
          2   -1    0    0  501    0  0.00000000000E+00  0.00000000000E+00  0.19916936331E+02  0.19916936494E+02  0.25500000000E-02 0. -1.
         -1   -1    0    0    0  501 -0.00000000000E+00 -0.00000000000E+00 -0.74620800284E+02  0.74620800455E+02  0.50400000000E-02 0.  1.
         24    2    1    2    0    0  0.17763568394E-14 -0.35527136788E-14 -0.54703863953E+02  0.94537736949E+02  0.77102989410E+02 0.  0.
         66    2    3    3    0    0  0.98373465568E+01 -0.31463141606E+02 -0.29242675224E+01  0.33154999656E+02  0.19999986579E+01 0.  0.
        -13    1    3    3    0    0 -0.98373465568E+01  0.31463141606E+02 -0.51779596431E+02  0.61382737293E+02  0.10566000000E+00 0.  1.
         13    1    4    4    0    0  0.66562815454E+01 -0.20852155127E+02 -0.15068665463E+01  0.21940835633E+02  0.10566000000E+00 0. -1.
        -13    1    4    4    0    0  0.16551784716E+01 -0.39329548554E+01 -0.71925661392E+00  0.43285382960E+01  0.10566000000E+00 0.  1.
        -14    1    4    4    0    0  0.15258865399E+01 -0.66780316235E+01 -0.69814436224E+00  0.68856257266E+01  0.00000000000E+00 0.  1.
<mgrwt>
<rscale>  0 0.77102989E+02</rscale>
<asrwt>0</asrwt>
<pdfrwt beam="1">  1        2 0.30641441E-02 0.77102989E+02</pdfrwt>
<pdfrwt beam="2">  1       -1 0.11480123E-01 0.77102989E+02</pdfrwt>
<totfact> 0.13786607E+05</totfact>
</mgrwt>
</event>
<event>
 8    1  0.2561077E-024  0.7930293E+02  0.7818608E-02  0.1331041E+00
         -1   -1    0    0    0  501 -0.00000000000E+00  0.00000000000E+00  0.40591294979E+02  0.40591295291E+02  0.50400000000E-02 0.  1.
          2   -1    0    0  501    0  0.00000000000E+00 -0.00000000000E+00 -0.38733392730E+02  0.38733392814E+02  0.25500000000E-02 0. -1.
         24    2    1    2    0    0  0.00000000000E+00  0.00000000000E+00  0.18579022488E+01  0.79324688105E+02  0.79302927703E+02 0.  0.
         66    2    3    3    0    0 -0.21811102049E+02 -0.28577020837E+02 -0.15744266930E+02  0.39296975001E+02  0.20000026316E+01 0.  0.
        -13    1    3    3    0    0  0.21811102049E+02  0.28577020837E+02  0.17602169179E+02  0.40027713104E+02  0.10566000000E+00 0.  1.
         13    1    4    4    0    0 -0.72671914526E+01 -0.91241359669E+01 -0.48205431278E+01  0.12621835399E+02  0.10566000000E+00 0. -1.
        -13    1    4    4    0    0 -0.29231255379E+01 -0.49289381183E+01 -0.23785262560E+01  0.62054528498E+01  0.10566000000E+00 0.  1.
        -14    1    4    4    0    0 -0.11620785059E+02 -0.14523946752E+02 -0.85451975465E+01  0.20469686752E+02  0.00000000000E+00 0.  1.
<mgrwt>
<rscale>  0 0.79302928E+02</rscale>
<asrwt>0</asrwt>
<pdfrwt beam="1">  1        2 0.59589836E-02 0.79302928E+02</pdfrwt>
<pdfrwt beam="2">  1       -1 0.62448146E-02 0.79302928E+02</pdfrwt>
<totfact> 0.14508639E+05</totfact>
</mgrwt>
</event>
<event>
 8    1  0.2561077E-024  0.7906965E+02  0.7818608E-02  0.1331713E+00
          2   -1    0    0  501    0  0.00000000000E+00  0.00000000000E+00  0.30971211205E+03  0.30971211206E+03  0.25500000000E-02 0. -1.
         -1   -1    0    0    0  501 -0.00000000000E+00 -0.00000000000E+00 -0.50466286138E+01  0.50466311305E+01  0.50400000000E-02 0.  1.
         24    2    1    2    0    0  0.00000000000E+00  0.00000000000E+00  0.30466548344E+03  0.31475874319E+03  0.79069650422E+02 0.  0.
         66    2    3    3    0    0  0.35143952522E+02 -0.25935265085E+01  0.22354825644E+03  0.22631757937E+03  0.19999988710E+01 0.  0.
        -13    1    3    3    0    0 -0.35143952522E+02  0.25935265085E+01  0.81117226993E+02  0.88441163819E+02  0.10566000000E+00 0.  1.
         13    1    4    4    0    0  0.38604754600E+01 -0.31799120991E+00  0.27242565132E+02  0.27516775032E+02  0.10566000000E+00 0. -1.
        -13    1    4    4    0    0  0.11976516984E+02 -0.27938920426E+00  0.72767028830E+02  0.73746638338E+02  0.10566000000E+00 0.  1.
        -14    1    4    4    0    0  0.19306960078E+02 -0.19961460943E+01  0.12353866248E+03  0.12505416600E+03  0.00000000000E+00 0.  1.
<mgrwt>
<rscale>  0 0.79069650E+02</rscale>
<asrwt>0</asrwt>
<pdfrwt beam="1">  1        2 0.47648025E-01 0.79069650E+02</pdfrwt>
<pdfrwt beam="2">  1       -1 0.77640447E-03 0.79069650E+02</pdfrwt>
<totfact> 0.26592448E+05</totfact>
</mgrwt>
</event>
<event>
 8    1  0.2561077E-024  0.7917427E+02  0.7818608E-02  0.1331411E+00
         -1   -1    0    0    0  501 -0.00000000000E+00  0.00000000000E+00  0.66578968549E+00  0.66580876151E+00  0.50400000000E-02 0.  1.
          2   -1    0    0  501    0  0.00000000000E+00 -0.00000000000E+00 -0.23537744283E+04  0.23537744283E+04  0.25500000000E-02 0. -1.
         24    2    1    2    0    0  0.00000000000E+00  0.00000000000E+00 -0.23531086387E+04  0.23544402371E+04  0.79174268412E+02 0.  0.
         66    2    3    3    0    0 -0.29606534025E+01 -0.10689826101E+02 -0.23065814867E+04  0.23066090247E+04  0.20000014424E+01 0.  0.
        -13    1    3    3    0    0  0.29606534025E+01  0.10689826101E+02 -0.46527151931E+02  0.47831212419E+02  0.10566000000E+00 0.  1.
         13    1    4    4    0    0 -0.11402896878E+01 -0.56611137464E+01 -0.11650027646E+04  0.11650170820E+04  0.10566000000E+00 0. -1.
        -13    1    4    4    0    0 -0.13228334167E+01 -0.29084148455E+01 -0.55808462501E+03  0.55809378119E+03  0.10566000000E+00 0.  1.
         14    1    4    4    0    0 -0.49753029803E+00 -0.21202975095E+01 -0.58349409707E+03  0.58349816154E+03  0.00000000000E+00 0. -1.
<mgrwt>
<rscale>  0 0.79174268E+02</rscale>
<asrwt>0</asrwt>
<pdfrwt beam="1">  1        2 0.36211248E+00 0.79174268E+02</pdfrwt>
<pdfrwt beam="2">  1       -1 0.10243253E-03 0.79174268E+02</pdfrwt>
<totfact> 0.23633804E+05</totfact>
</mgrwt>
</event>
<event>
 8    1  0.2561077E-024  0.7905280E+02  0.7818608E-02  0.1331761E+00
          2   -1    0    0  501    0  0.00000000000E+00  0.00000000000E+00  0.15421489172E+03  0.15421489174E+03  0.25500000000E-02 0. -1.
         -1   -1    0    0    0  501 -0.00000000000E+00 -0.00000000000E+00 -0.10130904661E+02  0.10130905915E+02  0.50400000000E-02 0.  1.
         24    2    1    2    0    0  0.35527136788E-14  0.00000000000E+00  0.14408398706E+03  0.16434579766E+03  0.79052804381E+02 0.  0.
         66    2    3    3    0    0 -0.25949891768E+02  0.19629404330E+02  0.11864971993E+03  0.12304660268E+03  0.19999987979E+01 0.  0.
        -13    1    3    3    0    0  0.25949891768E+02 -0.19629404330E+02  0.25434267131E+02  0.41299194975E+02  0.10566000000E+00 0.  1.
         13    1    4    4    0    0 -0.14236334575E+02  0.10593708177E+02  0.67681619943E+02  0.69969369850E+02  0.10566000000E+00 0. -1.
        -13    1    4    4    0    0 -0.79782362116E+01  0.65239923090E+01  0.36152751561E+02  0.37593182070E+02  0.10566000000E+00 0.  1.
         14    1    4    4    0    0 -0.37353209811E+01  0.25117038431E+01  0.14815348427E+02  0.15484050763E+02  0.00000000000E+00 0. -1.
<mgrwt>
<rscale>  0 0.79052804E+02</rscale>
<asrwt>0</asrwt>
<pdfrwt beam="1">  1        2 0.23725366E-01 0.79052804E+02</pdfrwt>
<pdfrwt beam="2">  1       -1 0.15586010E-02 0.79052804E+02</pdfrwt>
<totfact> 0.20858533E+05</totfact>
</mgrwt>
</event>
<event>
 8    1  0.2561077E-024  0.7798527E+02  0.7818608E-02  0.1334868E+00
         -1   -1    0    0    0  501 -0.00000000000E+00  0.00000000000E+00  0.16090595314E+02  0.16090596103E+02  0.50400000000E-02 0.  1.
          2   -1    0    0  501    0  0.00000000000E+00 -0.00000000000E+00 -0.94491570829E+02  0.94491570863E+02  0.25500000000E-02 0. -1.
         24    2    1    2    0    0  0.00000000000E+00  0.00000000000E+00 -0.78400975515E+02  0.11058216697E+03  0.77985272259E+02 0.  0.
         66    2    3    3    0    0  0.20030569691E+02  0.45920042536E+01 -0.86172315318E+02  0.88611388383E+02  0.19999996642E+01 0.  0.
        -13    1    3    3    0    0 -0.20030569691E+02 -0.45920042536E+01  0.77713398028E+01  0.21970778584E+02  0.10566000000E+00 0.  1.
         13    1    4    4    0    0  0.43831323172E+01  0.11611996672E+01 -0.18683326761E+02  0.19225974526E+02  0.10566000000E+00 0. -1.
        -13    1    4    4    0    0  0.41056419859E+01  0.16318504366E+01 -0.17412842764E+02  0.17964896023E+02  0.10566000000E+00 0.  1.
        -14    1    4    4    0    0  0.11541795388E+02  0.17989541498E+01 -0.50076145793E+02  0.51420517833E+02  0.00000000000E+00 0.  1.
<mgrwt>
<rscale>  0 0.77985272E+02</rscale>
<asrwt>0</asrwt>
<pdfrwt beam="1">  1        2 0.14537164E-01 0.77985272E+02</pdfrwt>
<pdfrwt beam="2">  1       -1 0.24754763E-02 0.77985272E+02</pdfrwt>
<totfact> 0.18683846E+05</totfact>
</mgrwt>
</event>
<event>
 8    1  0.2561077E-024  0.7940545E+02  0.7818608E-02  0.1330747E+00
          2   -1    0    0  501    0  0.00000000000E+00  0.00000000000E+00  0.77232152711E+03  0.77232152712E+03  0.25500000000E-02 0. -1.
         -1   -1    0    0    0  501 -0.00000000000E+00 -0.00000000000E+00 -0.20409943091E+01  0.20410005319E+01  0.50400000000E-02 0.  1.
         24    2    1    2    0    0 -0.35527136788E-14  0.00000000000E+00  0.77028053280E+03  0.77436252765E+03  0.79405446983E+02 0.  0.
         66    2    3    3    0    0  0.28684260493E+02 -0.14205592062E+01  0.65236398521E+03  0.65299890811E+03  0.19999994865E+01 0.  0.
        -13    1    3    3    0    0 -0.28684260493E+02  0.14205592062E+01  0.11791654759E+03  0.12136361954E+03  0.10566000000E+00 0.  1.
         13    1    4    4    0    0  0.18824881943E+01  0.97550332988E-01  0.37188478101E+02  0.37236371270E+02  0.10566000000E+00 0. -1.
        -13    1    4    4    0    0  0.43259358698E+01 -0.62825946844E+00  0.92728307445E+02  0.92831344904E+02  0.10566000000E+00 0.  1.
         14    1    4    4    0    0  0.22475836429E+02 -0.88985007072E+00  0.52244719967E+03  0.52293119193E+03  0.00000000000E+00 0. -1.
<mgrwt>
<rscale>  0 0.79405447E+02</rscale>
<asrwt>0</asrwt>
<pdfrwt beam="1">  1        2 0.11881875E+00 0.79405447E+02</pdfrwt>
<pdfrwt beam="2">  1       -1 0.31399947E-03 0.79405447E+02</pdfrwt>
<totfact> 0.34815774E+05</totfact>
</mgrwt>
</event>
<event>
 8    1  0.2561077E-024  0.7979316E+02  0.7818608E-02  0.1329639E+00
         -1   -1    0    0    0  501 -0.00000000000E+00  0.00000000000E+00  0.32648742290E+02  0.32648742679E+02  0.50400000000E-02 0.  1.
          2   -1    0    0  501    0  0.00000000000E+00 -0.00000000000E+00 -0.48753398610E+02  0.48753398677E+02  0.25500000000E-02 0. -1.
         24    2    1    2    0    0 -0.35527136788E-14  0.00000000000E+00 -0.16104656320E+02  0.81402141356E+02  0.79793161750E+02 0.  0.
         66    2    3    3    0    0  0.19861737361E+02 -0.19827472455E+02 -0.36950094698E+02  0.46442725741E+02  0.20000002747E+01 0.  0.
        -13    1    3    3    0    0 -0.19861737361E+02  0.19827472455E+02  0.20845438378E+02  0.34959415615E+02  0.10566000000E+00 0.  1.
         13    1    4    4    0    0  0.18790786142E+02 -0.18396457314E+02 -0.33977605252E+02  0.42965243025E+02  0.10566000000E+00 0. -1.
        -13    1    4    4    0    0  0.48134096334E+00 -0.56978839261E+00 -0.14066408868E+01  0.15956661792E+01  0.10566000000E+00 0. -1.
         14    1    4    4    0    0  0.58961025585E+00 -0.86122674835E+00 -0.15658485597E+01  0.18818165367E+01  0.00000000000E+00 0. -1.
<mgrwt>
<rscale>  0 0.79793162E+02</rscale>
<asrwt>0</asrwt>
<pdfrwt beam="1">  1        2 0.75005229E-02 0.79793162E+02</pdfrwt>
<pdfrwt beam="2">  1       -1 0.50228835E-02 0.79793162E+02</pdfrwt>
<totfact> 0.14967252E+05</totfact>
</mgrwt>
</event>
<event>
 8    1  0.2561077E-024  0.7982771E+02  0.7818608E-02  0.1329541E+00
          2   -1    0    0  501    0  0.00000000000E+00  0.00000000000E+00  0.17610556631E+03  0.17610556632E+03  0.25500000000E-02 0. -1.
         -1   -1    0    0    0  501 -0.00000000000E+00 -0.00000000000E+00 -0.90463673928E+01  0.90463687967E+01  0.50400000000E-02 0.  1.
         24    2    1    2    0    0  0.00000000000E+00  0.00000000000E+00  0.16705919891E+03  0.18515193512E+03  0.79827709084E+02 0.  0.
         66    2    3    3    0    0 -0.29516552925E+02 -0.23422199775E+02  0.53226649465E+02  0.65244942761E+02  0.20000009449E+01 0.  0.
        -13    1    3    3    0    0  0.29516552925E+02  0.23422199775E+02  0.11383254945E+03  0.11990699236E+03  0.10566000000E+00 0.  1.
         13    1    4    4    0    0 -0.14667260154E+02 -0.12110712701E+02  0.28138570730E+02  0.33964513971E+02  0.10566000000E+00 0. -1.
        -13    1    4    4    0    0 -0.79032120043E+00 -0.69498425048E+00  0.12176210418E+01  0.16128780938E+01  0.10566000000E+00 0. -1.
         14    1    4    4    0    0 -0.14058971571E+02 -0.10616502823E+02  0.23870457693E+02  0.29667550696E+02  0.00000000000E+00 0. -1.
<mgrwt>
<rscale>  0 0.79827709E+02</rscale>
<asrwt>0</asrwt>
<pdfrwt beam="1">  1        2 0.27093164E-01 0.79827709E+02</pdfrwt>
<pdfrwt beam="2">  1       -1 0.13917490E-02 0.79827709E+02</pdfrwt>
<totfact> 0.21238259E+05</totfact>
</mgrwt>
</event>
<event>
 8    1  0.2561077E-024  0.7209138E+02  0.7818608E-02  0.1353122E+00
         -1   -1    0    0    0  501 -0.00000000000E+00  0.00000000000E+00  0.74238218464E+01  0.74238235573E+01  0.50400000000E-02 0.  1.
          2   -1    0    0  501    0  0.00000000000E+00 -0.00000000000E+00 -0.17501654024E+03  0.17501654026E+03  0.25500000000E-02 0. -1.
         24    2    1    2    0    0  0.35527136788E-14  0.00000000000E+00 -0.16759271840E+03  0.18244036382E+03  0.72091380142E+02 0.  0.
         66    2    3    3    0    0 -0.24308704792E+02 -0.18470442676E+02 -0.13222362824E+03  0.13571719950E+03  0.19999985596E+01 0.  0.
        -13    1    3    3    0    0  0.24308704792E+02  0.18470442676E+02 -0.35369090156E+02  0.46723164317E+02  0.10566000000E+00 0.  1.
         13    1    4    4    0    0 -0.17069275950E+02 -0.13386934822E+02 -0.93657544283E+02  0.96136969843E+02  0.10566000000E+00 0. -1.
        -13    1    4    4    0    0 -0.17920333119E+01 -0.17750388025E+01 -0.11512247250E+02  0.11785802770E+02  0.10566000000E+00 0. -1.
         14    1    4    4    0    0 -0.54473955300E+01 -0.33084690514E+01 -0.27053836708E+02  0.27794426890E+02  0.00000000000E+00 0. -1.
<mgrwt>
<rscale>  0 0.72091380E+02</rscale>
<asrwt>0</asrwt>
<pdfrwt beam="1">  1        2 0.26925618E-01 0.72091380E+02</pdfrwt>
<pdfrwt beam="2">  1       -1 0.11421267E-02 0.72091380E+02</pdfrwt>
<totfact> 0.27705692E+05</totfact>
</mgrwt>
</event>
<event>
 8    1  0.2561077E-024  0.8125983E+02  0.7818608E-02  0.1325514E+00
         -1   -1    0    0    0  501 -0.00000000000E+00  0.00000000000E+00  0.23265225755E+01  0.23265280346E+01  0.50400000000E-02 0.  1.
          2   -1    0    0  501    0  0.00000000000E+00 -0.00000000000E+00 -0.70955169233E+03  0.70955169234E+03  0.25500000000E-02 0. -1.
         24    2    1    2    0    0 -0.35527136788E-14 -0.17763568394E-14 -0.70722516976E+03  0.71187822037E+03  0.81259829570E+02 0.  0.
         66    2    3    3    0    0 -0.30497736590E+02  0.13668336618E+02 -0.55586008772E+03  0.55686746401E+03  0.19999980879E+01 0.  0.
        -13    1    3    3    0    0  0.30497736590E+02 -0.13668336618E+02 -0.15136508204E+03  0.15501075636E+03  0.10566000000E+00 0.  1.
         13    1    4    4    0    0 -0.14388488601E+02  0.60857986767E+01 -0.27333655947E+03  0.27378267195E+03  0.10566000000E+00 0. -1.
        -13    1    4    4    0    0 -0.43439716640E+01  0.19313233625E+01 -0.71315769858E+02  0.71474123249E+02  0.10566000000E+00 0.  1.
         14    1    4    4    0    0 -0.11765276324E+02  0.56512145793E+01 -0.21120775839E+03  0.21161066882E+03  0.00000000000E+00 0. -1.
<mgrwt>
<rscale>  0 0.81259830E+02</rscale>
<asrwt>0</asrwt>
<pdfrwt beam="1">  1        2 0.10916163E+00 0.81259830E+02</pdfrwt>
<pdfrwt beam="2">  1       -1 0.35792754E-03 0.81259830E+02</pdfrwt>
<totfact> 0.32217932E+05</totfact>
</mgrwt>
</event>
<event>
 8    1  0.2561077E-024  0.8143669E+02  0.7818608E-02  0.1325023E+00
         -1   -1    0    0    0  501 -0.00000000000E+00  0.00000000000E+00  0.36003160580E+01  0.36003195857E+01  0.50400000000E-02 0.  1.
          2   -1    0    0  501    0  0.00000000000E+00 -0.00000000000E+00 -0.46051040367E+03  0.46051040368E+03  0.25500000000E-02 0. -1.
         24    2    1    2    0    0 -0.35527136788E-14  0.00000000000E+00 -0.45691008761E+03  0.46411072326E+03  0.81436694959E+02 0.  0.
         66    2    3    3    0    0 -0.21740524188E+02  0.24983958299E+02 -0.36335150820E+03  0.36486321695E+03  0.20000012786E+01 0.  0.
        -13    1    3    3    0    0  0.21740524188E+02 -0.24983958299E+02 -0.93558579406E+02  0.99247506310E+02  0.10566000000E+00 0.  1.
         13    1    4    4    0    0 -0.11522668555E+02  0.13869387119E+02 -0.19950692228E+03  0.20032013127E+03  0.10566000000E+00 0. -1.
        -13    1    4    4    0    0 -0.29058258945E+00  0.54646737866E+00 -0.85816908750E+01  0.86046294021E+01  0.10566000000E+00 0.  1.
        -14    1    4    4    0    0 -0.99272730439E+01  0.10568103802E+02 -0.15526289505E+03  0.15593845628E+03  0.00000000000E+00 0.  1.
<mgrwt>
<rscale>  0 0.81436695E+02</rscale>
<asrwt>0</asrwt>
<pdfrwt beam="1">  1        2 0.70847708E-01 0.81436695E+02</pdfrwt>
<pdfrwt beam="2">  1       -1 0.55389542E-03 0.81436695E+02</pdfrwt>
<totfact> 0.28300169E+05</totfact>
</mgrwt>
</event>
<event>
 8    1  0.2561077E-024  0.7939727E+02  0.7818608E-02  0.1330771E+00
         -1   -1    0    0    0  501 -0.00000000000E+00  0.00000000000E+00  0.33353266667E+01  0.33353304747E+01  0.50400000000E-02 0.  1.
          2   -1    0    0  501    0  0.00000000000E+00 -0.00000000000E+00 -0.47251170323E+03  0.47251170324E+03  0.25500000000E-02 0. -1.
         24    2    1    2    0    0  0.00000000000E+00  0.00000000000E+00 -0.46917637656E+03  0.47584703371E+03  0.79397274305E+02 0.  0.
         66    2    3    3    0    0 -0.37266718210E+02  0.10469702493E+02 -0.28683092102E+03  0.28943807663E+03  0.19999993997E+01 0.  0.
        -13    1    3    3    0    0  0.37266718210E+02 -0.10469702493E+02 -0.18234545555E+03  0.18640895708E+03  0.10566000000E+00 0.  1.
         13    1    4    4    0    0 -0.15102555768E+02  0.43056364856E+01 -0.11975612092E+03  0.12078147771E+03  0.10566000000E+00 0. -1.
        -13    1    4    4    0    0 -0.93348255128E+00  0.16247330624E+00 -0.87985304471E+01  0.88500332944E+01  0.10566000000E+00 0.  1.
        -14    1    4    4    0    0 -0.21230679890E+02  0.60015927009E+01 -0.15827626965E+03  0.15980656563E+03  0.00000000000E+00 0.  1.
<mgrwt>
<rscale>  0 0.79397274E+02</rscale>
<asrwt>0</asrwt>
<pdfrwt beam="1">  1        2 0.72694055E-01 0.79397274E+02</pdfrwt>
<pdfrwt beam="2">  1       -1 0.51312785E-03 0.79397274E+02</pdfrwt>
<totfact> 0.30494477E+05</totfact>
</mgrwt>
</event>
<event>
 8    1  0.2561077E-024  0.7741354E+02  0.7818608E-02  0.1336556E+00
         -1   -1    0    0    0  501 -0.00000000000E+00  0.00000000000E+00  0.28063758949E+02  0.28063759402E+02  0.50400000000E-02 0.  1.
          2   -1    0    0  501    0  0.00000000000E+00 -0.00000000000E+00 -0.53386074285E+02  0.53386074346E+02  0.25500000000E-02 0. -1.
         24    2    1    2    0    0 -0.35527136788E-14  0.88817841970E-15 -0.25322315336E+02  0.81449833748E+02  0.77413537341E+02 0.  0.
         66    2    3    3    0    0  0.18287763543E+02 -0.40370185928E+01 -0.48279013188E+02  0.51822802934E+02  0.19999937434E+01 0.  0.
        -13    1    3    3    0    0 -0.18287763543E+02  0.40370185928E+01  0.22956697852E+02  0.29627030814E+02  0.10566000000E+00 0.  1.
         13    1    4    4    0    0  0.82277555913E+01 -0.22036665472E+01 -0.21035128665E+02  0.22694490748E+02  0.10566000000E+00 0. -1.
        -13    1    4    4    0    0  0.57837639416E+00  0.17410001705E+00 -0.17528738629E+01  0.18570301247E+01  0.10566000000E+00 0.  1.
        -14    1    4    4    0    0  0.94816315578E+01 -0.20074520627E+01 -0.25491010661E+02  0.27271282062E+02  0.00000000000E+00 0.  1.
<mgrwt>
<rscale>  0 0.77413537E+02</rscale>
<asrwt>0</asrwt>
<pdfrwt beam="1">  1        2 0.82132422E-02 0.77413537E+02</pdfrwt>
<pdfrwt beam="2">  1       -1 0.43175014E-02 0.77413537E+02</pdfrwt>
<totfact> 0.16580865E+05</totfact>
</mgrwt>
</event>
<event>
 8    1  0.2561077E-024  0.7935449E+02  0.7818608E-02  0.1330893E+00
         -1   -1    0    0    0  501 -0.00000000000E+00  0.00000000000E+00  0.10860198029E+01  0.10860314976E+01  0.50400000000E-02 0.  1.
          2   -1    0    0  501    0  0.00000000000E+00 -0.00000000000E+00 -0.14495826187E+04  0.14495826187E+04  0.25500000000E-02 0. -1.
         24    2    1    2    0    0  0.00000000000E+00  0.00000000000E+00 -0.14484965989E+04  0.14506686502E+04  0.79354493610E+02 0.  0.
         66    2    3    3    0    0  0.55434662280E+01 -0.19691827769E+02 -0.13456595467E+04  0.13458165231E+04  0.19999995210E+01 0.  0.
        -13    1    3    3    0    0 -0.55434662280E+01  0.19691827769E+02 -0.10283705221E+03  0.10485212716E+03  0.10566000000E+00 0.  1.
         13    1    4    4    0    0  0.11807660195E+01 -0.33639157176E+01 -0.22244080237E+03  0.22246939534E+03  0.10566000000E+00 0. -1.
        -13    1    4    4    0    0  0.40479197879E+01 -0.14611845449E+02 -0.10358258643E+04  0.10359368340E+04  0.10566000000E+00 0.  1.
        -14    1    4    4    0    0  0.31478042061E+00 -0.17160666027E+01 -0.87392880027E+02  0.87410293735E+02  0.00000000000E+00 0.  1.
<mgrwt>
<rscale>  0 0.79354494E+02</rscale>
<asrwt>0</asrwt>
<pdfrwt beam="1">  1        2 0.22301116E+00 0.79354494E+02</pdfrwt>
<pdfrwt beam="2">  1       -1 0.16708203E-03 0.79354494E+02</pdfrwt>
<totfact> 0.34370214E+05</totfact>
</mgrwt>
</event>
<event>
 8    1  0.2561077E-024  0.7877424E+02  0.7818608E-02  0.1332566E+00
          2   -1    0    0  501    0  0.00000000000E+00  0.00000000000E+00  0.34190432387E+03  0.34190432387E+03  0.25500000000E-02 0. -1.
         -1   -1    0    0    0  501 -0.00000000000E+00 -0.00000000000E+00 -0.45373655072E+01  0.45373683064E+01  0.50400000000E-02 0.  1.
         24    2    1    2    0    0  0.17763568394E-14 -0.71054273576E-14  0.33736695836E+03  0.34644169218E+03  0.78774243821E+02 0.  0.
         66    2    3    3    0    0  0.15629841308E+02 -0.29772839074E+02  0.25877466518E+03  0.26095793000E+03  0.20000011344E+01 0.  0.
        -13    1    3    3    0    0 -0.15629841308E+02  0.29772839074E+02  0.78592293180E+02  0.85483762184E+02  0.10566000000E+00 0.  1.
         13    1    4    4    0    0  0.32154323003E+01 -0.66148124126E+01  0.59144473751E+02  0.59600123217E+02  0.10566000000E+00 0. -1.
        -13    1    4    4    0    0  0.36497785438E+01 -0.72527570664E+01  0.66919008556E+02  0.67409852683E+02  0.10566000000E+00 0.  1.
         14    1    4    4    0    0  0.87646304641E+01 -0.15905269595E+02  0.13271118287E+03  0.13394795410E+03  0.00000000000E+00 0. -1.
<mgrwt>
<rscale>  0 0.78774244E+02</rscale>
<asrwt>0</asrwt>
<pdfrwt beam="1">  1        2 0.52600650E-01 0.78774244E+02</pdfrwt>
<pdfrwt beam="2">  1       -1 0.69805665E-03 0.78774244E+02</pdfrwt>
<totfact> 0.27826234E+05</totfact>
</mgrwt>
</event>
<event>
 8    1  0.2561077E-024  0.7955886E+02  0.7818608E-02  0.1330308E+00
          2   -1    0    0  501    0  0.00000000000E+00  0.00000000000E+00  0.18796537563E+03  0.18796537565E+03  0.25500000000E-02 0. -1.
         -1   -1    0    0    0  501 -0.00000000000E+00 -0.00000000000E+00 -0.84185880471E+01  0.84185895558E+01  0.50400000000E-02 0.  1.
         24    2    1    2    0    0 -0.35527136788E-14  0.35527136788E-14  0.17954678759E+03  0.19638396521E+03  0.79558864105E+02 0.  0.
         66    2    3    3    0    0 -0.31674003255E+02  0.19241278156E+02  0.12533812400E+03  0.13071769046E+03  0.20000009755E+01 0.  0.
        -13    1    3    3    0    0  0.31674003255E+02 -0.19241278156E+02  0.54208663585E+02  0.65666274746E+02  0.10566000000E+00 0.  1.
         13    1    4    4    0    0 -0.67699663088E+01  0.39137453249E+01  0.28326325259E+02  0.29386080259E+02  0.10566000000E+00 0.  1.
        -13    1    4    4    0    0 -0.20732845145E+02  0.13216131873E+02  0.82411388699E+02  0.86000960232E+02  0.10566000000E+00 0. -1.
        -14    1    4    4    0    0 -0.41711918011E+01  0.21114009584E+01  0.14600410042E+02  0.15330649968E+02  0.00000000000E+00 0.  1.
<mgrwt>
<rscale>  0 0.79558864E+02</rscale>
<asrwt>0</asrwt>
<pdfrwt beam="1">  1        2 0.28917750E-01 0.79558864E+02</pdfrwt>
<pdfrwt beam="2">  1       -1 0.12951675E-02 0.79558864E+02</pdfrwt>
<totfact> 0.21908711E+05</totfact>
</mgrwt>
</event>
<event>
 8    1  0.2561077E-024  0.7957305E+02  0.7818608E-02  0.1330267E+00
         -1   -1    0    0    0  501 -0.00000000000E+00  0.00000000000E+00  0.30829326023E+01  0.30829367220E+01  0.50400000000E-02 0.  1.
          2   -1    0    0  501    0  0.00000000000E+00 -0.00000000000E+00 -0.51346132146E+03  0.51346132147E+03  0.25500000000E-02 0. -1.
         24    2    1    2    0    0  0.00000000000E+00  0.00000000000E+00 -0.51037838886E+03  0.51654425819E+03  0.79573053570E+02 0.  0.
         66    2    3    3    0    0  0.30831843377E+02 -0.24605704498E+02 -0.28775488953E+03  0.29045295610E+03  0.20000007837E+01 0.  0.
        -13    1    3    3    0    0 -0.30831843377E+02  0.24605704498E+02 -0.22262349934E+03  0.22609130209E+03  0.10566000000E+00 0.  1.
         13    1    4    4    0    0  0.75489246056E+01 -0.56894009480E+01 -0.66197990102E+02  0.66869579058E+02  0.10566000000E+00 0. -1.
        -13    1    4    4    0    0  0.13042438358E+02 -0.11080868902E+02 -0.12174343480E+03  0.12294049754E+03  0.10566000000E+00 0.  1.
        -14    1    4    4    0    0  0.10240480413E+02 -0.78354346476E+01 -0.99813464624E+02  0.10064287951E+03  0.00000000000E+00 0.  1.
<mgrwt>
<rscale>  0 0.79573054E+02</rscale>
<asrwt>0</asrwt>
<pdfrwt beam="1">  1        2 0.78993981E-01 0.79573054E+02</pdfrwt>
<pdfrwt beam="2">  1       -1 0.47429805E-03 0.79573054E+02</pdfrwt>
<totfact> 0.31139235E+05</totfact>
</mgrwt>
</event>
<event>
 8    1  0.2561077E-024  0.8071641E+02  0.7818608E-02  0.1327031E+00
          2   -1    0    0  501    0  0.00000000000E+00  0.00000000000E+00  0.46536086664E+03  0.46536086664E+03  0.25500000000E-02 0. -1.
         -1   -1    0    0    0  501 -0.00000000000E+00 -0.00000000000E+00 -0.35000449185E+01  0.35000485472E+01  0.50400000000E-02 0.  1.
         24    2    1    2    0    0 -0.35527136788E-14 -0.88817841970E-15  0.46186082172E+03  0.46886091519E+03  0.80716411934E+02 0.  0.
         66    2    3    3    0    0  0.26573890958E+02  0.59395020741E+01  0.40390806536E+03  0.40482980947E+03  0.20000030687E+01 0.  0.
        -13    1    3    3    0    0 -0.26573890958E+02 -0.59395020741E+01  0.57952756362E+02  0.64031105719E+02  0.10566000000E+00 0.  1.
         13    1    4    4    0    0  0.39363988973E+01  0.49603502438E+00  0.66899149487E+02  0.67016778892E+02  0.10566000000E+00 0. -1.
        -13    1    4    4    0    0  0.84336259720E+01  0.19994909329E+01  0.13052780131E+03  0.13081529761E+03  0.10566000000E+00 0. -1.
         14    1    4    4    0    0  0.14203866089E+02  0.34439761168E+01  0.20648111456E+03  0.20699773297E+03  0.00000000000E+00 0. -1.
<mgrwt>
<rscale>  0 0.80716412E+02</rscale>
<asrwt>0</asrwt>
<pdfrwt beam="1">  1        2 0.71593992E-01 0.80716412E+02</pdfrwt>
<pdfrwt beam="2">  1       -1 0.53846864E-03 0.80716412E+02</pdfrwt>
<totfact> 0.29065341E+05</totfact>
</mgrwt>
</event>
<event>
 8    1  0.2561077E-024  0.7894291E+02  0.7818608E-02  0.1332078E+00
          2   -1    0    0  501    0  0.00000000000E+00  0.00000000000E+00  0.92508632427E+03  0.92508632427E+03  0.25500000000E-02 0. -1.
         -1   -1    0    0    0  501 -0.00000000000E+00 -0.00000000000E+00 -0.16841586378E+01  0.16841661792E+01  0.50400000000E-02 0.  1.
         24    2    1    2    0    0 -0.17763568394E-14 -0.71054273576E-14  0.92340216563E+03  0.92677049045E+03  0.78942906456E+02 0.  0.
         66    2    3    3    0    0 -0.69963200336E+01 -0.28642060427E+02  0.76963076198E+03  0.77019791346E+03  0.19999999121E+01 0.  0.
        -13    1    3    3    0    0  0.69963200336E+01  0.28642060427E+02  0.15377140366E+03  0.15657257699E+03  0.10566000000E+00 0.  1.
         13    1    4    4    0    0 -0.97629896385E+00 -0.52099379577E+01  0.14159296714E+03  0.14169218793E+03  0.10566000000E+00 0. -1.
        -13    1    4    4    0    0 -0.38468976994E+01 -0.17297039772E+02  0.47030460542E+03  0.47063831044E+03  0.10566000000E+00 0.  1.
        -14    1    4    4    0    0 -0.21731233704E+01 -0.61350826973E+01  0.15773318942E+03  0.15786741509E+03  0.00000000000E+00 0.  1.
<mgrwt>
<rscale>  0 0.78942906E+02</rscale>
<asrwt>0</asrwt>
<pdfrwt beam="1">  1        2 0.14232132E+00 0.78942906E+02</pdfrwt>
<pdfrwt beam="2">  1       -1 0.25910128E-03 0.78942906E+02</pdfrwt>
<totfact> 0.36275150E+05</totfact>
</mgrwt>
</event>
<event>
 8    1  0.2561077E-024  0.8070986E+02  0.7818608E-02  0.1327049E+00
          2   -1    0    0  501    0  0.00000000000E+00  0.00000000000E+00  0.96680453379E+01  0.96680456742E+01  0.25500000000E-02 0. -1.
         -1   -1    0    0    0  501 -0.00000000000E+00 -0.00000000000E+00 -0.16844358707E+03  0.16844358715E+03  0.50400000000E-02 0.  1.
         24    2    1    2    0    0  0.00000000000E+00  0.35527136788E-14 -0.15877554173E+03  0.17811163282E+03  0.80709857474E+02 0.  0.
         66    2    3    3    0    0  0.17211343677E+02  0.30169816904E+02 -0.34206544702E+02  0.48790735868E+02  0.20000007216E+01 0.  0.
        -13    1    3    3    0    0 -0.17211343677E+02 -0.30169816904E+02 -0.12456899703E+03  0.12932089695E+03  0.10566000000E+00 0.  1.
         13    1    4    4    0    0  0.31202687091E+01  0.60549784189E+01 -0.71229742378E+01  0.98563059256E+01  0.10566000000E+00 0. -1.
        -13    1    4    4    0    0  0.40496476687E+01  0.59078478460E+01 -0.75057824218E+01  0.10375463662E+02  0.10566000000E+00 0.  1.
        -14    1    4    4    0    0  0.10041427299E+02  0.18206990639E+02 -0.19577788042E+02  0.28558966280E+02  0.00000000000E+00 0.  1.
<mgrwt>
<rscale>  0 0.80709857E+02</rscale>
<asrwt>0</asrwt>
<pdfrwt beam="1">  1        2 0.14873917E-02 0.80709857E+02</pdfrwt>
<pdfrwt beam="2">  1       -1 0.25914396E-01 0.80709857E+02</pdfrwt>
<totfact> 0.10231349E+05</totfact>
</mgrwt>
</event>
<event>
 8    1  0.2561077E-024  0.8030137E+02  0.7818608E-02  0.1328198E+00
          2   -1    0    0  501    0  0.00000000000E+00  0.00000000000E+00  0.16975249156E+03  0.16975249158E+03  0.25500000000E-02 0. -1.
         -1   -1    0    0    0  501 -0.00000000000E+00 -0.00000000000E+00 -0.94966336942E+01  0.94966350316E+01  0.50400000000E-02 0.  1.
         24    2    1    2    0    0 -0.88817841970E-15  0.00000000000E+00  0.16025585787E+03  0.17924912661E+03  0.80301366180E+02 0.  0.
         66    2    3    3    0    0 -0.73811339702E+01 -0.31396908303E+02  0.13346250048E+03  0.13731892087E+03  0.20000009936E+01 0.  0.
        -13    1    3    3    0    0  0.73811339702E+01  0.31396908303E+02  0.26793357385E+02  0.41930205743E+02  0.10566000000E+00 0.  1.
         13    1    4    4    0    0 -0.53987189555E+00 -0.22695570323E+01  0.10996861672E+02  0.11242085281E+02  0.10566000000E+00 0. -1.
        -13    1    4    4    0    0 -0.60461870387E+01 -0.27017908148E+02  0.11434378390E+03  0.11764793164E+03  0.10566000000E+00 0.  1.
        -14    1    4    4    0    0 -0.79507503598E+00 -0.21094431225E+01  0.81218549116E+01  0.84289039504E+01  0.00000000000E+00 0.  1.
<mgrwt>
<rscale>  0 0.80301366E+02</rscale>
<asrwt>0</asrwt>
<pdfrwt beam="1">  1        2 0.26115763E-01 0.80301366E+02</pdfrwt>
<pdfrwt beam="2">  1       -1 0.14610209E-02 0.80301366E+02</pdfrwt>
<totfact> 0.20652579E+05</totfact>
</mgrwt>
</event>
<event>
 8    1  0.2561077E-024  0.7662669E+02  0.7818608E-02  0.1338906E+00
          2   -1    0    0  501    0  0.00000000000E+00  0.00000000000E+00  0.27444477232E+02  0.27444477350E+02  0.25500000000E-02 0. -1.
         -1   -1    0    0    0  501 -0.00000000000E+00 -0.00000000000E+00 -0.53486622066E+02  0.53486622303E+02  0.50400000000E-02 0.  1.
         24    2    1    2    0    0  0.00000000000E+00  0.00000000000E+00 -0.26042144834E+02  0.80931099653E+02  0.76626689760E+02 0.  0.
         66    2    3    3    0    0  0.85358676998E+01  0.19470475867E+02  0.20601331869E+02  0.29671119641E+02  0.19999995268E+01 0.  0.
        -13    1    3    3    0    0 -0.85358676998E+01 -0.19470475867E+02 -0.46643476703E+02  0.51259980012E+02  0.10566000000E+00 0.  1.
         13    1    4    4    0    0  0.98451563676E+00  0.31925133885E+01  0.29623099332E+01  0.44663023801E+01  0.10566000000E+00 0.  1.
        -13    1    4    4    0    0  0.44063805336E+01  0.92776793455E+01  0.11090888786E+02  0.15116563814E+02  0.10566000000E+00 0. -1.
         14    1    4    4    0    0  0.31449715294E+01  0.70002831328E+01  0.65481331497E+01  0.10088253447E+02  0.00000000000E+00 0. -1.
<mgrwt>
<rscale>  0 0.76626690E+02</rscale>
<asrwt>0</asrwt>
<pdfrwt beam="1">  1        2 0.42222273E-02 0.76626690E+02</pdfrwt>
<pdfrwt beam="2">  1       -1 0.82287111E-02 0.76626690E+02</pdfrwt>
<totfact> 0.14919966E+05</totfact>
</mgrwt>
</event>
<event>
 8    1  0.2561077E-024  0.7717499E+02  0.7818608E-02  0.1337265E+00
          2   -1    0    0  501    0  0.00000000000E+00  0.00000000000E+00  0.32665696007E+03  0.32665696008E+03  0.25500000000E-02 0. -1.
         -1   -1    0    0    0  501 -0.00000000000E+00 -0.00000000000E+00 -0.45582818033E+01  0.45582845896E+01  0.50400000000E-02 0.  1.
         24    2    1    2    0    0  0.00000000000E+00  0.44408920985E-15  0.32209867827E+03  0.33121524467E+03  0.77174994398E+02 0.  0.
         66    2    3    3    0    0 -0.19257502513E+02  0.20318582539E+01  0.30427316476E+03  0.30489529127E+03  0.19999989825E+01 0.  0.
        -13    1    3    3    0    0  0.19257502513E+02 -0.20318582539E+01  0.17825513506E+02  0.26319953397E+02  0.10566000000E+00 0.  1.
         13    1    4    4    0    0 -0.94297753138E+01  0.10525318512E+01  0.13863123106E+03  0.13895559678E+03  0.10566000000E+00 0. -1.
        -13    1    4    4    0    0 -0.55255401320E+01  0.10799028482E+01  0.95520897544E+02  0.95686732704E+02  0.10566000000E+00 0.  1.
        -14    1    4    4    0    0 -0.43021870675E+01 -0.10057644553E+00  0.70121036157E+02  0.70252961795E+02  0.00000000000E+00 0.  1.
<mgrwt>
<rscale>  0 0.77174994E+02</rscale>
<asrwt>0</asrwt>
<pdfrwt beam="1">  1        2 0.50254913E-01 0.77174994E+02</pdfrwt>
<pdfrwt beam="2">  1       -1 0.70127440E-03 0.77174994E+02</pdfrwt>
<totfact> 0.28881262E+05</totfact>
</mgrwt>
</event>
<event>
 8    1  0.2561077E-024  0.7885152E+02  0.7818608E-02  0.1332343E+00
          2   -1    0    0  501    0  0.00000000000E+00  0.00000000000E+00  0.65432572591E+03  0.65432572592E+03  0.25500000000E-02 0. -1.
         -1   -1    0    0    0  501 -0.00000000000E+00 -0.00000000000E+00 -0.23755583729E+01  0.23755637194E+01  0.50400000000E-02 0.  1.
         24    2    1    2    0    0 -0.88817841970E-15  0.00000000000E+00  0.65195016754E+03  0.65670128963E+03  0.78851524118E+02 0.  0.
         66    2    3    3    0    0  0.75522726022E+01  0.71087706189E+01  0.64274986724E+03  0.64283665366E+03  0.20000021306E+01 0.  0.
        -13    1    3    3    0    0 -0.75522726022E+01 -0.71087706189E+01  0.92003002988E+01  0.13864635978E+02  0.10566000000E+00 0.  1.
         13    1    4    4    0    0  0.21154363397E+01  0.23971418589E+01  0.23254861234E+03  0.23257061213E+03  0.10566000000E+00 0. -1.
        -13    1    4    4    0    0  0.68388120368E+00  0.25242719080E+00  0.30745892893E+02  0.30754715196E+02  0.10566000000E+00 0.  1.
         14    1    4    4    0    0  0.47529550588E+01  0.44592015692E+01  0.37945536200E+03  0.37951132633E+03  0.00000000000E+00 0. -1.
<mgrwt>
<rscale>  0 0.78851524E+02</rscale>
<asrwt>0</asrwt>
<pdfrwt beam="1">  1        2 0.10066552E+00 0.78851524E+02</pdfrwt>
<pdfrwt beam="2">  1       -1 0.36547085E-03 0.78851524E+02</pdfrwt>
<totfact> 0.34172892E+05</totfact>
</mgrwt>
</event>
<event>
 8    1  0.2561077E-024  0.7754615E+02  0.7818608E-02  0.1336163E+00
         -1   -1    0    0    0  501 -0.00000000000E+00  0.00000000000E+00  0.86801738725E+02  0.86801738871E+02  0.50400000000E-02 0.  1.
          2   -1    0    0  501    0  0.00000000000E+00 -0.00000000000E+00 -0.17319370325E+02  0.17319370512E+02  0.25500000000E-02 0. -1.
         24    2    1    2    0    0  0.22204460493E-15  0.35527136788E-14  0.69482368400E+02  0.10412110938E+03  0.77546153359E+02 0.  0.
         66    2    3    3    0    0 -0.19026554621E+01  0.16693758543E+02 -0.12115854468E+02  0.20810949070E+02  0.19999999003E+01 0.  0.
        -13    1    3    3    0    0  0.19026554621E+01 -0.16693758543E+02  0.81598222869E+02  0.83310160313E+02  0.10566000000E+00 0.  1.
         13    1    4    4    0    0 -0.21832207512E-01  0.44970744153E+01 -0.41124405309E+01  0.60948737557E+01  0.10566000000E+00 0. -1.
        -13    1    4    4    0    0 -0.71617988051E+00  0.44003313492E+01 -0.26537223939E+01  0.51893387039E+01  0.10566000000E+00 0.  1.
         14    1    4    4    0    0 -0.11646433740E+01  0.77963527785E+01 -0.53496915436E+01  0.95267366106E+01  0.00000000000E+00 0. -1.
<mgrwt>
<rscale>  0 0.77546153E+02</rscale>
<asrwt>0</asrwt>
<pdfrwt beam="1">  1        2 0.26645185E-02 0.77546153E+02</pdfrwt>
<pdfrwt beam="2">  1       -1 0.13354114E-01 0.77546153E+02</pdfrwt>
<totfact> 0.13190430E+05</totfact>
</mgrwt>
</event>
<event>
 8    1  0.2561077E-024  0.8358395E+02  0.7818608E-02  0.1319178E+00
          2   -1    0    0  501    0  0.00000000000E+00  0.00000000000E+00  0.77010767036E+03  0.77010767036E+03  0.25500000000E-02 0. -1.
         -1   -1    0    0    0  501 -0.00000000000E+00 -0.00000000000E+00 -0.22679518670E+01  0.22679574671E+01  0.50400000000E-02 0.  1.
         24    2    1    2    0    0  0.35527136788E-14  0.00000000000E+00  0.76783971849E+03  0.77237562783E+03  0.83583952840E+02 0.  0.
         66    2    3    3    0    0 -0.20081176616E+02  0.16811715274E+02  0.68480716743E+03  0.68531069158E+03  0.20000006491E+01 0.  0.
        -13    1    3    3    0    0  0.20081176616E+02 -0.16811715274E+02  0.83032551061E+02  0.87064936251E+02  0.10566000000E+00 0.  1.
         13    1    4    4    0    0 -0.11382642401E+02  0.95137844140E+01  0.39126789050E+03  0.39154903900E+03  0.10566000000E+00 0. -1.
        -13    1    4    4    0    0 -0.47429204415E+01  0.37986482338E+01  0.17304643871E+03  0.17315312916E+03  0.10566000000E+00 0.  1.
        -14    1    4    4    0    0 -0.39556137743E+01  0.34992826259E+01  0.12049283822E+03  0.12060852342E+03  0.00000000000E+00 0.  1.
<mgrwt>
<rscale>  0 0.83583953E+02</rscale>
<asrwt>0</asrwt>
<pdfrwt beam="1">  1        2 0.11847815E+00 0.83583953E+02</pdfrwt>
<pdfrwt beam="2">  1       -1 0.34891596E-03 0.83583953E+02</pdfrwt>
<totfact> 0.30448511E+05</totfact>
</mgrwt>
</event>
<event>
 8    1  0.2561077E-024  0.7956790E+02  0.7818608E-02  0.1330282E+00
         -1   -1    0    0    0  501 -0.00000000000E+00  0.00000000000E+00  0.47496860040E+02  0.47496860307E+02  0.50400000000E-02 0.  1.
          2   -1    0    0  501    0  0.00000000000E+00 -0.00000000000E+00 -0.33323520993E+02  0.33323521090E+02  0.25500000000E-02 0. -1.
         24    2    1    2    0    0  0.00000000000E+00 -0.35527136788E-14  0.14173339047E+02  0.80820381398E+02  0.79567898738E+02 0.  0.
         66    2    3    3    0    0  0.34829683815E+02 -0.18613045327E+02  0.24137206705E+01  0.39615380252E+02  0.19999935097E+01 0.  0.
        -13    1    3    3    0    0 -0.34829683815E+02  0.18613045327E+02  0.11759618377E+02  0.41205001146E+02  0.10566000000E+00 0.  1.
         13    1    4    4    0    0  0.28766915114E+01 -0.15421836768E+01 -0.67454502666E-01  0.32664045509E+01  0.10566000000E+00 0. -1.
        -13    1    4    4    0    0  0.28327602798E+02 -0.14653542198E+02  0.25034223069E+01  0.31991524917E+02  0.10566000000E+00 0.  1.
        -14    1    4    4    0    0  0.36253895057E+01 -0.24173194521E+01 -0.22247133754E-01  0.43574507842E+01  0.00000000000E+00 0.  1.
<mgrwt>
<rscale>  0 0.79567899E+02</rscale>
<asrwt>0</asrwt>
<pdfrwt beam="1">  1        2 0.51266956E-02 0.79567899E+02</pdfrwt>
<pdfrwt beam="2">  1       -1 0.73072093E-02 0.79567899E+02</pdfrwt>
<totfact> 0.13947393E+05</totfact>
</mgrwt>
</event>
<event>
 8    1  0.2561077E-024  0.7734876E+02  0.7818608E-02  0.1336748E+00
         -1   -1    0    0    0  501 -0.00000000000E+00  0.00000000000E+00  0.22675685053E+03  0.22675685059E+03  0.50400000000E-02 0.  1.
          2   -1    0    0  501    0  0.00000000000E+00 -0.00000000000E+00 -0.65960864078E+01  0.65960869007E+01  0.25500000000E-02 0. -1.
         24    2    1    2    0    0  0.00000000000E+00  0.00000000000E+00  0.22016076412E+03  0.23335293749E+03  0.77348764533E+02 0.  0.
         66    2    3    3    0    0 -0.32180086778E+02  0.15897438501E+02  0.66914595786E+02  0.75959526539E+02  0.20000017203E+01 0.  0.
        -13    1    3    3    0    0  0.32180086778E+02 -0.15897438501E+02  0.15324616834E+03  0.15739341095E+03  0.10566000000E+00 0.  1.
         13    1    4    4    0    0 -0.57492888462E+01  0.29705578087E+01  0.11192434148E+02  0.12929047997E+02  0.10566000000E+00 0. -1.
        -13    1    4    4    0    0 -0.62573171778E+01  0.23824865273E+01  0.12516635314E+02  0.14195336697E+02  0.10566000000E+00 0.  1.
         14    1    4    4    0    0 -0.20173480754E+02  0.10544394165E+02  0.43205526324E+02  0.48835141845E+02  0.00000000000E+00 0. -1.
<mgrwt>
<rscale>  0 0.77348765E+02</rscale>
<asrwt>0</asrwt>
<pdfrwt beam="1">  1        2 0.10147826E-02 0.77348765E+02</pdfrwt>
<pdfrwt beam="2">  1       -1 0.34885669E-01 0.77348765E+02</pdfrwt>
<totfact> 0.10432763E+05</totfact>
</mgrwt>
</event>
<event>
 8    1  0.2561077E-024  0.8243744E+02  0.7818608E-02  0.1322273E+00
         -1   -1    0    0    0  501 -0.00000000000E+00  0.00000000000E+00  0.11125520844E+03  0.11125520855E+03  0.50400000000E-02 0.  1.
          2   -1    0    0  501    0  0.00000000000E+00 -0.00000000000E+00 -0.15271041395E+02  0.15271041608E+02  0.25500000000E-02 0. -1.
         24    2    1    2    0    0  0.00000000000E+00  0.71054273576E-14  0.95984167040E+02  0.12652625016E+03  0.82437440865E+02 0.  0.
         66    2    3    3    0    0 -0.24229569223E+02 -0.32782819770E+02  0.38915207776E+02  0.56393072756E+02  0.19999904645E+01 0.  0.
        -13    1    3    3    0    0  0.24229569223E+02  0.32782819770E+02  0.57068959264E+02  0.70133177401E+02  0.10566000000E+00 0.  1.
         13    1    4    4    0    0 -0.12732368190E+02 -0.16770577153E+02  0.18879633122E+02  0.28281039030E+02  0.10566000000E+00 0. -1.
        -13    1    4    4    0    0 -0.94375072197E+01 -0.12870813997E+02  0.16033936972E+02  0.22623498720E+02  0.10566000000E+00 0.  1.
        -14    1    4    4    0    0 -0.20596938133E+01 -0.31414286207E+01  0.40016376816E+01  0.54885350066E+01  0.00000000000E+00 0.  1.
<mgrwt>
<rscale>  0 0.82437441E+02</rscale>
<asrwt>0</asrwt>
<pdfrwt beam="1">  1        2 0.23493909E-02 0.82437441E+02</pdfrwt>
<pdfrwt beam="2">  1       -1 0.17116187E-01 0.82437441E+02</pdfrwt>
<totfact> 0.10742299E+05</totfact>
</mgrwt>
</event>
<event>
 8    1  0.2561077E-024  0.8111529E+02  0.7818608E-02  0.1325916E+00
         -1   -1    0    0    0  501 -0.00000000000E+00  0.00000000000E+00  0.85656482941E+01  0.85656497768E+01  0.50400000000E-02 0.  1.
          2   -1    0    0  501    0  0.00000000000E+00 -0.00000000000E+00 -0.19203713077E+03  0.19203713079E+03  0.25500000000E-02 0. -1.
         24    2    1    2    0    0 -0.17763568394E-14 -0.22204460493E-15 -0.18347148248E+03  0.20060278057E+03  0.81115292566E+02 0.  0.
         66    2    3    3    0    0  0.13754379704E+02  0.12570318792E+01 -0.18603251778E+03  0.18655524854E+03  0.19999993015E+01 0.  0.
        -13    1    3    3    0    0 -0.13754379704E+02 -0.12570318792E+01  0.25610352985E+01  0.14047532026E+02  0.10566000000E+00 0.  1.
         13    1    4    4    0    0  0.11709518286E+02  0.93913307487E+00 -0.15049780998E+03  0.15095561190E+03  0.10566000000E+00 0. -1.
        -13    1    4    4    0    0  0.78393481607E+00  0.20482641509E+00 -0.98891711781E+01  0.99228714736E+01  0.10566000000E+00 0. -1.
         14    1    4    4    0    0  0.12609266021E+01  0.11307238923E+00 -0.25645536616E+02  0.25676765169E+02  0.00000000000E+00 0. -1.
<mgrwt>
<rscale>  0 0.81115293E+02</rscale>
<asrwt>0</asrwt>
<pdfrwt beam="1">  1        2 0.29544171E-01 0.81115293E+02</pdfrwt>
<pdfrwt beam="2">  1       -1 0.13177923E-02 0.81115293E+02</pdfrwt>
<totfact> 0.20969372E+05</totfact>
</mgrwt>
</event>
<event>
 8    1  0.2561077E-024  0.7921644E+02  0.7818608E-02  0.1331290E+00
         -1   -1    0    0    0  501 -0.00000000000E+00  0.00000000000E+00  0.19245795798E+01  0.19245861791E+01  0.50400000000E-02 0.  1.
          2   -1    0    0  501    0  0.00000000000E+00 -0.00000000000E+00 -0.81514343509E+03  0.81514343510E+03  0.25500000000E-02 0. -1.
         24    2    1    2    0    0 -0.17763568394E-14 -0.35527136788E-14 -0.81321885551E+03  0.81706802128E+03  0.79216440401E+02 0.  0.
         66    2    3    3    0    0  0.12875027733E+02  0.19893750798E+02 -0.73389675228E+03  0.73428194223E+03  0.20000011373E+01 0.  0.
        -13    1    3    3    0    0 -0.12875027733E+02 -0.19893750798E+02 -0.79322103228E+02  0.82786079050E+02  0.10566000000E+00 0.  1.
         13    1    4    4    0    0  0.65064407774E+01  0.83242435967E+01 -0.31929424812E+03  0.31946902017E+03  0.10566000000E+00 0. -1.
        -13    1    4    4    0    0  0.12672254025E+01  0.24976854103E+01 -0.87008578190E+02  0.87053708337E+02  0.10566000000E+00 0.  1.
         14    1    4    4    0    0  0.51013615531E+01  0.90718217909E+01 -0.32759392598E+03  0.32775921372E+03  0.00000000000E+00 0. -1.
<mgrwt>
<rscale>  0 0.79216440E+02</rscale>
<asrwt>0</asrwt>
<pdfrwt beam="1">  1        2 0.12540641E+00 0.79216440E+02</pdfrwt>
<pdfrwt beam="2">  1       -1 0.29609033E-03 0.79216440E+02</pdfrwt>
<totfact> 0.35366304E+05</totfact>
</mgrwt>
</event>
<event>
 8    1  0.2561077E-024  0.7875775E+02  0.7818608E-02  0.1332614E+00
          2   -1    0    0  501    0  0.00000000000E+00  0.00000000000E+00  0.14835504264E+02  0.14835504483E+02  0.25500000000E-02 0. -1.
         -1   -1    0    0    0  501 -0.00000000000E+00 -0.00000000000E+00 -0.10452598158E+03  0.10452598170E+03  0.50400000000E-02 0.  1.
         24    2    1    2    0    0  0.00000000000E+00 -0.17763568394E-14 -0.89690477314E+02  0.11936148618E+03  0.78757746686E+02 0.  0.
         66    2    3    3    0    0  0.33811442651E+02 -0.11114403552E+02 -0.19426013051E+02  0.40596965474E+02  0.20000005422E+01 0.  0.
        -13    1    3    3    0    0 -0.33811442651E+02  0.11114403552E+02 -0.70264464263E+02  0.78764520710E+02  0.10566000000E+00 0.  1.
         13    1    4    4    0    0  0.18107295080E+02 -0.64512881024E+01 -0.10266250841E+02  0.21792207866E+02  0.10566000000E+00 0. -1.
        -13    1    4    4    0    0  0.69110493213E+00 -0.41529370113E+00 -0.33406906399E+00  0.87912516772E+00  0.10566000000E+00 0.  1.
        -14    1    4    4    0    0  0.15013042638E+02 -0.42478217484E+01 -0.88256931458E+01  0.17925632440E+02  0.00000000000E+00 0.  1.
<mgrwt>
<rscale>  0 0.78757747E+02</rscale>
<asrwt>0</asrwt>
<pdfrwt beam="1">  1        2 0.22823854E-02 0.78757747E+02</pdfrwt>
<pdfrwt beam="2">  1       -1 0.16080920E-01 0.78757747E+02</pdfrwt>
<totfact> 0.12208194E+05</totfact>
</mgrwt>
</event>
<event>
 8    1  0.2561077E-024  0.7983561E+02  0.7818608E-02  0.1329519E+00
          2   -1    0    0  501    0  0.00000000000E+00  0.00000000000E+00  0.46160021380E+01  0.46160028423E+01  0.25500000000E-02 0. -1.
         -1   -1    0    0    0  501 -0.00000000000E+00 -0.00000000000E+00 -0.34519724353E+03  0.34519724357E+03  0.50400000000E-02 0.  1.
         24    2    1    2    0    0  0.00000000000E+00  0.00000000000E+00 -0.34058124139E+03  0.34981324641E+03  0.79835614704E+02 0.  0.
         66    2    3    3    0    0  0.13486136207E+02  0.16935141856E+02 -0.31721590038E+03  0.31796006409E+03  0.20000000378E+01 0.  0.
        -13    1    3    3    0    0 -0.13486136207E+02 -0.16935141856E+02 -0.23365341012E+02  0.31853182323E+02  0.10566000000E+00 0.  1.
         13    1    4    4    0    0  0.61256999495E+01  0.91539891077E+01 -0.16478278147E+03  0.16515052513E+03  0.10566000000E+00 0. -1.
        -13    1    4    4    0    0  0.56100734073E+01  0.58347545730E+01 -0.11742075703E+03  0.11769945892E+03  0.10566000000E+00 0.  1.
         14    1    4    4    0    0  0.17503628502E+01  0.19463981753E+01 -0.35012361875E+02  0.35110080035E+02  0.00000000000E+00 0. -1.
<mgrwt>
<rscale>  0 0.79835615E+02</rscale>
<asrwt>0</asrwt>
<pdfrwt beam="1">  1        2 0.71015450E-03 0.79835615E+02</pdfrwt>
<pdfrwt beam="2">  1       -1 0.53107248E-01 0.79835615E+02</pdfrwt>
<totfact> 0.81817956E+04</totfact>
</mgrwt>
</event>
<event>
 8    1  0.2561077E-024  0.7958566E+02  0.7818608E-02  0.1330231E+00
          2   -1    0    0  501    0  0.00000000000E+00  0.00000000000E+00  0.25553626305E+02  0.25553626432E+02  0.25500000000E-02 0. -1.
         -1   -1    0    0    0  501 -0.00000000000E+00 -0.00000000000E+00 -0.61966513677E+02  0.61966513882E+02  0.50400000000E-02 0.  1.
         24    2    1    2    0    0  0.71054273576E-14 -0.44408920985E-15 -0.36412887372E+02  0.87520140314E+02  0.79585655703E+02 0.  0.
         66    2    3    3    0    0 -0.35947268609E+02 -0.23602551860E+01  0.30431443851E+00  0.36081429231E+02  0.20000007587E+01 0.  0.
        -13    1    3    3    0    0  0.35947268609E+02  0.23602551860E+01 -0.36717201811E+02  0.51438711083E+02  0.10566000000E+00 0.  1.
         13    1    4    4    0    0 -0.21017767708E+02 -0.17161711511E+01  0.71854928594E+00  0.21100219903E+02  0.10566000000E+00 0. -1.
        -13    1    4    4    0    0 -0.14046886564E+02 -0.74244303315E+00 -0.57527297488E+00  0.14078648615E+02  0.10566000000E+00 0.  1.
        -14    1    4    4    0    0 -0.88261433789E+00  0.98358998239E-01  0.16103812745E+00  0.90256071291E+00  0.00000000000E+00 0.  1.
<mgrwt>
<rscale>  0 0.79585656E+02</rscale>
<asrwt>0</asrwt>
<pdfrwt beam="1">  1        2 0.39313272E-02 0.79585656E+02</pdfrwt>
<pdfrwt beam="2">  1       -1 0.95333098E-02 0.79585656E+02</pdfrwt>
<totfact> 0.13229357E+05</totfact>
</mgrwt>
</event>
<event>
 8    1  0.2561077E-024  0.8144602E+02  0.7818608E-02  0.1324997E+00
         -1   -1    0    0    0  501 -0.00000000000E+00  0.00000000000E+00  0.20483431176E+03  0.20483431182E+03  0.50400000000E-02 0.  1.
          2   -1    0    0  501    0  0.00000000000E+00 -0.00000000000E+00 -0.80961224288E+01  0.80961228303E+01  0.25500000000E-02 0. -1.
         24    2    1    2    0    0  0.35527136788E-14  0.00000000000E+00  0.19673818933E+03  0.21293043465E+03  0.81446024211E+02 0.  0.
         66    2    3    3    0    0  0.29733917358E+02  0.18303496902E+02  0.15309524881E+03  0.15703910025E+03  0.19999893498E+01 0.  0.
        -13    1    3    3    0    0 -0.29733917358E+02 -0.18303496902E+02  0.43642940514E+02  0.55891334400E+02  0.10566000000E+00 0.  1.
         13    1    4    4    0    0  0.14257085512E+02  0.86045798809E+01  0.72158431744E+02  0.74055072197E+02  0.10566000000E+00 0. -1.
        -13    1    4    4    0    0  0.40380612420E+01  0.21364623007E+01  0.18039419602E+02  0.18609197548E+02  0.10566000000E+00 0.  1.
         14    1    4    4    0    0  0.11438770603E+02  0.75624547199E+01  0.62897397467E+02  0.64374830504E+02  0.00000000000E+00 0. -1.
<mgrwt>
<rscale>  0 0.81446024E+02</rscale>
<asrwt>0</asrwt>
<pdfrwt beam="1">  1        2 0.12455576E-02 0.81446024E+02</pdfrwt>
<pdfrwt beam="2">  1       -1 0.31512965E-01 0.81446024E+02</pdfrwt>
<totfact> 0.94469960E+04</totfact>
</mgrwt>
</event>
<event>
 8    1  0.2561077E-024  0.7959867E+02  0.7818608E-02  0.1330194E+00
         -1   -1    0    0    0  501 -0.00000000000E+00  0.00000000000E+00  0.13397790225E+02  0.13397791173E+02  0.50400000000E-02 0.  1.
          2   -1    0    0  501    0  0.00000000000E+00 -0.00000000000E+00 -0.11822747087E+03  0.11822747090E+03  0.25500000000E-02 0. -1.
         24    2    1    2    0    0  0.00000000000E+00 -0.71054273576E-14 -0.10482968064E+03  0.13162526207E+03  0.79598666263E+02 0.  0.
         66    2    3    3    0    0  0.85562267913E+01  0.28718598086E+02 -0.95695864813E+02  0.10029788349E+03  0.19999993532E+01 0.  0.
        -13    1    3    3    0    0 -0.85562267913E+01 -0.28718598086E+02 -0.91338158308E+01  0.31327378579E+02  0.10566000000E+00 0.  1.
         13    1    4    4    0    0  0.58149523692E+01  0.18327085574E+02 -0.62730693221E+02  0.65611331131E+02  0.10566000000E+00 0. -1.
        -13    1    4    4    0    0  0.21122084412E+01  0.86424248479E+01 -0.28259324363E+02  0.29626905158E+02  0.10566000000E+00 0.  1.
        -14    1    4    4    0    0  0.62906598093E+00  0.17490876642E+01 -0.47058472289E+01  0.50596472018E+01  0.00000000000E+00 0.  1.
<mgrwt>
<rscale>  0 0.79598666E+02</rscale>
<asrwt>0</asrwt>
<pdfrwt beam="1">  1        2 0.18188841E-01 0.79598666E+02</pdfrwt>
<pdfrwt beam="2">  1       -1 0.20611987E-02 0.79598666E+02</pdfrwt>
<totfact> 0.18855001E+05</totfact>
</mgrwt>
</event>
<event>
 8    1  0.2561077E-024  0.8038168E+02  0.7818608E-02  0.1327972E+00
         -1   -1    0    0    0  501 -0.00000000000E+00  0.00000000000E+00  0.34552603760E+01  0.34552640518E+01  0.50400000000E-02 0.  1.
          2   -1    0    0  501    0  0.00000000000E+00 -0.00000000000E+00 -0.46749086335E+03  0.46749086336E+03  0.25500000000E-02 0. -1.
         24    2    1    2    0    0  0.35527136788E-14  0.00000000000E+00 -0.46403560298E+03  0.47094612741E+03  0.80381677601E+02 0.  0.
         66    2    3    3    0    0  0.28645874606E+02  0.87599838935E+01 -0.38893109841E+03  0.39008809614E+03  0.19999988889E+01 0.  0.
        -13    1    3    3    0    0 -0.28645874606E+02 -0.87599838935E+01 -0.75104504570E+02  0.80858031267E+02  0.10566000000E+00 0.  1.
         13    1    4    4    0    0  0.42979792763E+01  0.11159199826E+01 -0.54312516155E+02  0.54493838903E+02  0.10566000000E+00 0. -1.
        -13    1    4    4    0    0  0.24071643786E+02  0.76118471134E+01 -0.33256526823E+03  0.33352219273E+03  0.10566000000E+00 0.  1.
        -14    1    4    4    0    0  0.27625154317E+00  0.32216797557E-01 -0.20533140261E+01  0.20720645084E+01  0.00000000000E+00 0.  1.
<mgrwt>
<rscale>  0 0.80381678E+02</rscale>
<asrwt>0</asrwt>
<pdfrwt beam="1">  1        2 0.71921621E-01 0.80381678E+02</pdfrwt>
<pdfrwt beam="2">  1       -1 0.53157918E-03 0.80381678E+02</pdfrwt>
<totfact> 0.29426647E+05</totfact>
</mgrwt>
</event>
<event>
 8    1  0.2561077E-024  0.7658312E+02  0.7818608E-02  0.1339038E+00
         -1   -1    0    0    0  501 -0.00000000000E+00  0.00000000000E+00  0.49332870670E+01  0.49332896415E+01  0.50400000000E-02 0.  1.
          2   -1    0    0  501    0  0.00000000000E+00 -0.00000000000E+00 -0.29721420631E+03  0.29721420632E+03  0.25500000000E-02 0. -1.
         24    2    1    2    0    0  0.00000000000E+00  0.17763568394E-14 -0.29228091924E+03  0.30214749596E+03  0.76583115390E+02 0.  0.
         66    2    3    3    0    0  0.18456978771E+02  0.14573691991E+02 -0.26533373876E+03  0.26638139100E+03  0.19999969866E+01 0.  0.
        -13    1    3    3    0    0 -0.18456978771E+02 -0.14573691991E+02 -0.26947180488E+02  0.35766104958E+02  0.10566000000E+00 0.  1.
         13    1    4    4    0    0  0.14922527593E+02  0.11907896763E+02 -0.21028427064E+03  0.21114915457E+03  0.10566000000E+00 0. -1.
        -13    1    4    4    0    0  0.64568288364E+00  0.86814213104E+00 -0.13239008051E+02  0.13283564106E+02  0.10566000000E+00 0. -1.
         14    1    4    4    0    0  0.28887682947E+01  0.17976530975E+01 -0.41810460070E+02  0.41948672329E+02  0.00000000000E+00 0. -1.
<mgrwt>
<rscale>  0 0.76583115E+02</rscale>
<asrwt>0</asrwt>
<pdfrwt beam="1">  1        2 0.45725249E-01 0.76583115E+02</pdfrwt>
<pdfrwt beam="2">  1       -1 0.75896768E-03 0.76583115E+02</pdfrwt>
<totfact> 0.28482536E+05</totfact>
</mgrwt>
</event>
<event>
 8    1  0.2561077E-024  0.8201098E+02  0.7818608E-02  0.1323440E+00
         -1   -1    0    0    0  501 -0.00000000000E+00  0.00000000000E+00  0.20770933473E+02  0.20770934084E+02  0.50400000000E-02 0.  1.
          2   -1    0    0  501    0  0.00000000000E+00 -0.00000000000E+00 -0.80952078884E+02  0.80952078924E+02  0.25500000000E-02 0. -1.
         24    2    1    2    0    0  0.00000000000E+00  0.00000000000E+00 -0.60181145411E+02  0.10172301301E+03  0.82010981658E+02 0.  0.
         66    2    3    3    0    0  0.30948672366E+02  0.21797597904E+02 -0.49582033302E+02  0.62412608061E+02  0.20000057511E+01 0.  0.
        -13    1    3    3    0    0 -0.30948672366E+02 -0.21797597904E+02 -0.10599112109E+02  0.39310404947E+02  0.10566000000E+00 0.  1.
         13    1    4    4    0    0  0.11842214605E+02  0.81854049649E+01 -0.17819471494E+02  0.22908156398E+02  0.10566000000E+00 0. -1.
        -13    1    4    4    0    0  0.15486140726E+02  0.11239274215E+02 -0.26593808844E+02  0.32762534584E+02  0.10566000000E+00 0.  1.
        -14    1    4    4    0    0  0.36203170343E+01  0.23729187240E+01 -0.51687529643E+01  0.67419170794E+01  0.00000000000E+00 0.  1.
<mgrwt>
<rscale>  0 0.82010982E+02</rscale>
<asrwt>0</asrwt>
<pdfrwt beam="1">  1        2 0.12454166E-01 0.82010982E+02</pdfrwt>
<pdfrwt beam="2">  1       -1 0.31955283E-02 0.82010982E+02</pdfrwt>
<totfact> 0.15661163E+05</totfact>
</mgrwt>
</event>
<event>
 8    1  0.2561077E-024  0.7991582E+02  0.7818608E-02  0.1329291E+00
          2   -1    0    0  501    0  0.00000000000E+00  0.00000000000E+00  0.17102833855E+03  0.17102833857E+03  0.25500000000E-02 0. -1.
         -1   -1    0    0    0  501 -0.00000000000E+00 -0.00000000000E+00 -0.93354959613E+01  0.93354973218E+01  0.50400000000E-02 0.  1.
         24    2    1    2    0    0 -0.88817841970E-15  0.00000000000E+00  0.16169284259E+03  0.18036383589E+03  0.79915817914E+02 0.  0.
         66    2    3    3    0    0 -0.73539439531E+01  0.33181012556E+02  0.12821536024E+03  0.13265835325E+03  0.19999995940E+01 0.  0.
        -13    1    3    3    0    0  0.73539439531E+01 -0.33181012556E+02  0.33477482345E+02  0.47705482642E+02  0.10566000000E+00 0.  1.
         13    1    4    4    0    0 -0.25535290021E+01  0.15487649381E+02  0.59701510114E+02  0.61730618558E+02  0.10566000000E+00 0. -1.
        -13    1    4    4    0    0 -0.53341149078E+00  0.13997289279E+01  0.53406654876E+01  0.55477599782E+01  0.10566000000E+00 0. -1.
        -14    1    4    4    0    0 -0.42670034603E+01  0.16293634247E+02  0.63173184643E+02  0.65379974713E+02  0.00000000000E+00 0.  1.
<mgrwt>
<rscale>  0 0.79915818E+02</rscale>
<asrwt>0</asrwt>
<pdfrwt beam="1">  1        2 0.26312049E-01 0.79915818E+02</pdfrwt>
<pdfrwt beam="2">  1       -1 0.14362304E-02 0.79915818E+02</pdfrwt>
<totfact> 0.20969726E+05</totfact>
</mgrwt>
</event>
<event>
 8    1  0.2561077E-024  0.7887325E+02  0.7818608E-02  0.1332280E+00
         -1   -1    0    0    0  501 -0.00000000000E+00  0.00000000000E+00  0.14893925908E+02  0.14893926760E+02  0.50400000000E-02 0.  1.
          2   -1    0    0  501    0  0.00000000000E+00 -0.00000000000E+00 -0.10442158590E+03  0.10442158593E+03  0.25500000000E-02 0. -1.
         24    2    1    2    0    0  0.44408920985E-15 -0.17763568394E-14 -0.89527659990E+02  0.11931551269E+03  0.78873250631E+02 0.  0.
         66    2    3    3    0    0 -0.34983037136E+01  0.11792815993E+02 -0.10143353451E+03  0.10219623554E+03  0.19999996297E+01 0.  0.
        -13    1    3    3    0    0  0.34983037136E+01 -0.11792815993E+02  0.11905874518E+02  0.17119277146E+02  0.10566000000E+00 0.  1.
         13    1    4    4    0    0 -0.92181253214E+00  0.19774674027E+01 -0.19745149203E+02  0.19865603358E+02  0.10566000000E+00 0. -1.
        -13    1    4    4    0    0 -0.53625396457E+00  0.26627131577E+01 -0.27533046828E+02  0.27666901550E+02  0.10566000000E+00 0.  1.
        -14    1    4    4    0    0 -0.20402372169E+01  0.71526354324E+01 -0.54155338477E+02  0.54663730637E+02  0.00000000000E+00 0.  1.
<mgrwt>
<rscale>  0 0.78873251E+02</rscale>
<asrwt>0</asrwt>
<pdfrwt beam="1">  1        2 0.16064859E-01 0.78873251E+02</pdfrwt>
<pdfrwt beam="2">  1       -1 0.22913734E-02 0.78873251E+02</pdfrwt>
<totfact> 0.18637158E+05</totfact>
</mgrwt>
</event>
<event>
 8    1  0.2561077E-024  0.7998022E+02  0.7818608E-02  0.1329108E+00
         -1   -1    0    0    0  501 -0.00000000000E+00  0.00000000000E+00  0.97582169905E+00  0.97583471446E+00  0.50400000000E-02 0.  1.
          2   -1    0    0  501    0  0.00000000000E+00 -0.00000000000E+00 -0.16388220649E+04  0.16388220649E+04  0.25500000000E-02 0. -1.
         24    2    1    2    0    0  0.00000000000E+00  0.00000000000E+00 -0.16378462432E+04  0.16397978996E+04  0.79980217673E+02 0.  0.
         66    2    3    3    0    0 -0.12134052112E+02  0.22884034615E+00 -0.16001248279E+04  0.16001721009E+04  0.20000007268E+01 0.  0.
        -13    1    3    3    0    0  0.12134052112E+02 -0.22884034615E+00 -0.37721415268E+02  0.39625798697E+02  0.10566000000E+00 0.  1.
         13    1    4    4    0    0 -0.20207234972E+01  0.13093068943E+00 -0.35327129933E+03  0.35327711865E+03  0.10566000000E+00 0. -1.
        -13    1    4    4    0    0 -0.12370252671E+01 -0.31653431483E+00 -0.15502900134E+03  0.15503429571E+03  0.10566000000E+00 0.  1.
         14    1    4    4    0    0 -0.88763033479E+01  0.41444397156E+00 -0.10918245273E+04  0.10918606866E+04  0.00000000000E+00 0. -1.
<mgrwt>
<rscale>  0 0.79980218E+02</rscale>
<asrwt>0</asrwt>
<pdfrwt beam="1">  1        2 0.25212427E+00 0.79980218E+02</pdfrwt>
<pdfrwt beam="2">  1       -1 0.15012873E-03 0.79980218E+02</pdfrwt>
<totfact> 0.31990668E+05</totfact>
</mgrwt>
</event>
<event>
 8    1  0.2561077E-024  0.7958775E+02  0.7818608E-02  0.1330225E+00
          2   -1    0    0  501    0  0.00000000000E+00  0.00000000000E+00  0.27900973991E+02  0.27900974108E+02  0.25500000000E-02 0. -1.
         -1   -1    0    0    0  501 -0.00000000000E+00 -0.00000000000E+00 -0.56756175620E+02  0.56756175843E+02  0.50400000000E-02 0.  1.
         24    2    1    2    0    0  0.00000000000E+00  0.00000000000E+00 -0.28855201628E+02  0.84657149951E+02  0.79587752681E+02 0.  0.
         66    2    3    3    0    0 -0.78428714365E+01  0.35621627383E+02  0.24200102232E+01  0.36609662919E+02  0.19999999368E+01 0.  0.
        -13    1    3    3    0    0  0.78428714365E+01 -0.35621627383E+02 -0.31275211852E+02  0.48047487033E+02  0.10566000000E+00 0.  1.
         13    1    4    4    0    0 -0.23385118906E+01  0.11727290290E+02  0.10675640257E+01  0.12006199748E+02  0.10566000000E+00 0. -1.
        -13    1    4    4    0    0 -0.20388485859E+01  0.96661196239E+01  0.12566592707E+01  0.99589722712E+01  0.10566000000E+00 0.  1.
         14    1    4    4    0    0 -0.34655109599E+01  0.14228217469E+02  0.95786926838E-01  0.14644490899E+02  0.00000000000E+00 0. -1.
<mgrwt>
<rscale>  0 0.79587753E+02</rscale>
<asrwt>0</asrwt>
<pdfrwt beam="1">  1        2 0.42924576E-02 0.79587753E+02</pdfrwt>
<pdfrwt beam="2">  1       -1 0.87317194E-02 0.79587753E+02</pdfrwt>
<totfact> 0.13458426E+05</totfact>
</mgrwt>
</event>
<event>
 8    1  0.2561077E-024  0.8007911E+02  0.7818608E-02  0.1328827E+00
          2   -1    0    0  501    0  0.00000000000E+00  0.00000000000E+00  0.75630595466E+03  0.75630595467E+03  0.25500000000E-02 0. -1.
         -1   -1    0    0    0  501 -0.00000000000E+00 -0.00000000000E+00 -0.21197288485E+01  0.21197348402E+01  0.50400000000E-02 0.  1.
         24    2    1    2    0    0  0.00000000000E+00  0.00000000000E+00  0.75418622581E+03  0.75842568951E+03  0.80079106493E+02 0.  0.
         66    2    3    3    0    0 -0.15742252878E+02 -0.23084423290E+02  0.64860927292E+03  0.64921390777E+03  0.19999991349E+01 0.  0.
        -13    1    3    3    0    0  0.15742252878E+02  0.23084423290E+02  0.10557695289E+03  0.10921178174E+03  0.10566000000E+00 0.  1.
         13    1    4    4    0    0 -0.13411989169E+02 -0.19995848143E+02  0.56531432624E+03  0.56582684102E+03  0.10566000000E+00 0. -1.
        -13    1    4    4    0    0 -0.95697786316E+00 -0.17370861300E+01  0.44521629516E+02  0.44565905507E+02  0.10566000000E+00 0.  1.
         14    1    4    4    0    0 -0.13732858453E+01 -0.13514890172E+01  0.38773317158E+02  0.38821161240E+02  0.00000000000E+00 0. -1.
<mgrwt>
<rscale>  0 0.80079106E+02</rscale>
<asrwt>0</asrwt>
<pdfrwt beam="1">  1        2 0.11635492E+00 0.80079106E+02</pdfrwt>
<pdfrwt beam="2">  1       -1 0.32611215E-03 0.80079106E+02</pdfrwt>
<totfact> 0.33922382E+05</totfact>
</mgrwt>
</event>
<event>
 8    1  0.2561077E-024  0.7998751E+02  0.7818608E-02  0.1329087E+00
         -1   -1    0    0    0  501 -0.00000000000E+00  0.00000000000E+00  0.41439637458E+01  0.41439668107E+01  0.50400000000E-02 0.  1.
          2   -1    0    0  501    0  0.00000000000E+00 -0.00000000000E+00 -0.38598311337E+03  0.38598311338E+03  0.25500000000E-02 0. -1.
         24    2    1    2    0    0 -0.88817841970E-15  0.00000000000E+00 -0.38183914962E+03  0.39012708019E+03  0.79987514720E+02 0.  0.
         66    2    3    3    0    0  0.67332425425E+01  0.33317201381E+02 -0.29359329895E+03  0.29556115721E+03  0.20000004525E+01 0.  0.
        -13    1    3    3    0    0 -0.67332425425E+01 -0.33317201381E+02 -0.88245850671E+02  0.94565922972E+02  0.10566000000E+00 0.  1.
         13    1    4    4    0    0  0.11462818559E+01  0.37650865494E+01 -0.32357121843E+02  0.32595771763E+02  0.10566000000E+00 0. -1.
        -13    1    4    4    0    0 -0.46007417306E-02  0.10527900118E+01 -0.10251838489E+02  0.10306296348E+02  0.10566000000E+00 0.  1.
         14    1    4    4    0    0  0.55915614283E+01  0.28499324820E+02 -0.25098433862E+03  0.25265908910E+03  0.00000000000E+00 0. -1.
<mgrwt>
<rscale>  0 0.79987515E+02</rscale>
<asrwt>0</asrwt>
<pdfrwt beam="1">  1        2 0.59381989E-01 0.79987515E+02</pdfrwt>
<pdfrwt beam="2">  1       -1 0.63753342E-03 0.79987515E+02</pdfrwt>
<totfact> 0.27913288E+05</totfact>
</mgrwt>
</event>
<event>
 8    1  0.2561077E-024  0.8138575E+02  0.7818608E-02  0.1325164E+00
          2   -1    0    0  501    0  0.00000000000E+00  0.00000000000E+00  0.55384072242E+03  0.55384072243E+03  0.25500000000E-02 0. -1.
         -1   -1    0    0    0  501 -0.00000000000E+00 -0.00000000000E+00 -0.29898647132E+01  0.29898689611E+01  0.50400000000E-02 0.  1.
         24    2    1    2    0    0  0.00000000000E+00  0.00000000000E+00  0.55085085771E+03  0.55683059139E+03  0.81385748556E+02 0.  0.
         66    2    3    3    0    0 -0.34307649017E+02  0.19980678853E+02  0.33588625676E+03  0.33823042412E+03  0.20000015203E+01 0.  0.
        -13    1    3    3    0    0  0.34307649017E+02 -0.19980678853E+02  0.21496460094E+03  0.21860016727E+03  0.10566000000E+00 0.  1.
         13    1    4    4    0    0 -0.11246040777E+02  0.65068741465E+01  0.10471868156E+03  0.10552168628E+03  0.10566000000E+00 0. -1.
        -13    1    4    4    0    0 -0.15690910498E+02  0.94927406349E+01  0.16293520463E+03  0.16396404749E+03  0.10566000000E+00 0.  1.
        -14    1    4    4    0    0 -0.73706977409E+01  0.39810640718E+01  0.68232370574E+02  0.68744690344E+02  0.00000000000E+00 0.  1.
<mgrwt>
<rscale>  0 0.81385749E+02</rscale>
<asrwt>0</asrwt>
<pdfrwt beam="1">  1        2 0.85206134E-01 0.81385749E+02</pdfrwt>
<pdfrwt beam="2">  1       -1 0.45998022E-03 0.81385749E+02</pdfrwt>
<totfact> 0.30052934E+05</totfact>
</mgrwt>
</event>
<event>
 8    1  0.2561077E-024  0.8027172E+02  0.7818608E-02  0.1328282E+00
          2   -1    0    0  501    0  0.00000000000E+00  0.00000000000E+00  0.43857155954E+03  0.43857155955E+03  0.25500000000E-02 0. -1.
         -1   -1    0    0    0  501 -0.00000000000E+00 -0.00000000000E+00 -0.36730303039E+01  0.36730337617E+01  0.50400000000E-02 0.  1.
         24    2    1    2    0    0  0.00000000000E+00  0.35527136788E-14  0.43489852924E+03  0.44224459331E+03  0.80271723412E+02 0.  0.
         66    2    3    3    0    0 -0.65884750304E+01 -0.30711827927E+02  0.35501503367E+03  0.35640748941E+03  0.19999996658E+01 0.  0.
        -13    1    3    3    0    0  0.65884750304E+01  0.30711827927E+02  0.79883495573E+02  0.85837103905E+02  0.10566000000E+00 0.  1.
         13    1    4    4    0    0 -0.29706240254E+01 -0.14339762056E+02  0.16976261721E+03  0.17039310652E+03  0.10566000000E+00 0. -1.
        -13    1    4    4    0    0 -0.76270143262E+00 -0.34424989109E+01  0.45191592151E+02  0.45329059966E+02  0.10566000000E+00 0.  1.
         14    1    4    4    0    0 -0.28551495724E+01 -0.12929566960E+02  0.14006082431E+03  0.14068532292E+03  0.00000000000E+00 0. -1.
<mgrwt>
<rscale>  0 0.80271723E+02</rscale>
<asrwt>0</asrwt>
<pdfrwt beam="1">  1        2 0.67472553E-01 0.80271723E+02</pdfrwt>
<pdfrwt beam="2">  1       -1 0.56508181E-03 0.80271723E+02</pdfrwt>
<totfact> 0.28907300E+05</totfact>
</mgrwt>
</event>
<event>
 8    1  0.2561077E-024  0.8142650E+02  0.7818608E-02  0.1325051E+00
         -1   -1    0    0    0  501 -0.00000000000E+00  0.00000000000E+00  0.54664321214E+01  0.54664344449E+01  0.50400000000E-02 0.  1.
          2   -1    0    0  501    0  0.00000000000E+00 -0.00000000000E+00 -0.30322675259E+03  0.30322675260E+03  0.25500000000E-02 0. -1.
         24    2    1    2    0    0 -0.88817841970E-15  0.00000000000E+00 -0.29776032047E+03  0.30869318704E+03  0.81426502337E+02 0.  0.
         66    2    3    3    0    0 -0.71351764959E+01 -0.31850053133E+02 -0.24107211326E+03  0.24327988084E+03  0.20000004115E+01 0.  0.
        -13    1    3    3    0    0  0.71351764959E+01  0.31850053133E+02 -0.56688207208E+02  0.65413306206E+02  0.10566000000E+00 0.  1.
         13    1    4    4    0    0 -0.20297542483E+01 -0.62985115212E+01 -0.48932350716E+02  0.49377902551E+02  0.10566000000E+00 0.  1.
        -13    1    4    4    0    0 -0.93042417950E+00 -0.54014248708E+01 -0.37247453001E+02  0.37648705142E+02  0.10566000000E+00 0. -1.
        -14    1    4    4    0    0 -0.41749980681E+01 -0.20150116741E+02 -0.15489230954E+03  0.15625327315E+03  0.00000000000E+00 0.  1.
<mgrwt>
<rscale>  0 0.81426502E+02</rscale>
<asrwt>0</asrwt>
<pdfrwt beam="1">  1        2 0.46650256E-01 0.81426502E+02</pdfrwt>
<pdfrwt beam="2">  1       -1 0.84098998E-03 0.81426502E+02</pdfrwt>
<totfact> 0.24433691E+05</totfact>
</mgrwt>
</event>
<event>
 8    1  0.2561077E-024  0.7967889E+02  0.7818608E-02  0.1329965E+00
          2   -1    0    0  501    0  0.00000000000E+00  0.00000000000E+00  0.69882261420E+01  0.69882266072E+01  0.25500000000E-02 0. -1.
         -1   -1    0    0    0  501 -0.00000000000E+00 -0.00000000000E+00 -0.22712218096E+03  0.22712218101E+03  0.50400000000E-02 0.  1.
         24    2    1    2    0    0  0.00000000000E+00  0.35527136788E-14 -0.22013395481E+03  0.23411040762E+03  0.79678886121E+02 0.  0.
         66    2    3    3    0    0  0.35162776107E+02  0.17842097146E+02 -0.93932160524E+02  0.10189215888E+03  0.20000014951E+01 0.  0.
        -13    1    3    3    0    0 -0.35162776107E+02 -0.17842097146E+02 -0.12620179429E+03  0.13221824874E+03  0.10566000000E+00 0.  1.
         13    1    4    4    0    0  0.36434946341E+01  0.22154427049E+01 -0.99917333339E+01  0.10864121620E+02  0.10566000000E+00 0. -1.
        -13    1    4    4    0    0  0.98177281720E+01  0.54605717568E+01 -0.25531997804E+02  0.27894438626E+02  0.10566000000E+00 0.  1.
        -14    1    4    4    0    0  0.21701553301E+02  0.10166082684E+02 -0.58408429386E+02  0.63133598632E+02  0.00000000000E+00 0.  1.
<mgrwt>
<rscale>  0 0.79678886E+02</rscale>
<asrwt>0</asrwt>
<pdfrwt beam="1">  1        2 0.10751119E-02 0.79678886E+02</pdfrwt>
<pdfrwt beam="2">  1       -1 0.34941868E-01 0.79678886E+02</pdfrwt>
<totfact> 0.96672300E+04</totfact>
</mgrwt>
</event>
<event>
 8    1  0.2561077E-024  0.8148715E+02  0.7818608E-02  0.1324883E+00
          2   -1    0    0  501    0  0.00000000000E+00  0.00000000000E+00  0.11940308240E+03  0.11940308242E+03  0.25500000000E-02 0. -1.
         -1   -1    0    0    0  501 -0.00000000000E+00 -0.00000000000E+00 -0.13902812524E+02  0.13902813438E+02  0.50400000000E-02 0.  1.
         24    2    1    2    0    0  0.00000000000E+00  0.35527136788E-14  0.10550026987E+03  0.13330589586E+03  0.81487145786E+02 0.  0.
         66    2    3    3    0    0 -0.21436345707E+02  0.25333786981E+02  0.91380918471E+02  0.97240886114E+02  0.19999978828E+01 0.  0.
        -13    1    3    3    0    0  0.21436345707E+02 -0.25333786981E+02  0.14119351400E+02  0.36065009747E+02  0.10566000000E+00 0.  1.
         13    1    4    4    0    0 -0.13141656288E+02  0.15799237244E+02  0.54516886297E+02  0.58261660490E+02  0.10566000000E+00 0. -1.
        -13    1    4    4    0    0 -0.55525677692E+01  0.66878150457E+01  0.26339141490E+02  0.27736607892E+02  0.10566000000E+00 0.  1.
        -14    1    4    4    0    0 -0.27421216498E+01  0.28467346910E+01  0.10524890685E+02  0.11242617732E+02  0.00000000000E+00 0.  1.
<mgrwt>
<rscale>  0 0.81487146E+02</rscale>
<asrwt>0</asrwt>
<pdfrwt beam="1">  1        2 0.18369705E-01 0.81487146E+02</pdfrwt>
<pdfrwt beam="2">  1       -1 0.21388943E-02 0.81487146E+02</pdfrwt>
<totfact> 0.17763334E+05</totfact>
</mgrwt>
</event>
<event>
 8    1  0.2561077E-024  0.7947770E+02  0.7818608E-02  0.1330540E+00
         -1   -1    0    0    0  501 -0.00000000000E+00  0.00000000000E+00  0.57052244246E+02  0.57052244469E+02  0.50400000000E-02 0.  1.
          2   -1    0    0  501    0  0.00000000000E+00 -0.00000000000E+00 -0.27679478250E+02  0.27679478367E+02  0.25500000000E-02 0. -1.
         24    2    1    2    0    0  0.00000000000E+00  0.88817841970E-15  0.29372765997E+02  0.84731722836E+02  0.79477704248E+02 0.  0.
         66    2    3    3    0    0  0.36937204141E+02  0.71217745162E+01  0.11223672972E+01  0.37687351093E+02  0.20000005145E+01 0.  0.
        -13    1    3    3    0    0 -0.36937204141E+02 -0.71217745162E+01  0.28250398699E+02  0.47044371743E+02  0.10566000000E+00 0.  1.
         13    1    4    4    0    0  0.24477617027E+02  0.45706396320E+01 -0.31091736427E-01  0.24900935980E+02  0.10566000000E+00 0. -1.
        -13    1    4    4    0    0  0.11934752506E+02  0.25683796813E+01  0.10787422945E+01  0.12256008345E+02  0.10566000000E+00 0.  1.
        -14    1    4    4    0    0  0.52483460810E+00 -0.17244797145E-01  0.74716739157E-01  0.53040676844E+00  0.00000000000E+00 0.  1.
<mgrwt>
<rscale>  0 0.79477704E+02</rscale>
<asrwt>0</asrwt>
<pdfrwt beam="1">  1        2 0.42583813E-02 0.79477704E+02</pdfrwt>
<pdfrwt beam="2">  1       -1 0.87772684E-02 0.79477704E+02</pdfrwt>
<totfact> 0.13489807E+05</totfact>
</mgrwt>
</event>
<event>
 8    1  0.2561077E-024  0.7899833E+02  0.7818608E-02  0.1331918E+00
         -1   -1    0    0    0  501 -0.00000000000E+00  0.00000000000E+00  0.12676987948E+02  0.12676988950E+02  0.50400000000E-02 0.  1.
          2   -1    0    0  501    0  0.00000000000E+00 -0.00000000000E+00 -0.12307213034E+03  0.12307213036E+03  0.25500000000E-02 0. -1.
         24    2    1    2    0    0  0.00000000000E+00  0.00000000000E+00 -0.11039514239E+03  0.13574911931E+03  0.78998328661E+02 0.  0.
         66    2    3    3    0    0 -0.26094121052E+02  0.17004117676E+02 -0.96906156816E+02  0.10180788971E+03  0.20000015180E+01 0.  0.
        -13    1    3    3    0    0  0.26094121052E+02 -0.17004117676E+02 -0.13488985573E+02  0.33941229607E+02  0.10566000000E+00 0.  1.
         13    1    4    4    0    0 -0.44862898865E+01  0.26630000915E+01 -0.18358779778E+02  0.19085971954E+02  0.10566000000E+00 0.  1.
        -13    1    4    4    0    0 -0.63769677501E+01  0.44836576310E+01 -0.24558084266E+02  0.25765860558E+02  0.10566000000E+00 0. -1.
        -14    1    4    4    0    0 -0.15230863416E+02  0.98574599537E+01 -0.53989292771E+02  0.56956057194E+02  0.00000000000E+00 0.  1.
<mgrwt>
<rscale>  0 0.78998329E+02</rscale>
<asrwt>0</asrwt>
<pdfrwt beam="1">  1        2 0.18934173E-01 0.78998329E+02</pdfrwt>
<pdfrwt beam="2">  1       -1 0.19503060E-02 0.78998329E+02</pdfrwt>
<totfact> 0.19471661E+05</totfact>
</mgrwt>
</event>
<event>
 8    1  0.2561077E-024  0.8073779E+02  0.7818608E-02  0.1326971E+00
          2   -1    0    0  501    0  0.00000000000E+00  0.00000000000E+00  0.17321200342E+03  0.17321200344E+03  0.25500000000E-02 0. -1.
         -1   -1    0    0    0  501 -0.00000000000E+00 -0.00000000000E+00 -0.94083994962E+01  0.94084008462E+01  0.50400000000E-02 0.  1.
         24    2    1    2    0    0  0.00000000000E+00 -0.88817841970E-15  0.16380360393E+03  0.18262040429E+03  0.80737794142E+02 0.  0.
         66    2    3    3    0    0 -0.28090596691E+02 -0.55555235108E+01  0.14623501229E+03  0.14902558266E+03  0.20000011383E+01 0.  0.
        -13    1    3    3    0    0  0.28090596691E+02  0.55555235108E+01  0.17568591637E+02  0.33594821625E+02  0.10566000000E+00 0.  1.
         13    1    4    4    0    0 -0.94008775855E+01 -0.18288350343E+01  0.53842822107E+02  0.54688040680E+02  0.10566000000E+00 0. -1.
        -13    1    4    4    0    0 -0.14408289142E+02 -0.27990247303E+01  0.71425680348E+02  0.72918257746E+02  0.10566000000E+00 0.  1.
         14    1    4    4    0    0 -0.42814299633E+01 -0.92766374630E+00  0.20966509836E+02  0.21419284238E+02  0.00000000000E+00 0. -1.
<mgrwt>
<rscale>  0 0.80737794E+02</rscale>
<asrwt>0</asrwt>
<pdfrwt beam="1">  1        2 0.26648001E-01 0.80737794E+02</pdfrwt>
<pdfrwt beam="2">  1       -1 0.14474461E-02 0.80737794E+02</pdfrwt>
<totfact> 0.20496147E+05</totfact>
</mgrwt>
</event>
<event>
 8    1  0.2561077E-024  0.7909373E+02  0.7818608E-02  0.1331643E+00
          2   -1    0    0  501    0  0.00000000000E+00  0.00000000000E+00  0.55898502893E+02  0.55898502952E+02  0.25500000000E-02 0. -1.
         -1   -1    0    0    0  501 -0.00000000000E+00 -0.00000000000E+00 -0.27978469755E+02  0.27978470209E+02  0.50400000000E-02 0.  1.
         24    2    1    2    0    0  0.17763568394E-14  0.00000000000E+00  0.27920033138E+02  0.83876973161E+02  0.79093731586E+02 0.  0.
         66    2    3    3    0    0 -0.12065212852E+02 -0.15976278092E+02  0.50105140737E+02  0.53993851067E+02  0.20000004855E+01 0.  0.
        -13    1    3    3    0    0  0.12065212852E+02  0.15976278092E+02 -0.22185107599E+02  0.29883122093E+02  0.10566000000E+00 0.  1.
         13    1    4    4    0    0 -0.12474549071E+01 -0.14103668692E+01  0.54065760629E+01  0.57260376536E+01  0.10566000000E+00 0. -1.
        -13    1    4    4    0    0 -0.42241558776E+01 -0.44219933922E+01  0.15263638559E+02  0.16443459019E+02  0.10566000000E+00 0.  1.
         14    1    4    4    0    0 -0.65936020673E+01 -0.10143917830E+02  0.29434926116E+02  0.31824354394E+02  0.00000000000E+00 0. -1.
<mgrwt>
<rscale>  0 0.79093732E+02</rscale>
<asrwt>0</asrwt>
<pdfrwt beam="1">  1        2 0.85997696E-02 0.79093732E+02</pdfrwt>
<pdfrwt beam="2">  1       -1 0.43043801E-02 0.79093732E+02</pdfrwt>
<totfact> 0.15799812E+05</totfact>
</mgrwt>
</event>
<event>
 8    1  0.2561077E-024  0.7844622E+02  0.7818608E-02  0.1333520E+00
         -1   -1    0    0    0  501 -0.00000000000E+00  0.00000000000E+00  0.11547067880E+02  0.11547068979E+02  0.50400000000E-02 0.  1.
          2   -1    0    0  501    0  0.00000000000E+00 -0.00000000000E+00 -0.13323314390E+03  0.13323314393E+03  0.25500000000E-02 0. -1.
         24    2    1    2    0    0  0.17763568394E-14  0.00000000000E+00 -0.12168607602E+03  0.14478021291E+03  0.78446216935E+02 0.  0.
         66    2    3    3    0    0 -0.15564391269E+02 -0.34672050527E+02 -0.78589252996E+02  0.87319368131E+02  0.20000002565E+01 0.  0.
        -13    1    3    3    0    0  0.15564391269E+02  0.34672050527E+02 -0.43096823029E+02  0.57460844777E+02  0.10566000000E+00 0.  1.
         13    1    4    4    0    0 -0.35976117602E+01 -0.96693847095E+01 -0.20672411705E+02  0.23104103115E+02  0.10566000000E+00 0.  1.
        -13    1    4    4    0    0 -0.84538193020E+01 -0.17935559821E+02 -0.42360149111E+02  0.46771195875E+02  0.10566000000E+00 0. -1.
         14    1    4    4    0    0 -0.35129602065E+01 -0.70671059959E+01 -0.15556692181E+02  0.17444069140E+02  0.00000000000E+00 0. -1.
<mgrwt>
<rscale>  0 0.78446217E+02</rscale>
<asrwt>0</asrwt>
<pdfrwt beam="1">  1        2 0.20497406E-01 0.78446217E+02</pdfrwt>
<pdfrwt beam="2">  1       -1 0.17764722E-02 0.78446217E+02</pdfrwt>
<totfact> 0.20324739E+05</totfact>
</mgrwt>
</event>
<event>
 8    1  0.2561077E-024  0.7992431E+02  0.7818608E-02  0.1329266E+00
          2   -1    0    0  501    0  0.00000000000E+00  0.00000000000E+00  0.11058896822E+03  0.11058896825E+03  0.25500000000E-02 0. -1.
         -1   -1    0    0    0  501 -0.00000000000E+00 -0.00000000000E+00 -0.14440626169E+02  0.14440627048E+02  0.50400000000E-02 0.  1.
         24    2    1    2    0    0  0.17763568394E-14 -0.35527136788E-14  0.96148342052E+02  0.12502959530E+03  0.79924314330E+02 0.  0.
         66    2    3    3    0    0 -0.97955240219E+01  0.17714162065E+02  0.10196022175E+03  0.10396937360E+03  0.19999995517E+01 0.  0.
        -13    1    3    3    0    0  0.97955240219E+01 -0.17714162065E+02 -0.58118796967E+01  0.21060221703E+02  0.10566000000E+00 0.  1.
         13    1    4    4    0    0 -0.31045924135E+01  0.47542086014E+01  0.29609597540E+02  0.30149302214E+02  0.10566000000E+00 0. -1.
        -13    1    4    4    0    0 -0.18119021769E+00  0.41311744371E+00  0.37359619159E+01  0.37645811706E+01  0.10566000000E+00 0.  1.
         14    1    4    4    0    0 -0.65097413908E+01  0.12546836020E+02  0.68614662293E+02  0.70055490211E+02  0.00000000000E+00 0. -1.
<mgrwt>
<rscale>  0 0.79924314E+02</rscale>
<asrwt>0</asrwt>
<pdfrwt beam="1">  1        2 0.17013687E-01 0.79924314E+02</pdfrwt>
<pdfrwt beam="2">  1       -1 0.22216349E-02 0.79924314E+02</pdfrwt>
<totfact> 0.18288219E+05</totfact>
</mgrwt>
</event>
<event>
 8    1  0.2561077E-024  0.7919776E+02  0.7818608E-02  0.1331344E+00
          2   -1    0    0  501    0  0.00000000000E+00  0.00000000000E+00  0.16341608545E+03  0.16341608547E+03  0.25500000000E-02 0. -1.
         -1   -1    0    0    0  501 -0.00000000000E+00 -0.00000000000E+00 -0.95955739299E+01  0.95955752535E+01  0.50400000000E-02 0.  1.
         24    2    1    2    0    0  0.00000000000E+00  0.00000000000E+00  0.15382051152E+03  0.17301166072E+03  0.79197758692E+02 0.  0.
         66    2    3    3    0    0  0.27985052917E+02  0.25334793338E+02  0.10290401378E+03  0.10962778386E+03  0.20000003648E+01 0.  0.
        -13    1    3    3    0    0 -0.27985052917E+02 -0.25334793338E+02  0.50916497740E+02  0.63383876864E+02  0.10566000000E+00 0.  1.
         13    1    4    4    0    0  0.10302855164E+02  0.97388290801E+01  0.36724895972E+02  0.39366518319E+02  0.10566000000E+00 0. -1.
        -13    1    4    4    0    0  0.24063089947E+01  0.25930556988E+01  0.97685318560E+01  0.10389881592E+02  0.10566000000E+00 0.  1.
        -14    1    4    4    0    0  0.15275888758E+02  0.13002908559E+02  0.56410585949E+02  0.59871383945E+02  0.00000000000E+00 0.  1.
<mgrwt>
<rscale>  0 0.79197759E+02</rscale>
<asrwt>0</asrwt>
<pdfrwt beam="1">  1        2 0.25140936E-01 0.79197759E+02</pdfrwt>
<pdfrwt beam="2">  1       -1 0.14762423E-02 0.79197759E+02</pdfrwt>
<totfact> 0.21154595E+05</totfact>
</mgrwt>
</event>
<event>
 8    1  0.2561077E-024  0.7871084E+02  0.7818608E-02  0.1332750E+00
          2   -1    0    0  501    0  0.00000000000E+00  0.00000000000E+00  0.14819903910E+02  0.14819904129E+02  0.25500000000E-02 0. -1.
         -1   -1    0    0    0  501 -0.00000000000E+00 -0.00000000000E+00 -0.10451139861E+03  0.10451139873E+03  0.50400000000E-02 0.  1.
         24    2    1    2    0    0  0.71054273576E-14  0.00000000000E+00 -0.89691494695E+02  0.11933130286E+03  0.78710835472E+02 0.  0.
         66    2    3    3    0    0 -0.37960775968E+02 -0.10188017621E+02 -0.47033498216E+02  0.61326716462E+02  0.19999956159E+01 0.  0.
        -13    1    3    3    0    0  0.37960775968E+02  0.10188017621E+02 -0.42657996479E+02  0.58004586394E+02  0.10566000000E+00 0.  1.
         13    1    4    4    0    0 -0.30531988933E+00 -0.65232738702E-01 -0.24507993374E+00  0.41073562609E+00  0.10566000000E+00 0. -1.
        -13    1    4    4    0    0 -0.90741991682E+01 -0.19714262893E+01 -0.11240748770E+02  0.14580576432E+02  0.10566000000E+00 0.  1.
         14    1    4    4    0    0 -0.28581256910E+02 -0.81513585927E+01 -0.35547669513E+02  0.46335404404E+02  0.00000000000E+00 0. -1.
<mgrwt>
<rscale>  0 0.78710835E+02</rscale>
<asrwt>0</asrwt>
<pdfrwt beam="1">  1        2 0.22799853E-02 0.78710835E+02</pdfrwt>
<pdfrwt beam="2">  1       -1 0.16078676E-01 0.78710835E+02</pdfrwt>
<totfact> 0.12226739E+05</totfact>
</mgrwt>
</event>
<event>
 8    1  0.2561077E-024  0.8015405E+02  0.7818608E-02  0.1328615E+00
          2   -1    0    0  501    0  0.00000000000E+00  0.00000000000E+00  0.13933715438E+02  0.13933715671E+02  0.25500000000E-02 0. -1.
         -1   -1    0    0    0  501 -0.00000000000E+00 -0.00000000000E+00 -0.11527204328E+03  0.11527204339E+03  0.50400000000E-02 0.  1.
         24    2    1    2    0    0 -0.35527136788E-14  0.35527136788E-14 -0.10133832784E+03  0.12920575906E+03  0.80154048462E+02 0.  0.
         66    2    3    3    0    0 -0.26226826347E+02  0.20043375346E+02 -0.14134181993E+02  0.35963292703E+02  0.20000014763E+01 0.  0.
        -13    1    3    3    0    0  0.26226826347E+02 -0.20043375346E+02 -0.87204145847E+02  0.93242466357E+02  0.10566000000E+00 0.  1.
         13    1    4    4    0    0 -0.14322075140E+02  0.99614310593E+01 -0.76815591257E+01  0.19062252220E+02  0.10566000000E+00 0. -1.
        -13    1    4    4    0    0 -0.10682706646E+02  0.87674949961E+01 -0.55630467539E+01  0.14897914049E+02  0.10566000000E+00 0.  1.
        -14    1    4    4    0    0 -0.12220445607E+01  0.13144492906E+01 -0.88957611391E+00  0.20031264335E+01  0.00000000000E+00 0.  1.
<mgrwt>
<rscale>  0 0.80154048E+02</rscale>
<asrwt>0</asrwt>
<pdfrwt beam="1">  1        2 0.21436486E-02 0.80154048E+02</pdfrwt>
<pdfrwt beam="2">  1       -1 0.17734160E-01 0.80154048E+02</pdfrwt>
<totfact> 0.11433615E+05</totfact>
</mgrwt>
</event>
<event>
 8    1  0.2561077E-024  0.8376091E+02  0.7818608E-02  0.1318705E+00
          2   -1    0    0  501    0  0.00000000000E+00  0.00000000000E+00  0.11377544241E+02  0.11377544527E+02  0.25500000000E-02 0. -1.
         -1   -1    0    0    0  501 -0.00000000000E+00 -0.00000000000E+00 -0.15416089838E+03  0.15416089846E+03  0.50400000000E-02 0.  1.
         24    2    1    2    0    0  0.35527136788E-14  0.00000000000E+00 -0.14278335414E+03  0.16553844299E+03  0.83760909068E+02 0.  0.
         66    2    3    3    0    0  0.28087859793E+02 -0.15638206514E+02 -0.18457790824E+02  0.37123731105E+02  0.19999995738E+01 0.  0.
        -13    1    3    3    0    0 -0.28087859793E+02  0.15638206514E+02 -0.12432556331E+03  0.12841471188E+03  0.10566000000E+00 0.  1.
         13    1    4    4    0    0  0.11822497181E+02 -0.64501471277E+01 -0.75981370786E+01  0.15463463023E+02  0.10566000000E+00 0. -1.
        -13    1    4    4    0    0  0.20683033064E+01 -0.13919336771E+01 -0.93562566331E+00  0.26649422782E+01  0.10566000000E+00 0.  1.
         14    1    4    4    0    0  0.14197059306E+02 -0.77961257095E+01 -0.99240280825E+01  0.18995325804E+02  0.00000000000E+00 0. -1.
<mgrwt>
<rscale>  0 0.83760909E+02</rscale>
<asrwt>0</asrwt>
<pdfrwt beam="1">  1        2 0.17503916E-02 0.83760909E+02</pdfrwt>
<pdfrwt beam="2">  1       -1 0.23717060E-01 0.83760909E+02</pdfrwt>
<totfact> 0.95360947E+04</totfact>
</mgrwt>
</event>
<event>
 8    1  0.2561077E-024  0.8052806E+02  0.7818608E-02  0.1327560E+00
          2   -1    0    0  501    0  0.00000000000E+00  0.00000000000E+00  0.43955388800E+03  0.43955388800E+03  0.25500000000E-02 0. -1.
         -1   -1    0    0    0  501 -0.00000000000E+00 -0.00000000000E+00 -0.36882651254E+01  0.36882685689E+01  0.50400000000E-02 0.  1.
         24    2    1    2    0    0  0.35527136788E-14 -0.44408920985E-15  0.43586562287E+03  0.44324215657E+03  0.80528058231E+02 0.  0.
         66    2    3    3    0    0 -0.26977967296E+02  0.30767589682E+01  0.38152477417E+03  0.38249500712E+03  0.19999999971E+01 0.  0.
        -13    1    3    3    0    0  0.26977967296E+02 -0.30767589682E+01  0.54340848695E+02  0.60747149448E+02  0.10566000000E+00 0.  1.
         13    1    4    4    0    0 -0.11030414059E+02  0.18839983185E+01  0.16001473649E+03  0.16040556892E+03  0.10566000000E+00 0. -1.
        -13    1    4    4    0    0 -0.13595626596E+02  0.12051127893E+01  0.19351854738E+03  0.19399931109E+03  0.10566000000E+00 0.  1.
         14    1    4    4    0    0 -0.23519266404E+01 -0.12352139630E-01  0.27991490314E+02  0.28090127118E+02  0.00000000000E+00 0. -1.
<mgrwt>
<rscale>  0 0.80528058E+02</rscale>
<asrwt>0</asrwt>
<pdfrwt beam="1">  1        2 0.67623671E-01 0.80528058E+02</pdfrwt>
<pdfrwt beam="2">  1       -1 0.56742571E-03 0.80528058E+02</pdfrwt>
<totfact> 0.28689430E+05</totfact>
</mgrwt>
</event>
<event>
 8    1  0.2561077E-024  0.7851223E+02  0.7818608E-02  0.1333327E+00
          2   -1    0    0  501    0  0.00000000000E+00  0.00000000000E+00  0.15528448214E+02  0.15528448423E+02  0.25500000000E-02 0. -1.
         -1   -1    0    0    0  501 -0.00000000000E+00 -0.00000000000E+00 -0.99239947655E+02  0.99239947783E+02  0.50400000000E-02 0.  1.
         24    2    1    2    0    0  0.00000000000E+00  0.44408920985E-15 -0.83711499442E+02  0.11476839621E+03  0.78512225984E+02 0.  0.
         66    2    3    3    0    0  0.31233569064E+02  0.27574562890E+01 -0.74174920987E+01  0.32282481517E+02  0.20000055478E+01 0.  0.
        -13    1    3    3    0    0 -0.31233569064E+02 -0.27574562890E+01 -0.76294007343E+02  0.82485914689E+02  0.10566000000E+00 0.  1.
         13    1    4    4    0    0  0.11492002663E+02  0.50687713052E+00 -0.18894644005E+01  0.11657799509E+02  0.10566000000E+00 0. -1.
        -13    1    4    4    0    0  0.14062468689E+02  0.15677749429E+01 -0.39147982680E+01  0.14681544654E+02  0.10566000000E+00 0. -1.
         14    1    4    4    0    0  0.56790977118E+01  0.68280421564E+00 -0.16132294302E+01  0.59431373543E+01  0.00000000000E+00 0. -1.
<mgrwt>
<rscale>  0 0.78512226E+02</rscale>
<asrwt>0</asrwt>
<pdfrwt beam="1">  1        2 0.23889921E-02 0.78512226E+02</pdfrwt>
<pdfrwt beam="2">  1       -1 0.15267684E-01 0.78512226E+02</pdfrwt>
<totfact> 0.12440938E+05</totfact>
</mgrwt>
</event>
<event>
 8    1  0.2561077E-024  0.7945297E+02  0.7818608E-02  0.1330611E+00
         -1   -1    0    0    0  501 -0.00000000000E+00  0.00000000000E+00  0.25141423129E+02  0.25141423634E+02  0.50400000000E-02 0.  1.
          2   -1    0    0  501    0  0.00000000000E+00 -0.00000000000E+00 -0.62772651004E+02  0.62772651056E+02  0.25500000000E-02 0. -1.
         24    2    1    2    0    0 -0.17763568394E-14 -0.71054273576E-14 -0.37631227876E+02  0.87914074690E+02  0.79452974879E+02 0.  0.
         66    2    3    3    0    0  0.10874920085E+02  0.28323244667E+02 -0.47161448679E+02  0.56113031501E+02  0.19999968460E+01 0.  0.
        -13    1    3    3    0    0 -0.10874920085E+02 -0.28323244667E+02  0.95302208035E+01  0.31801043189E+02  0.10566000000E+00 0.  1.
         13    1    4    4    0    0  0.65860672802E+01  0.16879301264E+02 -0.27250876641E+02  0.32724738886E+02  0.10566000000E+00 0. -1.
        -13    1    4    4    0    0  0.28458223758E+01  0.88309130630E+01 -0.14709102679E+02  0.17391164313E+02  0.10566000000E+00 0.  1.
        -14    1    4    4    0    0  0.14430304293E+01  0.26130303400E+01 -0.52014693588E+01  0.59971283018E+01  0.00000000000E+00 0.  1.
<mgrwt>
<rscale>  0 0.79452975E+02</rscale>
<asrwt>0</asrwt>
<pdfrwt beam="1">  1        2 0.96573308E-02 0.79452975E+02</pdfrwt>
<pdfrwt beam="2">  1       -1 0.38679113E-02 0.79452975E+02</pdfrwt>
<totfact> 0.16026572E+05</totfact>
</mgrwt>
</event>
<event>
 8    1  0.2561077E-024  0.8069144E+02  0.7818608E-02  0.1327101E+00
         -1   -1    0    0    0  501 -0.00000000000E+00  0.00000000000E+00  0.27223257874E+02  0.27223258341E+02  0.50400000000E-02 0.  1.
          2   -1    0    0  501    0  0.00000000000E+00 -0.00000000000E+00 -0.59793624192E+02  0.59793624246E+02  0.25500000000E-02 0. -1.
         24    2    1    2    0    0  0.00000000000E+00  0.35527136788E-14 -0.32570366318E+02  0.87016882587E+02  0.80691443741E+02 0.  0.
         66    2    3    3    0    0  0.26360223623E+02  0.19130606948E+02 -0.41926638172E+02  0.53128942273E+02  0.20000017469E+01 0.  0.
        -13    1    3    3    0    0 -0.26360223623E+02 -0.19130606948E+02  0.93562718544E+01  0.33887940314E+02  0.10566000000E+00 0.  1.
         13    1    4    4    0    0  0.80279682013E+01  0.63032149790E+01 -0.12531442415E+02  0.16162518540E+02  0.10566000000E+00 0. -1.
        -13    1    4    4    0    0  0.98367999291E+00  0.10436965676E+01 -0.20829682203E+01  0.25311755167E+01  0.10566000000E+00 0.  1.
        -14    1    4    4    0    0  0.17348575428E+02  0.11783695402E+02 -0.27312227537E+02  0.34435248217E+02  0.00000000000E+00 0.  1.
<mgrwt>
<rscale>  0 0.80691444E+02</rscale>
<asrwt>0</asrwt>
<pdfrwt beam="1">  1        2 0.91990191E-02 0.80691444E+02</pdfrwt>
<pdfrwt beam="2">  1       -1 0.41881936E-02 0.80691444E+02</pdfrwt>
<totfact> 0.15193625E+05</totfact>
</mgrwt>
</event>
<event>
 8    1  0.2561077E-024  0.7985826E+02  0.7818608E-02  0.1329454E+00
          2   -1    0    0  501    0  0.00000000000E+00  0.00000000000E+00  0.35444970456E+03  0.35444970457E+03  0.25500000000E-02 0. -1.
         -1   -1    0    0    0  501 -0.00000000000E+00 -0.00000000000E+00 -0.44980573838E+01  0.44980602074E+01  0.50400000000E-02 0.  1.
         24    2    1    2    0    0  0.00000000000E+00 -0.35527136788E-14  0.34995164718E+03  0.35894776478E+03  0.79858264925E+02 0.  0.
         66    2    3    3    0    0 -0.48714176943E+01  0.19538303336E+02  0.32993488850E+03  0.33055484665E+03  0.19999973766E+01 0.  0.
        -13    1    3    3    0    0  0.48714176943E+01 -0.19538303336E+02  0.20016758679E+02  0.28392918125E+02  0.10566000000E+00 0.  1.
         13    1    4    4    0    0 -0.22897201806E+01  0.12207666499E+02  0.20349913987E+03  0.20387785812E+03  0.10566000000E+00 0. -1.
        -13    1    4    4    0    0 -0.11411594510E-01  0.27190866058E+00  0.61107342528E+01  0.61177039556E+01  0.10566000000E+00 0. -1.
        -14    1    4    4    0    0 -0.25702859191E+01  0.70587281766E+01  0.12032501438E+03  0.12055928458E+03  0.00000000000E+00 0.  1.
<mgrwt>
<rscale>  0 0.79858265E+02</rscale>
<asrwt>0</asrwt>
<pdfrwt beam="1">  1        2 0.54530734E-01 0.79858265E+02</pdfrwt>
<pdfrwt beam="2">  1       -1 0.69200892E-03 0.79858265E+02</pdfrwt>
<totfact> 0.27197177E+05</totfact>
</mgrwt>
</event>
<event>
 8    1  0.2561077E-024  0.8028112E+02  0.7818608E-02  0.1328256E+00
         -1   -1    0    0    0  501 -0.00000000000E+00  0.00000000000E+00  0.28237635393E+01  0.28237680372E+01  0.50400000000E-02 0.  1.
          2   -1    0    0  501    0  0.00000000000E+00 -0.00000000000E+00 -0.57060845118E+03  0.57060845118E+03  0.25500000000E-02 0. -1.
         24    2    1    2    0    0  0.17763568394E-14  0.88817841970E-15 -0.56778468764E+03  0.57343221922E+03  0.80281121838E+02 0.  0.
         66    2    3    3    0    0  0.14380575916E+02  0.53773575847E+01 -0.54878986738E+03  0.54900822898E+03  0.20000044709E+01 0.  0.
        -13    1    3    3    0    0 -0.14380575916E+02 -0.53773575847E+01 -0.18994820260E+02  0.24423990236E+02  0.10566000000E+00 0.  1.
         13    1    4    4    0    0  0.25871153487E+01  0.76191187411E+00 -0.97391657895E+02  0.97429050427E+02  0.10566000000E+00 0. -1.
        -13    1    4    4    0    0  0.66938124920E+01  0.24421747482E+01 -0.22358912795E+03  0.22370266124E+03  0.10566000000E+00 0.  1.
         14    1    4    4    0    0  0.50996480757E+01  0.21732709623E+01 -0.22780908153E+03  0.22787651732E+03  0.00000000000E+00 0. -1.
<mgrwt>
<rscale>  0 0.80281122E+02</rscale>
<asrwt>0</asrwt>
<pdfrwt beam="1">  1        2 0.87785824E-01 0.80281122E+02</pdfrwt>
<pdfrwt beam="2">  1       -1 0.43442596E-03 0.80281122E+02</pdfrwt>
<totfact> 0.31418112E+05</totfact>
</mgrwt>
</event>
<event>
 8    1  0.2561077E-024  0.8054587E+02  0.7818608E-02  0.1327509E+00
         -1   -1    0    0    0  501 -0.00000000000E+00  0.00000000000E+00  0.38872414607E+01  0.38872447280E+01  0.50400000000E-02 0.  1.
          2   -1    0    0  501    0  0.00000000000E+00 -0.00000000000E+00 -0.41723901330E+03  0.41723901331E+03  0.25500000000E-02 0. -1.
         24    2    1    2    0    0  0.00000000000E+00  0.00000000000E+00 -0.41335177184E+03  0.42112625803E+03  0.80545874659E+02 0.  0.
         66    2    3    3    0    0 -0.34799815842E+02  0.16850674541E+02 -0.26524239805E+03  0.26805317032E+03  0.19999947693E+01 0.  0.
        -13    1    3    3    0    0  0.34799815842E+02 -0.16850674541E+02 -0.14810937379E+03  0.15307308772E+03  0.10566000000E+00 0.  1.
         13    1    4    4    0    0 -0.12897315487E+01  0.58822539654E+00 -0.10652928910E+02  0.10747347347E+02  0.10566000000E+00 0. -1.
        -13    1    4    4    0    0 -0.32520103686E+02  0.15553880554E+02 -0.24449716828E+03  0.24714035851E+03  0.10566000000E+00 0.  1.
        -14    1    4    4    0    0 -0.98998060772E+00  0.70856859070E+00 -0.10092300858E+02  0.10165464458E+02  0.00000000000E+00 0.  1.
<mgrwt>
<rscale>  0 0.80545875E+02</rscale>
<asrwt>0</asrwt>
<pdfrwt beam="1">  1        2 0.64190582E-01 0.80545875E+02</pdfrwt>
<pdfrwt beam="2">  1       -1 0.59803773E-03 0.80545875E+02</pdfrwt>
<totfact> 0.28166079E+05</totfact>
</mgrwt>
</event>
<event>
 8    1  0.2561077E-024  0.7805156E+02  0.7818608E-02  0.1334674E+00
         -1   -1    0    0    0  501 -0.00000000000E+00  0.00000000000E+00  0.59018258078E+02  0.59018258293E+02  0.50400000000E-02 0.  1.
          2   -1    0    0  501    0  0.00000000000E+00 -0.00000000000E+00 -0.25805767078E+02  0.25805767204E+02  0.25500000000E-02 0. -1.
         24    2    1    2    0    0 -0.44408920985E-15  0.00000000000E+00  0.33212491000E+02  0.84824025497E+02  0.78051558237E+02 0.  0.
         66    2    3    3    0    0  0.30765604054E+01 -0.19491858156E+02 -0.19941135718E+02  0.28125551482E+02  0.19999985398E+01 0.  0.
        -13    1    3    3    0    0 -0.30765604054E+01  0.19491858156E+02  0.53153626718E+02  0.56698474015E+02  0.10566000000E+00 0.  1.
         13    1    4    4    0    0  0.20296190061E+00 -0.32197569601E+01 -0.38968037660E+01  0.50600664068E+01  0.10566000000E+00 0. -1.
        -13    1    4    4    0    0  0.74886543588E-01 -0.31529956881E+01 -0.31543512667E+01  0.44618477958E+01  0.10566000000E+00 0.  1.
         14    1    4    4    0    0  0.27987119612E+01 -0.13119105508E+02 -0.12889980685E+02  0.18603637280E+02  0.00000000000E+00 0. -1.
<mgrwt>
<rscale>  0 0.78051558E+02</rscale>
<asrwt>0</asrwt>
<pdfrwt beam="1">  1        2 0.39701180E-02 0.78051558E+02</pdfrwt>
<pdfrwt beam="2">  1       -1 0.90797320E-02 0.78051558E+02</pdfrwt>
<totfact> 0.14002453E+05</totfact>
</mgrwt>
</event>
<event>
 8    1  0.2561077E-024  0.7963578E+02  0.7818608E-02  0.1330088E+00
          2   -1    0    0  501    0  0.00000000000E+00  0.00000000000E+00  0.45588321984E+03  0.45588321985E+03  0.25500000000E-02 0. -1.
         -1   -1    0    0    0  501 -0.00000000000E+00 -0.00000000000E+00 -0.34777841312E+01  0.34777877832E+01  0.50400000000E-02 0.  1.
         24    2    1    2    0    0 -0.35527136788E-14 -0.88817841970E-15  0.45240543571E+03  0.45936100763E+03  0.79635777589E+02 0.  0.
         66    2    3    3    0    0  0.24987735482E+02  0.57008882531E+01  0.40192923980E+03  0.40275054421E+03  0.20000005585E+01 0.  0.
        -13    1    3    3    0    0 -0.24987735482E+02 -0.57008882531E+01  0.50476195906E+02  0.56610463420E+02  0.10566000000E+00 0.  1.
         13    1    4    4    0    0  0.13384938617E+02  0.26383805713E+01  0.21521601893E+03  0.21564800858E+03  0.10566000000E+00 0. -1.
        -13    1    4    4    0    0  0.72096800204E+01  0.21112805358E+01  0.10792468819E+03  0.10818588852E+03  0.10566000000E+00 0. -1.
         14    1    4    4    0    0  0.43931168446E+01  0.95122714607E+00  0.78788532679E+02  0.78916647106E+02  0.00000000000E+00 0. -1.
<mgrwt>
<rscale>  0 0.79635778E+02</rscale>
<asrwt>0</asrwt>
<pdfrwt beam="1">  1        2 0.70135893E-01 0.79635778E+02</pdfrwt>
<pdfrwt beam="2">  1       -1 0.53504390E-03 0.79635778E+02</pdfrwt>
<totfact> 0.29900404E+05</totfact>
</mgrwt>
</event>
<event>
 8    1  0.2561077E-024  0.7915857E+02  0.7818608E-02  0.1331456E+00
         -1   -1    0    0    0  501 -0.00000000000E+00  0.00000000000E+00  0.33757800494E+01  0.33757838118E+01  0.50400000000E-02 0.  1.
          2   -1    0    0  501    0  0.00000000000E+00 -0.00000000000E+00 -0.46404655178E+03  0.46404655179E+03  0.25500000000E-02 0. -1.
         24    2    1    2    0    0  0.44408920985E-15  0.00000000000E+00 -0.46067077173E+03  0.46742233560E+03  0.79158574329E+02 0.  0.
         66    2    3    3    0    0  0.39742991436E+01 -0.37357309022E+02 -0.30355755109E+03  0.30587996080E+03  0.20000013006E+01 0.  0.
        -13    1    3    3    0    0 -0.39742991436E+01  0.37357309022E+02 -0.15711322064E+03  0.16154237480E+03  0.10566000000E+00 0.  1.
         13    1    4    4    0    0  0.28106830543E+01 -0.28907865162E+02 -0.23520935754E+03  0.23699581778E+03  0.10566000000E+00 0. -1.
        -13    1    4    4    0    0  0.13799286044E+00 -0.31361457882E+01 -0.27622988608E+02  0.27800991279E+02  0.10566000000E+00 0.  1.
         14    1    4    4    0    0  0.10256232289E+01 -0.53132980716E+01 -0.40725204943E+02  0.41083151742E+02  0.00000000000E+00 0. -1.
<mgrwt>
<rscale>  0 0.79158574E+02</rscale>
<asrwt>0</asrwt>
<pdfrwt beam="1">  1        2 0.71391727E-01 0.79158574E+02</pdfrwt>
<pdfrwt beam="2">  1       -1 0.51935144E-03 0.79158574E+02</pdfrwt>
<totfact> 0.30552121E+05</totfact>
</mgrwt>
</event>
<event>
 8    1  0.2561077E-024  0.8222689E+02  0.7818608E-02  0.1322848E+00
         -1   -1    0    0    0  501 -0.00000000000E+00  0.00000000000E+00  0.77768850157E+02  0.77768850320E+02  0.50400000000E-02 0.  1.
          2   -1    0    0  501    0  0.00000000000E+00 -0.00000000000E+00 -0.21735120241E+02  0.21735120390E+02  0.25500000000E-02 0. -1.
         24    2    1    2    0    0  0.71054273576E-14  0.17763568394E-14  0.56033729916E+02  0.99503970711E+02  0.82226889147E+02 0.  0.
         66    2    3    3    0    0 -0.36650021165E+02 -0.11302388591E+02  0.10193236634E+02  0.39734998596E+02  0.20000002828E+01 0.  0.
        -13    1    3    3    0    0  0.36650021165E+02  0.11302388591E+02  0.45840493282E+02  0.59768972114E+02  0.10566000000E+00 0.  1.
         13    1    4    4    0    0 -0.92512167355E+01 -0.26748250969E+01  0.19641784873E+01  0.98289806975E+01  0.10566000000E+00 0. -1.
        -13    1    4    4    0    0 -0.41683690687E+01 -0.17158568987E+01  0.15097698963E+01  0.47550010268E+01  0.10566000000E+00 0.  1.
         14    1    4    4    0    0 -0.23230435361E+02 -0.69117065950E+01  0.67192882502E+01  0.25151016872E+02  0.00000000000E+00 0. -1.
<mgrwt>
<rscale>  0 0.82226889E+02</rscale>
<asrwt>0</asrwt>
<pdfrwt beam="1">  1        2 0.33438646E-02 0.82226889E+02</pdfrwt>
<pdfrwt beam="2">  1       -1 0.11964439E-01 0.82226889E+02</pdfrwt>
<totfact> 0.11670309E+05</totfact>
</mgrwt>
</event>
<event>
 8    1  0.2561077E-024  0.8012788E+02  0.7818608E-02  0.1328689E+00
         -1   -1    0    0    0  501 -0.00000000000E+00  0.00000000000E+00  0.30753923942E+01  0.30753965240E+01  0.50400000000E-02 0.  1.
          2   -1    0    0  501    0  0.00000000000E+00 -0.00000000000E+00 -0.52192305300E+03  0.52192305300E+03  0.25500000000E-02 0. -1.
         24    2    1    2    0    0  0.00000000000E+00 -0.71054273576E-14 -0.51884766060E+03  0.52499844953E+03  0.80127879624E+02 0.  0.
         66    2    3    3    0    0  0.23351114527E+02  0.32068686400E+02 -0.29513476454E+03  0.29779557493E+03  0.20000024594E+01 0.  0.
        -13    1    3    3    0    0 -0.23351114527E+02 -0.32068686400E+02 -0.22371289606E+03  0.22720287460E+03  0.10566000000E+00 0.  1.
         13    1    4    4    0    0  0.31532742170E+01  0.40478775451E+01 -0.35853904482E+02  0.36219360590E+02  0.10566000000E+00 0. -1.
        -13    1    4    4    0    0  0.92885365298E+00  0.11433414821E+01 -0.91111736445E+01  0.92300946945E+01  0.10566000000E+00 0.  1.
         14    1    4    4    0    0  0.19268986657E+02  0.26877467373E+02 -0.25016968642E+03  0.25234611965E+03  0.00000000000E+00 0. -1.
<mgrwt>
<rscale>  0 0.80127880E+02</rscale>
<asrwt>0</asrwt>
<pdfrwt beam="1">  1        2 0.80295784E-01 0.80127880E+02</pdfrwt>
<pdfrwt beam="2">  1       -1 0.47313803E-03 0.80127880E+02</pdfrwt>
<totfact> 0.30737052E+05</totfact>
</mgrwt>
</event>
<event>
 8    1  0.2561077E-024  0.7992570E+02  0.7818608E-02  0.1329262E+00
          2   -1    0    0  501    0  0.00000000000E+00  0.00000000000E+00  0.48835713595E+03  0.48835713595E+03  0.25500000000E-02 0. -1.
         -1   -1    0    0    0  501 -0.00000000000E+00 -0.00000000000E+00 -0.32702060947E+01  0.32702099785E+01  0.50400000000E-02 0.  1.
         24    2    1    2    0    0  0.00000000000E+00  0.00000000000E+00  0.48508692985E+03  0.49162734593E+03  0.79925701466E+02 0.  0.
         66    2    3    3    0    0  0.39123395809E+02 -0.74669499260E+01  0.26076377258E+03  0.26379564161E+03  0.20000006328E+01 0.  0.
        -13    1    3    3    0    0 -0.39123395809E+02  0.74669499260E+01  0.22432315728E+03  0.22783170433E+03  0.10566000000E+00 0.  1.
         13    1    4    4    0    0  0.19978514704E+01 -0.56342091212E+00  0.12849039412E+02  0.13016060520E+02  0.10566000000E+00 0.  1.
        -13    1    4    4    0    0  0.13705840515E+02 -0.31069852951E+01  0.88463102000E+02  0.89572512532E+02  0.10566000000E+00 0. -1.
         14    1    4    4    0    0  0.23419703823E+02 -0.37965437189E+01  0.15945163116E+03  0.16120706856E+03  0.00000000000E+00 0. -1.
<mgrwt>
<rscale>  0 0.79925701E+02</rscale>
<asrwt>0</asrwt>
<pdfrwt beam="1">  1        2 0.75131830E-01 0.79925701E+02</pdfrwt>
<pdfrwt beam="2">  1       -1 0.50310918E-03 0.79925701E+02</pdfrwt>
<totfact> 0.30295358E+05</totfact>
</mgrwt>
</event>
<event>
 8    1  0.2561077E-024  0.7749523E+02  0.7818608E-02  0.1336314E+00
         -1   -1    0    0    0  501 -0.00000000000E+00  0.00000000000E+00  0.20524110155E+01  0.20524172037E+01  0.50400000000E-02 0.  1.
          2   -1    0    0  501    0  0.00000000000E+00 -0.00000000000E+00 -0.73151781895E+03  0.73151781896E+03  0.25500000000E-02 0. -1.
         24    2    1    2    0    0  0.35527136788E-14  0.00000000000E+00 -0.72946540794E+03  0.73357023616E+03  0.77495225686E+02 0.  0.
         66    2    3    3    0    0 -0.26895389978E+02 -0.16158312244E+02 -0.57977602531E+03  0.58062784343E+03  0.19999984708E+01 0.  0.
        -13    1    3    3    0    0  0.26895389978E+02  0.16158312244E+02 -0.14968938263E+03  0.15294239273E+03  0.10566000000E+00 0.  1.
         13    1    4    4    0    0 -0.20553420010E+02 -0.12512842832E+02 -0.45385732893E+03  0.45449477499E+03  0.10566000000E+00 0. -1.
        -13    1    4    4    0    0 -0.62283756166E+01 -0.36633902814E+01 -0.12300362523E+03  0.12321572982E+03  0.10566000000E+00 0.  1.
        -14    1    4    4    0    0 -0.11359435129E+00  0.17920869387E-01 -0.29150711488E+01  0.29173386222E+01  0.00000000000E+00 0.  1.
<mgrwt>
<rscale>  0 0.77495226E+02</rscale>
<asrwt>0</asrwt>
<pdfrwt beam="1">  1        2 0.11254100E+00 0.77495226E+02</pdfrwt>
<pdfrwt beam="2">  1       -1 0.31575660E-03 0.77495226E+02</pdfrwt>
<totfact> 0.36684344E+05</totfact>
</mgrwt>
</event>
<event>
 8    1  0.2561077E-024  0.7830034E+02  0.7818608E-02  0.1333945E+00
         -1   -1    0    0    0  501 -0.00000000000E+00  0.00000000000E+00  0.19028283593E+01  0.19028350340E+01  0.50400000000E-02 0.  1.
          2   -1    0    0  501    0  0.00000000000E+00 -0.00000000000E+00 -0.80550248946E+03  0.80550248946E+03  0.25500000000E-02 0. -1.
         24    2    1    2    0    0  0.00000000000E+00  0.00000000000E+00 -0.80359966110E+03  0.80740532449E+03  0.78300336567E+02 0.  0.
         66    2    3    3    0    0 -0.24055786595E+01 -0.26281602239E+02 -0.69989136849E+03  0.70039163124E+03  0.19999989637E+01 0.  0.
        -13    1    3    3    0    0  0.24055786595E+01  0.26281602239E+02 -0.10370829260E+03  0.10701369325E+03  0.10566000000E+00 0.  1.
         13    1    4    4    0    0 -0.17963149739E+01 -0.13533642926E+02 -0.38085630685E+03  0.38110093659E+03  0.10566000000E+00 0. -1.
        -13    1    4    4    0    0 -0.22016336391E+00 -0.33212454744E+01 -0.78040448918E+02  0.78111471467E+02  0.10566000000E+00 0.  1.
         14    1    4    4    0    0 -0.38910032170E+00 -0.94267138383E+01 -0.24099461273E+03  0.24117922319E+03  0.00000000000E+00 0. -1.
<mgrwt>
<rscale>  0 0.78300337E+02</rscale>
<asrwt>0</asrwt>
<pdfrwt beam="1">  1        2 0.12392319E+00 0.78300337E+02</pdfrwt>
<pdfrwt beam="2">  1       -1 0.29274398E-03 0.78300337E+02</pdfrwt>
<totfact> 0.36377466E+05</totfact>
</mgrwt>
</event>
<event>
 8    1  0.2561077E-024  0.8636282E+02  0.7818608E-02  0.1311907E+00
         -1   -1    0    0    0  501 -0.00000000000E+00  0.00000000000E+00  0.37200201687E+01  0.37200235829E+01  0.50400000000E-02 0.  1.
          2   -1    0    0  501    0  0.00000000000E+00 -0.00000000000E+00 -0.50124282430E+03  0.50124282431E+03  0.25500000000E-02 0. -1.
         24    2    1    2    0    0  0.00000000000E+00 -0.71054273576E-14 -0.49752280413E+03  0.50496284789E+03  0.86362822545E+02 0.  0.
         66    2    3    3    0    0 -0.35040655765E+01 -0.42963939022E+02 -0.26122965346E+03  0.26476991970E+03  0.20000003905E+01 0.  0.
        -13    1    3    3    0    0  0.35040655765E+01  0.42963939022E+02 -0.23629315068E+03  0.24019292819E+03  0.10566000000E+00 0.  1.
         13    1    4    4    0    0 -0.16588154441E+01 -0.19413946921E+02 -0.11812234015E+03  0.11971863435E+03  0.10566000000E+00 0. -1.
        -13    1    4    4    0    0 -0.49550822447E+00 -0.11389884309E+02 -0.65267604489E+02  0.66255915606E+02  0.10566000000E+00 0.  1.
        -14    1    4    4    0    0 -0.13497419079E+01 -0.12160107793E+02 -0.77839708817E+02  0.78795369746E+02  0.00000000000E+00 0.  1.
<mgrwt>
<rscale>  0 0.86362823E+02</rscale>
<asrwt>0</asrwt>
<pdfrwt beam="1">  1        2 0.77114227E-01 0.86362823E+02</pdfrwt>
<pdfrwt beam="2">  1       -1 0.57231146E-03 0.86362823E+02</pdfrwt>
<totfact> 0.24946237E+05</totfact>
</mgrwt>
</event>
<event>
 8    1  0.2561077E-024  0.7899035E+02  0.7818608E-02  0.1331941E+00
         -1   -1    0    0    0  501 -0.00000000000E+00  0.00000000000E+00  0.37881902039E+02  0.37881902374E+02  0.50400000000E-02 0.  1.
          2   -1    0    0  501    0  0.00000000000E+00 -0.00000000000E+00 -0.41177154466E+02  0.41177154545E+02  0.25500000000E-02 0. -1.
         24    2    1    2    0    0  0.00000000000E+00  0.00000000000E+00 -0.32952524265E+01  0.79059056919E+02  0.78990352527E+02 0.  0.
         66    2    3    3    0    0  0.29247950689E+01  0.20500440929E+02 -0.35279118107E+02  0.40956546078E+02  0.19999969264E+01 0.  0.
        -13    1    3    3    0    0 -0.29247950689E+01 -0.20500440929E+02  0.31983865681E+02  0.38102510841E+02  0.10566000000E+00 0.  1.
         13    1    4    4    0    0  0.25959584387E+01  0.16625295385E+02 -0.28531732250E+02  0.33124165742E+02  0.10566000000E+00 0. -1.
        -13    1    4    4    0    0 -0.16511202074E+00  0.26324544522E+01 -0.45240703436E+01  0.52378864947E+01  0.10566000000E+00 0.  1.
         14    1    4    4    0    0  0.49394865098E+00  0.12426910918E+01 -0.22233155137E+01  0.25944938414E+01  0.00000000000E+00 0. -1.
<mgrwt>
<rscale>  0 0.78990353E+02</rscale>
<asrwt>0</asrwt>
<pdfrwt beam="1">  1        2 0.63349469E-02 0.78990353E+02</pdfrwt>
<pdfrwt beam="2">  1       -1 0.58279850E-02 0.78990353E+02</pdfrwt>
<totfact> 0.14852001E+05</totfact>
</mgrwt>
</event>
<event>
 8    1  0.2561077E-024  0.8032928E+02  0.7818608E-02  0.1328120E+00
          2   -1    0    0  501    0  0.00000000000E+00  0.00000000000E+00  0.76725663730E+01  0.76725667967E+01  0.25500000000E-02 0. -1.
         -1   -1    0    0    0  501 -0.00000000000E+00 -0.00000000000E+00 -0.21025536343E+03  0.21025536349E+03  0.50400000000E-02 0.  1.
         24    2    1    2    0    0  0.00000000000E+00 -0.71054273576E-14 -0.20258279705E+03  0.21792793028E+03  0.80329279442E+02 0.  0.
         66    2    3    3    0    0 -0.53576676226E+00  0.40119010382E+02 -0.98177125261E+02  0.10607813142E+03  0.20000000759E+01 0.  0.
        -13    1    3    3    0    0  0.53576676226E+00 -0.40119010382E+02 -0.10440567179E+03  0.11184979887E+03  0.10566000000E+00 0.  1.
         13    1    4    4    0    0 -0.18607662001E+00  0.21550482571E+02 -0.50331240473E+02  0.54751281767E+02  0.10566000000E+00 0. -1.
        -13    1    4    4    0    0 -0.12155060351E-01  0.11657047749E+02 -0.29594513342E+02  0.31807755249E+02  0.10566000000E+00 0.  1.
         14    1    4    4    0    0 -0.33753508190E+00  0.69114800618E+01 -0.18251371446E+02  0.19519094401E+02  0.00000000000E+00 0. -1.
<mgrwt>
<rscale>  0 0.80329279E+02</rscale>
<asrwt>0</asrwt>
<pdfrwt beam="1">  1        2 0.11803950E-02 0.80329279E+02</pdfrwt>
<pdfrwt beam="2">  1       -1 0.32346975E-01 0.80329279E+02</pdfrwt>
<totfact> 0.97062437E+04</totfact>
</mgrwt>
</event>
<event>
 8    1  0.2561077E-024  0.7812266E+02  0.7818608E-02  0.1334465E+00
          2   -1    0    0  501    0  0.00000000000E+00  0.00000000000E+00  0.24027368461E+03  0.24027368462E+03  0.25500000000E-02 0. -1.
         -1   -1    0    0    0  501 -0.00000000000E+00 -0.00000000000E+00 -0.63502058396E+01  0.63502078397E+01  0.50400000000E-02 0.  1.
         24    2    1    2    0    0 -0.17763568394E-14  0.35527136788E-14  0.23392347877E+03  0.24662389246E+03  0.78122662613E+02 0.  0.
         66    2    3    3    0    0  0.13935569850E+02 -0.31676988754E+02  0.17405033432E+03  0.17746873131E+03  0.19999981640E+01 0.  0.
        -13    1    3    3    0    0 -0.13935569850E+02  0.31676988754E+02  0.59873144451E+02  0.69155161153E+02  0.10566000000E+00 0.  1.
         13    1    4    4    0    0  0.45347818826E+01 -0.90133476768E+01  0.47508686160E+02  0.48568416772E+02  0.10566000000E+00 0. -1.
        -13    1    4    4    0    0  0.67622565685E+01 -0.17077597673E+02  0.94832442104E+02  0.96594905123E+02  0.10566000000E+00 0.  1.
        -14    1    4    4    0    0  0.26385313991E+01 -0.55860434045E+01  0.31709206055E+02  0.32305409415E+02  0.00000000000E+00 0.  1.
<mgrwt>
<rscale>  0 0.78122663E+02</rscale>
<asrwt>0</asrwt>
<pdfrwt beam="1">  1        2 0.36965178E-01 0.78122663E+02</pdfrwt>
<pdfrwt beam="2">  1       -1 0.97695501E-03 0.78122663E+02</pdfrwt>
<totfact> 0.25047127E+05</totfact>
</mgrwt>
</event>
<event>
 8    1  0.2561077E-024  0.7854515E+02  0.7818608E-02  0.1333232E+00
         -1   -1    0    0    0  501 -0.00000000000E+00  0.00000000000E+00  0.20332600704E+01  0.20332663169E+01  0.50400000000E-02 0.  1.
          2   -1    0    0  501    0  0.00000000000E+00 -0.00000000000E+00 -0.75855163430E+03  0.75855163430E+03  0.25500000000E-02 0. -1.
         24    2    1    2    0    0 -0.35527136788E-14  0.00000000000E+00 -0.75651837423E+03  0.76058490062E+03  0.78545149473E+02 0.  0.
         66    2    3    3    0    0  0.26115344624E+02 -0.10728510152E+02 -0.64249312914E+03  0.64311626720E+03  0.19999991591E+01 0.  0.
        -13    1    3    3    0    0 -0.26115344624E+02  0.10728510152E+02 -0.11402524509E+03  0.11746863342E+03  0.10566000000E+00 0.  1.
         13    1    4    4    0    0  0.26669092054E+01 -0.10266579631E+01 -0.59590837871E+02  0.59659412949E+02  0.10566000000E+00 0. -1.
        -13    1    4    4    0    0  0.41710826981E+01 -0.10497510266E+01 -0.97664804795E+02  0.97759527248E+02  0.10566000000E+00 0.  1.
         14    1    4    4    0    0  0.19277352720E+02 -0.86521011623E+01 -0.48523748647E+03  0.48569732700E+03  0.00000000000E+00 0. -1.
<mgrwt>
<rscale>  0 0.78545149E+02</rscale>
<asrwt>0</asrwt>
<pdfrwt beam="1">  1        2 0.11670003E+00 0.78545149E+02</pdfrwt>
<pdfrwt beam="2">  1       -1 0.31281033E-03 0.78545149E+02</pdfrwt>
<totfact> 0.35690055E+05</totfact>
</mgrwt>
</event>
<event>
 8    1  0.2561077E-024  0.7531633E+02  0.7818608E-02  0.1342894E+00
         -1   -1    0    0    0  501 -0.00000000000E+00  0.00000000000E+00  0.10864306465E+02  0.10864307634E+02  0.50400000000E-02 0.  1.
          2   -1    0    0  501    0  0.00000000000E+00 -0.00000000000E+00 -0.13053177645E+03  0.13053177647E+03  0.25500000000E-02 0. -1.
         24    2    1    2    0    0  0.00000000000E+00  0.00000000000E+00 -0.11966746998E+03  0.14139608411E+03  0.75316327769E+02 0.  0.
         66    2    3    3    0    0 -0.86885684841E+01  0.50256894747E+01 -0.12796441844E+03  0.12837305471E+03  0.20000029580E+01 0.  0.
        -13    1    3    3    0    0  0.86885684841E+01 -0.50256894747E+01  0.82969484559E+01  0.13023029399E+02  0.10566000000E+00 0.  1.
         13    1    4    4    0    0 -0.19040219738E+00  0.34350899414E+00 -0.31290842253E+01  0.31554054495E+01  0.10566000000E+00 0. -1.
        -13    1    4    4    0    0 -0.77501666791E+00  0.16005273765E+00 -0.78582359830E+01  0.78986900506E+01  0.10566000000E+00 0. -1.
         14    1    4    4    0    0 -0.77231496188E+01  0.45221277429E+01 -0.11697709823E+03  0.11731895921E+03  0.00000000000E+00 0. -1.
<mgrwt>
<rscale>  0 0.75316328E+02</rscale>
<asrwt>0</asrwt>
<pdfrwt beam="1">  1        2 0.20081811E-01 0.75316328E+02</pdfrwt>
<pdfrwt beam="2">  1       -1 0.16714319E-02 0.75316328E+02</pdfrwt>
<totfact> 0.22497305E+05</totfact>
</mgrwt>
</event>
<event>
 8    1  0.2561077E-024  0.7804690E+02  0.7818608E-02  0.1334687E+00
          2   -1    0    0  501    0  0.00000000000E+00  0.00000000000E+00  0.49832447312E+03  0.49832447313E+03  0.25500000000E-02 0. -1.
         -1   -1    0    0    0  501 -0.00000000000E+00 -0.00000000000E+00 -0.30558979528E+01  0.30559021090E+01  0.50400000000E-02 0.  1.
         24    2    1    2    0    0  0.00000000000E+00  0.00000000000E+00  0.49526857517E+03  0.50138037524E+03  0.78046903354E+02 0.  0.
         66    2    3    3    0    0 -0.63933046365E+01 -0.37841602739E+02  0.29228697977E+03  0.29480254371E+03  0.19999988120E+01 0.  0.
        -13    1    3    3    0    0  0.63933046365E+01  0.37841602739E+02  0.20298159540E+03  0.20657783152E+03  0.10566000000E+00 0.  1.
         13    1    4    4    0    0 -0.17758407161E+01 -0.89547106419E+01  0.65215127883E+02  0.65851078365E+02  0.10566000000E+00 0. -1.
        -13    1    4    4    0    0 -0.14940302265E+01 -0.12862416510E+02  0.99211372627E+02  0.10005289355E+03  0.10566000000E+00 0.  1.
        -14    1    4    4    0    0 -0.31234336938E+01 -0.16024475587E+02  0.12786047926E+03  0.12889857180E+03  0.00000000000E+00 0.  1.
<mgrwt>
<rscale>  0 0.78046903E+02</rscale>
<asrwt>0</asrwt>
<pdfrwt beam="1">  1        2 0.76665306E-01 0.78046903E+02</pdfrwt>
<pdfrwt beam="2">  1       -1 0.47013846E-03 0.78046903E+02</pdfrwt>
<totfact> 0.32440250E+05</totfact>
</mgrwt>
</event>
<event>
 8    1  0.2561077E-024  0.7972039E+02  0.7818608E-02  0.1329847E+00
          2   -1    0    0  501    0  0.00000000000E+00  0.00000000000E+00  0.43607803051E+01  0.43607810506E+01  0.25500000000E-02 0. -1.
         -1   -1    0    0    0  501 -0.00000000000E+00 -0.00000000000E+00 -0.36434645718E+03  0.36434645722E+03  0.50400000000E-02 0.  1.
         24    2    1    2    0    0  0.00000000000E+00  0.00000000000E+00 -0.35998567688E+03  0.36870723827E+03  0.79720386316E+02 0.  0.
         66    2    3    3    0    0 -0.17593707807E+01 -0.38660777183E+02 -0.13645424014E+03  0.14185031100E+03  0.19999997925E+01 0.  0.
        -13    1    3    3    0    0  0.17593707807E+01  0.38660777183E+02 -0.22353143674E+03  0.22685692727E+03  0.10566000000E+00 0.  1.
         13    1    4    4    0    0 -0.11098733611E+01 -0.11963445235E+02 -0.40020094787E+02  0.41784865581E+02  0.10566000000E+00 0. -1.
        -13    1    4    4    0    0  0.88262809250E-01 -0.25569538121E+01 -0.91994313616E+01  0.95491625043E+01  0.10566000000E+00 0.  1.
        -14    1    4    4    0    0 -0.73776022883E+00 -0.24140378136E+02 -0.87234713993E+02  0.90516282912E+02  0.00000000000E+00 0.  1.
<mgrwt>
<rscale>  0 0.79720386E+02</rscale>
<asrwt>0</asrwt>
<pdfrwt beam="1">  1        2 0.67088962E-03 0.79720386E+02</pdfrwt>
<pdfrwt beam="2">  1       -1 0.56053277E-01 0.79720386E+02</pdfrwt>
<totfact> 0.80094196E+04</totfact>
</mgrwt>
</event>
<event>
 8    1  0.2561077E-024  0.7966689E+02  0.7818608E-02  0.1329999E+00
         -1   -1    0    0    0  501 -0.00000000000E+00  0.00000000000E+00  0.79974337617E+02  0.79974337776E+02  0.50400000000E-02 0.  1.
          2   -1    0    0  501    0  0.00000000000E+00 -0.00000000000E+00 -0.19840157395E+02  0.19840157559E+02  0.25500000000E-02 0. -1.
         24    2    1    2    0    0  0.00000000000E+00  0.17763568394E-14  0.60134180222E+02  0.99814495335E+02  0.79666893048E+02 0.  0.
         66    2    3    3    0    0  0.17551801547E+02 -0.14996828828E+02  0.70717914682E+02  0.74417700034E+02  0.20000022172E+01 0.  0.
        -13    1    3    3    0    0 -0.17551801547E+02  0.14996828828E+02 -0.10583734460E+02  0.25396795301E+02  0.10566000000E+00 0.  1.
         13    1    4    4    0    0  0.66849636653E+01 -0.57057530174E+01  0.26340658022E+02  0.27768431461E+02  0.10566000000E+00 0. -1.
        -13    1    4    4    0    0  0.10164406378E+02 -0.84708426800E+01  0.42070435842E+02  0.44102188933E+02  0.10566000000E+00 0.  1.
        -14    1    4    4    0    0  0.70243150349E+00 -0.82023313074E+00  0.23068208177E+01  0.25470796397E+01  0.00000000000E+00 0.  1.
<mgrwt>
<rscale>  0 0.79666893E+02</rscale>
<asrwt>0</asrwt>
<pdfrwt beam="1">  1        2 0.30523320E-02 0.79666893E+02</pdfrwt>
<pdfrwt beam="2">  1       -1 0.12303744E-01 0.79666893E+02</pdfrwt>
<totfact> 0.12545038E+05</totfact>
</mgrwt>
</event>
<event>
 8    1  0.2561077E-024  0.7834439E+02  0.7818608E-02  0.1333817E+00
          2   -1    0    0  501    0  0.00000000000E+00  0.00000000000E+00  0.38666561109E+03  0.38666561109E+03  0.25500000000E-02 0. -1.
         -1   -1    0    0    0  501 -0.00000000000E+00 -0.00000000000E+00 -0.39684425433E+01  0.39684457437E+01  0.50400000000E-02 0.  1.
         24    2    1    2    0    0  0.00000000000E+00  0.00000000000E+00  0.38269716854E+03  0.39063405684E+03  0.78344390681E+02 0.  0.
         66    2    3    3    0    0 -0.15517247532E+02 -0.34210345954E+02  0.24639339475E+03  0.24924854607E+03  0.19999999473E+01 0.  0.
        -13    1    3    3    0    0  0.15517247532E+02  0.34210345954E+02  0.13630377379E+03  0.14138551077E+03  0.10566000000E+00 0.  1.
         13    1    4    4    0    0 -0.14649278788E+00 -0.26563191467E+00  0.16770240933E+01  0.17075111408E+01  0.10566000000E+00 0.  1.
        -13    1    4    4    0    0 -0.26414563833E+01 -0.71692590554E+01  0.50675246613E+02  0.51248096068E+02  0.10566000000E+00 0.  1.
         14    1    4    4    0    0 -0.12729298360E+02 -0.26775454984E+02  0.19404112405E+03  0.19629293886E+03  0.00000000000E+00 0. -1.
<mgrwt>
<rscale>  0 0.78344391E+02</rscale>
<asrwt>0</asrwt>
<pdfrwt beam="1">  1        2 0.59487042E-01 0.78344391E+02</pdfrwt>
<pdfrwt beam="2">  1       -1 0.61052961E-03 0.78344391E+02</pdfrwt>
<totfact> 0.29485841E+05</totfact>
</mgrwt>
</event>
<event>
 8    1  0.2561077E-024  0.7917906E+02  0.7818608E-02  0.1331397E+00
         -1   -1    0    0    0  501 -0.00000000000E+00  0.00000000000E+00  0.11160134127E+02  0.11160135265E+02  0.50400000000E-02 0.  1.
          2   -1    0    0  501    0  0.00000000000E+00 -0.00000000000E+00 -0.14044013649E+03  0.14044013651E+03  0.25500000000E-02 0. -1.
         24    2    1    2    0    0  0.00000000000E+00  0.00000000000E+00 -0.12928000236E+03  0.15160027178E+03  0.79179059050E+02 0.  0.
         66    2    3    3    0    0  0.18917525586E+02  0.23007011476E+02 -0.11454044216E+03  0.11836683755E+03  0.19999976316E+01 0.  0.
        -13    1    3    3    0    0 -0.18917525586E+02 -0.23007011476E+02 -0.14739560202E+02  0.33233434224E+02  0.10566000000E+00 0.  1.
         13    1    4    4    0    0  0.84066397429E+01  0.11307361497E+02 -0.55756844736E+02  0.57509694093E+02  0.10566000000E+00 0.  1.
        -13    1    4    4    0    0  0.84088385964E+01  0.98384068310E+01 -0.48426752572E+02  0.50126483461E+02  0.10566000000E+00 0. -1.
        -14    1    4    4    0    0  0.21020472463E+01  0.18612431488E+01 -0.10356844855E+02  0.10730660000E+02  0.00000000000E+00 0.  1.
<mgrwt>
<rscale>  0 0.79179059E+02</rscale>
<asrwt>0</asrwt>
<pdfrwt beam="1">  1        2 0.21606174E-01 0.79179059E+02</pdfrwt>
<pdfrwt beam="2">  1       -1 0.17169439E-02 0.79179059E+02</pdfrwt>
<totfact> 0.20158246E+05</totfact>
</mgrwt>
</event>
<event>
 8    1  0.2561077E-024  0.8267953E+02  0.7818608E-02  0.1321615E+00
          2   -1    0    0  501    0  0.00000000000E+00  0.00000000000E+00  0.27251098481E+02  0.27251098600E+02  0.25500000000E-02 0. -1.
         -1   -1    0    0    0  501 -0.00000000000E+00 -0.00000000000E+00 -0.62712194319E+02  0.62712194522E+02  0.50400000000E-02 0.  1.
         24    2    1    2    0    0 -0.35527136788E-14  0.00000000000E+00 -0.35461095838E+02  0.89963293122E+02  0.82679530667E+02 0.  0.
         66    2    3    3    0    0  0.26670203683E+02  0.14806195509E+02  0.12578710064E+02  0.33056726672E+02  0.20000103527E+01 0.  0.
        -13    1    3    3    0    0 -0.26670203683E+02 -0.14806195509E+02 -0.48039805903E+02  0.56906566450E+02  0.10566000000E+00 0.  1.
         13    1    4    4    0    0  0.55480203051E+01  0.33545799718E+01  0.28537919842E+01  0.70844215585E+01  0.10566000000E+00 0. -1.
        -13    1    4    4    0    0  0.11309199106E+02  0.52010405393E+01  0.50239411690E+01  0.13423857717E+02  0.10566000000E+00 0.  1.
        -14    1    4    4    0    0  0.98129842723E+01  0.62505749983E+01  0.47009769109E+01  0.12548447396E+02  0.00000000000E+00 0.  1.
<mgrwt>
<rscale>  0 0.82679531E+02</rscale>
<asrwt>0</asrwt>
<pdfrwt beam="1">  1        2 0.41924767E-02 0.82679531E+02</pdfrwt>
<pdfrwt beam="2">  1       -1 0.96480299E-02 0.82679531E+02</pdfrwt>
<totfact> 0.12029094E+05</totfact>
</mgrwt>
</event>
<event>
 8    1  0.2561077E-024  0.7861630E+02  0.7818608E-02  0.1333025E+00
          2   -1    0    0  501    0  0.00000000000E+00  0.00000000000E+00  0.37867156177E+01  0.37867164763E+01  0.25500000000E-02 0. -1.
         -1   -1    0    0    0  501 -0.00000000000E+00 -0.00000000000E+00 -0.40803971392E+03  0.40803971395E+03  0.50400000000E-02 0.  1.
         24    2    1    2    0    0  0.00000000000E+00  0.00000000000E+00 -0.40425299830E+03  0.41182643043E+03  0.78616297052E+02 0.  0.
         66    2    3    3    0    0  0.34786362736E+02  0.71323806977E+01 -0.29025077717E+03  0.29242174261E+03  0.20000033903E+01 0.  0.
        -13    1    3    3    0    0 -0.34786362736E+02 -0.71323806977E+01 -0.11400222113E+03  0.11940468782E+03  0.10566000000E+00 0.  1.
         13    1    4    4    0    0  0.11359607311E+02  0.19740912198E+01 -0.91108166444E+02  0.91834889183E+02  0.10566000000E+00 0. -1.
        -13    1    4    4    0    0  0.86286750303E+01  0.21798167552E+01 -0.78932048617E+02  0.79432267353E+02  0.10566000000E+00 0.  1.
         14    1    4    4    0    0  0.14798080394E+02  0.29784727227E+01 -0.12021056211E+03  0.12115458607E+03  0.00000000000E+00 0. -1.
<mgrwt>
<rscale>  0 0.78616297E+02</rscale>
<asrwt>0</asrwt>
<pdfrwt beam="1">  1        2 0.58257202E-03 0.78616297E+02</pdfrwt>
<pdfrwt beam="2">  1       -1 0.62775306E-01 0.78616297E+02</pdfrwt>
<totfact> 0.78463897E+04</totfact>
</mgrwt>
</event>
<event>
 8    1  0.2561077E-024  0.8310868E+02  0.7818608E-02  0.1320454E+00
          2   -1    0    0  501    0  0.00000000000E+00  0.00000000000E+00  0.18821098428E+03  0.18821098429E+03  0.25500000000E-02 0. -1.
         -1   -1    0    0    0  501 -0.00000000000E+00 -0.00000000000E+00 -0.91746131896E+01  0.91746145739E+01  0.50400000000E-02 0.  1.
         24    2    1    2    0    0  0.00000000000E+00 -0.35527136788E-14  0.17903637109E+03  0.19738559887E+03  0.83108678659E+02 0.  0.
         66    2    3    3    0    0  0.26900440961E+02 -0.30736261955E+02  0.10740738386E+03  0.11492909822E+03  0.19999971678E+01 0.  0.
        -13    1    3    3    0    0 -0.26900440961E+02  0.30736261955E+02  0.71628987230E+02  0.82456500644E+02  0.10566000000E+00 0.  1.
         13    1    4    4    0    0  0.98401169020E+01 -0.10482888735E+02  0.39132601096E+02  0.41690412440E+02  0.10566000000E+00 0. -1.
        -13    1    4    4    0    0  0.27131677396E+01 -0.28657119959E+01  0.93654712921E+01  0.10163503382E+02  0.10566000000E+00 0. -1.
        -14    1    4    4    0    0  0.14347156319E+02 -0.17387661224E+02  0.58909311469E+02  0.63075182402E+02  0.00000000000E+00 0.  1.
<mgrwt>
<rscale>  0 0.83108679E+02</rscale>
<asrwt>0</asrwt>
<pdfrwt beam="1">  1        2 0.28955534E-01 0.83108679E+02</pdfrwt>
<pdfrwt beam="2">  1       -1 0.14114792E-02 0.83108679E+02</pdfrwt>
<totfact> 0.19527511E+05</totfact>
</mgrwt>
</event>
<event>
 8    1  0.2561077E-024  0.7907781E+02  0.7818608E-02  0.1331689E+00
         -1   -1    0    0    0  501 -0.00000000000E+00  0.00000000000E+00  0.54681493077E+01  0.54681516304E+01  0.50400000000E-02 0.  1.
          2   -1    0    0  501    0  0.00000000000E+00 -0.00000000000E+00 -0.28589651192E+03  0.28589651194E+03  0.25500000000E-02 0. -1.
         24    2    1    2    0    0  0.17763568394E-14  0.00000000000E+00 -0.28042836262E+03  0.29136466357E+03  0.79077813672E+02 0.  0.
         66    2    3    3    0    0 -0.82432503686E+01 -0.38571288984E+02 -0.13156522010E+03  0.13736485229E+03  0.19999982421E+01 0.  0.
        -13    1    3    3    0    0  0.82432503686E+01  0.38571288984E+02 -0.14886314251E+03  0.15399981128E+03  0.10566000000E+00 0.  1.
         13    1    4    4    0    0 -0.39868699970E+01 -0.18191398536E+02 -0.63699798912E+02  0.66366389524E+02  0.10566000000E+00 0. -1.
        -13    1    4    4    0    0  0.39323654818E-01 -0.75028927834E+00 -0.27883139886E+01  0.28896953621E+01  0.10566000000E+00 0.  1.
        -14    1    4    4    0    0 -0.42957040264E+01 -0.19629601169E+02 -0.65077107204E+02  0.68108767403E+02  0.00000000000E+00 0.  1.
<mgrwt>
<rscale>  0 0.79077814E+02</rscale>
<asrwt>0</asrwt>
<pdfrwt beam="1">  1        2 0.43984067E-01 0.79077814E+02</pdfrwt>
<pdfrwt beam="2">  1       -1 0.84125414E-03 0.79077814E+02</pdfrwt>
<totfact> 0.25826985E+05</totfact>
</mgrwt>
</event>
<event>
 8    1  0.2561077E-024  0.7899940E+02  0.7818608E-02  0.1331915E+00
          2   -1    0    0  501    0  0.00000000000E+00  0.00000000000E+00  0.69026449263E+01  0.69026453973E+01  0.25500000000E-02 0. -1.
         -1   -1    0    0    0  501 -0.00000000000E+00 -0.00000000000E+00 -0.22603312515E+03  0.22603312521E+03  0.50400000000E-02 0.  1.
         24    2    1    2    0    0 -0.35527136788E-14 -0.35527136788E-14 -0.21913048023E+03  0.23293577061E+03  0.78999404198E+02 0.  0.
         66    2    3    3    0    0  0.27010422273E+02  0.28327424214E+02 -0.94538199445E+02  0.10234000701E+03  0.20000018105E+01 0.  0.
        -13    1    3    3    0    0 -0.27010422273E+02 -0.28327424214E+02 -0.12459228078E+03  0.13059576359E+03  0.10566000000E+00 0.  1.
         13    1    4    4    0    0  0.19179101782E+02  0.20397578023E+02 -0.68113438271E+02  0.73643402770E+02  0.10566000000E+00 0.  1.
        -13    1    4    4    0    0  0.73681146075E+01  0.72210962628E+01 -0.23840674178E+02  0.25977341153E+02  0.10566000000E+00 0. -1.
        -14    1    4    4    0    0  0.46320588361E+00  0.70874992821E+00 -0.25840869961E+01  0.27192630904E+01  0.00000000000E+00 0.  1.
<mgrwt>
<rscale>  0 0.78999404E+02</rscale>
<asrwt>0</asrwt>
<pdfrwt beam="1">  1        2 0.10619456E-02 0.78999404E+02</pdfrwt>
<pdfrwt beam="2">  1       -1 0.34774321E-01 0.78999404E+02</pdfrwt>
<totfact> 0.98963682E+04</totfact>
</mgrwt>
</event>
<event>
 8    1  0.2561077E-024  0.8031549E+02  0.7818608E-02  0.1328159E+00
         -1   -1    0    0    0  501 -0.00000000000E+00  0.00000000000E+00  0.86003295696E+01  0.86003310464E+01  0.50400000000E-02 0.  1.
          2   -1    0    0  501    0  0.00000000000E+00 -0.00000000000E+00 -0.18750959155E+03  0.18750959157E+03  0.25500000000E-02 0. -1.
         24    2    1    2    0    0  0.00000000000E+00  0.00000000000E+00 -0.17890926198E+03  0.19610992262E+03  0.80315488701E+02 0.  0.
         66    2    3    3    0    0  0.12083566278E+02  0.29108524219E+01 -0.18268591004E+03  0.18311916165E+03  0.20000000203E+01 0.  0.
        -13    1    3    3    0    0 -0.12083566278E+02 -0.29108524219E+01  0.37766480602E+01  0.12990760964E+02  0.10566000000E+00 0.  1.
         13    1    4    4    0    0  0.83927553846E+01  0.23412625176E+01 -0.13336476343E+03  0.13364913446E+03  0.10566000000E+00 0. -1.
        -13    1    4    4    0    0  0.54406810239E-01 -0.76960982642E-01 -0.17582713641E+01  0.17639629586E+01  0.10566000000E+00 0.  1.
         14    1    4    4    0    0  0.36364040833E+01  0.64655088691E+00 -0.47562875254E+02  0.47706064239E+02  0.00000000000E+00 0. -1.
<mgrwt>
<rscale>  0 0.80315489E+02</rscale>
<asrwt>0</asrwt>
<pdfrwt beam="1">  1        2 0.28847626E-01 0.80315489E+02</pdfrwt>
<pdfrwt beam="2">  1       -1 0.13231279E-02 0.80315489E+02</pdfrwt>
<totfact> 0.21349967E+05</totfact>
</mgrwt>
</event>
<event>
 8    1  0.2561077E-024  0.7959951E+02  0.7818608E-02  0.1330192E+00
          2   -1    0    0  501    0  0.00000000000E+00  0.00000000000E+00  0.76468465905E+02  0.76468465947E+02  0.25500000000E-02 0. -1.
         -1   -1    0    0    0  501 -0.00000000000E+00 -0.00000000000E+00 -0.20714687538E+02  0.20714688152E+02  0.50400000000E-02 0.  1.
         24    2    1    2    0    0  0.00000000000E+00  0.00000000000E+00  0.55753778366E+02  0.97183154099E+02  0.79599507778E+02 0.  0.
         66    2    3    3    0    0  0.28887801287E+02 -0.25320767364E+02  0.40486256133E+02  0.55846067576E+02  0.20000012416E+01 0.  0.
        -13    1    3    3    0    0 -0.28887801287E+02  0.25320767364E+02  0.15267522234E+02  0.41337086523E+02  0.10566000000E+00 0.  1.
         13    1    4    4    0    0  0.45750678135E+01 -0.38190803444E+01  0.68223765604E+01  0.90593932547E+01  0.10566000000E+00 0. -1.
        -13    1    4    4    0    0  0.24950505894E+01 -0.26810311578E+01  0.33672125821E+01  0.49761923316E+01  0.10566000000E+00 0.  1.
         14    1    4    4    0    0  0.21817682884E+02 -0.18820655861E+02  0.30296666990E+02  0.41810481989E+02  0.00000000000E+00 0. -1.
<mgrwt>
<rscale>  0 0.79599508E+02</rscale>
<asrwt>0</asrwt>
<pdfrwt beam="1">  1        2 0.11764379E-01 0.79599508E+02</pdfrwt>
<pdfrwt beam="2">  1       -1 0.31868751E-02 0.79599508E+02</pdfrwt>
<totfact> 0.16729841E+05</totfact>
</mgrwt>
</event>
<event>
 8    1  0.2561077E-024  0.8138669E+02  0.7818608E-02  0.1325162E+00
         -1   -1    0    0    0  501 -0.00000000000E+00  0.00000000000E+00  0.28888904146E+01  0.28888948110E+01  0.50400000000E-02 0.  1.
          2   -1    0    0  501    0  0.00000000000E+00 -0.00000000000E+00 -0.57321215123E+03  0.57321215123E+03  0.25500000000E-02 0. -1.
         24    2    1    2    0    0  0.00000000000E+00  0.17763568394E-14 -0.57032326081E+03  0.57610104604E+03  0.81386690736E+02 0.  0.
         66    2    3    3    0    0 -0.22344008708E+02  0.10944867703E+02 -0.51304967374E+03  0.51365651230E+03  0.20000125955E+01 0.  0.
        -13    1    3    3    0    0  0.22344008708E+02 -0.10944867703E+02 -0.57273587073E+02  0.62444533743E+02  0.10566000000E+00 0.  1.
         13    1    4    4    0    0 -0.20985996247E+01  0.87305316826E+00 -0.39231765396E+02  0.39297696146E+02  0.10566000000E+00 0. -1.
        -13    1    4    4    0    0 -0.12618157892E+01  0.38378746663E+00 -0.31350140417E+02  0.31378048698E+02  0.10566000000E+00 0.  1.
         14    1    4    4    0    0 -0.18983593294E+02  0.96880270684E+01 -0.44246776792E+03  0.44298076745E+03  0.00000000000E+00 0. -1.
<mgrwt>
<rscale>  0 0.81386691E+02</rscale>
<asrwt>0</asrwt>
<pdfrwt beam="1">  1        2 0.88186394E-01 0.81386691E+02</pdfrwt>
<pdfrwt beam="2">  1       -1 0.44444547E-03 0.81386691E+02</pdfrwt>
<totfact> 0.30358308E+05</totfact>
</mgrwt>
</event>
<event>
 8    1  0.2561077E-024  0.7900293E+02  0.7818608E-02  0.1331905E+00
          2   -1    0    0  501    0  0.00000000000E+00  0.00000000000E+00  0.37982916646E+03  0.37982916647E+03  0.25500000000E-02 0. -1.
         -1   -1    0    0    0  501 -0.00000000000E+00 -0.00000000000E+00 -0.41080708919E+01  0.41080739836E+01  0.50400000000E-02 0.  1.
         24    2    1    2    0    0  0.00000000000E+00  0.00000000000E+00  0.37572109557E+03  0.38393724045E+03  0.79002930016E+02 0.  0.
         66    2    3    3    0    0 -0.11822769889E+02 -0.24971215552E+02  0.32500769301E+03  0.32618605123E+03  0.20000010722E+01 0.  0.
        -13    1    3    3    0    0  0.11822769889E+02  0.24971215552E+02  0.50713402553E+02  0.57751189222E+02  0.10566000000E+00 0.  1.
         13    1    4    4    0    0 -0.50071661830E+01 -0.92851993073E+01  0.13052119985E+03  0.13094686485E+03  0.10566000000E+00 0. -1.
        -13    1    4    4    0    0 -0.38166552864E+00 -0.14419449496E+01  0.17885362596E+02  0.17947764013E+02  0.10566000000E+00 0.  1.
        -14    1    4    4    0    0 -0.64339381770E+01 -0.14244071295E+02  0.17660113057E+03  0.17729142237E+03  0.00000000000E+00 0.  1.
<mgrwt>
<rscale>  0 0.79002930E+02</rscale>
<asrwt>0</asrwt>
<pdfrwt beam="1">  1        2 0.58435265E-01 0.79002930E+02</pdfrwt>
<pdfrwt beam="2">  1       -1 0.63201105E-03 0.79002930E+02</pdfrwt>
<totfact> 0.28667861E+05</totfact>
</mgrwt>
</event>
<event>
 8    1  0.2561077E-024  0.8088067E+02  0.7818608E-02  0.1326571E+00
          2   -1    0    0  501    0  0.00000000000E+00  0.00000000000E+00  0.45236746204E+03  0.45236746204E+03  0.25500000000E-02 0. -1.
         -1   -1    0    0    0  501 -0.00000000000E+00 -0.00000000000E+00 -0.36152465735E+01  0.36152500866E+01  0.50400000000E-02 0.  1.
         24    2    1    2    0    0 -0.71054273576E-14 -0.35527136788E-14  0.44875221546E+03  0.45598271213E+03  0.80880670613E+02 0.  0.
         66    2    3    3    0    0  0.34030311645E+02  0.21721846599E+02  0.23508273382E+03  0.23853258157E+03  0.20000001683E+01 0.  0.
        -13    1    3    3    0    0 -0.34030311645E+02 -0.21721846599E+02  0.21366948164E+03  0.21745013056E+03  0.10566000000E+00 0.  1.
         13    1    4    4    0    0  0.26683411441E+02  0.16267079423E+02  0.18090683312E+03  0.18358626243E+03  0.10566000000E+00 0. -1.
        -13    1    4    4    0    0  0.56786189377E+01  0.40723023528E+01  0.42586432970E+02  0.43156063266E+02  0.10566000000E+00 0.  1.
         14    1    4    4    0    0  0.16682812666E+01  0.13824648238E+01  0.11589467727E+02  0.11790255874E+02  0.00000000000E+00 0. -1.
<mgrwt>
<rscale>  0 0.80880671E+02</rscale>
<asrwt>0</asrwt>
<pdfrwt beam="1">  1        2 0.69594982E-01 0.80880671E+02</pdfrwt>
<pdfrwt beam="2">  1       -1 0.55619215E-03 0.80880671E+02</pdfrwt>
<totfact> 0.28640050E+05</totfact>
</mgrwt>
</event>
<event>
 8    1  0.2561077E-024  0.7291273E+02  0.7818608E-02  0.1350459E+00
          2   -1    0    0  501    0  0.00000000000E+00  0.00000000000E+00  0.12621626456E+04  0.12621626456E+04  0.25500000000E-02 0. -1.
         -1   -1    0    0    0  501 -0.00000000000E+00 -0.00000000000E+00 -0.10530014316E+01  0.10530134930E+01  0.50400000000E-02 0.  1.
         24    2    1    2    0    0 -0.35527136788E-14  0.00000000000E+00  0.12611096442E+04  0.12632156591E+04  0.72912733934E+02 0.  0.
         66    2    3    3    0    0  0.18515761513E+02 -0.10972347133E+02  0.11402295510E+04  0.11404344150E+04  0.19999992450E+01 0.  0.
        -13    1    3    3    0    0 -0.18515761513E+02  0.10972347133E+02  0.12088009315E+03  0.12278124413E+03  0.10566000000E+00 0.  1.
         13    1    4    4    0    0  0.95275756063E+00 -0.73470076758E+00  0.58262232887E+02  0.58274749911E+02  0.10566000000E+00 0. -1.
        -13    1    4    4    0    0  0.11406220770E+02 -0.56882560789E+01  0.67097032106E+03  0.67109138054E+03  0.10566000000E+00 0.  1.
        -14    1    4    4    0    0  0.61567831822E+01 -0.45493902869E+01  0.41099699710E+03  0.41106828454E+03  0.00000000000E+00 0.  1.
<mgrwt>
<rscale>  0 0.72912734E+02</rscale>
<asrwt>0</asrwt>
<pdfrwt beam="1">  1        2 0.19417930E+00 0.72912734E+02</pdfrwt>
<pdfrwt beam="2">  1       -1 0.16200079E-03 0.72912734E+02</pdfrwt>
<totfact> 0.44227968E+05</totfact>
</mgrwt>
</event>
<event>
 8    1  0.2561077E-024  0.8353120E+02  0.7818608E-02  0.1319319E+00
         -1   -1    0    0    0  501 -0.00000000000E+00  0.00000000000E+00  0.12162895683E+02  0.12162896727E+02  0.50400000000E-02 0.  1.
          2   -1    0    0  501    0  0.00000000000E+00 -0.00000000000E+00 -0.14341692447E+03  0.14341692449E+03  0.25500000000E-02 0. -1.
         24    2    1    2    0    0 -0.71054273576E-14  0.27755575616E-16 -0.13125402879E+03  0.15557982122E+03  0.83531195956E+02 0.  0.
         66    2    3    3    0    0 -0.41732672778E+02 -0.21322320479E+00 -0.64107647045E+02  0.76520924272E+02  0.20000001236E+01 0.  0.
        -13    1    3    3    0    0  0.41732672778E+02  0.21322320479E+00 -0.67146381744E+02  0.79058896949E+02  0.10566000000E+00 0.  1.
         13    1    4    4    0    0 -0.19830233800E+02  0.14092858219E+00 -0.29466588567E+02  0.35518291615E+02  0.10566000000E+00 0. -1.
        -13    1    4    4    0    0 -0.60564268780E+01 -0.45226045252E+00 -0.89085473238E+01  0.10782310768E+02  0.10566000000E+00 0.  1.
         14    1    4    4    0    0 -0.15846012101E+02  0.98108665550E-01 -0.25732511154E+02  0.30220321889E+02  0.00000000000E+00 0. -1.
<mgrwt>
<rscale>  0 0.83531196E+02</rscale>
<asrwt>0</asrwt>
<pdfrwt beam="1">  1        2 0.22064141E-01 0.83531196E+02</pdfrwt>
<pdfrwt beam="2">  1       -1 0.18712149E-02 0.83531196E+02</pdfrwt>
<totfact> 0.17599588E+05</totfact>
</mgrwt>
</event>
<event>
 8    1  0.2561077E-024  0.8107403E+02  0.7818608E-02  0.1326031E+00
          2   -1    0    0  501    0  0.00000000000E+00  0.00000000000E+00  0.25606166035E+02  0.25606166162E+02  0.25500000000E-02 0. -1.
         -1   -1    0    0    0  501 -0.00000000000E+00 -0.00000000000E+00 -0.64173978740E+02  0.64173978938E+02  0.50400000000E-02 0.  1.
         24    2    1    2    0    0  0.00000000000E+00  0.00000000000E+00 -0.38567812704E+02  0.89780145100E+02  0.81074029611E+02 0.  0.
         66    2    3    3    0    0  0.35591179053E+02  0.48163594685E+01  0.14605514882E+01  0.36000869827E+02  0.20000181741E+01 0.  0.
        -13    1    3    3    0    0 -0.35591179053E+02 -0.48163594685E+01 -0.40028364193E+02  0.53779275273E+02  0.10566000000E+00 0.  1.
         13    1    4    4    0    0  0.24099375599E+02  0.32182567967E+01  0.17697298953E+01  0.24377862684E+02  0.10566000000E+00 0. -1.
        -13    1    4    4    0    0  0.50172856819E+01  0.69730115212E+00 -0.43177577163E+00  0.50849757977E+01  0.10566000000E+00 0.  1.
         14    1    4    4    0    0  0.64745177721E+01  0.90080151971E+00  0.12259736444E+00  0.65380313454E+01  0.00000000000E+00 0. -1.
<mgrwt>
<rscale>  0 0.81074030E+02</rscale>
<asrwt>0</asrwt>
<pdfrwt beam="1">  1        2 0.39394102E-02 0.81074030E+02</pdfrwt>
<pdfrwt beam="2">  1       -1 0.98729198E-02 0.81074030E+02</pdfrwt>
<totfact> 0.12558629E+05</totfact>
</mgrwt>
</event>
<event>
 8    1  0.2561077E-024  0.8921713E+02  0.7818608E-02  0.1304759E+00
         -1   -1    0    0    0  501 -0.00000000000E+00  0.00000000000E+00  0.19547798860E+01  0.19547863833E+01  0.50400000000E-02 0.  1.
          2   -1    0    0  501    0  0.00000000000E+00 -0.00000000000E+00 -0.10179768505E+04  0.10179768505E+04  0.25500000000E-02 0. -1.
         24    2    1    2    0    0  0.00000000000E+00  0.00000000000E+00 -0.10160220706E+04  0.10199316369E+04  0.89217128104E+02 0.  0.
         66    2    3    3    0    0  0.19347746078E+02  0.30653914373E+02 -0.80504065351E+03  0.80585882854E+03  0.19999980429E+01 0.  0.
        -13    1    3    3    0    0 -0.19347746078E+02 -0.30653914373E+02 -0.21098141708E+03  0.21407280832E+03  0.10566000000E+00 0.  1.
         13    1    4    4    0    0  0.10100863137E+02  0.16532198440E+02 -0.41305974946E+03  0.41351385564E+03  0.10566000000E+00 0. -1.
        -13    1    4    4    0    0  0.81495275767E+00  0.16273677531E+01 -0.40578756422E+02  0.40619688706E+02  0.10566000000E+00 0.  1.
        -14    1    4    4    0    0  0.84319301838E+01  0.12494348180E+02 -0.35140214763E+03  0.35172528420E+03  0.00000000000E+00 0.  1.
<mgrwt>
<rscale>  0 0.89217128E+02</rscale>
<asrwt>0</asrwt>
<pdfrwt beam="1">  1        2 0.15661140E+00 0.89217128E+02</pdfrwt>
<pdfrwt beam="2">  1       -1 0.30073668E-03 0.89217128E+02</pdfrwt>
<totfact> 0.26520088E+05</totfact>
</mgrwt>
</event>
<event>
 8    1  0.2561077E-024  0.8004348E+02  0.7818608E-02  0.1328928E+00
          2   -1    0    0  501    0  0.00000000000E+00  0.00000000000E+00  0.12734344951E+03  0.12734344954E+03  0.25500000000E-02 0. -1.
         -1   -1    0    0    0  501 -0.00000000000E+00 -0.00000000000E+00 -0.12578107188E+02  0.12578108198E+02  0.50400000000E-02 0.  1.
         24    2    1    2    0    0  0.00000000000E+00  0.00000000000E+00  0.11476534232E+03  0.13992155773E+03  0.80043478936E+02 0.  0.
         66    2    3    3    0    0 -0.10874409088E+02  0.48131510019E+01  0.12417349122E+03  0.12475766558E+03  0.20000004949E+01 0.  0.
        -13    1    3    3    0    0  0.10874409088E+02 -0.48131510019E+01 -0.94081489003E+01  0.15163892157E+02  0.10566000000E+00 0.  1.
         13    1    4    4    0    0 -0.51420694353E+01  0.23202698105E+01  0.56774803704E+02  0.57054482994E+02  0.10566000000E+00 0. -1.
        -13    1    4    4    0    0 -0.35202636978E+01  0.86753140717E+00  0.34484343843E+02  0.34674572839E+02  0.10566000000E+00 0.  1.
        -14    1    4    4    0    0 -0.22120759554E+01  0.16253497843E+01  0.32914343676E+02  0.33028609743E+02  0.00000000000E+00 0.  1.
<mgrwt>
<rscale>  0 0.80043479E+02</rscale>
<asrwt>0</asrwt>
<pdfrwt beam="1">  1        2 0.19591300E-01 0.80043479E+02</pdfrwt>
<pdfrwt beam="2">  1       -1 0.19350935E-02 0.80043479E+02</pdfrwt>
<totfact> 0.18998050E+05</totfact>
</mgrwt>
</event>
<event>
 8    1  0.2561077E-024  0.7909637E+02  0.7818608E-02  0.1331636E+00
          2   -1    0    0  501    0  0.00000000000E+00  0.00000000000E+00  0.44197378564E+03  0.44197378565E+03  0.25500000000E-02 0. -1.
         -1   -1    0    0    0  501 -0.00000000000E+00 -0.00000000000E+00 -0.35388027234E+01  0.35388063124E+01  0.50400000000E-02 0.  1.
         24    2    1    2    0    0  0.35527136788E-14  0.00000000000E+00  0.43843498292E+03  0.44551259196E+03  0.79096367487E+02 0.  0.
         66    2    3    3    0    0  0.27037684253E+02 -0.22451778999E+02  0.32120097804E+03  0.32312410470E+03  0.19999987758E+01 0.  0.
        -13    1    3    3    0    0 -0.27037684253E+02  0.22451778999E+02  0.11723400488E+03  0.12238848726E+03  0.10566000000E+00 0.  1.
         13    1    4    4    0    0  0.16055759065E+02 -0.12651647727E+02  0.18179059434E+03  0.18293628110E+03  0.10566000000E+00 0. -1.
        -13    1    4    4    0    0  0.59667132890E+01 -0.53198140582E+01  0.79674696203E+02  0.80074780475E+02  0.10566000000E+00 0.  1.
         14    1    4    4    0    0  0.50152118995E+01 -0.44803172131E+01  0.59735687498E+02  0.60113043124E+02  0.00000000000E+00 0. -1.
<mgrwt>
<rscale>  0 0.79096367E+02</rscale>
<asrwt>0</asrwt>
<pdfrwt beam="1">  1        2 0.67995946E-01 0.79096367E+02</pdfrwt>
<pdfrwt beam="2">  1       -1 0.54443163E-03 0.79096367E+02</pdfrwt>
<totfact> 0.30119899E+05</totfact>
</mgrwt>
</event>
<event>
 8    1  0.2561077E-024  0.8080862E+02  0.7818608E-02  0.1326772E+00
         -1   -1    0    0    0  501 -0.00000000000E+00  0.00000000000E+00  0.34282316330E+01  0.34282353377E+01  0.50400000000E-02 0.  1.
          2   -1    0    0  501    0  0.00000000000E+00 -0.00000000000E+00 -0.47619512159E+03  0.47619512160E+03  0.25500000000E-02 0. -1.
         24    2    1    2    0    0  0.00000000000E+00  0.71054273576E-14 -0.47276688996E+03  0.47962335693E+03  0.80808615119E+02 0.  0.
         66    2    3    3    0    0  0.33202067911E+02 -0.22363289376E+02 -0.26793957703E+03  0.27092085740E+03  0.20000030844E+01 0.  0.
        -13    1    3    3    0    0 -0.33202067911E+02  0.22363289376E+02 -0.20482731293E+03  0.20870249953E+03  0.10566000000E+00 0.  1.
         13    1    4    4    0    0  0.21620235216E+02 -0.15274871382E+02 -0.17689570988E+03  0.17886547908E+03  0.10566000000E+00 0. -1.
        -13    1    4    4    0    0  0.72566546305E+01 -0.47218600358E+01 -0.55545315388E+02  0.56216085102E+02  0.10566000000E+00 0.  1.
        -14    1    4    4    0    0  0.43251780643E+01 -0.23665579582E+01 -0.35498551757E+02  0.35839293223E+02  0.00000000000E+00 0.  1.
<mgrwt>
<rscale>  0 0.80808615E+02</rscale>
<asrwt>0</asrwt>
<pdfrwt beam="1">  1        2 0.73260736E-01 0.80808615E+02</pdfrwt>
<pdfrwt beam="2">  1       -1 0.52742091E-03 0.80808615E+02</pdfrwt>
<totfact> 0.29199197E+05</totfact>
</mgrwt>
</event>
<event>
 8    1  0.2561077E-024  0.8004712E+02  0.7818608E-02  0.1328918E+00
          2   -1    0    0  501    0  0.00000000000E+00  0.00000000000E+00  0.10363206230E+03  0.10363206233E+03  0.25500000000E-02 0. -1.
         -1   -1    0    0    0  501 -0.00000000000E+00 -0.00000000000E+00 -0.15457429901E+02  0.15457430723E+02  0.50400000000E-02 0.  1.
         24    2    1    2    0    0 -0.35527136788E-14  0.71054273576E-14  0.88174632401E+02  0.11908949306E+03  0.80047120857E+02 0.  0.
         66    2    3    3    0    0  0.23434414125E+02 -0.22642046267E+02  0.78624176472E+02  0.85132808928E+02  0.20000013882E+01 0.  0.
        -13    1    3    3    0    0 -0.23434414125E+02  0.22642046267E+02  0.95504559288E+01  0.33956684129E+02  0.10566000000E+00 0.  1.
         13    1    4    4    0    0  0.12882796184E+02 -0.13356063758E+02  0.44403626158E+02  0.48125295393E+02  0.10566000000E+00 0. -1.
        -13    1    4    4    0    0  0.22222978234E+01 -0.14966643851E+01  0.61746688915E+01  0.67317391402E+01  0.10566000000E+00 0.  1.
        -14    1    4    4    0    0  0.83293201171E+01 -0.77893181242E+01  0.28045881422E+02  0.30275774395E+02  0.00000000000E+00 0.  1.
<mgrwt>
<rscale>  0 0.80047121E+02</rscale>
<asrwt>0</asrwt>
<pdfrwt beam="1">  1        2 0.15943395E-01 0.80047121E+02</pdfrwt>
<pdfrwt beam="2">  1       -1 0.23780661E-02 0.80047121E+02</pdfrwt>
<totfact> 0.17876742E+05</totfact>
</mgrwt>
</event>
<event>
 8    1  0.2561077E-024  0.7967263E+02  0.7818608E-02  0.1329983E+00
          2   -1    0    0  501    0  0.00000000000E+00  0.00000000000E+00  0.95510653516E+02  0.95510653550E+02  0.25500000000E-02 0. -1.
         -1   -1    0    0    0  501 -0.00000000000E+00 -0.00000000000E+00 -0.16615235299E+02  0.16615236063E+02  0.50400000000E-02 0.  1.
         24    2    1    2    0    0  0.00000000000E+00  0.17763568394E-14  0.78895418218E+02  0.11212588961E+03  0.79672630846E+02 0.  0.
         66    2    3    3    0    0  0.35324971928E+02 -0.10747135793E+02  0.60421081558E+02  0.70838278293E+02  0.20000013451E+01 0.  0.
        -13    1    3    3    0    0 -0.35324971928E+02  0.10747135793E+02  0.18474336659E+02  0.41287611320E+02  0.10566000000E+00 0.  1.
         13    1    4    4    0    0  0.12276628321E+02 -0.36571171254E+01  0.22363057119E+02  0.25772225288E+02  0.10566000000E+00 0. -1.
        -13    1    4    4    0    0  0.26533566266E+01 -0.74319560296E+00  0.49369610535E+01  0.56548553979E+01  0.10566000000E+00 0.  1.
        -14    1    4    4    0    0  0.20394986981E+02 -0.63468230646E+01  0.33121063386E+02  0.39411197607E+02  0.00000000000E+00 0.  1.
<mgrwt>
<rscale>  0 0.79672631E+02</rscale>
<asrwt>0</asrwt>
<pdfrwt beam="1">  1        2 0.14693946E-01 0.79672631E+02</pdfrwt>
<pdfrwt beam="2">  1       -1 0.25561902E-02 0.79672631E+02</pdfrwt>
<totfact> 0.17694845E+05</totfact>
</mgrwt>
</event>
<event>
 8    1  0.2561077E-024  0.8048139E+02  0.7818608E-02  0.1327691E+00
         -1   -1    0    0    0  501 -0.00000000000E+00  0.00000000000E+00  0.59272385539E+01  0.59272406967E+01  0.50400000000E-02 0.  1.
          2   -1    0    0  501    0  0.00000000000E+00 -0.00000000000E+00 -0.27319859885E+03  0.27319859886E+03  0.25500000000E-02 0. -1.
         24    2    1    2    0    0  0.00000000000E+00 -0.17763568394E-14 -0.26727136029E+03  0.27912583956E+03  0.80481390860E+02 0.  0.
         66    2    3    3    0    0 -0.19086088164E+01  0.15864838926E+02 -0.26171172798E+03  0.26220672087E+03  0.20000005928E+01 0.  0.
        -13    1    3    3    0    0  0.19086088164E+01 -0.15864838926E+02 -0.55596323120E+01  0.16919118690E+02  0.10566000000E+00 0.  1.
         13    1    4    4    0    0 -0.36908922929E+00  0.10820554380E+02 -0.17669197322E+03  0.17702340294E+03  0.10566000000E+00 0. -1.
        -13    1    4    4    0    0 -0.72860564593E+00  0.23674348348E+01 -0.39859468573E+02  0.39936499757E+02  0.10566000000E+00 0.  1.
         14    1    4    4    0    0 -0.81091394120E+00  0.26768497112E+01 -0.45160286188E+02  0.45246818168E+02  0.00000000000E+00 0. -1.
<mgrwt>
<rscale>  0 0.80481391E+02</rscale>
<asrwt>0</asrwt>
<pdfrwt beam="1">  1        2 0.42030544E-01 0.80481391E+02</pdfrwt>
<pdfrwt beam="2">  1       -1 0.91188324E-03 0.80481391E+02</pdfrwt>
<totfact> 0.24259475E+05</totfact>
</mgrwt>
</event>
<event>
 8    1  0.2561077E-024  0.7941569E+02  0.7818608E-02  0.1330718E+00
          2   -1    0    0  501    0  0.00000000000E+00  0.00000000000E+00  0.45934880940E+03  0.45934880941E+03  0.25500000000E-02 0. -1.
         -1   -1    0    0    0  501 -0.00000000000E+00 -0.00000000000E+00 -0.34324938593E+01  0.34324975595E+01  0.50400000000E-02 0.  1.
         24    2    1    2    0    0  0.00000000000E+00  0.35527136788E-14  0.45591631554E+03  0.46278130697E+03  0.79415686747E+02 0.  0.
         66    2    3    3    0    0 -0.22742866770E+02 -0.17129825189E+02  0.38917700942E+03  0.39022226173E+03  0.19999975146E+01 0.  0.
        -13    1    3    3    0    0  0.22742866770E+02  0.17129825189E+02  0.66739306124E+02  0.72559045238E+02  0.10566000000E+00 0.  1.
         13    1    4    4    0    0 -0.25140799112E+00 -0.33831369870E+00  0.50529123258E+01  0.50715627911E+01  0.10566000000E+00 0. -1.
        -13    1    4    4    0    0 -0.18371048074E+01 -0.10774592468E+01  0.32960328923E+02  0.33029234312E+02  0.10566000000E+00 0.  1.
         14    1    4    4    0    0 -0.20654353971E+02 -0.15714052243E+02  0.35116376817E+03  0.35212146463E+03  0.00000000000E+00 0. -1.
<mgrwt>
<rscale>  0 0.79415687E+02</rscale>
<asrwt>0</asrwt>
<pdfrwt beam="1">  1        2 0.70668976E-01 0.79415687E+02</pdfrwt>
<pdfrwt beam="2">  1       -1 0.52807680E-03 0.79415687E+02</pdfrwt>
<totfact> 0.30192959E+05</totfact>
</mgrwt>
</event>
<event>
 8    1  0.2561077E-024  0.8206193E+02  0.7818608E-02  0.1323300E+00
         -1   -1    0    0    0  501 -0.00000000000E+00  0.00000000000E+00  0.58787947196E+02  0.58787947412E+02  0.50400000000E-02 0.  1.
          2   -1    0    0  501    0  0.00000000000E+00 -0.00000000000E+00 -0.28637505590E+02  0.28637505703E+02  0.25500000000E-02 0. -1.
         24    2    1    2    0    0  0.00000000000E+00  0.00000000000E+00  0.30150441606E+02  0.87425453115E+02  0.82061932242E+02 0.  0.
         66    2    3    3    0    0 -0.98766382132E+01  0.33991949829E+02 -0.69699364593E+01  0.36132819459E+02  0.19999980610E+01 0.  0.
        -13    1    3    3    0    0  0.98766382132E+01 -0.33991949829E+02  0.37120378065E+02  0.51292633656E+02  0.10566000000E+00 0.  1.
         13    1    4    4    0    0 -0.63498904423E+01  0.21369172487E+02 -0.36242070048E+01  0.22585585709E+02  0.10566000000E+00 0. -1.
        -13    1    4    4    0    0 -0.42607530751E+00  0.12864507823E+01 -0.14843757729E+00  0.13673673730E+01  0.10566000000E+00 0.  1.
         14    1    4    4    0    0 -0.31006724634E+01  0.11336326561E+02 -0.31972918772E+01  0.12179866377E+02  0.00000000000E+00 0. -1.
<mgrwt>
<rscale>  0 0.82061932E+02</rscale>
<asrwt>0</asrwt>
<pdfrwt beam="1">  1        2 0.44057701E-02 0.82061932E+02</pdfrwt>
<pdfrwt beam="2">  1       -1 0.90442996E-02 0.82061932E+02</pdfrwt>
<totfact> 0.12410471E+05</totfact>
</mgrwt>
</event>
<event>
 8    1  0.2561077E-024  0.8031526E+02  0.7818608E-02  0.1328159E+00
          2   -1    0    0  501    0  0.00000000000E+00  0.00000000000E+00  0.39001035079E+02  0.39001035162E+02  0.25500000000E-02 0. -1.
         -1   -1    0    0    0  501 -0.00000000000E+00 -0.00000000000E+00 -0.41348527760E+02  0.41348528068E+02  0.50400000000E-02 0.  1.
         24    2    1    2    0    0  0.00000000000E+00  0.00000000000E+00 -0.23474926819E+01  0.80349563230E+02  0.80315263738E+02 0.  0.
         66    2    3    3    0    0  0.20684995462E+02 -0.24594191159E+02  0.22875077769E+02  0.39496992929E+02  0.19999978769E+01 0.  0.
        -13    1    3    3    0    0 -0.20684995462E+02  0.24594191159E+02 -0.25222570450E+02  0.40852570301E+02  0.10566000000E+00 0.  1.
         13    1    4    4    0    0  0.94792618572E+01 -0.10162849877E+02  0.10534404497E+02  0.17439173292E+02  0.10566000000E+00 0. -1.
        -13    1    4    4    0    0  0.29654234346E+01 -0.37606593650E+01  0.35630671799E+01  0.59701680688E+01  0.10566000000E+00 0.  1.
         14    1    4    4    0    0  0.82403101701E+01 -0.10670681917E+02  0.87776060922E+01  0.16087651568E+02  0.00000000000E+00 0. -1.
<mgrwt>
<rscale>  0 0.80315264E+02</rscale>
<asrwt>0</asrwt>
<pdfrwt beam="1">  1        2 0.60001593E-02 0.80315264E+02</pdfrwt>
<pdfrwt beam="2">  1       -1 0.63613120E-02 0.80315264E+02</pdfrwt>
<totfact> 0.14027919E+05</totfact>
</mgrwt>
</event>
<event>
 8    1  0.2561077E-024  0.8344281E+02  0.7818608E-02  0.1319556E+00
         -1   -1    0    0    0  501 -0.00000000000E+00  0.00000000000E+00  0.27177760874E+01  0.27177807607E+01  0.50400000000E-02 0.  1.
          2   -1    0    0  501    0  0.00000000000E+00 -0.00000000000E+00 -0.64047740895E+03  0.64047740895E+03  0.25500000000E-02 0. -1.
         24    2    1    2    0    0  0.00000000000E+00  0.00000000000E+00 -0.63775963286E+03  0.64319518971E+03  0.83442811341E+02 0.  0.
         66    2    3    3    0    0 -0.23824679800E+02  0.20798174947E+02 -0.52853476460E+03  0.52948387779E+03  0.20000002486E+01 0.  0.
        -13    1    3    3    0    0  0.23824679800E+02 -0.20798174947E+02 -0.10922486826E+03  0.11371131192E+03  0.10566000000E+00 0.  1.
         13    1    4    4    0    0 -0.36697798200E+01  0.34459660098E+01 -0.84929244443E+02  0.85078373817E+02  0.10566000000E+00 0. -1.
        -13    1    4    4    0    0 -0.14633909443E+02  0.12051950239E+02 -0.30448114538E+03  0.30507077845E+03  0.10566000000E+00 0.  1.
        -14    1    4    4    0    0 -0.55209905370E+01  0.53002586976E+01 -0.13912437477E+03  0.13933472552E+03  0.00000000000E+00 0.  1.
<mgrwt>
<rscale>  0 0.83442811E+02</rscale>
<asrwt>0</asrwt>
<pdfrwt beam="1">  1        2 0.98534866E-01 0.83442811E+02</pdfrwt>
<pdfrwt beam="2">  1       -1 0.41812027E-03 0.83442811E+02</pdfrwt>
<totfact> 0.29328711E+05</totfact>
</mgrwt>
</event>
<event>
 8    1  0.2561077E-024  0.7937228E+02  0.7818608E-02  0.1330842E+00
         -1   -1    0    0    0  501 -0.00000000000E+00  0.00000000000E+00  0.44699560536E+01  0.44699588949E+01  0.50400000000E-02 0.  1.
          2   -1    0    0  501    0  0.00000000000E+00 -0.00000000000E+00 -0.35235005457E+03  0.35235005458E+03  0.25500000000E-02 0. -1.
         24    2    1    2    0    0  0.00000000000E+00  0.35527136788E-14 -0.34788009851E+03  0.35682001347E+03  0.79372281508E+02 0.  0.
         66    2    3    3    0    0  0.33759271739E+02 -0.17265533130E+02 -0.22632169421E+03  0.22948484990E+03  0.19999994431E+01 0.  0.
        -13    1    3    3    0    0 -0.33759271739E+02  0.17265533130E+02 -0.12155840430E+03  0.12733516357E+03  0.10566000000E+00 0.  1.
         13    1    4    4    0    0  0.25988877198E+02 -0.12934102958E+02 -0.17080983829E+03  0.17325912611E+03  0.10566000000E+00 0. -1.
        -13    1    4    4    0    0  0.76865088120E+01 -0.42392266505E+01 -0.54017870442E+02  0.54726547045E+02  0.10566000000E+00 0.  1.
         14    1    4    4    0    0  0.83885728428E-01 -0.92203521215E-01 -0.14939854772E+01  0.14991767443E+01  0.00000000000E+00 0. -1.
<mgrwt>
<rscale>  0 0.79372282E+02</rscale>
<asrwt>0</asrwt>
<pdfrwt beam="1">  1        2 0.54207679E-01 0.79372282E+02</pdfrwt>
<pdfrwt beam="2">  1       -1 0.68768604E-03 0.79372282E+02</pdfrwt>
<totfact> 0.27576325E+05</totfact>
</mgrwt>
</event>
<event>
 8    1  0.2561077E-024  0.8309713E+02  0.7818608E-02  0.1320485E+00
         -1   -1    0    0    0  501 -0.00000000000E+00  0.00000000000E+00  0.18407436469E+01  0.18407505467E+01  0.50400000000E-02 0.  1.
          2   -1    0    0  501    0  0.00000000000E+00 -0.00000000000E+00 -0.93781653176E+03  0.93781653176E+03  0.25500000000E-02 0. -1.
         24    2    1    2    0    0  0.00000000000E+00  0.00000000000E+00 -0.93597578811E+03  0.93965728231E+03  0.83097125490E+02 0.  0.
         66    2    3    3    0    0 -0.19180742585E+02 -0.24006630112E+02 -0.78408372185E+03  0.78468815593E+03  0.20000000805E+01 0.  0.
        -13    1    3    3    0    0  0.19180742585E+02  0.24006630112E+02 -0.15189206626E+03  0.15496912638E+03  0.10566000000E+00 0.  1.
         13    1    4    4    0    0 -0.14673971674E+02 -0.17700456162E+02 -0.58770207578E+03  0.58815165785E+03  0.10566000000E+00 0. -1.
        -13    1    4    4    0    0 -0.13142707593E+01 -0.16475821756E+01 -0.63038790486E+02  0.63074100110E+02  0.10566000000E+00 0.  1.
        -14    1    4    4    0    0 -0.31925001510E+01 -0.46585917746E+01 -0.13334285559E+03  0.13346239796E+03  0.00000000000E+00 0.  1.
<mgrwt>
<rscale>  0 0.83097125E+02</rscale>
<asrwt>0</asrwt>
<pdfrwt beam="1">  1        2 0.14427909E+00 0.83097125E+02</pdfrwt>
<pdfrwt beam="2">  1       -1 0.28319261E-03 0.83097125E+02</pdfrwt>
<totfact> 0.31786023E+05</totfact>
</mgrwt>
</event>
<event>
 8    1  0.2561077E-024  0.7552902E+02  0.7818608E-02  0.1342241E+00
          2   -1    0    0  501    0  0.00000000000E+00  0.00000000000E+00  0.19216470250E+02  0.19216470419E+02  0.25500000000E-02 0. -1.
         -1   -1    0    0    0  501 -0.00000000000E+00 -0.00000000000E+00 -0.74215402258E+02  0.74215402429E+02  0.50400000000E-02 0.  1.
         24    2    1    2    0    0  0.35527136788E-14 -0.71054273576E-14 -0.54998932008E+02  0.93431872849E+02  0.75529016556E+02 0.  0.
         66    2    3    3    0    0 -0.24552362378E+02  0.28584293860E+02 -0.24961642144E+02  0.45243385632E+02  0.20000027777E+01 0.  0.
        -13    1    3    3    0    0  0.24552362378E+02 -0.28584293860E+02 -0.30037289864E+02  0.48188487217E+02  0.10566000000E+00 0.  1.
         13    1    4    4    0    0 -0.15359095503E+02  0.17423504665E+02 -0.14981004633E+02  0.27639138795E+02  0.10566000000E+00 0. -1.
        -13    1    4    4    0    0 -0.63337288522E+01  0.83332754399E+01 -0.68783567189E+01  0.12525276680E+02  0.10566000000E+00 0.  1.
        -14    1    4    4    0    0 -0.28595380230E+01  0.28275137544E+01 -0.31022807922E+01  0.50789701565E+01  0.00000000000E+00 0.  1.
<mgrwt>
<rscale>  0 0.75529017E+02</rscale>
<asrwt>0</asrwt>
<pdfrwt beam="1">  1        2 0.29563801E-02 0.75529017E+02</pdfrwt>
<pdfrwt beam="2">  1       -1 0.11417754E-01 0.75529017E+02</pdfrwt>
<totfact> 0.14519867E+05</totfact>
</mgrwt>
</event>
<event>
 8    1  0.2561077E-024  0.7869266E+02  0.7818608E-02  0.1332803E+00
          2   -1    0    0  501    0  0.00000000000E+00  0.00000000000E+00  0.97378688635E+03  0.97378688635E+03  0.25500000000E-02 0. -1.
         -1   -1    0    0    0  501 -0.00000000000E+00 -0.00000000000E+00 -0.15898034631E+01  0.15898114520E+01  0.50400000000E-02 0.  1.
         24    2    1    2    0    0  0.00000000000E+00  0.00000000000E+00  0.97219708289E+03  0.97537669780E+03  0.78692659429E+02 0.  0.
         66    2    3    3    0    0  0.21241435063E+02 -0.30722107503E+01  0.89477937262E+03  0.89503897274E+03  0.20000014545E+01 0.  0.
        -13    1    3    3    0    0 -0.21241435063E+02  0.30722107503E+01  0.77417710261E+02  0.80337725064E+02  0.10566000000E+00 0.  1.
         13    1    4    4    0    0  0.15749702919E+02 -0.20964499045E+01  0.69278841628E+03  0.69297059760E+03  0.10566000000E+00 0. -1.
        -13    1    4    4    0    0  0.18583649084E+01 -0.20831143198E+00  0.63203048789E+02  0.63230795140E+02  0.10566000000E+00 0.  1.
         14    1    4    4    0    0  0.36333672363E+01 -0.76744941385E+00  0.13878790755E+03  0.13883757999E+03  0.00000000000E+00 0. -1.
<mgrwt>
<rscale>  0 0.78692659E+02</rscale>
<asrwt>0</asrwt>
<pdfrwt beam="1">  1        2 0.14981367E+00 0.78692659E+02</pdfrwt>
<pdfrwt beam="2">  1       -1 0.24458527E-03 0.78692659E+02</pdfrwt>
<totfact> 0.36719775E+05</totfact>
</mgrwt>
</event>
<event>
 8    1  0.2561077E-024  0.8026412E+02  0.7818608E-02  0.1328304E+00
         -1   -1    0    0    0  501 -0.00000000000E+00  0.00000000000E+00  0.11870170154E+02  0.11870171224E+02  0.50400000000E-02 0.  1.
          2   -1    0    0  501    0  0.00000000000E+00 -0.00000000000E+00 -0.13568317347E+03  0.13568317350E+03  0.25500000000E-02 0. -1.
         24    2    1    2    0    0  0.00000000000E+00 -0.35527136788E-14 -0.12381300332E+03  0.14755334472E+03  0.80264124910E+02 0.  0.
         66    2    3    3    0    0 -0.17215868395E+02  0.28359427644E+02 -0.10337639488E+03  0.10858785500E+03  0.19999934111E+01 0.  0.
        -13    1    3    3    0    0  0.17215868395E+02 -0.28359427644E+02 -0.20436608438E+02  0.38965489723E+02  0.10566000000E+00 0.  1.
         13    1    4    4    0    0 -0.12937832397E+00  0.11552164180E+00 -0.56645021957E+00  0.60175899436E+00  0.10566000000E+00 0.  1.
        -13    1    4    4    0    0 -0.44446660801E+00  0.66502130471E+00 -0.20647734859E+01  0.22168124605E+01  0.10566000000E+00 0.  1.
         14    1    4    4    0    0 -0.16642023463E+02  0.27578884698E+02 -0.10074517117E+03  0.10576928354E+03  0.00000000000E+00 0. -1.
<mgrwt>
<rscale>  0 0.80264125E+02</rscale>
<asrwt>0</asrwt>
<pdfrwt beam="1">  1        2 0.20874333E-01 0.80264125E+02</pdfrwt>
<pdfrwt beam="2">  1       -1 0.18261802E-02 0.80264125E+02</pdfrwt>
<totfact> 0.19233052E+05</totfact>
</mgrwt>
</event>
<event>
 8    1  0.2561077E-024  0.8177258E+02  0.7818608E-02  0.1324095E+00
         -1   -1    0    0    0  501 -0.00000000000E+00  0.00000000000E+00  0.49015232209E+02  0.49015232468E+02  0.50400000000E-02 0.  1.
          2   -1    0    0  501    0  0.00000000000E+00 -0.00000000000E+00 -0.34105495136E+02  0.34105495232E+02  0.25500000000E-02 0. -1.
         24    2    1    2    0    0  0.00000000000E+00 -0.17763568394E-14  0.14909737073E+02  0.83120727699E+02  0.81772581675E+02 0.  0.
         66    2    3    3    0    0 -0.39190613401E+02  0.10841137516E+02  0.33618094267E+01  0.40850167752E+02  0.20000003378E+01 0.  0.
        -13    1    3    3    0    0  0.39190613401E+02 -0.10841137516E+02  0.11547927646E+02  0.42270559948E+02  0.10566000000E+00 0.  1.
         13    1    4    4    0    0 -0.26097766410E+02  0.80696880061E+01  0.25994789719E+01  0.27440512588E+02  0.10566000000E+00 0. -1.
        -13    1    4    4    0    0 -0.12137941308E+02  0.25110953194E+01  0.77748203848E+00  0.12419777021E+02  0.10566000000E+00 0.  1.
         14    1    4    4    0    0 -0.95490568280E+00  0.26035419069E+00 -0.15151583691E-01  0.98987814307E+00  0.00000000000E+00 0. -1.
<mgrwt>
<rscale>  0 0.81772582E+02</rscale>
<asrwt>0</asrwt>
<pdfrwt beam="1">  1        2 0.52469993E-02 0.81772582E+02</pdfrwt>
<pdfrwt beam="2">  1       -1 0.75408050E-02 0.81772582E+02</pdfrwt>
<totfact> 0.12983617E+05</totfact>
</mgrwt>
</event>
<event>
 8    1  0.2561077E-024  0.7734522E+02  0.7818608E-02  0.1336759E+00
          2   -1    0    0  501    0  0.00000000000E+00  0.00000000000E+00  0.31843688588E+03  0.31843688590E+03  0.25500000000E-02 0. -1.
         -1   -1    0    0    0  501 -0.00000000000E+00 -0.00000000000E+00 -0.46965984474E+01  0.46966011517E+01  0.50400000000E-02 0.  1.
         24    2    1    2    0    0  0.00000000000E+00  0.00000000000E+00  0.31374028744E+03  0.32313348705E+03  0.77345216333E+02 0.  0.
         66    2    3    3    0    0 -0.16927416076E+02 -0.16952977929E+02  0.28366810059E+03  0.28468497002E+03  0.19999969506E+01 0.  0.
        -13    1    3    3    0    0  0.16927416076E+02  0.16952977929E+02  0.30072186847E+02  0.38448517025E+02  0.10566000000E+00 0.  1.
         13    1    4    4    0    0 -0.16897178105E+01 -0.18451623050E+01  0.23508498180E+02  0.23641497857E+02  0.10566000000E+00 0.  1.
        -13    1    4    4    0    0 -0.25373078915E+01 -0.23503816224E+01  0.40767991237E+02  0.40914575626E+02  0.10566000000E+00 0. -1.
        -14    1    4    4    0    0 -0.12700390374E+02 -0.12757434001E+02  0.21939161117E+03  0.22012889654E+03  0.00000000000E+00 0.  1.
<mgrwt>
<rscale>  0 0.77345216E+02</rscale>
<asrwt>0</asrwt>
<pdfrwt beam="1">  1        2 0.48990292E-01 0.77345216E+02</pdfrwt>
<pdfrwt beam="2">  1       -1 0.72255380E-03 0.77345216E+02</pdfrwt>
<totfact> 0.28453905E+05</totfact>
</mgrwt>
</event>
<event>
 8    1  0.2561077E-024  0.8149744E+02  0.7818608E-02  0.1324855E+00
          2   -1    0    0  501    0  0.00000000000E+00  0.00000000000E+00  0.99000617633E+03  0.99000617633E+03  0.25500000000E-02 0. -1.
         -1   -1    0    0    0  501 -0.00000000000E+00 -0.00000000000E+00 -0.16772161959E+01  0.16772237685E+01  0.50400000000E-02 0.  1.
         24    2    1    2    0    0 -0.35527136788E-14  0.35527136788E-14  0.98832896013E+03  0.99168340010E+03  0.81497439209E+02 0.  0.
         66    2    3    3    0    0  0.26116437223E+02 -0.18448588115E+02  0.80134183781E+03  0.80198201957E+03  0.19999978859E+01 0.  0.
        -13    1    3    3    0    0 -0.26116437223E+02  0.18448588115E+02  0.18698712232E+03  0.18970138053E+03  0.10566000000E+00 0.  1.
         13    1    4    4    0    0  0.61538936471E+01 -0.40175559712E+01  0.18464716303E+03  0.18479339042E+03  0.10566000000E+00 0. -1.
        -13    1    4    4    0    0  0.18994705501E+02 -0.13289965670E+02  0.57516481349E+03  0.57563182318E+03  0.10566000000E+00 0.  1.
        -14    1    4    4    0    0  0.96783807543E+00 -0.11410664741E+01  0.41529861290E+02  0.41556805965E+02  0.00000000000E+00 0.  1.
<mgrwt>
<rscale>  0 0.81497439E+02</rscale>
<asrwt>0</asrwt>
<pdfrwt beam="1">  1        2 0.15230878E+00 0.81497439E+02</pdfrwt>
<pdfrwt beam="2">  1       -1 0.25803361E-03 0.81497439E+02</pdfrwt>
<totfact> 0.33558274E+05</totfact>
</mgrwt>
</event>
<event>
 8    1  0.2561077E-024  0.7895715E+02  0.7818608E-02  0.1332037E+00
         -1   -1    0    0    0  501 -0.00000000000E+00  0.00000000000E+00  0.14673869762E+01  0.14673956316E+01  0.50400000000E-02 0.  1.
          2   -1    0    0  501    0  0.00000000000E+00 -0.00000000000E+00 -0.10621282118E+04  0.10621282118E+04  0.25500000000E-02 0. -1.
         24    2    1    2    0    0 -0.17763568394E-14  0.00000000000E+00 -0.10606608249E+04  0.10635956075E+04  0.78957145583E+02 0.  0.
         66    2    3    3    0    0  0.15613278375E+02 -0.14228788891E+02 -0.97952792018E+03  0.97975771461E+03  0.20000035170E+01 0.  0.
        -13    1    3    3    0    0 -0.15613278375E+02  0.14228788891E+02 -0.81132904675E+02  0.83837892865E+02  0.10566000000E+00 0.  1.
         13    1    4    4    0    0  0.76628956253E+01 -0.67337082448E+01 -0.48091772306E+03  0.48102591439E+03  0.10566000000E+00 0. -1.
        -13    1    4    4    0    0  0.63793446477E+01 -0.66581526593E+01 -0.42582636311E+03  0.42592620220E+03  0.10566000000E+00 0.  1.
        -14    1    4    4    0    0  0.15710381016E+01 -0.83692798680E+00 -0.72783834020E+02  0.72805598025E+02  0.00000000000E+00 0.  1.
<mgrwt>
<rscale>  0 0.78957146E+02</rscale>
<asrwt>0</asrwt>
<pdfrwt beam="1">  1        2 0.16340373E+00 0.78957146E+02</pdfrwt>
<pdfrwt beam="2">  1       -1 0.22575336E-03 0.78957146E+02</pdfrwt>
<totfact> 0.36494628E+05</totfact>
</mgrwt>
</event>
<event>
 8    1  0.2561077E-024  0.7937277E+02  0.7818608E-02  0.1330841E+00
          2   -1    0    0  501    0  0.00000000000E+00  0.00000000000E+00  0.78719470127E+02  0.78719470168E+02  0.25500000000E-02 0. -1.
         -1   -1    0    0    0  501 -0.00000000000E+00 -0.00000000000E+00 -0.20007871435E+02  0.20007872069E+02  0.50400000000E-02 0.  1.
         24    2    1    2    0    0  0.00000000000E+00  0.00000000000E+00  0.58711598692E+02  0.98727342238E+02  0.79372767901E+02 0.  0.
         66    2    3    3    0    0 -0.25517722479E+02 -0.30002446471E+02  0.35169039641E+02  0.52840914991E+02  0.19999982745E+01 0.  0.
        -13    1    3    3    0    0  0.25517722479E+02  0.30002446471E+02  0.23542559051E+02  0.45886427247E+02  0.10566000000E+00 0.  1.
         13    1    4    4    0    0 -0.17623402220E+02 -0.20229313432E+02  0.24483198791E+02  0.36321448413E+02  0.10566000000E+00 0. -1.
        -13    1    4    4    0    0 -0.51307471819E+00 -0.36842009941E+00  0.60994182665E+00  0.88440494322E+00  0.10566000000E+00 0.  1.
         14    1    4    4    0    0 -0.73812455410E+01 -0.94047129390E+01  0.10075899023E+02  0.15635061635E+02  0.00000000000E+00 0. -1.
<mgrwt>
<rscale>  0 0.79372768E+02</rscale>
<asrwt>0</asrwt>
<pdfrwt beam="1">  1        2 0.12110688E-01 0.79372768E+02</pdfrwt>
<pdfrwt beam="2">  1       -1 0.30781342E-02 0.79372768E+02</pdfrwt>
<totfact> 0.16983389E+05</totfact>
</mgrwt>
</event>
<event>
 8    1  0.2561077E-024  0.7983711E+02  0.7818608E-02  0.1329514E+00
          2   -1    0    0  501    0  0.00000000000E+00  0.00000000000E+00  0.32881401554E+02  0.32881401653E+02  0.25500000000E-02 0. -1.
         -1   -1    0    0    0  501 -0.00000000000E+00 -0.00000000000E+00 -0.48461777334E+02  0.48461777596E+02  0.50400000000E-02 0.  1.
         24    2    1    2    0    0  0.35527136788E-14  0.00000000000E+00 -0.15580375780E+02  0.81343179250E+02  0.79837113556E+02 0.  0.
         66    2    3    3    0    0 -0.17606738041E+02  0.23541701555E+02  0.19681747927E+02  0.35434166312E+02  0.20000010574E+01 0.  0.
        -13    1    3    3    0    0  0.17606738041E+02 -0.23541701555E+02 -0.35262123707E+02  0.45909012937E+02  0.10566000000E+00 0.  1.
         13    1    4    4    0    0 -0.10906071450E+02  0.15789334341E+02  0.12180027251E+02  0.22729049722E+02  0.10566000000E+00 0. -1.
        -13    1    4    4    0    0 -0.27231349682E+01  0.29194161146E+01  0.28340251417E+01  0.48970722932E+01  0.10566000000E+00 0.  1.
         14    1    4    4    0    0 -0.39775316231E+01  0.48329510991E+01  0.46676955341E+01  0.78080442966E+01  0.00000000000E+00 0. -1.
<mgrwt>
<rscale>  0 0.79837114E+02</rscale>
<asrwt>0</asrwt>
<pdfrwt beam="1">  1        2 0.50586772E-02 0.79837114E+02</pdfrwt>
<pdfrwt beam="2">  1       -1 0.74556581E-02 0.79837114E+02</pdfrwt>
<totfact> 0.13780080E+05</totfact>
</mgrwt>
</event>
<event>
 8    1  0.2561077E-024  0.7986544E+02  0.7818608E-02  0.1329434E+00
         -1   -1    0    0    0  501 -0.00000000000E+00  0.00000000000E+00  0.80818649548E+02  0.80818649705E+02  0.50400000000E-02 0.  1.
          2   -1    0    0  501    0  0.00000000000E+00 -0.00000000000E+00 -0.19730866887E+02  0.19730867052E+02  0.25500000000E-02 0. -1.
         24    2    1    2    0    0  0.00000000000E+00  0.88817841970E-15  0.61087782660E+02  0.10054951676E+03  0.79865437642E+02 0.  0.
         66    2    3    3    0    0  0.19003769041E+02  0.58132978915E+01 -0.13007393133E+02  0.23835476907E+02  0.20000032868E+01 0.  0.
        -13    1    3    3    0    0 -0.19003769041E+02 -0.58132978915E+01  0.74095175793E+02  0.76714039849E+02  0.10566000000E+00 0.  1.
         13    1    4    4    0    0  0.91216455172E+01  0.18672094760E+01 -0.55788158426E+01  0.10854733456E+02  0.10566000000E+00 0. -1.
        -13    1    4    4    0    0  0.73869069179E+01  0.28832153025E+01 -0.56568393330E+01  0.97411662325E+01  0.10566000000E+00 0.  1.
         14    1    4    4    0    0  0.24952166061E+01  0.10628731130E+01 -0.17717379573E+01  0.32395772186E+01  0.00000000000E+00 0. -1.
<mgrwt>
<rscale>  0 0.79865438E+02</rscale>
<asrwt>0</asrwt>
<pdfrwt beam="1">  1        2 0.30355180E-02 0.79865438E+02</pdfrwt>
<pdfrwt beam="2">  1       -1 0.12433638E-01 0.79865438E+02</pdfrwt>
<totfact> 0.12441758E+05</totfact>
</mgrwt>
</event>
<event>
 8    1  0.2561077E-024  0.7980416E+02  0.7818608E-02  0.1329608E+00
          2   -1    0    0  501    0  0.00000000000E+00  0.00000000000E+00  0.29055283267E+03  0.29055283269E+03  0.25500000000E-02 0. -1.
         -1   -1    0    0    0  501 -0.00000000000E+00 -0.00000000000E+00 -0.54798140856E+01  0.54798164034E+01  0.50400000000E-02 0.  1.
         24    2    1    2    0    0  0.35527136788E-14  0.00000000000E+00  0.28507301859E+03  0.29603264909E+03  0.79804156529E+02 0.  0.
         66    2    3    3    0    0 -0.30272776557E+02  0.24487939279E+02  0.11070030578E+03  0.11736548840E+03  0.19999995339E+01 0.  0.
        -13    1    3    3    0    0  0.30272776557E+02 -0.24487939279E+02  0.17437271281E+03  0.17866716068E+03  0.10566000000E+00 0.  1.
         13    1    4    4    0    0 -0.88575435821E+01  0.69087437438E+01  0.31030053721E+02  0.33000942660E+02  0.10566000000E+00 0. -1.
        -13    1    4    4    0    0 -0.91552047085E-01  0.15559394344E+00  0.49721236746E+00  0.53942138122E+00  0.10566000000E+00 0.  1.
        -14    1    4    4    0    0 -0.21323680928E+02  0.17423601591E+02  0.79173039690E+02  0.83825124363E+02  0.00000000000E+00 0.  1.
<mgrwt>
<rscale>  0 0.79804157E+02</rscale>
<asrwt>0</asrwt>
<pdfrwt beam="1">  1        2 0.44700456E-01 0.79804157E+02</pdfrwt>
<pdfrwt beam="2">  1       -1 0.84304813E-03 0.79804157E+02</pdfrwt>
<totfact> 0.25363251E+05</totfact>
</mgrwt>
</event>
<event>
 8    1  0.2561077E-024  0.8115127E+02  0.7818608E-02  0.1325816E+00
          2   -1    0    0  501    0  0.00000000000E+00  0.00000000000E+00  0.50584056766E+03  0.50584056767E+03  0.25500000000E-02 0. -1.
         -1   -1    0    0    0  501 -0.00000000000E+00 -0.00000000000E+00 -0.32547435909E+01  0.32547474931E+01  0.50400000000E-02 0.  1.
         24    2    1    2    0    0 -0.17763568394E-14  0.00000000000E+00  0.50258582407E+03  0.50909531516E+03  0.81151274557E+02 0.  0.
         66    2    3    3    0    0 -0.10192441296E+02  0.25343329320E+00  0.49766570233E+03  0.49777414693E+03  0.19999992418E+01 0.  0.
        -13    1    3    3    0    0  0.10192441296E+02 -0.25343329320E+00  0.49201217465E+01  0.11321168228E+02  0.10566000000E+00 0.  1.
         13    1    4    4    0    0 -0.43511850819E+01  0.38980859834E+00  0.22048020064E+03  0.22052350170E+03  0.10566000000E+00 0. -1.
        -13    1    4    4    0    0 -0.53829454570E+01 -0.12932702177E+00  0.23055941137E+03  0.23062230196E+03  0.10566000000E+00 0.  1.
         14    1    4    4    0    0 -0.45831075753E+00 -0.70482833695E-02  0.46626090321E+02  0.46628343280E+02  0.00000000000E+00 0. -1.
<mgrwt>
<rscale>  0 0.81151275E+02</rscale>
<asrwt>0</asrwt>
<pdfrwt beam="1">  1        2 0.77821645E-01 0.81151275E+02</pdfrwt>
<pdfrwt beam="2">  1       -1 0.50072996E-03 0.81151275E+02</pdfrwt>
<totfact> 0.29445981E+05</totfact>
</mgrwt>
</event>
<event>
 8    1  0.2561077E-024  0.7994053E+02  0.7818608E-02  0.1329220E+00
          2   -1    0    0  501    0  0.00000000000E+00  0.00000000000E+00  0.17948963359E+03  0.17948963360E+03  0.25500000000E-02 0. -1.
         -1   -1    0    0    0  501 -0.00000000000E+00 -0.00000000000E+00 -0.89009147268E+01  0.89009161537E+01  0.50400000000E-02 0.  1.
         24    2    1    2    0    0  0.00000000000E+00 -0.35527136788E-14  0.17058871886E+03  0.18839054976E+03  0.79940529370E+02 0.  0.
         66    2    3    3    0    0 -0.18563679779E+02 -0.28677358118E+02  0.13413709072E+03  0.13843323364E+03  0.19999984883E+01 0.  0.
        -13    1    3    3    0    0  0.18563679779E+02  0.28677358118E+02  0.36451628141E+02  0.49957316118E+02  0.10566000000E+00 0.  1.
         13    1    4    4    0    0 -0.12680409932E+01 -0.23723921310E+01  0.10030014081E+02  0.10385014149E+02  0.10566000000E+00 0. -1.
        -13    1    4    4    0    0 -0.34458210785E+01 -0.59793092702E+01  0.29429967643E+02  0.30228463106E+02  0.10566000000E+00 0.  1.
        -14    1    4    4    0    0 -0.13849817707E+02 -0.20325656717E+02  0.94677108994E+02  0.97819756384E+02  0.00000000000E+00 0.  1.
<mgrwt>
<rscale>  0 0.79940529E+02</rscale>
<asrwt>0</asrwt>
<pdfrwt beam="1">  1        2 0.27613789E-01 0.79940529E+02</pdfrwt>
<pdfrwt beam="2">  1       -1 0.13693716E-02 0.79940529E+02</pdfrwt>
<totfact> 0.21295767E+05</totfact>
</mgrwt>
</event>
<event>
 8    1  0.2561077E-024  0.6979691E+02  0.7818608E-02  0.1360785E+00
         -1   -1    0    0    0  501 -0.00000000000E+00  0.00000000000E+00  0.56000610567E+02  0.56000610794E+02  0.50400000000E-02 0.  1.
          2   -1    0    0  501    0  0.00000000000E+00 -0.00000000000E+00 -0.21748014970E+02  0.21748015119E+02  0.25500000000E-02 0. -1.
         24    2    1    2    0    0 -0.71054273576E-14  0.88817841970E-15  0.34252595597E+02  0.77748625913E+02  0.69796909145E+02 0.  0.
         66    2    3    3    0    0 -0.31047588252E+02  0.59819672326E+01  0.76292270327E+00  0.31690987862E+02  0.19999980864E+01 0.  0.
        -13    1    3    3    0    0  0.31047588252E+02 -0.59819672326E+01  0.33489672894E+02  0.46057638051E+02  0.10566000000E+00 0.  1.
         13    1    4    4    0    0 -0.38034774695E+01  0.84578803141E+00  0.44533074563E+00  0.39231724107E+01  0.10566000000E+00 0. -1.
        -13    1    4    4    0    0 -0.53071999627E+01  0.48116041123E+00  0.36353941412E+00  0.53423975635E+01  0.10566000000E+00 0.  1.
         14    1    4    4    0    0 -0.21936910820E+02  0.46550187899E+01 -0.45947456487E-01  0.22425417888E+02  0.00000000000E+00 0. -1.
<mgrwt>
<rscale>  0 0.69796909E+02</rscale>
<asrwt>0</asrwt>
<pdfrwt beam="1">  1        2 0.33458485E-02 0.69796909E+02</pdfrwt>
<pdfrwt beam="2">  1       -1 0.86154786E-02 0.69796909E+02</pdfrwt>
<totfact> 0.18541340E+05</totfact>
</mgrwt>
</event>
<event>
 8    1  0.2561077E-024  0.7369872E+02  0.7818608E-02  0.1347949E+00
         -1   -1    0    0    0  501 -0.00000000000E+00  0.00000000000E+00  0.14675976195E+01  0.14676062736E+01  0.50400000000E-02 0.  1.
          2   -1    0    0  501    0  0.00000000000E+00 -0.00000000000E+00 -0.92523416291E+03  0.92523416291E+03  0.25500000000E-02 0. -1.
         24    2    1    2    0    0  0.00000000000E+00  0.55511151231E-16 -0.92376656529E+03  0.92670176919E+03  0.73698723638E+02 0.  0.
         66    2    3    3    0    0  0.13181990227E+02  0.26042744170E+00 -0.89453293300E+03  0.89463232719E+03  0.19999876663E+01 0.  0.
        -13    1    3    3    0    0 -0.13181990227E+02 -0.26042744170E+00 -0.29233632291E+02  0.32069441994E+02  0.10566000000E+00 0.  1.
         13    1    4    4    0    0  0.33216584814E+01  0.65463344421E+00 -0.21866317192E+03  0.21868940505E+03  0.10566000000E+00 0. -1.
        -13    1    4    4    0    0  0.65706383172E+01 -0.14332458851E+00 -0.48684932304E+03  0.48689369306E+03  0.10566000000E+00 0.  1.
        -14    1    4    4    0    0  0.32896934287E+01 -0.25088141400E+00 -0.18902043803E+03  0.18904922908E+03  0.00000000000E+00 0.  1.
<mgrwt>
<rscale>  0 0.73698724E+02</rscale>
<asrwt>0</asrwt>
<pdfrwt beam="1">  1        2 0.14234325E+00 0.73698724E+02</pdfrwt>
<pdfrwt beam="2">  1       -1 0.22578566E-03 0.73698724E+02</pdfrwt>
<totfact> 0.43326203E+05</totfact>
</mgrwt>
</event>
<event>
 8    1  0.2561077E-024  0.7980070E+02  0.7818608E-02  0.1329618E+00
          2   -1    0    0  501    0  0.00000000000E+00  0.00000000000E+00  0.29256935818E+02  0.29256935930E+02  0.25500000000E-02 0. -1.
         -1   -1    0    0    0  501 -0.00000000000E+00 -0.00000000000E+00 -0.54415746610E+02  0.54415746843E+02  0.50400000000E-02 0.  1.
         24    2    1    2    0    0  0.00000000000E+00  0.00000000000E+00 -0.25158810791E+02  0.83672682773E+02  0.79800702265E+02 0.  0.
         66    2    3    3    0    0 -0.38921307430E+02  0.86243066670E+01 -0.11657567323E+02  0.41582997851E+02  0.19999992075E+01 0.  0.
        -13    1    3    3    0    0  0.38921307430E+02 -0.86243066670E+01 -0.13501243468E+02  0.42089684921E+02  0.10566000000E+00 0.  1.
         13    1    4    4    0    0 -0.62077466080E+01  0.19104173623E+01 -0.17515317172E+01  0.67279149697E+01  0.10566000000E+00 0. -1.
        -13    1    4    4    0    0 -0.23034056959E+02  0.47271791341E+01 -0.75511654822E+01  0.24697070003E+02  0.10566000000E+00 0.  1.
         14    1    4    4    0    0 -0.96795038628E+01  0.19867101706E+01 -0.23548701237E+01  0.10158012878E+02  0.00000000000E+00 0. -1.
<mgrwt>
<rscale>  0 0.79800702E+02</rscale>
<asrwt>0</asrwt>
<pdfrwt beam="1">  1        2 0.45010671E-02 0.79800702E+02</pdfrwt>
<pdfrwt beam="2">  1       -1 0.83716533E-02 0.79800702E+02</pdfrwt>
<totfact> 0.13482859E+05</totfact>
</mgrwt>
</event>
<event>
 8    1  0.2561077E-024  0.8037987E+02  0.7818608E-02  0.1327977E+00
          2   -1    0    0  501    0  0.00000000000E+00  0.00000000000E+00  0.12001358912E+02  0.12001359183E+02  0.25500000000E-02 0. -1.
         -1   -1    0    0    0  501 -0.00000000000E+00 -0.00000000000E+00 -0.13458733979E+03  0.13458733989E+03  0.50400000000E-02 0.  1.
         24    2    1    2    0    0  0.00000000000E+00  0.00000000000E+00 -0.12258598088E+03  0.14658869907E+03  0.80379873020E+02 0.  0.
         66    2    3    3    0    0 -0.29492725173E+02  0.13803694131E+02 -0.18450115896E+02  0.37480255997E+02  0.20000008121E+01 0.  0.
        -13    1    3    3    0    0  0.29492725173E+02 -0.13803694131E+02 -0.10413586498E+03  0.10910844307E+03  0.10566000000E+00 0.  1.
         13    1    4    4    0    0 -0.75009146626E+01  0.35242661201E+01 -0.51630081721E+01  0.97648343499E+01  0.10566000000E+00 0.  1.
        -13    1    4    4    0    0 -0.11002002872E+02  0.43224312764E+01 -0.63205594751E+01  0.13404779575E+02  0.10566000000E+00 0. -1.
        -14    1    4    4    0    0 -0.10989807638E+02  0.59569967344E+01 -0.69665482487E+01  0.14310642072E+02  0.00000000000E+00 0.  1.
<mgrwt>
<rscale>  0 0.80379873E+02</rscale>
<asrwt>0</asrwt>
<pdfrwt beam="1">  1        2 0.18463630E-02 0.80379873E+02</pdfrwt>
<pdfrwt beam="2">  1       -1 0.20705744E-01 0.80379873E+02</pdfrwt>
<totfact> 0.10949843E+05</totfact>
</mgrwt>
</event>
<event>
 8    1  0.2561077E-024  0.8027670E+02  0.7818608E-02  0.1328268E+00
         -1   -1    0    0    0  501 -0.00000000000E+00  0.00000000000E+00  0.10020733063E+02  0.10020734331E+02  0.50400000000E-02 0.  1.
          2   -1    0    0  501    0  0.00000000000E+00 -0.00000000000E+00 -0.16077535475E+03  0.16077535477E+03  0.25500000000E-02 0. -1.
         24    2    1    2    0    0 -0.22204460493E-15  0.00000000000E+00 -0.15075462168E+03  0.17079608910E+03  0.80276697068E+02 0.  0.
         66    2    3    3    0    0 -0.18227992440E+01 -0.11995792088E+02 -0.15677093712E+03  0.15725249872E+03  0.20000003749E+01 0.  0.
        -13    1    3    3    0    0  0.18227992440E+01  0.11995792088E+02  0.60163154390E+01  0.13543590381E+02  0.10566000000E+00 0.  1.
         13    1    4    4    0    0 -0.42026787582E+00 -0.61562499098E+01 -0.69848587161E+02  0.70120698302E+02  0.10566000000E+00 0. -1.
        -13    1    4    4    0    0 -0.13332317816E+01 -0.55522545669E+01 -0.80282890220E+02  0.80485766841E+02  0.10566000000E+00 0.  1.
         14    1    4    4    0    0 -0.69299586614E-01 -0.28728761143E+00 -0.66394597426E+01  0.66460335748E+01  0.00000000000E+00 0. -1.
<mgrwt>
<rscale>  0 0.80276697E+02</rscale>
<asrwt>0</asrwt>
<pdfrwt beam="1">  1        2 0.24734668E-01 0.80276697E+02</pdfrwt>
<pdfrwt beam="2">  1       -1 0.15416515E-02 0.80276697E+02</pdfrwt>
<totfact> 0.20300752E+05</totfact>
</mgrwt>
</event>
<event>
 8    1  0.2561077E-024  0.8489197E+02  0.7818608E-02  0.1315715E+00
         -1   -1    0    0    0  501 -0.00000000000E+00  0.00000000000E+00  0.38350393055E+01  0.38350426173E+01  0.50400000000E-02 0.  1.
          2   -1    0    0  501    0  0.00000000000E+00 -0.00000000000E+00 -0.46978936926E+03  0.46978936926E+03  0.25500000000E-02 0. -1.
         24    2    1    2    0    0  0.00000000000E+00  0.00000000000E+00 -0.46595432995E+03  0.47362441188E+03  0.84891966223E+02 0.  0.
         66    2    3    3    0    0 -0.24358051337E+02 -0.25136100624E+02 -0.36683320604E+03  0.36850473443E+03  0.20000046384E+01 0.  0.
        -13    1    3    3    0    0  0.24358051337E+02  0.25136100624E+02 -0.99121123909E+02  0.10511967746E+03  0.10566000000E+00 0.  1.
         13    1    4    4    0    0 -0.15087436081E+02 -0.14803815292E+02 -0.22438404175E+03  0.22537744570E+03  0.10566000000E+00 0. -1.
        -13    1    4    4    0    0 -0.86718471784E+01 -0.92662638033E+01 -0.12926214008E+03  0.12988370414E+03  0.10566000000E+00 0.  1.
        -14    1    4    4    0    0 -0.59876807784E+00 -0.10660215286E+01 -0.13187024207E+02  0.13243584581E+02  0.00000000000E+00 0.  1.
<mgrwt>
<rscale>  0 0.84891966E+02</rscale>
<asrwt>0</asrwt>
<pdfrwt beam="1">  1        2 0.72275242E-01 0.84891966E+02</pdfrwt>
<pdfrwt beam="2">  1       -1 0.59000668E-03 0.84891966E+02</pdfrwt>
<totfact> 0.25551717E+05</totfact>
</mgrwt>
</event>
<event>
 8    1  0.2561077E-024  0.7772207E+02  0.7818608E-02  0.1335643E+00
          2   -1    0    0  501    0  0.00000000000E+00  0.00000000000E+00  0.93101185073E+02  0.93101185108E+02  0.25500000000E-02 0. -1.
         -1   -1    0    0    0  501 -0.00000000000E+00 -0.00000000000E+00 -0.16220846295E+02  0.16220847078E+02  0.50400000000E-02 0.  1.
         24    2    1    2    0    0  0.00000000000E+00  0.35527136788E-14  0.76880338779E+02  0.10932203219E+03  0.77722070421E+02 0.  0.
         66    2    3    3    0    0 -0.11662007819E+02 -0.19472185983E+02  0.82789600746E+02  0.85867842915E+02  0.20000004648E+01 0.  0.
        -13    1    3    3    0    0  0.11662007819E+02  0.19472185983E+02 -0.59092619671E+01  0.23454189271E+02  0.10566000000E+00 0.  1.
         13    1    4    4    0    0 -0.58844396036E+01 -0.96373674659E+01  0.40859628921E+02  0.42391342521E+02  0.10566000000E+00 0. -1.
        -13    1    4    4    0    0 -0.17663083252E+01 -0.21561929316E+01  0.87252012004E+01  0.91602026768E+01  0.10566000000E+00 0.  1.
        -14    1    4    4    0    0 -0.40112598906E+01 -0.76786255853E+01  0.33204770624E+02  0.34316297717E+02  0.00000000000E+00 0.  1.
<mgrwt>
<rscale>  0 0.77722070E+02</rscale>
<asrwt>0</asrwt>
<pdfrwt beam="1">  1        2 0.14323259E-01 0.77722070E+02</pdfrwt>
<pdfrwt beam="2">  1       -1 0.24955149E-02 0.77722070E+02</pdfrwt>
<totfact> 0.18777889E+05</totfact>
</mgrwt>
</event>
<event>
 8    1  0.2561077E-024  0.8160970E+02  0.7818608E-02  0.1324544E+00
          2   -1    0    0  501    0  0.00000000000E+00  0.00000000000E+00  0.14854410988E+03  0.14854410990E+03  0.25500000000E-02 0. -1.
         -1   -1    0    0    0  501 -0.00000000000E+00 -0.00000000000E+00 -0.11209031004E+02  0.11209032137E+02  0.50400000000E-02 0.  1.
         24    2    1    2    0    0  0.00000000000E+00  0.35527136788E-14  0.13733507888E+03  0.15975314204E+03  0.81609696124E+02 0.  0.
         66    2    3    3    0    0  0.17123776747E+02 -0.28202951672E+02  0.11562402221E+03  0.12025616293E+03  0.19999994085E+01 0.  0.
        -13    1    3    3    0    0 -0.17123776747E+02  0.28202951672E+02  0.21711056664E+02  0.39496979107E+02  0.10566000000E+00 0.  1.
         13    1    4    4    0    0  0.34844620693E+01 -0.61583439135E+01  0.26852853890E+02  0.27769652532E+02  0.10566000000E+00 0. -1.
        -13    1    4    4    0    0  0.30065433236E+01 -0.46896573388E+01  0.17433596443E+02  0.18302285040E+02  0.10566000000E+00 0.  1.
        -14    1    4    4    0    0  0.10632771354E+02 -0.17354950419E+02  0.71337571878E+02  0.74184225359E+02  0.00000000000E+00 0.  1.
<mgrwt>
<rscale>  0 0.81609696E+02</rscale>
<asrwt>0</asrwt>
<pdfrwt beam="1">  1        2 0.22852938E-01 0.81609696E+02</pdfrwt>
<pdfrwt beam="2">  1       -1 0.17244666E-02 0.81609696E+02</pdfrwt>
<totfact> 0.18937889E+05</totfact>
</mgrwt>
</event>
<event>
 8    1  0.2561077E-024  0.8023077E+02  0.7818608E-02  0.1328398E+00
          2   -1    0    0  501    0  0.00000000000E+00  0.00000000000E+00  0.91889801810E+01  0.91889805348E+01  0.25500000000E-02 0. -1.
         -1   -1    0    0    0  501 -0.00000000000E+00 -0.00000000000E+00 -0.17512761928E+03  0.17512761935E+03  0.50400000000E-02 0.  1.
         24    2    1    2    0    0  0.00000000000E+00  0.00000000000E+00 -0.16593863910E+03  0.18431659989E+03  0.80230773697E+02 0.  0.
         66    2    3    3    0    0 -0.37755975310E+02 -0.90129153075E+01 -0.59990872596E+02  0.71481823754E+02  0.20000046043E+01 0.  0.
        -13    1    3    3    0    0  0.37755975310E+02  0.90129153075E+01 -0.10594776650E+03  0.11283477613E+03  0.10566000000E+00 0.  1.
         13    1    4    4    0    0 -0.32566958679E+02 -0.74711684831E+01 -0.52090934664E+02  0.61886200354E+02  0.10566000000E+00 0. -1.
        -13    1    4    4    0    0 -0.88160545065E+00 -0.22013606406E+00 -0.10041470743E+01  0.13583679324E+01  0.10566000000E+00 0.  1.
         14    1    4    4    0    0 -0.43074111804E+01 -0.13216107603E+01 -0.68957908582E+01  0.82372554677E+01  0.00000000000E+00 0. -1.
<mgrwt>
<rscale>  0 0.80230774E+02</rscale>
<asrwt>0</asrwt>
<pdfrwt beam="1">  1        2 0.14136894E-02 0.80230774E+02</pdfrwt>
<pdfrwt beam="2">  1       -1 0.26942708E-01 0.80230774E+02</pdfrwt>
<totfact> 0.10276425E+05</totfact>
</mgrwt>
</event>
<event>
 8    1  0.2561077E-024  0.7938480E+02  0.7818608E-02  0.1330806E+00
          2   -1    0    0  501    0  0.00000000000E+00  0.00000000000E+00  0.11924715933E+02  0.11924716205E+02  0.25500000000E-02 0. -1.
         -1   -1    0    0    0  501 -0.00000000000E+00 -0.00000000000E+00 -0.13211943199E+03  0.13211943209E+03  0.50400000000E-02 0.  1.
         24    2    1    2    0    0 -0.35527136788E-14 -0.35527136788E-14 -0.12019471606E+03  0.14404414829E+03  0.79384802633E+02 0.  0.
         66    2    3    3    0    0 -0.31173960663E+02 -0.23998339188E+02 -0.69342231536E+02  0.79750117051E+02  0.19999970058E+01 0.  0.
        -13    1    3    3    0    0  0.31173960663E+02  0.23998339188E+02 -0.50852484524E+02  0.64294031243E+02  0.10566000000E+00 0.  1.
         13    1    4    4    0    0 -0.44752382534E+01 -0.35691049476E+01 -0.10349259884E+02  0.11827282517E+02  0.10566000000E+00 0. -1.
        -13    1    4    4    0    0 -0.12834445820E+02 -0.87174298537E+01 -0.26960227295E+02  0.31105973745E+02  0.10566000000E+00 0.  1.
        -14    1    4    4    0    0 -0.13864276589E+02 -0.11711804387E+02 -0.32032744356E+02  0.36816860789E+02  0.00000000000E+00 0.  1.
<mgrwt>
<rscale>  0 0.79384803E+02</rscale>
<asrwt>0</asrwt>
<pdfrwt beam="1">  1        2 0.18345718E-02 0.79384803E+02</pdfrwt>
<pdfrwt beam="2">  1       -1 0.20326065E-01 0.79384803E+02</pdfrwt>
<totfact> 0.11349176E+05</totfact>
</mgrwt>
</event>
<event>
 8    1  0.2561077E-024  0.7981222E+02  0.7818608E-02  0.1329585E+00
         -1   -1    0    0    0  501 -0.00000000000E+00  0.00000000000E+00  0.49493963380E+01  0.49493989041E+01  0.50400000000E-02 0.  1.
          2   -1    0    0  501    0  0.00000000000E+00 -0.00000000000E+00 -0.32175581701E+03  0.32175581702E+03  0.25500000000E-02 0. -1.
         24    2    1    2    0    0  0.00000000000E+00  0.00000000000E+00 -0.31680642067E+03  0.32670521593E+03  0.79812216691E+02 0.  0.
         66    2    3    3    0    0 -0.53763812146E+01  0.33589739039E+02 -0.24371215280E+03  0.24608289145E+03  0.19999997875E+01 0.  0.
        -13    1    3    3    0    0  0.53763812146E+01 -0.33589739039E+02 -0.73094267878E+02  0.80622324479E+02  0.10566000000E+00 0.  1.
         13    1    4    4    0    0 -0.28484129535E+01  0.18688718941E+02 -0.13393139883E+03  0.13525905673E+03  0.10566000000E+00 0. -1.
        -13    1    4    4    0    0  0.14288971066E-01  0.14556270829E+01 -0.12660115764E+02  0.12743969145E+02  0.10566000000E+00 0.  1.
        -14    1    4    4    0    0 -0.25422572322E+01  0.13445393015E+02 -0.97120638203E+02  0.98079865569E+02  0.00000000000E+00 0.  1.
<mgrwt>
<rscale>  0 0.79812217E+02</rscale>
<asrwt>0</asrwt>
<pdfrwt beam="1">  1        2 0.49500879E-01 0.79812217E+02</pdfrwt>
<pdfrwt beam="2">  1       -1 0.76144604E-03 0.79812217E+02</pdfrwt>
<totfact> 0.26309219E+05</totfact>
</mgrwt>
</event>
<event>
 8    1  0.2561077E-024  0.8079387E+02  0.7818608E-02  0.1326814E+00
          2   -1    0    0  501    0  0.00000000000E+00  0.00000000000E+00  0.92278464970E+03  0.92278464971E+03  0.25500000000E-02 0. -1.
         -1   -1    0    0    0  501 -0.00000000000E+00 -0.00000000000E+00 -0.17684616160E+01  0.17684687978E+01  0.50400000000E-02 0.  1.
         24    2    1    2    0    0  0.00000000000E+00  0.00000000000E+00  0.92101618809E+03  0.92455311850E+03  0.80793874878E+02 0.  0.
         66    2    3    3    0    0 -0.18729115209E+02  0.21398117198E+02  0.78872670761E+03  0.78924171105E+03  0.20000002279E+01 0.  0.
        -13    1    3    3    0    0  0.18729115209E+02 -0.21398117198E+02  0.13228948048E+03  0.13531140745E+03  0.10566000000E+00 0.  1.
         13    1    4    4    0    0 -0.77092621922E+01  0.88149568666E+01  0.34080475612E+03  0.34100590779E+03  0.10566000000E+00 0. -1.
        -13    1    4    4    0    0 -0.38895997482E+01  0.40046743473E+01  0.13659626547E+03  0.13671034089E+03  0.10566000000E+00 0.  1.
        -14    1    4    4    0    0 -0.71302532687E+01  0.85784859840E+01  0.31132568602E+03  0.31152546238E+03  0.00000000000E+00 0.  1.
<mgrwt>
<rscale>  0 0.80793875E+02</rscale>
<asrwt>0</asrwt>
<pdfrwt beam="1">  1        2 0.14196688E+00 0.80793875E+02</pdfrwt>
<pdfrwt beam="2">  1       -1 0.27207156E-03 0.80793875E+02</pdfrwt>
<totfact> 0.34148953E+05</totfact>
</mgrwt>
</event>
<event>
 8    1  0.2561077E-024  0.7679322E+02  0.7818608E-02  0.1338406E+00
         -1   -1    0    0    0  501 -0.00000000000E+00  0.00000000000E+00  0.26213094156E+01  0.26213142608E+01  0.50400000000E-02 0.  1.
          2   -1    0    0  501    0  0.00000000000E+00 -0.00000000000E+00 -0.56242818514E+03  0.56242818514E+03  0.25500000000E-02 0. -1.
         24    2    1    2    0    0  0.00000000000E+00  0.00000000000E+00 -0.55980687572E+03  0.56504949940E+03  0.76793220217E+02 0.  0.
         66    2    3    3    0    0  0.22219877023E+02  0.27936854048E+02 -0.38365710468E+03  0.38531930230E+03  0.20000010798E+01 0.  0.
        -13    1    3    3    0    0 -0.22219877023E+02 -0.27936854048E+02 -0.17614977104E+03  0.17973019711E+03  0.10566000000E+00 0.  1.
         13    1    4    4    0    0  0.73388631063E+01  0.95034567438E+01 -0.13070167504E+03  0.13125209951E+03  0.10566000000E+00 0. -1.
        -13    1    4    4    0    0  0.16218656201E+01  0.14028369037E+01 -0.20687956761E+02  0.20799065327E+02  0.10566000000E+00 0.  1.
        -14    1    4    4    0    0  0.13259148296E+02  0.17030560401E+02 -0.23226747287E+03  0.23326813746E+03  0.00000000000E+00 0.  1.
<mgrwt>
<rscale>  0 0.76793220E+02</rscale>
<asrwt>0</asrwt>
<pdfrwt beam="1">  1        2 0.86527317E-01 0.76793220E+02</pdfrwt>
<pdfrwt beam="2">  1       -1 0.40327919E-03 0.76793220E+02</pdfrwt>
<totfact> 0.35113122E+05</totfact>
</mgrwt>
</event>
<event>
 8    1  0.2561077E-024  0.7984286E+02  0.7818608E-02  0.1329498E+00
         -1   -1    0    0    0  501 -0.00000000000E+00  0.00000000000E+00  0.11548356290E+03  0.11548356301E+03  0.50400000000E-02 0.  1.
          2   -1    0    0  501    0  0.00000000000E+00 -0.00000000000E+00 -0.13800411150E+02  0.13800411385E+02  0.25500000000E-02 0. -1.
         24    2    1    2    0    0  0.00000000000E+00  0.00000000000E+00  0.10168315175E+03  0.12928397440E+03  0.79842862459E+02 0.  0.
         66    2    3    3    0    0  0.23429949304E+02 -0.23996420943E+02  0.15884338938E+02  0.37163193968E+02  0.20000049941E+01 0.  0.
        -13    1    3    3    0    0 -0.23429949304E+02  0.23996420943E+02  0.85798812815E+02  0.92120780429E+02  0.10566000000E+00 0.  1.
         13    1    4    4    0    0  0.70799969006E+01 -0.66623292432E+01  0.48107964659E+01  0.10847484212E+02  0.10566000000E+00 0.  1.
        -13    1    4    4    0    0  0.53198054691E+01 -0.52351868142E+01  0.41420339376E+01  0.85366925905E+01  0.10566000000E+00 0.  1.
         14    1    4    4    0    0  0.11030146934E+02 -0.12098904885E+02  0.69315085341E+01  0.17779017165E+02  0.00000000000E+00 0. -1.
<mgrwt>
<rscale>  0 0.79842862E+02</rscale>
<asrwt>0</asrwt>
<pdfrwt beam="1">  1        2 0.21231403E-02 0.79842862E+02</pdfrwt>
<pdfrwt beam="2">  1       -1 0.17766701E-01 0.79842862E+02</pdfrwt>
<totfact> 0.11540868E+05</totfact>
</mgrwt>
</event>
<event>
 8    1  0.2561077E-024  0.8533802E+02  0.7818608E-02  0.1314551E+00
         -1   -1    0    0    0  501 -0.00000000000E+00  0.00000000000E+00  0.96119502037E+01  0.96119515250E+01  0.50400000000E-02 0.  1.
          2   -1    0    0  501    0  0.00000000000E+00 -0.00000000000E+00 -0.18941465846E+03  0.18941465847E+03  0.25500000000E-02 0. -1.
         24    2    1    2    0    0  0.00000000000E+00  0.35527136788E-14 -0.17980270825E+03  0.19902661000E+03  0.85338019619E+02 0.  0.
         66    2    3    3    0    0 -0.20669134431E+02 -0.29116648170E+02 -0.14432907976E+03  0.14869389895E+03  0.20000006942E+01 0.  0.
        -13    1    3    3    0    0  0.20669134431E+02  0.29116648170E+02 -0.35473628496E+02  0.50332711049E+02  0.10566000000E+00 0.  1.
         13    1    4    4    0    0 -0.13342908347E+02 -0.20245133086E+02 -0.96694399322E+02  0.99688096788E+02  0.10566000000E+00 0. -1.
        -13    1    4    4    0    0 -0.89327036956E+00 -0.11550367267E+01 -0.62666180206E+01  0.64353482614E+01  0.10566000000E+00 0.  1.
         14    1    4    4    0    0 -0.64329557147E+01 -0.77164783570E+01 -0.41368062413E+02  0.42570453900E+02  0.00000000000E+00 0. -1.
<mgrwt>
<rscale>  0 0.85338020E+02</rscale>
<asrwt>0</asrwt>
<pdfrwt beam="1">  1        2 0.29140714E-01 0.85338020E+02</pdfrwt>
<pdfrwt beam="2">  1       -1 0.14787618E-02 0.85338020E+02</pdfrwt>
<totfact> 0.18241971E+05</totfact>
</mgrwt>
</event>
<event>
 8    1  0.2561077E-024  0.8090238E+02  0.7818608E-02  0.1326510E+00
         -1   -1    0    0    0  501 -0.00000000000E+00  0.00000000000E+00  0.31865344811E+01  0.31865384669E+01  0.50400000000E-02 0.  1.
          2   -1    0    0  501    0  0.00000000000E+00 -0.00000000000E+00 -0.51350382320E+03  0.51350382321E+03  0.25500000000E-02 0. -1.
         24    2    1    2    0    0  0.00000000000E+00  0.00000000000E+00 -0.51031728872E+03  0.51669036168E+03  0.80902377472E+02 0.  0.
         66    2    3    3    0    0  0.22469680868E+02 -0.19505775740E+02 -0.43009353840E+03  0.43112621542E+03  0.19999998957E+01 0.  0.
        -13    1    3    3    0    0 -0.22469680868E+02  0.19505775740E+02 -0.80223750321E+02  0.85564146260E+02  0.10566000000E+00 0.  1.
         13    1    4    4    0    0  0.82828621324E+01 -0.66717903930E+01 -0.15108350559E+03  0.15145743765E+03  0.10566000000E+00 0. -1.
        -13    1    4    4    0    0  0.51146693160E+01 -0.37285046541E+01 -0.91507995413E+02  0.91726691741E+02  0.10566000000E+00 0.  1.
         14    1    4    4    0    0  0.90721494196E+01 -0.91054806933E+01 -0.18750203739E+03  0.18794208603E+03  0.00000000000E+00 0. -1.
<mgrwt>
<rscale>  0 0.80902377E+02</rscale>
<asrwt>0</asrwt>
<pdfrwt beam="1">  1        2 0.79000522E-01 0.80902377E+02</pdfrwt>
<pdfrwt beam="2">  1       -1 0.49023679E-03 0.80902377E+02</pdfrwt>
<totfact> 0.29824004E+05</totfact>
</mgrwt>
</event>
<event>
 8    1  0.2561077E-024  0.7852633E+02  0.7818608E-02  0.1333286E+00
         -1   -1    0    0    0  501 -0.00000000000E+00  0.00000000000E+00  0.85597476214E+01  0.85597491052E+01  0.50400000000E-02 0.  1.
          2   -1    0    0  501    0  0.00000000000E+00 -0.00000000000E+00 -0.18009831789E+03  0.18009831790E+03  0.25500000000E-02 0. -1.
         24    2    1    2    0    0  0.00000000000E+00 -0.35527136788E-14 -0.17153857026E+03  0.18865806701E+03  0.78526334177E+02 0.  0.
         66    2    3    3    0    0  0.30899255116E+02  0.22694058785E+02 -0.10589765720E+03  0.11264145762E+03  0.19999759282E+01 0.  0.
        -13    1    3    3    0    0 -0.30899255116E+02 -0.22694058785E+02 -0.65640913067E+02  0.76016609390E+02  0.10566000000E+00 0.  1.
         13    1    4    4    0    0  0.35599010177E+01  0.30476656631E+01 -0.12030962454E+02  0.12911869843E+02  0.10566000000E+00 0. -1.
        -13    1    4    4    0    0  0.18920137823E+01  0.10069937325E+01 -0.58098204869E+01  0.61934586989E+01  0.10566000000E+00 0.  1.
         14    1    4    4    0    0  0.25447340316E+02  0.18639399389E+02 -0.88056874257E+02  0.93536129077E+02  0.00000000000E+00 0. -1.
<mgrwt>
<rscale>  0 0.78526334E+02</rscale>
<asrwt>0</asrwt>
<pdfrwt beam="1">  1        2 0.27707431E-01 0.78526334E+02</pdfrwt>
<pdfrwt beam="2">  1       -1 0.13168845E-02 0.78526334E+02</pdfrwt>
<totfact> 0.22349324E+05</totfact>
</mgrwt>
</event>
<event>
 8    1  0.2561077E-024  0.7942350E+02  0.7818608E-02  0.1330695E+00
         -1   -1    0    0    0  501 -0.00000000000E+00  0.00000000000E+00  0.38698476590E+01  0.38698509410E+01  0.50400000000E-02 0.  1.
          2   -1    0    0  501    0  0.00000000000E+00 -0.00000000000E+00 -0.40751535905E+03  0.40751535906E+03  0.25500000000E-02 0. -1.
         24    2    1    2    0    0 -0.35527136788E-14  0.00000000000E+00 -0.40364551139E+03  0.41138521000E+03  0.79423498662E+02 0.  0.
         66    2    3    3    0    0 -0.24247620068E+02 -0.27805947393E+02 -0.27770433636E+03  0.28015141663E+03  0.20000045035E+01 0.  0.
        -13    1    3    3    0    0  0.24247620068E+02  0.27805947393E+02 -0.12594117503E+03  0.13123379336E+03  0.10566000000E+00 0.  1.
         13    1    4    4    0    0 -0.12387684804E+02 -0.13967215371E+02 -0.14295034377E+03  0.14416431524E+03  0.10566000000E+00 0. -1.
        -13    1    4    4    0    0 -0.41888512635E+01 -0.40579454899E+01 -0.44985457870E+02  0.45362054410E+02  0.10566000000E+00 0.  1.
        -14    1    4    4    0    0 -0.76710840005E+01 -0.97807865327E+01 -0.89768534721E+02  0.90625046984E+02  0.00000000000E+00 0.  1.
<mgrwt>
<rscale>  0 0.79423499E+02</rscale>
<asrwt>0</asrwt>
<pdfrwt beam="1">  1        2 0.62694637E-01 0.79423499E+02</pdfrwt>
<pdfrwt beam="2">  1       -1 0.59536176E-03 0.79423499E+02</pdfrwt>
<totfact> 0.28979602E+05</totfact>
</mgrwt>
</event>
<event>
 8    1  0.2561077E-024  0.7866775E+02  0.7818608E-02  0.1332875E+00
         -1   -1    0    0    0  501 -0.00000000000E+00  0.00000000000E+00  0.38930052649E+02  0.38930052975E+02  0.50400000000E-02 0.  1.
          2   -1    0    0  501    0  0.00000000000E+00 -0.00000000000E+00 -0.39741884731E+02  0.39741884813E+02  0.25500000000E-02 0. -1.
         24    2    1    2    0    0  0.00000000000E+00  0.00000000000E+00 -0.81183208190E+00  0.78671937788E+02  0.78667748944E+02 0.  0.
         66    2    3    3    0    0 -0.60491158690E+01 -0.26879876013E+02 -0.28443882848E+02  0.39650649612E+02  0.20000014792E+01 0.  0.
        -13    1    3    3    0    0  0.60491158690E+01  0.26879876013E+02  0.27632050766E+02  0.39021288175E+02  0.10566000000E+00 0.  1.
         13    1    4    4    0    0 -0.26838545021E+01 -0.13478410854E+02 -0.14688665840E+02  0.20115633282E+02  0.10566000000E+00 0. -1.
        -13    1    4    4    0    0 -0.20445463432E+01 -0.10279271048E+02 -0.10378900998E+02  0.14750468907E+02  0.10566000000E+00 0.  1.
        -14    1    4    4    0    0 -0.13207150237E+01 -0.31221941106E+01 -0.33763160109E+01  0.47845474231E+01  0.00000000000E+00 0.  1.
<mgrwt>
<rscale>  0 0.78667749E+02</rscale>
<asrwt>0</asrwt>
<pdfrwt beam="1">  1        2 0.61141361E-02 0.78667749E+02</pdfrwt>
<pdfrwt beam="2">  1       -1 0.59892390E-02 0.78667749E+02</pdfrwt>
<totfact> 0.14912089E+05</totfact>
</mgrwt>
</event>
<event>
 8    1  0.2561077E-024  0.7862913E+02  0.7818608E-02  0.1332987E+00
          2   -1    0    0  501    0  0.00000000000E+00  0.00000000000E+00  0.38033124857E+03  0.38033124858E+03  0.25500000000E-02 0. -1.
         -1   -1    0    0    0  501 -0.00000000000E+00 -0.00000000000E+00 -0.40639167675E+01  0.40639198928E+01  0.50400000000E-02 0.  1.
         24    2    1    2    0    0  0.00000000000E+00 -0.71054273576E-14  0.37626733180E+03  0.38439516847E+03  0.78629133038E+02 0.  0.
         66    2    3    3    0    0  0.15317027724E+02 -0.33211373034E+02  0.25842527429E+03  0.26100810140E+03  0.19999921592E+01 0.  0.
        -13    1    3    3    0    0 -0.15317027724E+02  0.33211373034E+02  0.11784205751E+03  0.12338706707E+03  0.10566000000E+00 0.  1.
         13    1    4    4    0    0  0.81613664349E+01 -0.17155751250E+02  0.13388730231E+03  0.13522850509E+03  0.10566000000E+00 0. -1.
        -13    1    4    4    0    0  0.49264123745E+01 -0.12420541995E+02  0.95401503957E+02  0.96332743777E+02  0.10566000000E+00 0.  1.
        -14    1    4    4    0    0  0.22292489147E+01 -0.36350797893E+01  0.29136468020E+02  0.29446852540E+02  0.00000000000E+00 0.  1.
<mgrwt>
<rscale>  0 0.78629133E+02</rscale>
<asrwt>0</asrwt>
<pdfrwt beam="1">  1        2 0.58512487E-01 0.78629133E+02</pdfrwt>
<pdfrwt beam="2">  1       -1 0.62521834E-03 0.78629133E+02</pdfrwt>
<totfact> 0.29038465E+05</totfact>
</mgrwt>
</event>
<event>
 8    1  0.2561077E-024  0.7992565E+02  0.7818608E-02  0.1329263E+00
         -1   -1    0    0    0  501 -0.00000000000E+00  0.00000000000E+00  0.61801656557E+01  0.61801677108E+01  0.50400000000E-02 0.  1.
          2   -1    0    0  501    0  0.00000000000E+00 -0.00000000000E+00 -0.25841170871E+03  0.25841170872E+03  0.25500000000E-02 0. -1.
         24    2    1    2    0    0  0.00000000000E+00  0.00000000000E+00 -0.25223154305E+03  0.26459187643E+03  0.79925651470E+02 0.  0.
         66    2    3    3    0    0 -0.68766251009E+01  0.24326260449E+02 -0.22855018866E+03  0.22995269876E+03  0.20000019449E+01 0.  0.
        -13    1    3    3    0    0  0.68766251009E+01 -0.24326260449E+02 -0.23681354391E+02  0.34639177675E+02  0.10566000000E+00 0.  1.
         13    1    4    4    0    0 -0.54050456113E+01  0.16169661859E+02 -0.14968440865E+03  0.15065226795E+03  0.10566000000E+00 0. -1.
        -13    1    4    4    0    0 -0.57357981855E+00  0.28091246032E+01 -0.27252423926E+02  0.27403028094E+02  0.10566000000E+00 0.  1.
         14    1    4    4    0    0 -0.89799967105E+00  0.53474739862E+01 -0.51613356088E+02  0.51897402710E+02  0.00000000000E+00 0. -1.
<mgrwt>
<rscale>  0 0.79925651E+02</rscale>
<asrwt>0</asrwt>
<pdfrwt beam="1">  1        2 0.39755639E-01 0.79925651E+02</pdfrwt>
<pdfrwt beam="2">  1       -1 0.95079508E-03 0.79925651E+02</pdfrwt>
<totfact> 0.24212824E+05</totfact>
</mgrwt>
</event>
<event>
 8    1  0.2561077E-024  0.8086495E+02  0.7818608E-02  0.1326615E+00
         -1   -1    0    0    0  501 -0.00000000000E+00  0.00000000000E+00  0.17986685348E+03  0.17986685355E+03  0.50400000000E-02 0.  1.
          2   -1    0    0  501    0  0.00000000000E+00 -0.00000000000E+00 -0.90888608385E+01  0.90888611963E+01  0.25500000000E-02 0. -1.
         24    2    1    2    0    0 -0.35527136788E-14 -0.88817841970E-15  0.17077799264E+03  0.18895571474E+03  0.80864945216E+02 0.  0.
         66    2    3    3    0    0 -0.31354690481E+02  0.70806028247E+01  0.28226783980E+02  0.42825259993E+02  0.20000020384E+01 0.  0.
        -13    1    3    3    0    0  0.31354690481E+02 -0.70806028247E+01  0.14255120866E+03  0.14613045475E+03  0.10566000000E+00 0.  1.
         13    1    4    4    0    0 -0.10966994904E+02  0.21608119262E+01  0.88744236917E+01  0.14272723822E+02  0.10566000000E+00 0. -1.
        -13    1    4    4    0    0 -0.20074091288E+02  0.47472159460E+01  0.18915138326E+02  0.27987476167E+02  0.10566000000E+00 0.  1.
         14    1    4    4    0    0 -0.31360428836E+00  0.17257495256E+00  0.43722196228E+00  0.56506000410E+00  0.00000000000E+00 0. -1.
<mgrwt>
<rscale>  0 0.80864945E+02</rscale>
<asrwt>0</asrwt>
<pdfrwt beam="1">  1        2 0.13982864E-02 0.80864945E+02</pdfrwt>
<pdfrwt beam="2">  1       -1 0.27671822E-01 0.80864945E+02</pdfrwt>
<totfact> 0.99977229E+04</totfact>
</mgrwt>
</event>
<event>
 8    1  0.2561077E-024  0.8103941E+02  0.7818608E-02  0.1326127E+00
         -1   -1    0    0    0  501 -0.00000000000E+00  0.00000000000E+00  0.10236790322E+02  0.10236791563E+02  0.50400000000E-02 0.  1.
          2   -1    0    0  501    0  0.00000000000E+00 -0.00000000000E+00 -0.16038683404E+03  0.16038683406E+03  0.25500000000E-02 0. -1.
         24    2    1    2    0    0  0.00000000000E+00  0.00000000000E+00 -0.15015004372E+03  0.17062362563E+03  0.81039410119E+02 0.  0.
         66    2    3    3    0    0 -0.27455909739E+02  0.20933914622E+02 -0.11967373125E+03  0.12457069362E+03  0.19999988177E+01 0.  0.
        -13    1    3    3    0    0  0.27455909739E+02 -0.20933914622E+02 -0.30476312470E+02  0.46052932011E+02  0.10566000000E+00 0.  1.
         13    1    4    4    0    0 -0.66636162312E+01  0.57889025622E+01 -0.30517916380E+02  0.31769003106E+02  0.10566000000E+00 0. -1.
        -13    1    4    4    0    0 -0.19009432179E+00  0.22650367512E+00 -0.88674904215E+00  0.94070593991E+00  0.10566000000E+00 0. -1.
         14    1    4    4    0    0 -0.20602199186E+02  0.14918508384E+02 -0.88269065830E+02  0.91860984570E+02  0.00000000000E+00 0. -1.
<mgrwt>
<rscale>  0 0.81039410E+02</rscale>
<asrwt>0</asrwt>
<pdfrwt beam="1">  1        2 0.24674896E-01 0.81039410E+02</pdfrwt>
<pdfrwt beam="2">  1       -1 0.15748910E-02 0.81039410E+02</pdfrwt>
<totfact> 0.19782206E+05</totfact>
</mgrwt>
</event>
<event>
 8    1  0.2561077E-024  0.8086748E+02  0.7818608E-02  0.1326608E+00
          2   -1    0    0  501    0  0.00000000000E+00  0.00000000000E+00  0.18122801537E+02  0.18122801717E+02  0.25500000000E-02 0. -1.
         -1   -1    0    0    0  501 -0.00000000000E+00 -0.00000000000E+00 -0.90211629288E+02  0.90211629429E+02  0.50400000000E-02 0.  1.
         24    2    1    2    0    0  0.00000000000E+00  0.00000000000E+00 -0.72088827750E+02  0.10833443115E+03  0.80867483485E+02 0.  0.
         66    2    3    3    0    0  0.29495788157E+02  0.16290096041E+02 -0.61853996950E+01  0.34316583693E+02  0.19999997397E+01 0.  0.
        -13    1    3    3    0    0 -0.29495788157E+02 -0.16290096041E+02 -0.65903428055E+02  0.74017847452E+02  0.10566000000E+00 0.  1.
         13    1    4    4    0    0  0.23463487683E+02  0.12585892183E+02 -0.46624508979E+01  0.27031269831E+02  0.10566000000E+00 0. -1.
        -13    1    4    4    0    0  0.34257477095E+01  0.21882796046E+01 -0.12667853200E+01  0.42591341937E+01  0.10566000000E+00 0.  1.
         14    1    4    4    0    0  0.26065527644E+01  0.15159242541E+01 -0.25616347698E+00  0.30261796683E+01  0.00000000000E+00 0. -1.
<mgrwt>
<rscale>  0 0.80867483E+02</rscale>
<asrwt>0</asrwt>
<pdfrwt beam="1">  1        2 0.27881234E-02 0.80867483E+02</pdfrwt>
<pdfrwt beam="2">  1       -1 0.13878712E-01 0.80867483E+02</pdfrwt>
<totfact> 0.11793691E+05</totfact>
</mgrwt>
</event>
<event>
 8    1  0.2561077E-024  0.8035481E+02  0.7818608E-02  0.1328048E+00
          2   -1    0    0  501    0  0.00000000000E+00  0.00000000000E+00  0.41466757364E+02  0.41466757443E+02  0.25500000000E-02 0. -1.
         -1   -1    0    0    0  501 -0.00000000000E+00 -0.00000000000E+00 -0.38928141458E+02  0.38928141784E+02  0.50400000000E-02 0.  1.
         24    2    1    2    0    0 -0.35527136788E-14  0.00000000000E+00  0.25386159067E+01  0.80394899227E+02  0.80354808512E+02 0.  0.
         66    2    3    3    0    0  0.30801886288E+02  0.19018655285E+02  0.18649809487E+02  0.40771078483E+02  0.19999997448E+01 0.  0.
        -13    1    3    3    0    0 -0.30801886288E+02 -0.19018655285E+02 -0.16111193581E+02  0.39623820744E+02  0.10566000000E+00 0.  1.
         13    1    4    4    0    0  0.42353757856E+01  0.27453623312E+01  0.24982105314E+01  0.56327295576E+01  0.10566000000E+00 0. -1.
        -13    1    4    4    0    0  0.14949066875E+02  0.10186229233E+02  0.94862332312E+01  0.20426298034E+02  0.10566000000E+00 0.  1.
         14    1    4    4    0    0  0.11617443627E+02  0.60870637207E+01  0.66653657248E+01  0.14712050891E+02  0.00000000000E+00 0. -1.
<mgrwt>
<rscale>  0 0.80354809E+02</rscale>
<asrwt>0</asrwt>
<pdfrwt beam="1">  1        2 0.63795012E-02 0.80354809E+02</pdfrwt>
<pdfrwt beam="2">  1       -1 0.59889448E-02 0.80354809E+02</pdfrwt>
<totfact> 0.14187131E+05</totfact>
</mgrwt>
</event>
<event>
 8    1  0.2561077E-024  0.8732365E+02  0.7818608E-02  0.1309465E+00
         -1   -1    0    0    0  501 -0.00000000000E+00  0.00000000000E+00  0.25624922084E+02  0.25624922580E+02  0.50400000000E-02 0.  1.
          2   -1    0    0  501    0  0.00000000000E+00 -0.00000000000E+00 -0.74394565375E+02  0.74394565419E+02  0.25500000000E-02 0. -1.
         24    2    1    2    0    0  0.00000000000E+00  0.88817841970E-15 -0.48769643291E+02  0.10001948800E+03  0.87323650134E+02 0.  0.
         66    2    3    3    0    0 -0.89887199283E+01 -0.68068458989E+01 -0.72683807662E+02  0.73580337887E+02  0.19999975508E+01 0.  0.
        -13    1    3    3    0    0  0.89887199283E+01  0.68068458989E+01  0.23914164371E+02  0.26439150112E+02  0.10566000000E+00 0.  1.
         13    1    4    4    0    0 -0.13555005944E+01 -0.10953708911E+01 -0.15153581716E+02  0.15253833031E+02  0.10566000000E+00 0. -1.
        -13    1    4    4    0    0 -0.10093976552E+01 -0.10812344270E+01 -0.11023687956E+02  0.11122985737E+02  0.10566000000E+00 0.  1.
         14    1    4    4    0    0 -0.66238216787E+01 -0.46302405807E+01 -0.46506537990E+02  0.47203519119E+02  0.00000000000E+00 0. -1.
<mgrwt>
<rscale>  0 0.87323650E+02</rscale>
<asrwt>0</asrwt>
<pdfrwt beam="1">  1        2 0.11445318E-01 0.87323650E+02</pdfrwt>
<pdfrwt beam="2">  1       -1 0.39422958E-02 0.87323650E+02</pdfrwt>
<totfact> 0.12919582E+05</totfact>
</mgrwt>
</event>
<event>
 8    1  0.2561077E-024  0.7801372E+02  0.7818608E-02  0.1334785E+00
          2   -1    0    0  501    0  0.00000000000E+00  0.00000000000E+00  0.46389205455E+02  0.46389205526E+02  0.25500000000E-02 0. -1.
         -1   -1    0    0    0  501 -0.00000000000E+00 -0.00000000000E+00 -0.32799338577E+02  0.32799338964E+02  0.50400000000E-02 0.  1.
         24    2    1    2    0    0  0.00000000000E+00  0.00000000000E+00  0.13589866878E+02  0.79188544490E+02  0.78013723771E+02 0.  0.
         66    2    3    3    0    0 -0.19608659098E+02  0.33317377013E+02  0.11872979322E+02  0.40490921959E+02  0.20000001068E+01 0.  0.
        -13    1    3    3    0    0  0.19608659098E+02 -0.33317377013E+02  0.17168875564E+01  0.38697622531E+02  0.10566000000E+00 0.  1.
         13    1    4    4    0    0 -0.61584667338E+01  0.99836999207E+01  0.40552904563E+01  0.12411991030E+02  0.10566000000E+00 0. -1.
        -13    1    4    4    0    0 -0.13462249443E+02  0.23209652520E+02  0.78374551547E+01  0.27952763683E+02  0.10566000000E+00 0.  1.
        -14    1    4    4    0    0  0.12057078379E-01  0.12402457224E+00 -0.19766289247E-01  0.12616724555E+00  0.00000000000E+00 0.  1.
<mgrwt>
<rscale>  0 0.78013724E+02</rscale>
<asrwt>0</asrwt>
<pdfrwt beam="1">  1        2 0.71368009E-02 0.78013724E+02</pdfrwt>
<pdfrwt beam="2">  1       -1 0.50460521E-02 0.78013724E+02</pdfrwt>
<totfact> 0.15753299E+05</totfact>
</mgrwt>
</event>
<event>
 8    1  0.2561077E-024  0.8117773E+02  0.7818608E-02  0.1325742E+00
          2   -1    0    0  501    0  0.00000000000E+00  0.00000000000E+00  0.81324124069E+03  0.81324124069E+03  0.25500000000E-02 0. -1.
         -1   -1    0    0    0  501 -0.00000000000E+00 -0.00000000000E+00 -0.20257869508E+01  0.20257932204E+01  0.50400000000E-02 0.  1.
         24    2    1    2    0    0  0.00000000000E+00  0.35527136788E-14  0.81121545374E+03  0.81526703391E+03  0.81177732182E+02 0.  0.
         66    2    3    3    0    0  0.21814583679E+02  0.20530502455E+02  0.68053833865E+03  0.68120027008E+03  0.19999991173E+01 0.  0.
        -13    1    3    3    0    0 -0.21814583679E+02 -0.20530502455E+02  0.13067711509E+03  0.13406676383E+03  0.10566000000E+00 0.  1.
         13    1    4    4    0    0  0.60445385863E+01  0.57399003499E+01  0.17747686853E+03  0.17767254411E+03  0.10566000000E+00 0. -1.
        -13    1    4    4    0    0  0.48609724516E+01  0.37631600950E+01  0.14719818111E+03  0.14732652889E+03  0.10566000000E+00 0.  1.
        -14    1    4    4    0    0  0.10909072642E+02  0.11027442010E+02  0.35586328901E+03  0.35620119709E+03  0.00000000000E+00 0.  1.
<mgrwt>
<rscale>  0 0.81177732E+02</rscale>
<asrwt>0</asrwt>
<pdfrwt beam="1">  1        2 0.12511403E+00 0.81177732E+02</pdfrwt>
<pdfrwt beam="2">  1       -1 0.31166003E-03 0.81177732E+02</pdfrwt>
<totfact> 0.33176280E+05</totfact>
</mgrwt>
</event>
<event>
 8    1  0.2561077E-024  0.7713324E+02  0.7818608E-02  0.1337389E+00
         -1   -1    0    0    0  501 -0.00000000000E+00  0.00000000000E+00  0.18753355185E+02  0.18753355862E+02  0.50400000000E-02 0.  1.
          2   -1    0    0  501    0  0.00000000000E+00 -0.00000000000E+00 -0.79312971228E+02  0.79312971269E+02  0.25500000000E-02 0. -1.
         24    2    1    2    0    0  0.00000000000E+00  0.00000000000E+00 -0.60559616043E+02  0.98066327131E+02  0.77133244595E+02 0.  0.
         66    2    3    3    0    0  0.25764433394E+02 -0.22771842408E+02 -0.81685745737E+01  0.35398989346E+02  0.20000003413E+01 0.  0.
        -13    1    3    3    0    0 -0.25764433394E+02  0.22771842408E+02 -0.52391041469E+02  0.62667337785E+02  0.10566000000E+00 0.  1.
         13    1    4    4    0    0  0.14198225682E+02 -0.13160708205E+02 -0.49412484652E+01  0.19980514343E+02  0.10566000000E+00 0. -1.
        -13    1    4    4    0    0  0.50043379976E+01 -0.35195088414E+01 -0.14939527458E+01  0.62986824116E+01  0.10566000000E+00 0.  1.
         14    1    4    4    0    0  0.65618697144E+01 -0.60916253623E+01 -0.17333733626E+01  0.91197925918E+01  0.00000000000E+00 0. -1.
<mgrwt>
<rscale>  0 0.77133245E+02</rscale>
<asrwt>0</asrwt>
<pdfrwt beam="1">  1        2 0.12201995E-01 0.77133245E+02</pdfrwt>
<pdfrwt beam="2">  1       -1 0.28851317E-02 0.77133245E+02</pdfrwt>
<totfact> 0.18377242E+05</totfact>
</mgrwt>
</event>
<event>
 8    1  0.2561077E-024  0.8086917E+02  0.7818608E-02  0.1326603E+00
          2   -1    0    0  501    0  0.00000000000E+00  0.00000000000E+00  0.77761573151E+03  0.77761573151E+03  0.25500000000E-02 0. -1.
         -1   -1    0    0    0  501 -0.00000000000E+00 -0.00000000000E+00 -0.21025210191E+01  0.21025270598E+01  0.50400000000E-02 0.  1.
         24    2    1    2    0    0  0.00000000000E+00  0.00000000000E+00  0.77551321049E+03  0.77971825857E+03  0.80869172789E+02 0.  0.
         66    2    3    3    0    0  0.31825244480E+02 -0.27944452943E+01  0.62657380820E+03  0.62739094050E+03  0.19999992461E+01 0.  0.
        -13    1    3    3    0    0 -0.31825244480E+02  0.27944452943E+01  0.14893940229E+03  0.15232731807E+03  0.10566000000E+00 0.  1.
         13    1    4    4    0    0  0.12900329138E+02 -0.11012288945E+01  0.25793128293E+03  0.25825605332E+03  0.10566000000E+00 0. -1.
        -13    1    4    4    0    0  0.14224875263E+02 -0.16982941282E+01  0.28660912012E+03  0.28696694963E+03  0.10566000000E+00 0.  1.
        -14    1    4    4    0    0  0.47000400794E+01  0.50777283594E-02  0.82033405142E+02  0.82167937553E+02  0.00000000000E+00 0.  1.
<mgrwt>
<rscale>  0 0.80869173E+02</rscale>
<asrwt>0</asrwt>
<pdfrwt beam="1">  1        2 0.11963317E+00 0.80869173E+02</pdfrwt>
<pdfrwt beam="2">  1       -1 0.32346529E-03 0.80869173E+02</pdfrwt>
<totfact> 0.33244343E+05</totfact>
</mgrwt>
</event>
<event>
 8    1  0.2561077E-024  0.7950557E+02  0.7818608E-02  0.1330460E+00
         -1   -1    0    0    0  501 -0.00000000000E+00  0.00000000000E+00  0.30561869169E+01  0.30561910727E+01  0.50400000000E-02 0.  1.
          2   -1    0    0  501    0  0.00000000000E+00 -0.00000000000E+00 -0.51707663862E+03  0.51707663863E+03  0.25500000000E-02 0. -1.
         24    2    1    2    0    0  0.35527136788E-14  0.00000000000E+00 -0.51402045171E+03  0.52013282970E+03  0.79505570632E+02 0.  0.
         66    2    3    3    0    0  0.17409121619E+02  0.21404088528E+02 -0.44417404120E+03  0.44503459573E+03  0.19999995363E+01 0.  0.
        -13    1    3    3    0    0 -0.17409121619E+02 -0.21404088528E+02 -0.69846410506E+02  0.75098233973E+02  0.10566000000E+00 0.  1.
         13    1    4    4    0    0  0.72375086065E+01  0.82474475474E+01 -0.16759306971E+03  0.16795192795E+03  0.10566000000E+00 0. -1.
        -13    1    4    4    0    0  0.45618128572E+01  0.66320137381E+01 -0.13886379094E+03  0.13909693506E+03  0.10566000000E+00 0.  1.
         14    1    4    4    0    0  0.56098001555E+01  0.65246272428E+01 -0.13771718054E+03  0.13798573272E+03  0.00000000000E+00 0. -1.
<mgrwt>
<rscale>  0 0.79505571E+02</rscale>
<asrwt>0</asrwt>
<pdfrwt beam="1">  1        2 0.79550182E-01 0.79505571E+02</pdfrwt>
<pdfrwt beam="2">  1       -1 0.47018334E-03 0.79505571E+02</pdfrwt>
<totfact> 0.31276684E+05</totfact>
</mgrwt>
</event>
<event>
 8    1  0.2561077E-024  0.8471034E+02  0.7818608E-02  0.1316192E+00
          2   -1    0    0  501    0  0.00000000000E+00  0.00000000000E+00  0.86853768100E+02  0.86853768137E+02  0.25500000000E-02 0. -1.
         -1   -1    0    0    0  501 -0.00000000000E+00 -0.00000000000E+00 -0.20654953112E+02  0.20654953727E+02  0.50400000000E-02 0.  1.
         24    2    1    2    0    0  0.35527136788E-14  0.00000000000E+00  0.66198814988E+02  0.10750872186E+03  0.84710342763E+02 0.  0.
         66    2    3    3    0    0 -0.24394362618E+02  0.22199553987E+02  0.66792924851E+02  0.74519795611E+02  0.20000007693E+01 0.  0.
        -13    1    3    3    0    0  0.24394362618E+02 -0.22199553987E+02 -0.59410986321E+00  0.32988926252E+02  0.10566000000E+00 0.  1.
         13    1    4    4    0    0 -0.81441690027E+01  0.69362137305E+01  0.22786508257E+02  0.25172895587E+02  0.10566000000E+00 0. -1.
        -13    1    4    4    0    0 -0.73896511784E+01  0.64674038178E+01  0.20479975586E+02  0.22712877861E+02  0.10566000000E+00 0.  1.
        -14    1    4    4    0    0 -0.88605424366E+01  0.87959364383E+01  0.23526441008E+02  0.26634022164E+02  0.00000000000E+00 0.  1.
<mgrwt>
<rscale>  0 0.84710343E+02</rscale>
<asrwt>0</asrwt>
<pdfrwt beam="1">  1        2 0.13362118E-01 0.84710343E+02</pdfrwt>
<pdfrwt beam="2">  1       -1 0.31776852E-02 0.84710343E+02</pdfrwt>
<totfact> 0.14617216E+05</totfact>
</mgrwt>
</event>
<event>
 8    1  0.2561077E-024  0.8045592E+02  0.7818608E-02  0.1327763E+00
         -1   -1    0    0    0  501 -0.00000000000E+00  0.00000000000E+00  0.14049420342E+03  0.14049420351E+03  0.50400000000E-02 0.  1.
          2   -1    0    0  501    0  0.00000000000E+00 -0.00000000000E+00 -0.11518545840E+02  0.11518546123E+02  0.25500000000E-02 0. -1.
         24    2    1    2    0    0  0.00000000000E+00  0.00000000000E+00  0.12897565758E+03  0.15201274963E+03  0.80455924598E+02 0.  0.
         66    2    3    3    0    0  0.70296050318E+01 -0.20808544057E+02  0.90602105734E+00  0.22073325994E+02  0.19999984046E+01 0.  0.
        -13    1    3    3    0    0 -0.70296050318E+01  0.20808544057E+02  0.12806963652E+03  0.12993942364E+03  0.10566000000E+00 0.  1.
         13    1    4    4    0    0  0.49630537872E+01 -0.15481623776E+02  0.10423210610E+00  0.16258370336E+02  0.10566000000E+00 0. -1.
        -13    1    4    4    0    0  0.17013185688E+00 -0.11842839143E+01  0.10158655948E+00  0.12053867027E+01  0.10566000000E+00 0.  1.
         14    1    4    4    0    0  0.18964193877E+01 -0.41426363666E+01  0.70020239175E+00  0.46095689548E+01  0.00000000000E+00 0. -1.
<mgrwt>
<rscale>  0 0.80455925E+02</rscale>
<asrwt>0</asrwt>
<pdfrwt beam="1">  1        2 0.17720840E-02 0.80455925E+02</pdfrwt>
<pdfrwt beam="2">  1       -1 0.21614493E-01 0.80455925E+02</pdfrwt>
<totfact> 0.10809676E+05</totfact>
</mgrwt>
</event>
<event>
 8    1  0.2561077E-024  0.7861873E+02  0.7818608E-02  0.1333018E+00
         -1   -1    0    0    0  501 -0.00000000000E+00  0.00000000000E+00  0.40787731098E+01  0.40787762237E+01  0.50400000000E-02 0.  1.
          2   -1    0    0  501    0  0.00000000000E+00 -0.00000000000E+00 -0.37884565759E+03  0.37884565760E+03  0.25500000000E-02 0. -1.
         24    2    1    2    0    0  0.00000000000E+00  0.00000000000E+00 -0.37476688448E+03  0.38292443382E+03  0.78618727509E+02 0.  0.
         66    2    3    3    0    0 -0.89083583589E+01  0.38246950260E+02 -0.19245494412E+03  0.19643088751E+03  0.20000000626E+01 0.  0.
        -13    1    3    3    0    0  0.89083583589E+01 -0.38246950260E+02 -0.18231194036E+03  0.18649354631E+03  0.10566000000E+00 0.  1.
         13    1    4    4    0    0 -0.59314152398E+01  0.28773780292E+02 -0.14423952636E+03  0.14720110138E+03  0.10566000000E+00 0. -1.
        -13    1    4    4    0    0 -0.10898106475E+01  0.29026896123E+01 -0.14439033288E+02  0.14768552419E+02  0.10566000000E+00 0.  1.
         14    1    4    4    0    0 -0.18871324717E+01  0.65704803563E+01 -0.33776384476E+02  0.34461233718E+02  0.00000000000E+00 0. -1.
<mgrwt>
<rscale>  0 0.78618728E+02</rscale>
<asrwt>0</asrwt>
<pdfrwt beam="1">  1        2 0.58283920E-01 0.78618728E+02</pdfrwt>
<pdfrwt beam="2">  1       -1 0.62750409E-03 0.78618728E+02</pdfrwt>
<totfact> 0.29008330E+05</totfact>
</mgrwt>
</event>
<event>
 8    1  0.2561077E-024  0.7492362E+02  0.7818608E-02  0.1344108E+00
         -1   -1    0    0    0  501 -0.00000000000E+00  0.00000000000E+00  0.32271758412E+01  0.32271797768E+01  0.50400000000E-02 0.  1.
          2   -1    0    0  501    0  0.00000000000E+00 -0.00000000000E+00 -0.43486510990E+03  0.43486510991E+03  0.25500000000E-02 0. -1.
         24    2    1    2    0    0  0.17763568394E-14  0.00000000000E+00 -0.43163793406E+03  0.43809228969E+03  0.74923615518E+02 0.  0.
         66    2    3    3    0    0 -0.86373122236E+01 -0.32010291517E+02 -0.31760580192E+03  0.31933792029E+03  0.19999995309E+01 0.  0.
        -13    1    3    3    0    0  0.86373122236E+01  0.32010291517E+02 -0.11403213214E+03  0.11875436939E+03  0.10566000000E+00 0.  1.
         13    1    4    4    0    0 -0.43448703005E+01 -0.16495948979E+02 -0.16104958545E+03  0.16195053062E+03  0.10566000000E+00 0. -1.
        -13    1    4    4    0    0 -0.39368136430E+01 -0.12783468425E+02 -0.13286811007E+03  0.13353973717E+03  0.10566000000E+00 0.  1.
        -14    1    4    4    0    0 -0.35562828011E+00 -0.27308741130E+01 -0.23688106403E+02  0.23847652502E+02  0.00000000000E+00 0.  1.
<mgrwt>
<rscale>  0 0.74923616E+02</rscale>
<asrwt>0</asrwt>
<pdfrwt beam="1">  1        2 0.66902278E-01 0.74923616E+02</pdfrwt>
<pdfrwt beam="2">  1       -1 0.49648924E-03 0.74923616E+02</pdfrwt>
<totfact> 0.34487068E+05</totfact>
</mgrwt>
</event>
<event>
 8    1  0.2561077E-024  0.7765074E+02  0.7818608E-02  0.1335854E+00
          2   -1    0    0  501    0  0.00000000000E+00  0.00000000000E+00  0.38045472784E+02  0.38045472869E+02  0.25500000000E-02 0. -1.
         -1   -1    0    0    0  501 -0.00000000000E+00 -0.00000000000E+00 -0.39621251133E+02  0.39621251454E+02  0.50400000000E-02 0.  1.
         24    2    1    2    0    0  0.00000000000E+00  0.00000000000E+00 -0.15757783494E+01  0.77666724323E+02  0.77650737212E+02 0.  0.
         66    2    3    3    0    0  0.33118407046E+02  0.14734499741E+02 -0.14628526199E+02  0.39139853721E+02  0.20000006765E+01 0.  0.
        -13    1    3    3    0    0 -0.33118407046E+02 -0.14734499741E+02  0.13052747850E+02  0.38526870601E+02  0.10566000000E+00 0.  1.
         13    1    4    4    0    0  0.22910905492E+02  0.97833194872E+01 -0.10821478653E+02  0.27161341920E+02  0.10566000000E+00 0. -1.
        -13    1    4    4    0    0  0.59338091938E+01  0.31133439133E+01 -0.23935493635E+01  0.71164067100E+01  0.10566000000E+00 0.  1.
         14    1    4    4    0    0  0.42736923602E+01  0.18378363401E+01 -0.14134981827E+01  0.48621050909E+01  0.00000000000E+00 0. -1.
<mgrwt>
<rscale>  0 0.77650737E+02</rscale>
<asrwt>0</asrwt>
<pdfrwt beam="1">  1        2 0.58531497E-02 0.77650737E+02</pdfrwt>
<pdfrwt beam="2">  1       -1 0.60955771E-02 0.77650737E+02</pdfrwt>
<totfact> 0.15321703E+05</totfact>
</mgrwt>
</event>
<event>
 8    1  0.2561077E-024  0.7872166E+02  0.7818608E-02  0.1332719E+00
         -1   -1    0    0    0  501 -0.00000000000E+00  0.00000000000E+00  0.44329176981E+01  0.44329205632E+01  0.50400000000E-02 0.  1.
          2   -1    0    0  501    0  0.00000000000E+00 -0.00000000000E+00 -0.34949319152E+03  0.34949319153E+03  0.25500000000E-02 0. -1.
         24    2    1    2    0    0  0.00000000000E+00  0.00000000000E+00 -0.34506027382E+03  0.35392611210E+03  0.78721663162E+02 0.  0.
         66    2    3    3    0    0  0.13330650077E+02  0.16466415042E+02 -0.32164684994E+03  0.32235003511E+03  0.20000005958E+01 0.  0.
        -13    1    3    3    0    0 -0.13330650077E+02 -0.16466415042E+02 -0.23413423884E+02  0.31576076986E+02  0.10566000000E+00 0.  1.
         13    1    4    4    0    0  0.23476900385E+01  0.21082097488E+01 -0.50674386722E+02  0.50772638601E+02  0.10566000000E+00 0. -1.
        -13    1    4    4    0    0  0.11819776543E+01  0.11155510102E+01 -0.27449109454E+02  0.27497387132E+02  0.10566000000E+00 0.  1.
        -14    1    4    4    0    0  0.98009823845E+01  0.13242654283E+02 -0.24352335376E+03  0.24408000938E+03  0.00000000000E+00 0.  1.
<mgrwt>
<rscale>  0 0.78721663E+02</rscale>
<asrwt>0</asrwt>
<pdfrwt beam="1">  1        2 0.53768162E-01 0.78721663E+02</pdfrwt>
<pdfrwt beam="2">  1       -1 0.68198783E-03 0.78721663E+02</pdfrwt>
<totfact> 0.28094246E+05</totfact>
</mgrwt>
</event>
<event>
 8    1  0.2561077E-024  0.7626549E+02  0.7818608E-02  0.1339996E+00
          2   -1    0    0  501    0  0.00000000000E+00  0.00000000000E+00  0.12637088805E+04  0.12637088805E+04  0.25500000000E-02 0. -1.
         -1   -1    0    0    0  501 -0.00000000000E+00 -0.00000000000E+00 -0.11506599134E+01  0.11506709512E+01  0.50400000000E-02 0.  1.
         24    2    1    2    0    0  0.22204460493E-15  0.00000000000E+00  0.12625582206E+04  0.12648595514E+04  0.76265487167E+02 0.  0.
         66    2    3    3    0    0 -0.18369919979E+01 -0.17992168068E+02  0.11879904047E+04  0.11881297464E+04  0.20000009412E+01 0.  0.
        -13    1    3    3    0    0  0.18369919979E+01  0.17992168068E+02  0.74567815920E+02  0.76729805073E+02  0.10566000000E+00 0.  1.
         13    1    4    4    0    0 -0.85359899097E-01 -0.60912493889E+01  0.35999578773E+03  0.36004734266E+03  0.10566000000E+00 0.  1.
        -13    1    4    4    0    0 -0.78091259820E+00 -0.78866881201E+01  0.53803737147E+03  0.53809574792E+03  0.10566000000E+00 0. -1.
        -14    1    4    4    0    0 -0.97071950063E+00 -0.40142305593E+01  0.28995724546E+03  0.28998665580E+03  0.00000000000E+00 0.  1.
<mgrwt>
<rscale>  0 0.76265487E+02</rscale>
<asrwt>0</asrwt>
<pdfrwt beam="1">  1        2 0.19441716E+00 0.76265487E+02</pdfrwt>
<pdfrwt beam="2">  1       -1 0.17702508E-03 0.76265487E+02</pdfrwt>
<totfact> 0.39378350E+05</totfact>
</mgrwt>
</event>
<event>
 8    1  0.2561077E-024  0.7968219E+02  0.7818608E-02  0.1329956E+00
          2   -1    0    0  501    0  0.00000000000E+00  0.00000000000E+00  0.36136887894E+02  0.36136887984E+02  0.25500000000E-02 0. -1.
         -1   -1    0    0    0  501 -0.00000000000E+00 -0.00000000000E+00 -0.43925004965E+02  0.43925005254E+02  0.50400000000E-02 0.  1.
         24    2    1    2    0    0  0.00000000000E+00  0.00000000000E+00 -0.77881170715E+01  0.80061893238E+02  0.79682193628E+02 0.  0.
         66    2    3    3    0    0  0.35466466281E+02  0.76744073692E+00  0.14268605707E+02  0.38289062600E+02  0.20000025499E+01 0.  0.
        -13    1    3    3    0    0 -0.35466466281E+02 -0.76744073692E+00 -0.22056722778E+02  0.41772830638E+02  0.10566000000E+00 0.  1.
         13    1    4    4    0    0  0.22439758658E+02  0.91744813557E-01  0.86231219029E+01  0.24039978809E+02  0.10566000000E+00 0. -1.
        -13    1    4    4    0    0  0.24966142386E+01  0.74349029086E-01  0.67598541609E+00  0.25897356531E+01  0.10566000000E+00 0.  1.
        -14    1    4    4    0    0  0.10530093385E+02  0.60134689428E+00  0.49694983879E+01  0.11659348138E+02  0.00000000000E+00 0.  1.
<mgrwt>
<rscale>  0 0.79682194E+02</rscale>
<asrwt>0</asrwt>
<pdfrwt beam="1">  1        2 0.55595212E-02 0.79682194E+02</pdfrwt>
<pdfrwt beam="2">  1       -1 0.67576931E-02 0.79682194E+02</pdfrwt>
<totfact> 0.14118702E+05</totfact>
</mgrwt>
</event>
<event>
 8    1  0.2561077E-024  0.7796872E+02  0.7818608E-02  0.1334917E+00
          2   -1    0    0  501    0  0.00000000000E+00  0.00000000000E+00  0.69225662177E+03  0.69225662178E+03  0.25500000000E-02 0. -1.
         -1   -1    0    0    0  501 -0.00000000000E+00 -0.00000000000E+00 -0.21953971338E+01  0.21954029189E+01  0.50400000000E-02 0.  1.
         24    2    1    2    0    0 -0.35527136788E-14  0.00000000000E+00  0.69006122464E+03  0.69445202470E+03  0.77968717154E+02 0.  0.
         66    2    3    3    0    0  0.28246060057E+02 -0.81434590833E+01  0.57296817992E+03  0.57372527488E+03  0.20000014313E+01 0.  0.
        -13    1    3    3    0    0 -0.28246060057E+02  0.81434590833E+01  0.11709304472E+03  0.12072674981E+03  0.10566000000E+00 0.  1.
         13    1    4    4    0    0  0.14190459825E+02 -0.39119396584E+01  0.28522732825E+03  0.28560691932E+03  0.10566000000E+00 0. -1.
        -13    1    4    4    0    0  0.10522714176E+02 -0.37596619974E+01  0.22137311529E+03  0.22165497944E+03  0.10566000000E+00 0.  1.
        -14    1    4    4    0    0  0.35328860563E+01 -0.47185742752E+00  0.66367736381E+02  0.66463376123E+02  0.00000000000E+00 0.  1.
<mgrwt>
<rscale>  0 0.77968717E+02</rscale>
<asrwt>0</asrwt>
<pdfrwt beam="1">  1        2 0.10650116E+00 0.77968717E+02</pdfrwt>
<pdfrwt beam="2">  1       -1 0.33775341E-03 0.77968717E+02</pdfrwt>
<totfact> 0.35669995E+05</totfact>
</mgrwt>
</event>
<event>
 8    1  0.2561077E-024  0.7847707E+02  0.7818608E-02  0.1333430E+00
         -1   -1    0    0    0  501 -0.00000000000E+00  0.00000000000E+00  0.19774114235E+02  0.19774114877E+02  0.50400000000E-02 0.  1.
          2   -1    0    0  501    0  0.00000000000E+00 -0.00000000000E+00 -0.77862540003E+02  0.77862540045E+02  0.25500000000E-02 0. -1.
         24    2    1    2    0    0  0.00000000000E+00  0.00000000000E+00 -0.58088425769E+02  0.97636654922E+02  0.78477074207E+02 0.  0.
         66    2    3    3    0    0  0.15484674486E+01 -0.33036244980E+02 -0.55274793371E+02  0.64444503362E+02  0.19999993962E+01 0.  0.
        -13    1    3    3    0    0 -0.15484674486E+01  0.33036244980E+02 -0.28136323979E+01  0.33192151560E+02  0.10566000000E+00 0.  1.
         13    1    4    4    0    0  0.10289016300E+01 -0.24426175100E+02 -0.39400790691E+02  0.46369495789E+02  0.10566000000E+00 0. -1.
        -13    1    4    4    0    0  0.16135223758E+00 -0.70462754855E+00 -0.13194676033E+01  0.15082086456E+01  0.10566000000E+00 0.  1.
         14    1    4    4    0    0  0.35821358096E+00 -0.79054423319E+01 -0.14554535077E+02  0.16566798928E+02  0.00000000000E+00 0. -1.
<mgrwt>
<rscale>  0 0.78477074E+02</rscale>
<asrwt>0</asrwt>
<pdfrwt beam="1">  1        2 0.11978852E-01 0.78477074E+02</pdfrwt>
<pdfrwt beam="2">  1       -1 0.30421715E-02 0.78477074E+02</pdfrwt>
<totfact> 0.17461902E+05</totfact>
</mgrwt>
</event>
<event>
 8    1  0.2561077E-024  0.8192176E+02  0.7818608E-02  0.1323685E+00
         -1   -1    0    0    0  501 -0.00000000000E+00  0.00000000000E+00  0.69242114786E+02  0.69242114970E+02  0.50400000000E-02 0.  1.
          2   -1    0    0  501    0  0.00000000000E+00 -0.00000000000E+00 -0.24230828397E+02  0.24230828532E+02  0.25500000000E-02 0. -1.
         24    2    1    2    0    0  0.00000000000E+00 -0.17763568394E-14  0.45011286389E+02  0.93472943501E+02  0.81921763069E+02 0.  0.
         66    2    3    3    0    0  0.14206157358E+02 -0.13476788591E+02 -0.18499191604E+02  0.27012197820E+02  0.20000008663E+01 0.  0.
        -13    1    3    3    0    0 -0.14206157358E+02  0.13476788591E+02  0.63510477993E+02  0.66460745681E+02  0.10566000000E+00 0.  1.
         13    1    4    4    0    0  0.10420681736E+02 -0.10350771826E+02 -0.14149554915E+02  0.20394856057E+02  0.10566000000E+00 0. -1.
        -13    1    4    4    0    0  0.37793552714E+01 -0.31271719143E+01 -0.43856052435E+01  0.65808379281E+01  0.10566000000E+00 0. -1.
         14    1    4    4    0    0  0.61203509932E-02  0.11551496897E-02  0.35968554716E-01  0.36503835353E-01  0.00000000000E+00 0. -1.
<mgrwt>
<rscale>  0 0.81921763E+02</rscale>
<asrwt>0</asrwt>
<pdfrwt beam="1">  1        2 0.37278198E-02 0.81921763E+02</pdfrwt>
<pdfrwt beam="2">  1       -1 0.10652633E-01 0.81921763E+02</pdfrwt>
<totfact> 0.12058536E+05</totfact>
</mgrwt>
</event>
<event>
 8    1  0.2561077E-024  0.7700794E+02  0.7818608E-02  0.1337763E+00
         -1   -1    0    0    0  501 -0.00000000000E+00  0.00000000000E+00  0.50512085869E+01  0.50512111013E+01  0.50400000000E-02 0.  1.
          2   -1    0    0  501    0  0.00000000000E+00 -0.00000000000E+00 -0.29350509719E+03  0.29350509720E+03  0.25500000000E-02 0. -1.
         24    2    1    2    0    0  0.00000000000E+00 -0.35527136788E-14 -0.28845388860E+03  0.29855630830E+03  0.77007943596E+02 0.  0.
         66    2    3    3    0    0 -0.92632198854E+01  0.28297170070E+02 -0.23881464394E+03  0.24067191618E+03  0.20000003101E+01 0.  0.
        -13    1    3    3    0    0  0.92632198854E+01 -0.28297170070E+02 -0.49639244669E+02  0.57884392127E+02  0.10566000000E+00 0.  1.
         13    1    4    4    0    0 -0.34243901534E+01  0.11576949717E+02 -0.93140857124E+02  0.93920086470E+02  0.10566000000E+00 0. -1.
        -13    1    4    4    0    0 -0.48823627093E+01  0.12327425666E+02 -0.10878866874E+03  0.10959374298E+03  0.10566000000E+00 0.  1.
        -14    1    4    4    0    0 -0.95646702277E+00  0.43927946875E+01 -0.36885118067E+02  0.37158086726E+02  0.00000000000E+00 0.  1.
<mgrwt>
<rscale>  0 0.77007944E+02</rscale>
<asrwt>0</asrwt>
<pdfrwt beam="1">  1        2 0.45154617E-01 0.77007944E+02</pdfrwt>
<pdfrwt beam="2">  1       -1 0.77710944E-03 0.77007944E+02</pdfrwt>
<totfact> 0.27947098E+05</totfact>
</mgrwt>
</event>
<event>
 8    1  0.2561077E-024  0.7795591E+02  0.7818608E-02  0.1334954E+00
          2   -1    0    0  501    0  0.00000000000E+00  0.00000000000E+00  0.98961380125E+03  0.98961380125E+03  0.25500000000E-02 0. -1.
         -1   -1    0    0    0  501 -0.00000000000E+00 -0.00000000000E+00 -0.15352220102E+01  0.15352302831E+01  0.50400000000E-02 0.  1.
         24    2    1    2    0    0  0.35527136788E-14  0.00000000000E+00  0.98807857924E+03  0.99114903154E+03  0.77955910380E+02 0.  0.
         66    2    3    3    0    0  0.26644157571E+02 -0.62479089658E+01  0.84678587954E+03  0.84723035432E+03  0.19999985876E+01 0.  0.
        -13    1    3    3    0    0 -0.26644157571E+02  0.62479089658E+01  0.14129269970E+03  0.14391867722E+03  0.10566000000E+00 0.  1.
         13    1    4    4    0    0  0.89928225403E+01 -0.29703962670E+01  0.29981301960E+03  0.29996258433E+03  0.10566000000E+00 0. -1.
        -13    1    4    4    0    0  0.50549234052E+01 -0.91863106208E+00  0.14853334041E+03  0.14862220733E+03  0.10566000000E+00 0.  1.
         14    1    4    4    0    0  0.12596411626E+02 -0.23588816367E+01  0.39843951953E+03  0.39864556266E+03  0.00000000000E+00 0. -1.
<mgrwt>
<rscale>  0 0.77955910E+02</rscale>
<asrwt>0</asrwt>
<pdfrwt beam="1">  1        2 0.15224850E+00 0.77955910E+02</pdfrwt>
<pdfrwt beam="2">  1       -1 0.23618830E-03 0.77955910E+02</pdfrwt>
<totfact> 0.37658737E+05</totfact>
</mgrwt>
</event>
<event>
 8    1  0.2561077E-024  0.7925390E+02  0.7818608E-02  0.1331182E+00
          2   -1    0    0  501    0  0.00000000000E+00  0.00000000000E+00  0.27570859079E+03  0.27570859080E+03  0.25500000000E-02 0. -1.
         -1   -1    0    0    0  501 -0.00000000000E+00 -0.00000000000E+00 -0.56954876825E+01  0.56954899125E+01  0.50400000000E-02 0.  1.
         24    2    1    2    0    0  0.71054273576E-14  0.88817841970E-15  0.27001310311E+03  0.28140408072E+03  0.79253900806E+02 0.  0.
         66    2    3    3    0    0  0.28973385861E+02  0.59142824148E+01  0.22862077756E+03  0.23053393620E+03  0.19999957342E+01 0.  0.
        -13    1    3    3    0    0 -0.28973385861E+02 -0.59142824148E+01  0.41392325553E+02  0.50870144520E+02  0.10566000000E+00 0.  1.
         13    1    4    4    0    0  0.19618313602E+02  0.34996541882E+01  0.15546938395E+03  0.15674139950E+03  0.10566000000E+00 0. -1.
        -13    1    4    4    0    0  0.16292078152E+01  0.42610908163E+00  0.15562450701E+02  0.15653655258E+02  0.10566000000E+00 0.  1.
         14    1    4    4    0    0  0.77258644443E+01  0.19885191449E+01  0.57588942905E+02  0.58138881436E+02  0.00000000000E+00 0. -1.
<mgrwt>
<rscale>  0 0.79253901E+02</rscale>
<asrwt>0</asrwt>
<pdfrwt beam="1">  1        2 0.42416709E-01 0.79253901E+02</pdfrwt>
<pdfrwt beam="2">  1       -1 0.87622898E-03 0.79253901E+02</pdfrwt>
<totfact> 0.25341864E+05</totfact>
</mgrwt>
</event>
<event>
 8    1  0.2561077E-024  0.7635452E+02  0.7818608E-02  0.1339727E+00
          2   -1    0    0  501    0  0.00000000000E+00  0.00000000000E+00  0.15202246901E+03  0.15202246903E+03  0.25500000000E-02 0. -1.
         -1   -1    0    0    0  501 -0.00000000000E+00 -0.00000000000E+00 -0.95874178482E+01  0.95874191730E+01  0.50400000000E-02 0.  1.
         24    2    1    2    0    0 -0.35527136788E-14  0.00000000000E+00  0.14243505116E+03  0.16160988821E+03  0.76354516343E+02 0.  0.
         66    2    3    3    0    0 -0.18130397784E+02 -0.23488306884E+02  0.12202369006E+03  0.12559535350E+03  0.20000000805E+01 0.  0.
        -13    1    3    3    0    0  0.18130397784E+02  0.23488306884E+02  0.20411361102E+02  0.36014534707E+02  0.10566000000E+00 0.  1.
         13    1    4    4    0    0 -0.34755250327E+01 -0.55627274070E+01  0.26815973286E+02  0.27606716533E+02  0.10566000000E+00 0. -1.
        -13    1    4    4    0    0 -0.10274607172E+01 -0.11587664249E+01  0.54244211184E+01  0.56421559406E+01  0.10566000000E+00 0.  1.
         14    1    4    4    0    0 -0.13627412034E+02 -0.16766813052E+02  0.89783295657E+02  0.92346481025E+02  0.00000000000E+00 0. -1.
<mgrwt>
<rscale>  0 0.76354516E+02</rscale>
<asrwt>0</asrwt>
<pdfrwt beam="1">  1        2 0.23388072E-01 0.76354516E+02</pdfrwt>
<pdfrwt beam="2">  1       -1 0.14749875E-02 0.76354516E+02</pdfrwt>
<totfact> 0.22759137E+05</totfact>
</mgrwt>
</event>
<event>
 8    1  0.2561077E-024  0.7972447E+02  0.7818608E-02  0.1329835E+00
          2   -1    0    0  501    0  0.00000000000E+00  0.00000000000E+00  0.19802133068E+02  0.19802133232E+02  0.25500000000E-02 0. -1.
         -1   -1    0    0    0  501 -0.00000000000E+00 -0.00000000000E+00 -0.80243759326E+02  0.80243759485E+02  0.50400000000E-02 0.  1.
         24    2    1    2    0    0  0.00000000000E+00  0.00000000000E+00 -0.60441626259E+02  0.10004589272E+03  0.79724465910E+02 0.  0.
         66    2    3    3    0    0 -0.17697391427E+02 -0.29061824902E+02 -0.42417633433E+01  0.34347924059E+02  0.20000002453E+01 0.  0.
        -13    1    3    3    0    0  0.17697391427E+02  0.29061824902E+02 -0.56199862916E+02  0.65697968657E+02  0.10566000000E+00 0.  1.
         13    1    4    4    0    0 -0.14135550258E+01 -0.29077302115E+01 -0.56960959537E+00  0.32846083360E+01  0.10566000000E+00 0.  1.
        -13    1    4    4    0    0 -0.55527851483E+01 -0.95571719857E+01 -0.68486215757E+00  0.11074888689E+02  0.10566000000E+00 0. -1.
         14    1    4    4    0    0 -0.10731051253E+02 -0.16596922704E+02 -0.29872915903E+01  0.19988427034E+02  0.00000000000E+00 0. -1.
<mgrwt>
<rscale>  0 0.79724466E+02</rscale>
<asrwt>0</asrwt>
<pdfrwt beam="1">  1        2 0.30464821E-02 0.79724466E+02</pdfrwt>
<pdfrwt beam="2">  1       -1 0.12345194E-01 0.79724466E+02</pdfrwt>
<totfact> 0.12514191E+05</totfact>
</mgrwt>
</event>
<event>
 8    1  0.2561077E-024  0.8071453E+02  0.7818608E-02  0.1327036E+00
          2   -1    0    0  501    0  0.00000000000E+00  0.00000000000E+00  0.18314334992E+04  0.18314334992E+04  0.25500000000E-02 0. -1.
         -1   -1    0    0    0  501 -0.00000000000E+00 -0.00000000000E+00 -0.88930116604E+00  0.88931544770E+00  0.50400000000E-02 0.  1.
         24    2    1    2    0    0  0.00000000000E+00 -0.11102230246E-15  0.18305441980E+04  0.18323228146E+04  0.80714534807E+02 0.  0.
         66    2    3    3    0    0  0.18056375716E+02 -0.88491534308E+00  0.17343034153E+04  0.17343987870E+04  0.20000017063E+01 0.  0.
        -13    1    3    3    0    0 -0.18056375716E+02  0.88491534308E+00  0.96240782673E+02  0.97924027657E+02  0.10566000000E+00 0.  1.
         13    1    4    4    0    0  0.27625788923E+01 -0.53419768907E+00  0.28721642918E+03  0.28723023094E+03  0.10566000000E+00 0. -1.
        -13    1    4    4    0    0  0.66250471654E+01  0.65696956750E-01  0.56392124718E+03  0.56396017568E+03  0.10566000000E+00 0.  1.
        -14    1    4    4    0    0  0.86687496580E+01 -0.41641461076E+00  0.88316573897E+03  0.88320838034E+03  0.00000000000E+00 0.  1.
<mgrwt>
<rscale>  0 0.80714535E+02</rscale>
<asrwt>0</asrwt>
<pdfrwt beam="1">  1        2 0.28175631E+00 0.80714535E+02</pdfrwt>
<pdfrwt beam="2">  1       -1 0.13681797E-03 0.80714535E+02</pdfrwt>
<totfact> 0.29166972E+05</totfact>
</mgrwt>
</event>
<event>
 8    1  0.2561077E-024  0.8223323E+02  0.7818608E-02  0.1322831E+00
         -1   -1    0    0    0  501 -0.00000000000E+00  0.00000000000E+00  0.10746043293E+03  0.10746043305E+03  0.50400000000E-02 0.  1.
          2   -1    0    0  501    0  0.00000000000E+00 -0.00000000000E+00 -0.15732077272E+02  0.15732077479E+02  0.25500000000E-02 0. -1.
         24    2    1    2    0    0  0.00000000000E+00 -0.17763568394E-14  0.91728355662E+02  0.12319251053E+03  0.82233225758E+02 0.  0.
         66    2    3    3    0    0 -0.33084074386E+02 -0.15662243271E+02  0.17916330028E+02  0.40802655970E+02  0.20000025825E+01 0.  0.
        -13    1    3    3    0    0  0.33084074386E+02  0.15662243271E+02  0.73812025635E+02  0.82389854561E+02  0.10566000000E+00 0.  1.
         13    1    4    4    0    0 -0.80403890384E+01 -0.36573845096E+01  0.39753525769E+01  0.96870485436E+01  0.10566000000E+00 0. -1.
        -13    1    4    4    0    0 -0.14389016240E+02 -0.68716595800E+01  0.71254652425E+01  0.17465592251E+02  0.10566000000E+00 0.  1.
         14    1    4    4    0    0 -0.10654669108E+02 -0.51331991812E+01  0.68155122081E+01  0.13650015176E+02  0.00000000000E+00 0. -1.
<mgrwt>
<rscale>  0 0.82233226E+02</rscale>
<asrwt>0</asrwt>
<pdfrwt beam="1">  1        2 0.24203196E-02 0.82233226E+02</pdfrwt>
<pdfrwt beam="2">  1       -1 0.16532374E-01 0.82233226E+02</pdfrwt>
<totfact> 0.10893387E+05</totfact>
</mgrwt>
</event>
<event>
 8    1  0.2561077E-024  0.8329335E+02  0.7818608E-02  0.1319957E+00
         -1   -1    0    0    0  501 -0.00000000000E+00  0.00000000000E+00  0.63730013024E+02  0.63730013223E+02  0.50400000000E-02 0.  1.
          2   -1    0    0  501    0  0.00000000000E+00 -0.00000000000E+00 -0.27215521715E+02  0.27215521834E+02  0.25500000000E-02 0. -1.
         24    2    1    2    0    0  0.00000000000E+00  0.00000000000E+00  0.36514491309E+02  0.90945535057E+02  0.83293350703E+02 0.  0.
         66    2    3    3    0    0 -0.22667947140E+01 -0.36647007988E+02  0.39672271746E+02  0.54092797111E+02  0.20000002679E+01 0.  0.
        -13    1    3    3    0    0  0.22667947140E+01  0.36647007988E+02 -0.31577804374E+01  0.36852737946E+02  0.10566000000E+00 0.  1.
         13    1    4    4    0    0 -0.20135238943E+01 -0.31241268737E+02  0.33232953216E+02  0.45656450741E+02  0.10566000000E+00 0. -1.
        -13    1    4    4    0    0 -0.33971347642E+00 -0.53080245658E+01  0.62810729512E+01  0.82312557663E+01  0.10566000000E+00 0.  1.
        -14    1    4    4    0    0  0.86442656703E-01 -0.97714685541E-01  0.15824557859E+00  0.20509060391E+00  0.00000000000E+00 0.  1.
<mgrwt>
<rscale>  0 0.83293351E+02</rscale>
<asrwt>0</asrwt>
<pdfrwt beam="1">  1        2 0.41870034E-02 0.83293351E+02</pdfrwt>
<pdfrwt beam="2">  1       -1 0.98046173E-02 0.83293351E+02</pdfrwt>
<totfact> 0.11776222E+05</totfact>
</mgrwt>
</event>
<event>
 8    1  0.2561077E-024  0.7736291E+02  0.7818608E-02  0.1336706E+00
         -1   -1    0    0    0  501 -0.00000000000E+00  0.00000000000E+00  0.30694813291E+01  0.30694854669E+01  0.50400000000E-02 0.  1.
          2   -1    0    0  501    0  0.00000000000E+00 -0.00000000000E+00 -0.48746152470E+03  0.48746152471E+03  0.25500000000E-02 0. -1.
         24    2    1    2    0    0  0.00000000000E+00  0.00000000000E+00 -0.48439204337E+03  0.49053101017E+03  0.77362912697E+02 0.  0.
         66    2    3    3    0    0  0.18365133428E+02 -0.77435914931E+00 -0.45797419616E+03  0.45834729421E+03  0.20000009636E+01 0.  0.
        -13    1    3    3    0    0 -0.18365133428E+02  0.77435914931E+00 -0.26417847212E+02  0.32183715964E+02  0.10566000000E+00 0.  1.
         13    1    4    4    0    0  0.16186486389E+02 -0.68805793271E+00 -0.38906080758E+03  0.38939799554E+03  0.10566000000E+00 0. -1.
        -13    1    4    4    0    0  0.32888710615E+00  0.11378874181E+00 -0.11949432778E+02  0.11954966430E+02  0.10566000000E+00 0.  1.
         14    1    4    4    0    0  0.18497599324E+01 -0.20008995841E+00 -0.56963955797E+02  0.56994332243E+02  0.00000000000E+00 0. -1.
<mgrwt>
<rscale>  0 0.77362913E+02</rscale>
<asrwt>0</asrwt>
<pdfrwt beam="1">  1        2 0.74994019E-01 0.77362913E+02</pdfrwt>
<pdfrwt beam="2">  1       -1 0.47222860E-03 0.77362913E+02</pdfrwt>
<totfact> 0.32957344E+05</totfact>
</mgrwt>
</event>
<event>
 8    1  0.2561077E-024  0.8685725E+02  0.7818608E-02  0.1310646E+00
         -1   -1    0    0    0  501 -0.00000000000E+00  0.00000000000E+00  0.16679460530E+02  0.16679461292E+02  0.50400000000E-02 0.  1.
          2   -1    0    0  501    0  0.00000000000E+00 -0.00000000000E+00 -0.11307593593E+03  0.11307593596E+03  0.25500000000E-02 0. -1.
         24    2    1    2    0    0  0.00000000000E+00  0.00000000000E+00 -0.96396475401E+02  0.12975539725E+03  0.86857254424E+02 0.  0.
         66    2    3    3    0    0 -0.26855498555E+02 -0.24641541998E+02 -0.83437058295E+02  0.91072312441E+02  0.20000004039E+01 0.  0.
        -13    1    3    3    0    0  0.26855498555E+02  0.24641541998E+02 -0.12959417105E+02  0.38683084810E+02  0.10566000000E+00 0.  1.
         13    1    4    4    0    0 -0.12774073466E+02 -0.10644823720E+02 -0.38819344221E+02  0.42230816648E+02  0.10566000000E+00 0.  1.
        -13    1    4    4    0    0 -0.12483231011E+02 -0.12125708398E+02 -0.38745586592E+02  0.42474645437E+02  0.10566000000E+00 0. -1.
        -14    1    4    4    0    0 -0.15981940778E+01 -0.18710098807E+01 -0.58721274823E+01  0.63668503558E+01  0.00000000000E+00 0.  1.
<mgrwt>
<rscale>  0 0.86857254E+02</rscale>
<asrwt>0</asrwt>
<pdfrwt beam="1">  1        2 0.17396297E-01 0.86857254E+02</pdfrwt>
<pdfrwt beam="2">  1       -1 0.25660710E-02 0.86857254E+02</pdfrwt>
<totfact> 0.14724799E+05</totfact>
</mgrwt>
</event>
<event>
 8    1  0.2561077E-024  0.8049833E+02  0.7818608E-02  0.1327643E+00
         -1   -1    0    0    0  501 -0.00000000000E+00  0.00000000000E+00  0.45669463554E+02  0.45669463832E+02  0.50400000000E-02 0.  1.
          2   -1    0    0  501    0  0.00000000000E+00 -0.00000000000E+00 -0.35472180077E+02  0.35472180169E+02  0.25500000000E-02 0. -1.
         24    2    1    2    0    0  0.00000000000E+00  0.35527136788E-14  0.10197283477E+02  0.81141644000E+02  0.80498334149E+02 0.  0.
         66    2    3    3    0    0 -0.15616032874E+02 -0.29491335791E+02 -0.17536353501E+02  0.37750802184E+02  0.20000004904E+01 0.  0.
        -13    1    3    3    0    0  0.15616032874E+02  0.29491335791E+02  0.27733636977E+02  0.43390841816E+02  0.10566000000E+00 0.  1.
         13    1    4    4    0    0 -0.10609092414E+01 -0.14863660400E+01 -0.89194370462E+00  0.20350774018E+01  0.10566000000E+00 0. -1.
        -13    1    4    4    0    0 -0.73284422746E+01 -0.12419624542E+02 -0.76086316166E+01  0.16305078321E+02  0.10566000000E+00 0. -1.
         14    1    4    4    0    0 -0.72266813582E+01 -0.15585345209E+02 -0.90357781794E+01  0.19410646461E+02  0.00000000000E+00 0. -1.
<mgrwt>
<rscale>  0 0.80498334E+02</rscale>
<asrwt>0</asrwt>
<pdfrwt beam="1">  1        2 0.54572585E-02 0.80498334E+02</pdfrwt>
<pdfrwt beam="2">  1       -1 0.70260713E-02 0.80498334E+02</pdfrwt>
<totfact> 0.13673215E+05</totfact>
</mgrwt>
</event>
<event>
 8    1  0.2561077E-024  0.8103005E+02  0.7818608E-02  0.1326153E+00
          2   -1    0    0  501    0  0.00000000000E+00  0.00000000000E+00  0.36902956403E+03  0.36902956404E+03  0.25500000000E-02 0. -1.
         -1   -1    0    0    0  501 -0.00000000000E+00 -0.00000000000E+00 -0.44480628847E+01  0.44480657400E+01  0.50400000000E-02 0.  1.
         24    2    1    2    0    0 -0.55511151231E-16  0.00000000000E+00  0.36458150115E+03  0.37347762978E+03  0.81030049783E+02 0.  0.
         66    2    3    3    0    0  0.41906804341E+00 -0.32555827805E+02  0.29334694633E+03  0.29515502445E+03  0.19999983791E+01 0.  0.
        -13    1    3    3    0    0 -0.41906804341E+00  0.32555827805E+02  0.71234554816E+02  0.78322605331E+02  0.10566000000E+00 0.  1.
         13    1    4    4    0    0 -0.63857265943E+00 -0.18285272991E+02  0.16690683893E+03  0.16790670930E+03  0.10566000000E+00 0. -1.
        -13    1    4    4    0    0  0.43724137871E+00 -0.45486085841E+01  0.38618979235E+02  0.38888529687E+02  0.10566000000E+00 0.  1.
        -14    1    4    4    0    0  0.62039932413E+00 -0.97219462295E+01  0.87821128169E+02  0.88359785460E+02  0.00000000000E+00 0.  1.
<mgrwt>
<rscale>  0 0.81030050E+02</rscale>
<asrwt>0</asrwt>
<pdfrwt beam="1">  1        2 0.56773797E-01 0.81030050E+02</pdfrwt>
<pdfrwt beam="2">  1       -1 0.68431738E-03 0.81030050E+02</pdfrwt>
<totfact> 0.26557661E+05</totfact>
</mgrwt>
</event>
<event>
 8    1  0.2561077E-024  0.8100545E+02  0.7818608E-02  0.1326222E+00
         -1   -1    0    0    0  501 -0.00000000000E+00  0.00000000000E+00  0.39648870997E+01  0.39648903030E+01  0.50400000000E-02 0.  1.
          2   -1    0    0  501    0  0.00000000000E+00 -0.00000000000E+00 -0.41374950861E+03  0.41374950862E+03  0.25500000000E-02 0. -1.
         24    2    1    2    0    0  0.00000000000E+00  0.35527136788E-14 -0.40978462151E+03  0.41771439892E+03  0.81005450677E+02 0.  0.
         66    2    3    3    0    0 -0.10184682534E+02  0.20324238996E+02 -0.37771850205E+03  0.37840727959E+03  0.20000009493E+01 0.  0.
        -13    1    3    3    0    0  0.10184682534E+02 -0.20324238996E+02 -0.32066119458E+02  0.39307119332E+02  0.10566000000E+00 0.  1.
         13    1    4    4    0    0 -0.34426325196E+01  0.57467396034E+01 -0.10985601207E+03  0.11006012578E+03  0.10566000000E+00 0. -1.
        -13    1    4    4    0    0 -0.17957698916E+01  0.39183112857E+01 -0.62224952080E+02  0.62374143507E+02  0.10566000000E+00 0.  1.
         14    1    4    4    0    0 -0.49462801229E+01  0.10659188107E+02 -0.20563753790E+03  0.20597301030E+03  0.00000000000E+00 0. -1.
<mgrwt>
<rscale>  0 0.81005451E+02</rscale>
<asrwt>0</asrwt>
<pdfrwt beam="1">  1        2 0.63653736E-01 0.81005451E+02</pdfrwt>
<pdfrwt beam="2">  1       -1 0.60998321E-03 0.81005451E+02</pdfrwt>
<totfact> 0.27669847E+05</totfact>
</mgrwt>
</event>
<event>
 8    1  0.2561077E-024  0.7391162E+02  0.7818608E-02  0.1347275E+00
          2   -1    0    0  501    0  0.00000000000E+00  0.00000000000E+00  0.76523389757E+01  0.76523394006E+01  0.25500000000E-02 0. -1.
         -1   -1    0    0    0  501 -0.00000000000E+00 -0.00000000000E+00 -0.17847247087E+03  0.17847247095E+03  0.50400000000E-02 0.  1.
         24    2    1    2    0    0 -0.71054273576E-14 -0.22204460493E-15 -0.17082013190E+03  0.18612481035E+03  0.73911619956E+02 0.  0.
         66    2    3    3    0    0 -0.34811750507E+02 -0.19194515444E+01 -0.11612686553E+03  0.12126413800E+03  0.19999996068E+01 0.  0.
        -13    1    3    3    0    0  0.34811750507E+02  0.19194515444E+01 -0.54693266366E+02  0.64860672348E+02  0.10566000000E+00 0.  1.
         13    1    4    4    0    0 -0.21083297063E+02 -0.10691551112E+01 -0.72908102354E+02  0.75902905482E+02  0.10566000000E+00 0. -1.
        -13    1    4    4    0    0 -0.12154743741E+02 -0.92838202626E+00 -0.38793883880E+02  0.40664189148E+02  0.10566000000E+00 0.  1.
        -14    1    4    4    0    0 -0.15737097037E+01  0.78085593024E-01 -0.44248792997E+01  0.46970433688E+01  0.00000000000E+00 0.  1.
<mgrwt>
<rscale>  0 0.73911620E+02</rscale>
<asrwt>0</asrwt>
<pdfrwt beam="1">  1        2 0.11772831E-02 0.73911620E+02</pdfrwt>
<pdfrwt beam="2">  1       -1 0.27457300E-01 0.73911620E+02</pdfrwt>
<totfact> 0.12584346E+05</totfact>
</mgrwt>
</event>
<event>
 8    1  0.2561077E-024  0.8148777E+02  0.7818608E-02  0.1324882E+00
          2   -1    0    0  501    0  0.00000000000E+00  0.00000000000E+00  0.57482809329E+03  0.57482809330E+03  0.25500000000E-02 0. -1.
         -1   -1    0    0    0  501 -0.00000000000E+00 -0.00000000000E+00 -0.28879291246E+01  0.28879335225E+01  0.50400000000E-02 0.  1.
         24    2    1    2    0    0  0.00000000000E+00  0.00000000000E+00  0.57194016417E+03  0.57771602682E+03  0.81487767530E+02 0.  0.
         66    2    3    3    0    0 -0.38322824979E+02 -0.11744195469E+01  0.38336019777E+03  0.38527789893E+03  0.19999983665E+01 0.  0.
        -13    1    3    3    0    0  0.38322824979E+02  0.11744195469E+01  0.18857996640E+03  0.19243812790E+03  0.10566000000E+00 0.  1.
         13    1    4    4    0    0 -0.31376842977E+02 -0.88428914524E+00  0.31044776280E+03  0.31203062804E+03  0.10566000000E+00 0. -1.
        -13    1    4    4    0    0 -0.47365674278E+01 -0.54161546395E+00  0.48649518821E+02  0.48882668338E+02  0.10566000000E+00 0.  1.
         14    1    4    4    0    0 -0.22094145742E+01  0.25148506227E+00  0.24262916142E+02  0.24364602546E+02  0.00000000000E+00 0. -1.
<mgrwt>
<rscale>  0 0.81487768E+02</rscale>
<asrwt>0</asrwt>
<pdfrwt beam="1">  1        2 0.88435004E-01 0.81487768E+02</pdfrwt>
<pdfrwt beam="2">  1       -1 0.44429757E-03 0.81487768E+02</pdfrwt>
<totfact> 0.30284959E+05</totfact>
</mgrwt>
</event>
<event>
 8    1  0.2561077E-024  0.7855592E+02  0.7818608E-02  0.1333200E+00
         -1   -1    0    0    0  501 -0.00000000000E+00  0.00000000000E+00  0.23381781142E+03  0.23381781148E+03  0.50400000000E-02 0.  1.
          2   -1    0    0  501    0  0.00000000000E+00 -0.00000000000E+00 -0.65981206937E+01  0.65981211864E+01  0.25500000000E-02 0. -1.
         24    2    1    2    0    0 -0.35527136788E-14  0.00000000000E+00  0.22721969073E+03  0.24041593267E+03  0.78555921632E+02 0.  0.
         66    2    3    3    0    0  0.25875556604E+02 -0.20805567149E+02  0.49608299376E+02  0.59727710700E+02  0.20000011335E+01 0.  0.
        -13    1    3    3    0    0 -0.25875556604E+02  0.20805567149E+02  0.17761139135E+03  0.18068822196E+03  0.10566000000E+00 0.  1.
         13    1    4    4    0    0  0.27486589657E+01 -0.24185376376E+01  0.56517395413E+01  0.67348180593E+01  0.10566000000E+00 0.  1.
        -13    1    4    4    0    0  0.25951661438E+00 -0.27243742961E+00  0.93078137757E+00  0.10094993980E+01  0.10566000000E+00 0.  1.
         14    1    4    4    0    0  0.22867381024E+02 -0.18114592082E+02  0.43025778458E+02  0.51983393243E+02  0.00000000000E+00 0. -1.
<mgrwt>
<rscale>  0 0.78555922E+02</rscale>
<asrwt>0</asrwt>
<pdfrwt beam="1">  1        2 0.10150957E-02 0.78555922E+02</pdfrwt>
<pdfrwt beam="2">  1       -1 0.35971967E-01 0.78555922E+02</pdfrwt>
<totfact> 0.99274882E+04</totfact>
</mgrwt>
</event>
<event>
 8    1  0.2561077E-024  0.7727283E+02  0.7818608E-02  0.1336974E+00
          2   -1    0    0  501    0  0.00000000000E+00  0.00000000000E+00  0.72223329891E+01  0.72223334392E+01  0.25500000000E-02 0. -1.
         -1   -1    0    0    0  501 -0.00000000000E+00 -0.00000000000E+00 -0.20668840647E+03  0.20668840653E+03  0.50400000000E-02 0.  1.
         24    2    1    2    0    0  0.00000000000E+00 -0.35527136788E-14 -0.19946607348E+03  0.21391073997E+03  0.77272829669E+02 0.  0.
         66    2    3    3    0    0 -0.21962499688E+02  0.31543170181E+02 -0.10995000192E+03  0.11649174178E+03  0.20000005290E+01 0.  0.
        -13    1    3    3    0    0  0.21962499688E+02 -0.31543170181E+02 -0.89516071562E+02  0.97418998197E+02  0.10566000000E+00 0.  1.
         13    1    4    4    0    0 -0.63041670348E+01  0.98970151234E+01 -0.32529279497E+02  0.34581188803E+02  0.10566000000E+00 0. -1.
        -13    1    4    4    0    0 -0.10948321039E+02  0.14226817749E+02 -0.51144238338E+02  0.54203434910E+02  0.10566000000E+00 0.  1.
         14    1    4    4    0    0 -0.47100116146E+01  0.74193373083E+01 -0.26276484086E+02  0.27707118064E+02  0.00000000000E+00 0. -1.
<mgrwt>
<rscale>  0 0.77272830E+02</rscale>
<asrwt>0</asrwt>
<pdfrwt beam="1">  1        2 0.11111283E-02 0.77272830E+02</pdfrwt>
<pdfrwt beam="2">  1       -1 0.31798212E-01 0.77272830E+02</pdfrwt>
<totfact> 0.10770834E+05</totfact>
</mgrwt>
</event>
<event>
 8    1  0.2561077E-024  0.7778053E+02  0.7818608E-02  0.1335471E+00
          2   -1    0    0  501    0  0.00000000000E+00  0.00000000000E+00  0.61569108587E+02  0.61569108640E+02  0.25500000000E-02 0. -1.
         -1   -1    0    0    0  501 -0.00000000000E+00 -0.00000000000E+00 -0.24565120690E+02  0.24565121208E+02  0.50400000000E-02 0.  1.
         24    2    1    2    0    0  0.00000000000E+00  0.00000000000E+00  0.37003987896E+02  0.86134229847E+02  0.77780527326E+02 0.  0.
         66    2    3    3    0    0 -0.19216884227E+02 -0.32031353784E+02  0.30397560721E+02  0.48200704983E+02  0.19999996157E+01 0.  0.
        -13    1    3    3    0    0  0.19216884227E+02  0.32031353784E+02  0.66064271755E+01  0.37933524865E+02  0.10566000000E+00 0.  1.
         13    1    4    4    0    0 -0.10294160336E+02 -0.17362345675E+02  0.16597846867E+02  0.26132747062E+02  0.10566000000E+00 0. -1.
        -13    1    4    4    0    0 -0.43994156944E+01 -0.59779288146E+01  0.60052894326E+01  0.95480446464E+01  0.10566000000E+00 0.  1.
         14    1    4    4    0    0 -0.45233081958E+01 -0.86910792937E+01  0.77944244217E+01  0.12519913274E+02  0.00000000000E+00 0. -1.
<mgrwt>
<rscale>  0 0.77780527E+02</rscale>
<asrwt>0</asrwt>
<pdfrwt beam="1">  1        2 0.94721705E-02 0.77780527E+02</pdfrwt>
<pdfrwt beam="2">  1       -1 0.37792494E-02 0.77780527E+02</pdfrwt>
<totfact> 0.16901911E+05</totfact>
</mgrwt>
</event>
<event>
 8    1  0.2561077E-024  0.8135579E+02  0.7818608E-02  0.1325247E+00
         -1   -1    0    0    0  501 -0.00000000000E+00  0.00000000000E+00  0.28159594814E+01  0.28159639917E+01  0.50400000000E-02 0.  1.
          2   -1    0    0  501    0  0.00000000000E+00 -0.00000000000E+00 -0.58761143056E+03  0.58761143056E+03  0.25500000000E-02 0. -1.
         24    2    1    2    0    0  0.00000000000E+00  0.00000000000E+00 -0.58479547108E+03  0.59042739455E+03  0.81355794198E+02 0.  0.
         66    2    3    3    0    0 -0.33354782433E+02 -0.63864802405E+01 -0.45474894133E+03  0.45601965778E+03  0.20000007801E+01 0.  0.
        -13    1    3    3    0    0  0.33354782433E+02  0.63864802405E+01 -0.13004652975E+03  0.13440773677E+03  0.10566000000E+00 0.  1.
         13    1    4    4    0    0 -0.33881571423E+01 -0.11440257614E+01 -0.50096204330E+02  0.50223791733E+02  0.10566000000E+00 0.  1.
        -13    1    4    4    0    0 -0.17655846069E+02 -0.34727417973E+01 -0.23535647946E+03  0.23604336980E+03  0.10566000000E+00 0. -1.
         14    1    4    4    0    0 -0.12310779221E+02 -0.17697126818E+01 -0.16929625754E+03  0.16975249625E+03  0.00000000000E+00 0. -1.
<mgrwt>
<rscale>  0 0.81355794E+02</rscale>
<asrwt>0</asrwt>
<pdfrwt beam="1">  1        2 0.90401661E-01 0.81355794E+02</pdfrwt>
<pdfrwt beam="2">  1       -1 0.43322535E-03 0.81355794E+02</pdfrwt>
<totfact> 0.30605923E+05</totfact>
</mgrwt>
</event>
<event>
 8    1  0.2561077E-024  0.7757208E+02  0.7818608E-02  0.1336086E+00
         -1   -1    0    0    0  501 -0.00000000000E+00  0.00000000000E+00  0.51416460064E+02  0.51416460311E+02  0.50400000000E-02 0.  1.
          2   -1    0    0  501    0  0.00000000000E+00 -0.00000000000E+00 -0.29258272964E+02  0.29258273075E+02  0.25500000000E-02 0. -1.
         24    2    1    2    0    0  0.00000000000E+00  0.00000000000E+00  0.22158187100E+02  0.80674733387E+02  0.77572078427E+02 0.  0.
         66    2    3    3    0    0  0.13085282963E+02 -0.30238084168E+02 -0.10145441739E+02  0.34532540497E+02  0.20000001788E+01 0.  0.
        -13    1    3    3    0    0 -0.13085282963E+02  0.30238084168E+02  0.32303628840E+02  0.46142192889E+02  0.10566000000E+00 0.  1.
         13    1    4    4    0    0  0.39857101946E+01 -0.79930038786E+01 -0.28338799665E+01  0.93710211001E+01  0.10566000000E+00 0. -1.
        -13    1    4    4    0    0  0.60851538868E+01 -0.16113414482E+02 -0.47848857317E+01  0.17876731234E+02  0.10566000000E+00 0.  1.
        -14    1    4    4    0    0  0.30144188818E+01 -0.61316658076E+01 -0.25266760413E+01  0.72847881636E+01  0.00000000000E+00 0.  1.
<mgrwt>
<rscale>  0 0.77572078E+02</rscale>
<asrwt>0</asrwt>
<pdfrwt beam="1">  1        2 0.45012728E-02 0.77572078E+02</pdfrwt>
<pdfrwt beam="2">  1       -1 0.79102247E-02 0.77572078E+02</pdfrwt>
<totfact> 0.14595251E+05</totfact>
</mgrwt>
</event>
<event>
 8    1  0.2561077E-024  0.7804558E+02  0.7818608E-02  0.1334691E+00
         -1   -1    0    0    0  501 -0.00000000000E+00  0.00000000000E+00  0.50807537188E+01  0.50807562186E+01  0.50400000000E-02 0.  1.
          2   -1    0    0  501    0  0.00000000000E+00 -0.00000000000E+00 -0.29971494730E+03  0.29971494731E+03  0.25500000000E-02 0. -1.
         24    2    1    2    0    0  0.88817841970E-15  0.00000000000E+00 -0.29463419358E+03  0.30479570353E+03  0.78045581955E+02 0.  0.
         66    2    3    3    0    0 -0.66113447937E+01 -0.37798167244E+02 -0.17457248724E+03  0.17875112483E+03  0.19999995701E+01 0.  0.
        -13    1    3    3    0    0  0.66113447937E+01  0.37798167244E+02 -0.12006170634E+03  0.12604457870E+03  0.10566000000E+00 0.  1.
         13    1    4    4    0    0 -0.27704108053E+01 -0.18915844702E+02 -0.85184323052E+02  0.87303289828E+02  0.10566000000E+00 0. -1.
        -13    1    4    4    0    0 -0.12449646150E+01 -0.54367100729E+01 -0.23735188101E+02  0.24381920998E+02  0.10566000000E+00 0.  1.
        -14    1    4    4    0    0 -0.25959693734E+01 -0.13445612469E+02 -0.65652976089E+02  0.67065914003E+02  0.00000000000E+00 0.  1.
<mgrwt>
<rscale>  0 0.78045582E+02</rscale>
<asrwt>0</asrwt>
<pdfrwt beam="1">  1        2 0.46109978E-01 0.78045582E+02</pdfrwt>
<pdfrwt beam="2">  1       -1 0.78165485E-03 0.78045582E+02</pdfrwt>
<totfact> 0.27190983E+05</totfact>
</mgrwt>
</event>
<event>
 8    1  0.2561077E-024  0.8032037E+02  0.7818608E-02  0.1328145E+00
         -1   -1    0    0    0  501 -0.00000000000E+00  0.00000000000E+00  0.29195807368E+01  0.29195850870E+01  0.50400000000E-02 0.  1.
          2   -1    0    0  501    0  0.00000000000E+00 -0.00000000000E+00 -0.55242149674E+03  0.55242149675E+03  0.25500000000E-02 0. -1.
         24    2    1    2    0    0  0.00000000000E+00  0.00000000000E+00 -0.54950191600E+03  0.55534108183E+03  0.80320367779E+02 0.  0.
         66    2    3    3    0    0  0.28787504692E+02  0.18844267782E+02 -0.41779456780E+03  0.41921370182E+03  0.20000137591E+01 0.  0.
        -13    1    3    3    0    0 -0.28787504692E+02 -0.18844267782E+02 -0.13170734820E+03  0.13612738001E+03  0.10566000000E+00 0.  1.
         13    1    4    4    0    0  0.36854769897E+01  0.25742975209E+01 -0.58850371267E+02  0.59021920594E+02  0.10566000000E+00 0. -1.
        -13    1    4    4    0    0  0.11279730912E+02  0.80140656202E+01 -0.17171679331E+03  0.17227340435E+03  0.10566000000E+00 0.  1.
         14    1    4    4    0    0  0.13822296790E+02  0.82559046413E+01 -0.18722740322E+03  0.18791837688E+03  0.00000000000E+00 0. -1.
<mgrwt>
<rscale>  0 0.80320368E+02</rscale>
<asrwt>0</asrwt>
<pdfrwt beam="1">  1        2 0.84987840E-01 0.80320368E+02</pdfrwt>
<pdfrwt beam="2">  1       -1 0.44916704E-03 0.80320368E+02</pdfrwt>
<totfact> 0.31079221E+05</totfact>
</mgrwt>
</event>
<event>
 8    1  0.2561077E-024  0.8144471E+02  0.7818608E-02  0.1325001E+00
          2   -1    0    0  501    0  0.00000000000E+00  0.00000000000E+00  0.90146635650E+02  0.90146635686E+02  0.25500000000E-02 0. -1.
         -1   -1    0    0    0  501 -0.00000000000E+00 -0.00000000000E+00 -0.18395698402E+02  0.18395699092E+02  0.50400000000E-02 0.  1.
         24    2    1    2    0    0  0.35527136788E-14  0.00000000000E+00  0.71750937249E+02  0.10854233478E+03  0.81444714028E+02 0.  0.
         66    2    3    3    0    0 -0.20067673186E+02 -0.33560899686E+02  0.50931300674E+02  0.64242064735E+02  0.19999995596E+01 0.  0.
        -13    1    3    3    0    0  0.20067673186E+02  0.33560899686E+02  0.20819636575E+02  0.44300270044E+02  0.10566000000E+00 0.  1.
         13    1    4    4    0    0 -0.11245267955E+02 -0.19310662003E+02  0.29348253604E+02  0.36887516480E+02  0.10566000000E+00 0. -1.
        -13    1    4    4    0    0 -0.43145555209E+01 -0.69629252906E+01  0.11552090665E+02  0.14161909501E+02  0.10566000000E+00 0.  1.
         14    1    4    4    0    0 -0.45078497097E+01 -0.72873123919E+01  0.10030956405E+02  0.13192638754E+02  0.00000000000E+00 0. -1.
<mgrwt>
<rscale>  0 0.81444714E+02</rscale>
<asrwt>0</asrwt>
<pdfrwt beam="1">  1        2 0.13868713E-01 0.81444714E+02</pdfrwt>
<pdfrwt beam="2">  1       -1 0.28301075E-02 0.81444714E+02</pdfrwt>
<totfact> 0.16418687E+05</totfact>
</mgrwt>
</event>
<event>
 8    1  0.2561077E-024  0.8882734E+02  0.7818608E-02  0.1305717E+00
         -1   -1    0    0    0  501 -0.00000000000E+00  0.00000000000E+00  0.13401053783E+02  0.13401054731E+02  0.50400000000E-02 0.  1.
          2   -1    0    0  501    0  0.00000000000E+00 -0.00000000000E+00 -0.14719545403E+03  0.14719545405E+03  0.25500000000E-02 0. -1.
         24    2    1    2    0    0  0.35527136788E-14  0.00000000000E+00 -0.13379440024E+03  0.16059650878E+03  0.88827344303E+02 0.  0.
         66    2    3    3    0    0  0.19874417566E+02 -0.18199194405E+02 -0.13070793277E+03  0.13347197015E+03  0.19999940296E+01 0.  0.
        -13    1    3    3    0    0 -0.19874417566E+02  0.18199194405E+02 -0.30864674769E+01  0.27124538634E+02  0.10566000000E+00 0.  1.
         13    1    4    4    0    0  0.11832922862E+02 -0.10244681465E+02 -0.77459024612E+02  0.79024573518E+02  0.10566000000E+00 0. -1.
        -13    1    4    4    0    0  0.24271173302E+01 -0.31016260155E+01 -0.18324309353E+02  0.18743064311E+02  0.10566000000E+00 0.  1.
        -14    1    4    4    0    0  0.56143773744E+01 -0.48528869244E+01 -0.34924598801E+02  0.35704332318E+02  0.00000000000E+00 0.  1.
<mgrwt>
<rscale>  0 0.88827344E+02</rscale>
<asrwt>0</asrwt>
<pdfrwt beam="1">  1        2 0.22645453E-01 0.88827344E+02</pdfrwt>
<pdfrwt beam="2">  1       -1 0.20617008E-02 0.88827344E+02</pdfrwt>
<totfact> 0.15055203E+05</totfact>
</mgrwt>
</event>
<event>
 8    1  0.2561077E-024  0.7931631E+02  0.7818608E-02  0.1331003E+00
          2   -1    0    0  501    0  0.00000000000E+00  0.00000000000E+00  0.17281070004E+02  0.17281070192E+02  0.25500000000E-02 0. -1.
         -1   -1    0    0    0  501 -0.00000000000E+00 -0.00000000000E+00 -0.91011102140E+02  0.91011102279E+02  0.50400000000E-02 0.  1.
         24    2    1    2    0    0  0.00000000000E+00  0.00000000000E+00 -0.73730032136E+02  0.10829217247E+03  0.79316309670E+02 0.  0.
         66    2    3    3    0    0 -0.21594225356E+02 -0.71011038858E+01  0.74378250128E+01  0.24001197609E+02  0.20000001521E+01 0.  0.
        -13    1    3    3    0    0  0.21594225356E+02  0.71011038858E+01 -0.81167857149E+02  0.84290974863E+02  0.10566000000E+00 0.  1.
         13    1    4    4    0    0 -0.83772967267E+01 -0.23565133284E+01  0.33447239859E+01  0.93236579781E+01  0.10566000000E+00 0. -1.
        -13    1    4    4    0    0 -0.35946913733E+00 -0.28315936633E+00  0.13890910186E-01  0.46984495360E+00  0.10566000000E+00 0. -1.
        -14    1    4    4    0    0 -0.12857459492E+02 -0.44614311911E+01  0.40792101167E+01  0.14207694677E+02  0.00000000000E+00 0.  1.
<mgrwt>
<rscale>  0 0.79316310E+02</rscale>
<asrwt>0</asrwt>
<pdfrwt beam="1">  1        2 0.26586262E-02 0.79316310E+02</pdfrwt>
<pdfrwt beam="2">  1       -1 0.14001708E-01 0.79316310E+02</pdfrwt>
<totfact> 0.12351706E+05</totfact>
</mgrwt>
</event>
<event>
 8    1  0.2561077E-024  0.8080098E+02  0.7818608E-02  0.1326794E+00
         -1   -1    0    0    0  501 -0.00000000000E+00  0.00000000000E+00  0.76242456479E+02  0.76242456646E+02  0.50400000000E-02 0.  1.
          2   -1    0    0  501    0  0.00000000000E+00 -0.00000000000E+00 -0.21408014292E+02  0.21408014444E+02  0.25500000000E-02 0. -1.
         24    2    1    2    0    0  0.00000000000E+00  0.00000000000E+00  0.54834442187E+02  0.97650471090E+02  0.80800980527E+02 0.  0.
         66    2    3    3    0    0 -0.25615017429E+01  0.34840745456E+02  0.29703784267E+01  0.35117830742E+02  0.20000132217E+01 0.  0.
        -13    1    3    3    0    0  0.25615017429E+01 -0.34840745456E+02  0.51864063760E+02  0.62532640348E+02  0.10566000000E+00 0.  1.
         13    1    4    4    0    0  0.12347627197E+00  0.67843794747E+01  0.66297708858E+00  0.68186328470E+01  0.10566000000E+00 0. -1.
        -13    1    4    4    0    0 -0.68203223096E+00  0.35379260794E+01  0.25577513334E+00  0.36136787159E+01  0.10566000000E+00 0.  1.
         14    1    4    4    0    0 -0.20029457839E+01  0.24518439902E+02  0.20516262048E+01  0.24685519179E+02  0.00000000000E+00 0. -1.
<mgrwt>
<rscale>  0 0.80800981E+02</rscale>
<asrwt>0</asrwt>
<pdfrwt beam="1">  1        2 0.32935406E-02 0.80800981E+02</pdfrwt>
<pdfrwt beam="2">  1       -1 0.11729609E-01 0.80800981E+02</pdfrwt>
<totfact> 0.12233019E+05</totfact>
</mgrwt>
</event>
<event>
 8    1  0.2561077E-024  0.7957180E+02  0.7818608E-02  0.1330271E+00
         -1   -1    0    0    0  501 -0.00000000000E+00  0.00000000000E+00  0.42124878398E+02  0.42124878700E+02  0.50400000000E-02 0.  1.
          2   -1    0    0  501    0  0.00000000000E+00 -0.00000000000E+00 -0.37576791139E+02  0.37576791225E+02  0.25500000000E-02 0. -1.
         24    2    1    2    0    0  0.00000000000E+00  0.00000000000E+00  0.45480872596E+01  0.79701669925E+02  0.79571798340E+02 0.  0.
         66    2    3    3    0    0  0.12179483371E+02 -0.30768599084E+02  0.24353827640E+02  0.41135816883E+02  0.20000012738E+01 0.  0.
        -13    1    3    3    0    0 -0.12179483371E+02  0.30768599084E+02 -0.19805740381E+02  0.38565853042E+02  0.10566000000E+00 0.  1.
         13    1    4    4    0    0  0.36863168387E+01 -0.95194205211E+01  0.69047586754E+01  0.12324575258E+02  0.10566000000E+00 0. -1.
        -13    1    4    4    0    0  0.48730719223E+01 -0.10431343077E+02  0.84664332191E+01  0.14291655042E+02  0.10566000000E+00 0. -1.
         14    1    4    4    0    0  0.36200946096E+01 -0.10817835487E+02  0.89826357458E+01  0.14519586583E+02  0.00000000000E+00 0. -1.
<mgrwt>
<rscale>  0 0.79571798E+02</rscale>
<asrwt>0</asrwt>
<pdfrwt beam="1">  1        2 0.57810448E-02 0.79571798E+02</pdfrwt>
<pdfrwt beam="2">  1       -1 0.64807506E-02 0.79571798E+02</pdfrwt>
<totfact> 0.14285276E+05</totfact>
</mgrwt>
</event>
<event>
 8    1  0.2561077E-024  0.7984242E+02  0.7818608E-02  0.1329499E+00
         -1   -1    0    0    0  501 -0.00000000000E+00  0.00000000000E+00  0.32636114863E+01  0.32636153780E+01  0.50400000000E-02 0.  1.
          2   -1    0    0  501    0  0.00000000000E+00 -0.00000000000E+00 -0.48832474375E+03  0.48832474375E+03  0.25500000000E-02 0. -1.
         24    2    1    2    0    0  0.00000000000E+00  0.00000000000E+00 -0.48506113226E+03  0.49158835913E+03  0.79842424836E+02 0.  0.
         66    2    3    3    0    0 -0.12508105301E+02  0.68834299993E+01 -0.47205480570E+03  0.47227489229E+03  0.19999992563E+01 0.  0.
        -13    1    3    3    0    0  0.12508105301E+02 -0.68834299993E+01 -0.13006326561E+02  0.19313466841E+02  0.10566000000E+00 0.  1.
         13    1    4    4    0    0 -0.68840700320E+01  0.40678220225E+01 -0.28288558606E+03  0.28299859286E+03  0.10566000000E+00 0. -1.
        -13    1    4    4    0    0 -0.47269075475E+01  0.19708298854E+01 -0.14784848562E+03  0.14793719509E+03  0.10566000000E+00 0.  1.
         14    1    4    4    0    0 -0.89712772168E+00  0.84477809139E+00 -0.41320734016E+02  0.41339104342E+02  0.00000000000E+00 0. -1.
<mgrwt>
<rscale>  0 0.79842425E+02</rscale>
<asrwt>0</asrwt>
<pdfrwt beam="1">  1        2 0.75126826E-01 0.79842425E+02</pdfrwt>
<pdfrwt beam="2">  1       -1 0.50209476E-03 0.79842425E+02</pdfrwt>
<totfact> 0.30377133E+05</totfact>
</mgrwt>
</event>
<event>
 8    1  0.2561077E-024  0.7950131E+02  0.7818608E-02  0.1330473E+00
         -1   -1    0    0    0  501 -0.00000000000E+00  0.00000000000E+00  0.12750038013E+01  0.12750137627E+01  0.50400000000E-02 0.  1.
          2   -1    0    0  501    0  0.00000000000E+00 -0.00000000000E+00 -0.12392970826E+04  0.12392970826E+04  0.25500000000E-02 0. -1.
         24    2    1    2    0    0  0.00000000000E+00  0.00000000000E+00 -0.12380220788E+04  0.12405720964E+04  0.79501312488E+02 0.  0.
         66    2    3    3    0    0 -0.15207935046E+01 -0.10850228143E+02 -0.12152515219E+04  0.12153025556E+04  0.19999973301E+01 0.  0.
        -13    1    3    3    0    0  0.15207935046E+01  0.10850228143E+02 -0.22770556986E+02  0.25269540817E+02  0.10566000000E+00 0.  1.
         13    1    4    4    0    0 -0.56866186773E+00 -0.32301771585E+01 -0.33868460967E+03  0.33870050696E+03  0.10566000000E+00 0. -1.
        -13    1    4    4    0    0 -0.85479779505E+00 -0.69622245091E+01 -0.83834939766E+03  0.83837874911E+03  0.10566000000E+00 0.  1.
        -14    1    4    4    0    0 -0.97333841804E-01 -0.65782647537E+00 -0.38217514527E+02  0.38223299520E+02  0.00000000000E+00 0.  1.
<mgrwt>
<rscale>  0 0.79501312E+02</rscale>
<asrwt>0</asrwt>
<pdfrwt beam="1">  1        2 0.19066013E+00 0.79501312E+02</pdfrwt>
<pdfrwt beam="2">  1       -1 0.19615619E-03 0.79501312E+02</pdfrwt>
<totfact> 0.35466844E+05</totfact>
</mgrwt>
</event>
<event>
 8    1  0.2561077E-024  0.7786147E+02  0.7818608E-02  0.1335232E+00
         -1   -1    0    0    0  501 -0.00000000000E+00  0.00000000000E+00  0.27216594999E+02  0.27216595466E+02  0.50400000000E-02 0.  1.
          2   -1    0    0  501    0  0.00000000000E+00 -0.00000000000E+00 -0.55686691583E+02  0.55686691641E+02  0.25500000000E-02 0. -1.
         24    2    1    2    0    0  0.00000000000E+00  0.00000000000E+00 -0.28470096583E+02  0.82903287107E+02  0.77861470662E+02 0.  0.
         66    2    3    3    0    0 -0.37171950148E+02  0.29846230936E+01 -0.26050001376E+02  0.45533113470E+02  0.19999994419E+01 0.  0.
        -13    1    3    3    0    0  0.37171950148E+02 -0.29846230936E+01 -0.24200952077E+01  0.37370173637E+02  0.10566000000E+00 0.  1.
         13    1    4    4    0    0 -0.18161325588E+02  0.17487297217E+01 -0.11939874480E+02  0.21805127135E+02  0.10566000000E+00 0. -1.
        -13    1    4    4    0    0 -0.15663148184E+02  0.63958875648E+00 -0.11596739971E+02  0.19499713505E+02  0.10566000000E+00 0.  1.
        -14    1    4    4    0    0 -0.33474763762E+01  0.59630461540E+00 -0.25133869256E+01  0.42282728295E+01  0.00000000000E+00 0.  1.
<mgrwt>
<rscale>  0 0.77861471E+02</rscale>
<asrwt>0</asrwt>
<pdfrwt beam="1">  1        2 0.85671833E-02 0.77861471E+02</pdfrwt>
<pdfrwt beam="2">  1       -1 0.41871685E-02 0.77861471E+02</pdfrwt>
<totfact> 0.16475457E+05</totfact>
</mgrwt>
</event>
<event>
 8    1  0.2561077E-024  0.7972554E+02  0.7818608E-02  0.1329832E+00
          2   -1    0    0  501    0  0.00000000000E+00  0.00000000000E+00  0.55597842514E+03  0.55597842514E+03  0.25500000000E-02 0. -1.
         -1   -1    0    0    0  501 -0.00000000000E+00 -0.00000000000E+00 -0.28580950165E+01  0.28580994602E+01  0.50400000000E-02 0.  1.
         24    2    1    2    0    0  0.17763568394E-14  0.00000000000E+00  0.55312033012E+03  0.55883652460E+03  0.79725539432E+02 0.  0.
         66    2    3    3    0    0  0.11335525475E+02  0.21675620289E+02  0.49713875922E+03  0.49774418386E+03  0.19999992872E+01 0.  0.
        -13    1    3    3    0    0 -0.11335525475E+02 -0.21675620289E+02  0.55981570903E+02  0.61092340743E+02  0.10566000000E+00 0.  1.
         13    1    4    4    0    0  0.10443348277E+02  0.20016417779E+02  0.45694056694E+03  0.45749799277E+03  0.10566000000E+00 0. -1.
        -13    1    4    4    0    0  0.94239778832E+00  0.14044616708E+01  0.36131061347E+02  0.36170780809E+02  0.10566000000E+00 0.  1.
         14    1    4    4    0    0 -0.50220591060E-01  0.25474083883E+00  0.40671309258E+01  0.40754102825E+01  0.00000000000E+00 0. -1.
<mgrwt>
<rscale>  0 0.79725539E+02</rscale>
<asrwt>0</asrwt>
<pdfrwt beam="1">  1        2 0.85535133E-01 0.79725539E+02</pdfrwt>
<pdfrwt beam="2">  1       -1 0.43970732E-03 0.79725539E+02</pdfrwt>
<totfact> 0.31747399E+05</totfact>
</mgrwt>
</event>
<event>
 8    1  0.2561077E-024  0.8278010E+02  0.7818608E-02  0.1321342E+00
          2   -1    0    0  501    0  0.00000000000E+00  0.00000000000E+00  0.24727902288E+03  0.24727902289E+03  0.25500000000E-02 0. -1.
         -1   -1    0    0    0  501 -0.00000000000E+00 -0.00000000000E+00 -0.69279466281E+01  0.69279484614E+01  0.50400000000E-02 0.  1.
         24    2    1    2    0    0  0.00000000000E+00  0.17763568394E-14  0.24035107625E+03  0.25420697135E+03  0.82780096822E+02 0.  0.
         66    2    3    3    0    0  0.31361338020E+02 -0.14304790583E+02  0.19047184912E+03  0.19357604675E+03  0.20000021579E+01 0.  0.
        -13    1    3    3    0    0 -0.31361338020E+02  0.14304790583E+02  0.49879227127E+02  0.60630924608E+02  0.10566000000E+00 0.  1.
         13    1    4    4    0    0  0.66720734175E+01 -0.30888429154E+01  0.39035180862E+02  0.39721707204E+02  0.10566000000E+00 0. -1.
        -13    1    4    4    0    0  0.91808980060E+01 -0.45680266075E+01  0.53273444979E+02  0.54251514811E+02  0.10566000000E+00 0. -1.
        -14    1    4    4    0    0  0.15508366597E+02 -0.66479210606E+01  0.98163223284E+02  0.99602824731E+02  0.00000000000E+00 0.  1.
<mgrwt>
<rscale>  0 0.82780097E+02</rscale>
<asrwt>0</asrwt>
<pdfrwt beam="1">  1        2 0.38042928E-01 0.82780097E+02</pdfrwt>
<pdfrwt beam="2">  1       -1 0.10658380E-02 0.82780097E+02</pdfrwt>
<totfact> 0.21729192E+05</totfact>
</mgrwt>
</event>
<event>
 8    1  0.2561077E-024  0.8166936E+02  0.7818608E-02  0.1324380E+00
          2   -1    0    0  501    0  0.00000000000E+00  0.00000000000E+00  0.13672806195E+03  0.13672806198E+03  0.25500000000E-02 0. -1.
         -1   -1    0    0    0  501 -0.00000000000E+00 -0.00000000000E+00 -0.12195528222E+02  0.12195529263E+02  0.50400000000E-02 0.  1.
         24    2    1    2    0    0  0.35527136788E-14 -0.17763568394E-14  0.12453253373E+03  0.14892359124E+03  0.81669358209E+02 0.  0.
         66    2    3    3    0    0  0.29026471167E+02 -0.13083578131E+02  0.10885620431E+03  0.11343451527E+03  0.19999980164E+01 0.  0.
        -13    1    3    3    0    0 -0.29026471167E+02  0.13083578131E+02  0.15676329418E+02  0.35489075970E+02  0.10566000000E+00 0.  1.
         13    1    4    4    0    0  0.34095467196E+01 -0.16329341064E+01  0.11768305068E+02  0.12361053792E+02  0.10566000000E+00 0. -1.
        -13    1    4    4    0    0  0.17548104369E+01 -0.12083574925E+01  0.77345121604E+01  0.80232991901E+01  0.10566000000E+00 0.  1.
        -14    1    4    4    0    0  0.23862114010E+02 -0.10242286532E+02  0.89353387083E+02  0.93050162287E+02  0.00000000000E+00 0.  1.
<mgrwt>
<rscale>  0 0.81669358E+02</rscale>
<asrwt>0</asrwt>
<pdfrwt beam="1">  1        2 0.21035086E-01 0.81669358E+02</pdfrwt>
<pdfrwt beam="2">  1       -1 0.18762353E-02 0.81669358E+02</pdfrwt>
<totfact> 0.18408749E+05</totfact>
</mgrwt>
</event>
<event>
 8    1  0.2561077E-024  0.8591998E+02  0.7818608E-02  0.1313044E+00
          2   -1    0    0  501    0  0.00000000000E+00  0.00000000000E+00  0.78915837778E+03  0.78915837779E+03  0.25500000000E-02 0. -1.
         -1   -1    0    0    0  501 -0.00000000000E+00 -0.00000000000E+00 -0.23386415427E+01  0.23386469736E+01  0.50400000000E-02 0.  1.
         24    2    1    2    0    0  0.35527136788E-14  0.17763568394E-14  0.78681973624E+03  0.79149702476E+03  0.85919979445E+02 0.  0.
         66    2    3    3    0    0 -0.16027933859E+02 -0.10308051281E+02  0.74806462506E+03  0.74830998513E+03  0.20000005352E+01 0.  0.
        -13    1    3    3    0    0  0.16027933859E+02  0.10308051281E+02  0.38755111184E+02  0.43187039629E+02  0.10566000000E+00 0.  1.
         13    1    4    4    0    0 -0.96174681054E+01 -0.66297265680E+01  0.43787300902E+03  0.43802880289E+03  0.10566000000E+00 0. -1.
        -13    1    4    4    0    0 -0.13247895895E+01 -0.12280355841E+01  0.75898191639E+02  0.75919758937E+02  0.10566000000E+00 0. -1.
         14    1    4    4    0    0 -0.50856761642E+01 -0.24502891284E+01  0.23429342440E+03  0.23436142331E+03  0.00000000000E+00 0. -1.
<mgrwt>
<rscale>  0 0.85919979E+02</rscale>
<asrwt>0</asrwt>
<pdfrwt beam="1">  1        2 0.12140907E+00 0.85919979E+02</pdfrwt>
<pdfrwt beam="2">  1       -1 0.35979117E-03 0.85919979E+02</pdfrwt>
<totfact> 0.28461020E+05</totfact>
</mgrwt>
</event>
<event>
 8    1  0.2561077E-024  0.8138296E+02  0.7818608E-02  0.1325172E+00
         -1   -1    0    0    0  501 -0.00000000000E+00  0.00000000000E+00  0.48618464657E+02  0.48618464918E+02  0.50400000000E-02 0.  1.
          2   -1    0    0  501    0  0.00000000000E+00 -0.00000000000E+00 -0.34056945931E+02  0.34056946027E+02  0.25500000000E-02 0. -1.
         24    2    1    2    0    0  0.00000000000E+00  0.35527136788E-14  0.14561518726E+02  0.82675410945E+02  0.81382957352E+02 0.  0.
         66    2    3    3    0    0 -0.12734233147E+02 -0.17104614694E+02 -0.27892267379E+02  0.35166846914E+02  0.20000011707E+01 0.  0.
        -13    1    3    3    0    0  0.12734233147E+02  0.17104614694E+02  0.42453786105E+02  0.47508564031E+02  0.10566000000E+00 0.  1.
         13    1    4    4    0    0 -0.66401627220E+01 -0.80022318016E+01 -0.14625709710E+02  0.17945752237E+02  0.10566000000E+00 0. -1.
        -13    1    4    4    0    0 -0.10059429017E+01 -0.14264842681E+01 -0.17326787883E+01  0.24617307545E+01  0.10566000000E+00 0.  1.
         14    1    4    4    0    0 -0.50881275236E+01 -0.76758986238E+01 -0.11533878880E+02  0.14759363922E+02  0.00000000000E+00 0. -1.
<mgrwt>
<rscale>  0 0.81382957E+02</rscale>
<asrwt>0</asrwt>
<pdfrwt beam="1">  1        2 0.52395302E-02 0.81382957E+02</pdfrwt>
<pdfrwt beam="2">  1       -1 0.74797638E-02 0.81382957E+02</pdfrwt>
<totfact> 0.13154237E+05</totfact>
</mgrwt>
</event>
<event>
 8    1  0.2561077E-024  0.8011106E+02  0.7818608E-02  0.1328737E+00
         -1   -1    0    0    0  501 -0.00000000000E+00  0.00000000000E+00  0.13815272411E+03  0.13815272420E+03  0.50400000000E-02 0.  1.
          2   -1    0    0  501    0  0.00000000000E+00 -0.00000000000E+00 -0.11613564298E+02  0.11613564578E+02  0.25500000000E-02 0. -1.
         24    2    1    2    0    0  0.00000000000E+00  0.00000000000E+00  0.12653915981E+03  0.14976628878E+03  0.80111062214E+02 0.  0.
         66    2    3    3    0    0  0.27768878939E+01 -0.32986885105E+02  0.21231204554E+02  0.39377782585E+02  0.20000047968E+01 0.  0.
        -13    1    3    3    0    0 -0.27768878939E+01  0.32986885105E+02  0.10530795526E+03  0.11038850620E+03  0.10566000000E+00 0.  1.
         13    1    4    4    0    0  0.37149321947E+00 -0.31485813796E+01  0.18652509657E+01  0.36799316728E+01  0.10566000000E+00 0. -1.
        -13    1    4    4    0    0  0.22595724216E+00 -0.42798747540E+01  0.20735398091E+01  0.47622595436E+01  0.10566000000E+00 0.  1.
        -14    1    4    4    0    0  0.21794374323E+01 -0.25558428971E+02  0.17292413779E+02  0.30935591369E+02  0.00000000000E+00 0.  1.
<mgrwt>
<rscale>  0 0.80111062E+02</rscale>
<asrwt>0</asrwt>
<pdfrwt beam="1">  1        2 0.17867023E-02 0.80111062E+02</pdfrwt>
<pdfrwt beam="2">  1       -1 0.21254265E-01 0.80111062E+02</pdfrwt>
<totfact> 0.10972665E+05</totfact>
</mgrwt>
</event>
<event>
 8    1  0.2561077E-024  0.8119907E+02  0.7818608E-02  0.1325683E+00
          2   -1    0    0  501    0  0.00000000000E+00  0.00000000000E+00  0.17943895264E+03  0.17943895266E+03  0.25500000000E-02 0. -1.
         -1   -1    0    0    0  501 -0.00000000000E+00 -0.00000000000E+00 -0.91859776375E+01  0.91859790201E+01  0.50400000000E-02 0.  1.
         24    2    1    2    0    0 -0.17763568394E-14  0.00000000000E+00  0.17025297500E+03  0.18862493168E+03  0.81199072368E+02 0.  0.
         66    2    3    3    0    0  0.11295770554E+02 -0.38952018851E+02  0.87987902923E+02  0.96905754549E+02  0.19999997373E+01 0.  0.
        -13    1    3    3    0    0 -0.11295770554E+02  0.38952018851E+02  0.82265072082E+02  0.91719177131E+02  0.10566000000E+00 0.  1.
         13    1    4    4    0    0  0.32659608748E+01 -0.10282950864E+02  0.22359124908E+02  0.24826341043E+02  0.10566000000E+00 0.  1.
        -13    1    4    4    0    0  0.63032511834E+01 -0.23335249104E+02  0.52051514045E+02  0.57390209136E+02  0.10566000000E+00 0. -1.
         14    1    4    4    0    0  0.17265584954E+01 -0.53338188834E+01  0.13577263970E+02  0.14689204370E+02  0.00000000000E+00 0. -1.
<mgrwt>
<rscale>  0 0.81199072E+02</rscale>
<asrwt>0</asrwt>
<pdfrwt beam="1">  1        2 0.27605991E-01 0.81199072E+02</pdfrwt>
<pdfrwt beam="2">  1       -1 0.14132275E-02 0.81199072E+02</pdfrwt>
<totfact> 0.20431537E+05</totfact>
</mgrwt>
</event>
<event>
 8    1  0.2561077E-024  0.8042045E+02  0.7818608E-02  0.1327862E+00
         -1   -1    0    0    0  501 -0.00000000000E+00  0.00000000000E+00  0.28654617748E+02  0.28654618192E+02  0.50400000000E-02 0.  1.
          2   -1    0    0  501    0  0.00000000000E+00 -0.00000000000E+00 -0.56425889211E+02  0.56425889269E+02  0.25500000000E-02 0. -1.
         24    2    1    2    0    0 -0.17763568394E-14  0.00000000000E+00 -0.27771271463E+02  0.85080507461E+02  0.80420452816E+02 0.  0.
         66    2    3    3    0    0 -0.15978730091E+02 -0.32019768624E+01 -0.52755326000E+02  0.55251216214E+02  0.20000001400E+01 0.  0.
        -13    1    3    3    0    0  0.15978730091E+02  0.32019768624E+01  0.24984054537E+02  0.29829291247E+02  0.10566000000E+00 0.  1.
         13    1    4    4    0    0 -0.13254136238E+01  0.40203938139E-01 -0.31102159116E+01  0.33827421839E+01  0.10566000000E+00 0. -1.
        -13    1    4    4    0    0 -0.97352806123E+01 -0.24411782571E+01 -0.32660816603E+02  0.34168335416E+02  0.10566000000E+00 0.  1.
         14    1    4    4    0    0 -0.49180358546E+01 -0.80100254340E+00 -0.16984293486E+02  0.17700138614E+02  0.00000000000E+00 0. -1.
<mgrwt>
<rscale>  0 0.80420453E+02</rscale>
<asrwt>0</asrwt>
<pdfrwt beam="1">  1        2 0.86809060E-02 0.80420453E+02</pdfrwt>
<pdfrwt beam="2">  1       -1 0.44084028E-02 0.80420453E+02</pdfrwt>
<totfact> 0.15131276E+05</totfact>
</mgrwt>
</event>
<event>
 8    1  0.2561077E-024  0.8142755E+02  0.7818608E-02  0.1325048E+00
          2   -1    0    0  501    0  0.00000000000E+00  0.00000000000E+00  0.21973367274E+03  0.21973367276E+03  0.25500000000E-02 0. -1.
         -1   -1    0    0    0  501 -0.00000000000E+00 -0.00000000000E+00 -0.75437284317E+01  0.75437301153E+01  0.50400000000E-02 0.  1.
         24    2    1    2    0    0  0.00000000000E+00  0.35527136788E-14  0.21218994431E+03  0.22727740287E+03  0.81427546873E+02 0.  0.
         66    2    3    3    0    0  0.31665803752E+02  0.18819705202E+02  0.57919173170E+02  0.68669753550E+02  0.20000001972E+01 0.  0.
        -13    1    3    3    0    0 -0.31665803752E+02 -0.18819705202E+02  0.15427077114E+03  0.15860764932E+03  0.10566000000E+00 0.  1.
         13    1    4    4    0    0  0.28220970247E+02  0.16878568464E+02  0.51159031422E+02  0.60815844112E+02  0.10566000000E+00 0. -1.
        -13    1    4    4    0    0  0.33660536563E+01  0.17657471934E+01  0.63620144929E+01  0.74117860743E+01  0.10566000000E+00 0.  1.
         14    1    4    4    0    0  0.78779849101E-01  0.17538954502E+00  0.39812725561E+00  0.44212336376E+00  0.00000000000E+00 0. -1.
<mgrwt>
<rscale>  0 0.81427547E+02</rscale>
<asrwt>0</asrwt>
<pdfrwt beam="1">  1        2 0.33805177E-01 0.81427547E+02</pdfrwt>
<pdfrwt beam="2">  1       -1 0.11605739E-02 0.81427547E+02</pdfrwt>
<totfact> 0.21758667E+05</totfact>
</mgrwt>
</event>
<event>
 8    1  0.2561077E-024  0.8050671E+02  0.7818608E-02  0.1327620E+00
          2   -1    0    0  501    0  0.00000000000E+00  0.00000000000E+00  0.18752858799E+03  0.18752858801E+03  0.25500000000E-02 0. -1.
         -1   -1    0    0    0  501 -0.00000000000E+00 -0.00000000000E+00 -0.86404553250E+01  0.86404567950E+01  0.50400000000E-02 0.  1.
         24    2    1    2    0    0  0.00000000000E+00  0.00000000000E+00  0.17888813267E+03  0.19616904481E+03  0.80506708605E+02 0.  0.
         66    2    3    3    0    0  0.35959907668E+01  0.20278784281E+02  0.17370277883E+03  0.17493088811E+03  0.19999998677E+01 0.  0.
        -13    1    3    3    0    0 -0.35959907668E+01 -0.20278784281E+02  0.51853538403E+01  0.21238156700E+02  0.10566000000E+00 0.  1.
         13    1    4    4    0    0  0.70885061444E+00  0.76366706107E+01  0.67034543654E+02  0.67471937975E+02  0.10566000000E+00 0. -1.
        -13    1    4    4    0    0  0.15506687743E+01  0.65527938987E+01  0.51006977457E+02  0.51449651067E+02  0.10566000000E+00 0.  1.
         14    1    4    4    0    0  0.13364713780E+01  0.60893197716E+01  0.55661257718E+02  0.56009299065E+02  0.00000000000E+00 0. -1.
<mgrwt>
<rscale>  0 0.80506709E+02</rscale>
<asrwt>0</asrwt>
<pdfrwt beam="1">  1        2 0.28850551E-01 0.80506709E+02</pdfrwt>
<pdfrwt beam="2">  1       -1 0.13293010E-02 0.80506709E+02</pdfrwt>
<totfact> 0.21216932E+05</totfact>
</mgrwt>
</event>
<event>
 8    1  0.2561077E-024  0.8029771E+02  0.7818608E-02  0.1328209E+00
          2   -1    0    0  501    0  0.00000000000E+00  0.00000000000E+00  0.53798732677E+03  0.53798732677E+03  0.25500000000E-02 0. -1.
         -1   -1    0    0    0  501 -0.00000000000E+00 -0.00000000000E+00 -0.29962216540E+01  0.29962258929E+01  0.50400000000E-02 0.  1.
         24    2    1    2    0    0  0.88817841970E-15  0.00000000000E+00  0.53499110511E+03  0.54098355267E+03  0.80297706724E+02 0.  0.
         66    2    3    3    0    0  0.76651572287E+01  0.37840451410E+02  0.34123911990E+03  0.34342217655E+03  0.19999979836E+01 0.  0.
        -13    1    3    3    0    0 -0.76651572287E+01 -0.37840451410E+02  0.19375198521E+03  0.19756137612E+03  0.10566000000E+00 0.  1.
         13    1    4    4    0    0  0.59004407327E+01  0.27791804504E+02  0.25410087359E+03  0.25568430675E+03  0.10566000000E+00 0. -1.
        -13    1    4    4    0    0  0.76461034551E+00  0.27129623545E+01  0.26287861938E+02  0.26438752675E+02  0.10566000000E+00 0.  1.
         14    1    4    4    0    0  0.10001061505E+01  0.73356845521E+01  0.60850384380E+02  0.61299117117E+02  0.00000000000E+00 0. -1.
<mgrwt>
<rscale>  0 0.80297707E+02</rscale>
<asrwt>0</asrwt>
<pdfrwt beam="1">  1        2 0.82767358E-01 0.80297707E+02</pdfrwt>
<pdfrwt beam="2">  1       -1 0.46095708E-03 0.80297707E+02</pdfrwt>
<totfact> 0.30854172E+05</totfact>
</mgrwt>
</event>
<event>
 8    1  0.2561077E-024  0.8113509E+02  0.7818608E-02  0.1325861E+00
          2   -1    0    0  501    0  0.00000000000E+00  0.00000000000E+00  0.33545438247E+03  0.33545438248E+03  0.25500000000E-02 0. -1.
         -1   -1    0    0    0  501 -0.00000000000E+00 -0.00000000000E+00 -0.49059590330E+01  0.49059616219E+01  0.50400000000E-02 0.  1.
         24    2    1    2    0    0  0.00000000000E+00  0.00000000000E+00  0.33054842343E+03  0.34036034410E+03  0.81135094751E+02 0.  0.
         66    2    3    3    0    0 -0.33725204142E+02  0.18903622974E+02  0.21657799725E+03  0.22001082991E+03  0.20000076427E+01 0.  0.
        -13    1    3    3    0    0  0.33725204142E+02 -0.18903622974E+02  0.11397042618E+03  0.12034951418E+03  0.10566000000E+00 0.  1.
         13    1    4    4    0    0 -0.28172970295E+02  0.15740526747E+02  0.17783289778E+03  0.18073746467E+03  0.10566000000E+00 0. -1.
        -13    1    4    4    0    0 -0.51539948810E+01  0.30871102112E+01  0.35863235221E+02  0.36363123040E+02  0.10566000000E+00 0. -1.
         14    1    4    4    0    0 -0.39823896568E+00  0.75986015552E-01  0.28818642524E+01  0.29102422094E+01  0.00000000000E+00 0. -1.
<mgrwt>
<rscale>  0 0.81135095E+02</rscale>
<asrwt>0</asrwt>
<pdfrwt beam="1">  1        2 0.51608363E-01 0.81135095E+02</pdfrwt>
<pdfrwt beam="2">  1       -1 0.75476319E-03 0.81135095E+02</pdfrwt>
<totfact> 0.25581219E+05</totfact>
</mgrwt>
</event>
<event>
 8    1  0.2561077E-024  0.8031690E+02  0.7818608E-02  0.1328155E+00
          2   -1    0    0  501    0  0.00000000000E+00  0.00000000000E+00  0.98865193925E+01  0.98865197213E+01  0.25500000000E-02 0. -1.
         -1   -1    0    0    0  501 -0.00000000000E+00 -0.00000000000E+00 -0.16312120240E+03  0.16312120248E+03  0.50400000000E-02 0.  1.
         24    2    1    2    0    0 -0.22204460493E-15 -0.35527136788E-14 -0.15323468301E+03  0.17300772220E+03  0.80316896505E+02 0.  0.
         66    2    3    3    0    0 -0.13506965535E+01 -0.28607926588E+02 -0.16103024082E+02  0.32917248260E+02  0.20000008983E+01 0.  0.
        -13    1    3    3    0    0  0.13506965535E+01  0.28607926588E+02 -0.13713165893E+03  0.14009047394E+03  0.10566000000E+00 0.  1.
         13    1    4    4    0    0 -0.86248871802E+00 -0.12990559328E+02 -0.72501810937E+01  0.14902174618E+02  0.10566000000E+00 0. -1.
        -13    1    4    4    0    0  0.23535530171E+00 -0.41137188374E+01 -0.29210599732E+01  0.50519135180E+01  0.10566000000E+00 0.  1.
        -14    1    4    4    0    0 -0.72356313719E+00 -0.11503648423E+02 -0.59317830154E+01  0.12963160124E+02  0.00000000000E+00 0.  1.
<mgrwt>
<rscale>  0 0.80316897E+02</rscale>
<asrwt>0</asrwt>
<pdfrwt beam="1">  1        2 0.15210031E-02 0.80316897E+02</pdfrwt>
<pdfrwt beam="2">  1       -1 0.25095568E-01 0.80316897E+02</pdfrwt>
<totfact> 0.10448784E+05</totfact>
</mgrwt>
</event>
<event>
 8    1  0.2561077E-024  0.8019914E+02  0.7818608E-02  0.1328487E+00
          2   -1    0    0  501    0  0.00000000000E+00  0.00000000000E+00  0.12204003617E+02  0.12204003883E+02  0.25500000000E-02 0. -1.
         -1   -1    0    0    0  501 -0.00000000000E+00 -0.00000000000E+00 -0.13175804087E+03  0.13175804097E+03  0.50400000000E-02 0.  1.
         24    2    1    2    0    0  0.00000000000E+00  0.00000000000E+00 -0.11955403725E+03  0.14396204485E+03  0.80199142973E+02 0.  0.
         66    2    3    3    0    0  0.25812013896E+02 -0.30652457149E+02 -0.60479670174E+02  0.72578396859E+02  0.19999988822E+01 0.  0.
        -13    1    3    3    0    0 -0.25812013896E+02  0.30652457149E+02 -0.59074367079E+02  0.71383647991E+02  0.10566000000E+00 0.  1.
         13    1    4    4    0    0  0.40589696921E+01 -0.46556081825E+01 -0.83509476057E+01  0.10387464198E+02  0.10566000000E+00 0. -1.
        -13    1    4    4    0    0  0.20627679368E+01 -0.29355385571E+01 -0.57779920600E+01  0.68021139701E+01  0.10566000000E+00 0.  1.
         14    1    4    4    0    0  0.19690276267E+02 -0.23061310410E+02 -0.46350730509E+02  0.55388818691E+02  0.00000000000E+00 0. -1.
<mgrwt>
<rscale>  0 0.80199143E+02</rscale>
<asrwt>0</asrwt>
<pdfrwt beam="1">  1        2 0.18775391E-02 0.80199143E+02</pdfrwt>
<pdfrwt beam="2">  1       -1 0.20270467E-01 0.80199143E+02</pdfrwt>
<totfact> 0.11068535E+05</totfact>
</mgrwt>
</event>
<event>
 8    1  0.2561077E-024  0.8007923E+02  0.7818608E-02  0.1328827E+00
         -1   -1    0    0    0  501 -0.00000000000E+00  0.00000000000E+00  0.10987846801E+01  0.10987962390E+01  0.50400000000E-02 0.  1.
          2   -1    0    0  501    0  0.00000000000E+00 -0.00000000000E+00 -0.14590321687E+04  0.14590321687E+04  0.25500000000E-02 0. -1.
         24    2    1    2    0    0 -0.44408920985E-15  0.00000000000E+00 -0.14579333840E+04  0.14601309649E+04  0.80079226648E+02 0.  0.
         66    2    3    3    0    0 -0.21112147383E+01 -0.10787364037E+02 -0.14309608026E+04  0.14310044176E+04  0.20000014376E+01 0.  0.
        -13    1    3    3    0    0  0.21112147383E+01  0.10787364037E+02 -0.26972581377E+02  0.29126547353E+02  0.10566000000E+00 0.  1.
         13    1    4    4    0    0 -0.11603361284E+01 -0.24612025118E+01 -0.29632846469E+03  0.29634097598E+03  0.10566000000E+00 0. -1.
        -13    1    4    4    0    0 -0.56495862156E+00 -0.27497705934E+01 -0.39258488703E+03  0.39259493770E+03  0.10566000000E+00 0.  1.
         14    1    4    4    0    0 -0.38591998841E+00 -0.55763909319E+01 -0.74204745093E+03  0.74206850391E+03  0.00000000000E+00 0. -1.
<mgrwt>
<rscale>  0 0.80079227E+02</rscale>
<asrwt>0</asrwt>
<pdfrwt beam="1">  1        2 0.22446494E+00 0.80079227E+02</pdfrwt>
<pdfrwt beam="2">  1       -1 0.16904585E-03 0.80079227E+02</pdfrwt>
<totfact> 0.33495490E+05</totfact>
</mgrwt>
</event>
<event>
 8    1  0.2561077E-024  0.8044903E+02  0.7818608E-02  0.1327782E+00
         -1   -1    0    0    0  501 -0.00000000000E+00  0.00000000000E+00  0.71878770353E+01  0.71878788022E+01  0.50400000000E-02 0.  1.
          2   -1    0    0  501    0  0.00000000000E+00 -0.00000000000E+00 -0.22510281937E+03  0.22510281939E+03  0.25500000000E-02 0. -1.
         24    2    1    2    0    0  0.00000000000E+00  0.00000000000E+00 -0.21791494234E+03  0.23229069819E+03  0.80449029649E+02 0.  0.
         66    2    3    3    0    0 -0.22113943911E+02 -0.22554836311E+02 -0.18081998685E+03  0.18356910090E+03  0.20000005554E+01 0.  0.
        -13    1    3    3    0    0  0.22113943911E+02  0.22554836311E+02 -0.37094955484E+02  0.48721597292E+02  0.10566000000E+00 0.  1.
         13    1    4    4    0    0 -0.14266145423E+02 -0.15523714566E+02 -0.11844329218E+03  0.12030516716E+03  0.10566000000E+00 0. -1.
        -13    1    4    4    0    0 -0.70416251928E+01 -0.64739269668E+01 -0.57404808217E+02  0.58196386367E+02  0.10566000000E+00 0.  1.
        -14    1    4    4    0    0 -0.80617329467E+00 -0.55719477818E+00 -0.49718864587E+01  0.50675473713E+01  0.00000000000E+00 0.  1.
<mgrwt>
<rscale>  0 0.80449030E+02</rscale>
<asrwt>0</asrwt>
<pdfrwt beam="1">  1        2 0.34631198E-01 0.80449030E+02</pdfrwt>
<pdfrwt beam="2">  1       -1 0.11058276E-02 0.80449030E+02</pdfrwt>
<totfact> 0.22656301E+05</totfact>
</mgrwt>
</event>
<event>
 8    1  0.2561077E-024  0.7738968E+02  0.7818608E-02  0.1336627E+00
         -1   -1    0    0    0  501 -0.00000000000E+00  0.00000000000E+00  0.48477042931E+01  0.48477069131E+01  0.50400000000E-02 0.  1.
          2   -1    0    0  501    0  0.00000000000E+00 -0.00000000000E+00 -0.30886584437E+03  0.30886584438E+03  0.25500000000E-02 0. -1.
         24    2    1    2    0    0  0.44408920985E-15  0.17763568394E-14 -0.30401814008E+03  0.31371355130E+03  0.77389681286E+02 0.  0.
         66    2    3    3    0    0  0.19378473120E+01  0.15789842727E+02 -0.29498258904E+03  0.29541801271E+03  0.20000028742E+01 0.  0.
        -13    1    3    3    0    0 -0.19378473120E+01 -0.15789842727E+02 -0.90355510416E+01  0.18295538588E+02  0.10566000000E+00 0.  1.
         13    1    4    4    0    0  0.20803338099E+00  0.32182819907E+01 -0.52719365130E+02  0.52818020037E+02  0.10566000000E+00 0. -1.
        -13    1    4    4    0    0  0.12768136321E+01  0.41338790918E+01 -0.80876600183E+02  0.80992313405E+02  0.10566000000E+00 0.  1.
         14    1    4    4    0    0  0.45300029893E+00  0.84376816449E+01 -0.16138662372E+03  0.16160767927E+03  0.00000000000E+00 0. -1.
<mgrwt>
<rscale>  0 0.77389681E+02</rscale>
<asrwt>0</asrwt>
<pdfrwt beam="1">  1        2 0.47517807E-01 0.77389681E+02</pdfrwt>
<pdfrwt beam="2">  1       -1 0.74580111E-03 0.77389681E+02</pdfrwt>
<totfact> 0.28100738E+05</totfact>
</mgrwt>
</event>
<event>
 8    1  0.2561077E-024  0.7920137E+02  0.7818608E-02  0.1331333E+00
         -1   -1    0    0    0  501 -0.00000000000E+00  0.00000000000E+00  0.34361555719E+01  0.34361592681E+01  0.50400000000E-02 0.  1.
          2   -1    0    0  501    0  0.00000000000E+00 -0.00000000000E+00 -0.45638602266E+03  0.45638602267E+03  0.25500000000E-02 0. -1.
         24    2    1    2    0    0  0.55511151231E-16  0.00000000000E+00 -0.45294986709E+03  0.45982218193E+03  0.79201369335E+02 0.  0.
         66    2    3    3    0    0 -0.45576395041E+00  0.29167976948E+02 -0.38188635151E+03  0.38300413061E+03  0.19999973821E+01 0.  0.
        -13    1    3    3    0    0  0.45576395041E+00 -0.29167976948E+02 -0.71063515574E+02  0.76818051327E+02  0.10566000000E+00 0.  1.
         13    1    4    4    0    0 -0.33970608887E+00  0.14557349889E+02 -0.18497169252E+03  0.18554398409E+03  0.10566000000E+00 0. -1.
        -13    1    4    4    0    0 -0.33572671537E+00  0.38806400095E+01 -0.59007119092E+02  0.59135635169E+02  0.10566000000E+00 0.  1.
        -14    1    4    4    0    0  0.21966885383E+00  0.10729987049E+02 -0.13790753990E+03  0.13832451135E+03  0.00000000000E+00 0.  1.
<mgrwt>
<rscale>  0 0.79201369E+02</rscale>
<asrwt>0</asrwt>
<pdfrwt beam="1">  1        2 0.70213186E-01 0.79201369E+02</pdfrwt>
<pdfrwt beam="2">  1       -1 0.52863997E-03 0.79201369E+02</pdfrwt>
<totfact> 0.30340926E+05</totfact>
</mgrwt>
</event>
<event>
 8    1  0.2561077E-024  0.7234553E+02  0.7818608E-02  0.1352294E+00
         -1   -1    0    0    0  501 -0.00000000000E+00  0.00000000000E+00  0.54662236995E+02  0.54662237227E+02  0.50400000000E-02 0.  1.
          2   -1    0    0  501    0  0.00000000000E+00 -0.00000000000E+00 -0.23937346867E+02  0.23937347003E+02  0.25500000000E-02 0. -1.
         24    2    1    2    0    0  0.00000000000E+00  0.00000000000E+00  0.30724890128E+02  0.78599584230E+02  0.72345530392E+02 0.  0.
         66    2    3    3    0    0 -0.21338872373E+01  0.10277467316E+02 -0.22203161974E+02  0.24640621374E+02  0.20000027152E+01 0.  0.
        -13    1    3    3    0    0  0.21338872373E+01 -0.10277467316E+02  0.52928052102E+02  0.53958962856E+02  0.10566000000E+00 0.  1.
         13    1    4    4    0    0 -0.55675618841E+00  0.10554972982E+01 -0.18470083255E+01  0.22015121598E+01  0.10566000000E+00 0.  1.
        -13    1    4    4    0    0 -0.56732477537E+00  0.66854098063E+01 -0.14321072581E+02  0.15815209312E+02  0.10566000000E+00 0. -1.
         14    1    4    4    0    0 -0.10098062735E+01  0.25365602120E+01 -0.60350810670E+01  0.66238999015E+01  0.00000000000E+00 0. -1.
<mgrwt>
<rscale>  0 0.72345530E+02</rscale>
<asrwt>0</asrwt>
<pdfrwt beam="1">  1        2 0.36826687E-02 0.72345530E+02</pdfrwt>
<pdfrwt beam="2">  1       -1 0.84095750E-02 0.72345530E+02</pdfrwt>
<totfact> 0.17073061E+05</totfact>
</mgrwt>
</event>
<event>
 8    1  0.2561077E-024  0.7953191E+02  0.7818608E-02  0.1330385E+00
         -1   -1    0    0    0  501 -0.00000000000E+00  0.00000000000E+00  0.83950572755E+00  0.83952085631E+00  0.50400000000E-02 0.  1.
          2   -1    0    0  501    0  0.00000000000E+00 -0.00000000000E+00 -0.18836286537E+04  0.18836286537E+04  0.25500000000E-02 0. -1.
         24    2    1    2    0    0  0.17763568394E-14  0.00000000000E+00 -0.18827891480E+04  0.18844681746E+04  0.79531913087E+02 0.  0.
         66    2    3    3    0    0  0.13322312585E+02 -0.72534027645E+01 -0.18123312492E+04  0.18123958323E+04  0.20000037430E+01 0.  0.
        -13    1    3    3    0    0 -0.13322312585E+02  0.72534027645E+01 -0.70457898753E+02  0.72072342302E+02  0.10566000000E+00 0.  1.
         13    1    4    4    0    0  0.19361839444E+01 -0.40437235741E+00 -0.25219713369E+03  0.25220491219E+03  0.10566000000E+00 0.  1.
        -13    1    4    4    0    0  0.16666399606E+01 -0.77510544466E+00 -0.23887799082E+03  0.23888508564E+03  0.10566000000E+00 0. -1.
        -14    1    4    4    0    0  0.97194886798E+01 -0.60739249624E+01 -0.13212561247E+04  0.13213058344E+04  0.00000000000E+00 0.  1.
<mgrwt>
<rscale>  0 0.79531913E+02</rscale>
<asrwt>0</asrwt>
<pdfrwt beam="1">  1        2 0.28978564E+00 0.79531913E+02</pdfrwt>
<pdfrwt beam="2">  1       -1 0.12915740E-03 0.79531913E+02</pdfrwt>
<totfact> 0.29673264E+05</totfact>
</mgrwt>
</event>
<event>
 8    1  0.2561077E-024  0.7991081E+02  0.7818608E-02  0.1329305E+00
          2   -1    0    0  501    0  0.00000000000E+00  0.00000000000E+00  0.17080987301E+03  0.17080987303E+03  0.25500000000E-02 0. -1.
         -1   -1    0    0    0  501 -0.00000000000E+00 -0.00000000000E+00 -0.93462648535E+01  0.93462662124E+01  0.50400000000E-02 0.  1.
         24    2    1    2    0    0  0.71054273576E-14  0.00000000000E+00  0.16146360816E+03  0.18015613924E+03  0.79910811205E+02 0.  0.
         66    2    3    3    0    0 -0.35185482537E+02  0.17020541129E+02  0.99196187249E+02  0.10663770705E+03  0.19999995024E+01 0.  0.
        -13    1    3    3    0    0  0.35185482537E+02 -0.17020541129E+02  0.62267420908E+02  0.73518432194E+02  0.10566000000E+00 0.  1.
         13    1    4    4    0    0 -0.28644255769E+01  0.17998782056E+01  0.75376886131E+01  0.82627119703E+01  0.10566000000E+00 0. -1.
        -13    1    4    4    0    0 -0.14574782551E+02  0.67958448856E+01  0.41254006486E+02  0.44277669420E+02  0.10566000000E+00 0.  1.
         14    1    4    4    0    0 -0.17746274409E+02  0.84248180376E+01  0.50404492150E+02  0.54097325657E+02  0.00000000000E+00 0. -1.
<mgrwt>
<rscale>  0 0.79910811E+02</rscale>
<asrwt>0</asrwt>
<pdfrwt beam="1">  1        2 0.26278442E-01 0.79910811E+02</pdfrwt>
<pdfrwt beam="2">  1       -1 0.14378870E-02 0.79910811E+02</pdfrwt>
<totfact> 0.20964253E+05</totfact>
</mgrwt>
</event>
<event>
 8    1  0.2561077E-024  0.8004069E+02  0.7818608E-02  0.1328936E+00
         -1   -1    0    0    0  501 -0.00000000000E+00  0.00000000000E+00  0.21597619378E+03  0.21597619384E+03  0.50400000000E-02 0.  1.
          2   -1    0    0  501    0  0.00000000000E+00 -0.00000000000E+00 -0.74157618972E+01  0.74157623357E+01  0.25500000000E-02 0. -1.
         24    2    1    2    0    0  0.35527136788E-14 -0.35527136788E-14  0.20856043189E+03  0.22339195618E+03  0.80040691754E+02 0.  0.
         66    2    3    3    0    0 -0.31611537397E+02 -0.22773612755E+02  0.79118576504E+02  0.88213807709E+02  0.19999970164E+01 0.  0.
        -13    1    3    3    0    0  0.31611537397E+02  0.22773612755E+02  0.12944185538E+03  0.13517814847E+03  0.10566000000E+00 0.  1.
         13    1    4    4    0    0 -0.76763093470E+00 -0.34761498496E+00  0.18250914562E+01  0.20130117458E+01  0.10566000000E+00 0. -1.
        -13    1    4    4    0    0 -0.22649772970E+02 -0.17219848454E+02  0.57866458179E+02  0.64483126030E+02  0.10566000000E+00 0.  1.
         14    1    4    4    0    0 -0.81941334921E+01 -0.52061493164E+01  0.19427026868E+02  0.21717669933E+02  0.00000000000E+00 0. -1.
<mgrwt>
<rscale>  0 0.80040692E+02</rscale>
<asrwt>0</asrwt>
<pdfrwt beam="1">  1        2 0.11408867E-02 0.80040692E+02</pdfrwt>
<pdfrwt beam="2">  1       -1 0.33227100E-01 0.80040692E+02</pdfrwt>
<totfact> 0.97130706E+04</totfact>
</mgrwt>
</event>
<event>
 8    1  0.2561077E-024  0.7799391E+02  0.7818608E-02  0.1334843E+00
          2   -1    0    0  501    0  0.00000000000E+00  0.00000000000E+00  0.59591607612E+02  0.59591607667E+02  0.25500000000E-02 0. -1.
         -1   -1    0    0    0  501 -0.00000000000E+00 -0.00000000000E+00 -0.25519743244E+02  0.25519743742E+02  0.50400000000E-02 0.  1.
         24    2    1    2    0    0  0.00000000000E+00  0.00000000000E+00  0.34071864368E+02  0.85111351409E+02  0.77993911282E+02 0.  0.
         66    2    3    3    0    0 -0.26770643544E+02  0.16025509140E+02  0.42529126573E+02  0.52784570761E+02  0.20000011154E+01 0.  0.
        -13    1    3    3    0    0  0.26770643544E+02 -0.16025509140E+02 -0.84572622052E+01  0.32326780647E+02  0.10566000000E+00 0.  1.
         13    1    4    4    0    0 -0.20208589870E+02  0.11192441055E+02  0.31562532249E+02  0.39113456090E+02  0.10566000000E+00 0. -1.
        -13    1    4    4    0    0 -0.14711133582E+01  0.11672466956E+01  0.22716917332E+01  0.29493027528E+01  0.10566000000E+00 0.  1.
         14    1    4    4    0    0 -0.50909403162E+01  0.36658213890E+01  0.86949025909E+01  0.10721811919E+02  0.00000000000E+00 0. -1.
<mgrwt>
<rscale>  0 0.77993911E+02</rscale>
<asrwt>0</asrwt>
<pdfrwt beam="1">  1        2 0.91679395E-02 0.77993911E+02</pdfrwt>
<pdfrwt beam="2">  1       -1 0.39261145E-02 0.77993911E+02</pdfrwt>
<totfact> 0.16651790E+05</totfact>
</mgrwt>
</event>
<event>
 8    1  0.2561077E-024  0.7843648E+02  0.7818608E-02  0.1333548E+00
         -1   -1    0    0    0  501 -0.00000000000E+00  0.00000000000E+00  0.11071906332E+02  0.11071907479E+02  0.50400000000E-02 0.  1.
          2   -1    0    0  501    0  0.00000000000E+00 -0.00000000000E+00 -0.13891648952E+03  0.13891648954E+03  0.25500000000E-02 0. -1.
         24    2    1    2    0    0  0.00000000000E+00 -0.35527136788E-14 -0.12784458318E+03  0.14998839702E+03  0.78436482524E+02 0.  0.
         66    2    3    3    0    0  0.23251794121E+02 -0.31550176511E+02 -0.64111141654E+02  0.75168464507E+02  0.20000011177E+01 0.  0.
        -13    1    3    3    0    0 -0.23251794121E+02  0.31550176511E+02 -0.63733441529E+02  0.74819932511E+02  0.10566000000E+00 0.  1.
         13    1    4    4    0    0  0.17438705086E+02 -0.22617190244E+02 -0.45960768599E+02  0.54111451134E+02  0.10566000000E+00 0. -1.
        -13    1    4    4    0    0  0.21109098614E+00 -0.32953387758E+00 -0.79639956020E+00  0.89362647454E+00  0.10566000000E+00 0. -1.
         14    1    4    4    0    0  0.56019980489E+01 -0.86034523894E+01 -0.17353973495E+02  0.20163386899E+02  0.00000000000E+00 0. -1.
<mgrwt>
<rscale>  0 0.78436483E+02</rscale>
<asrwt>0</asrwt>
<pdfrwt beam="1">  1        2 0.21371766E-01 0.78436483E+02</pdfrwt>
<pdfrwt beam="2">  1       -1 0.17033704E-02 0.78436483E+02</pdfrwt>
<totfact> 0.20597759E+05</totfact>
</mgrwt>
</event>
<event>
 8    1  0.2561077E-024  0.7931273E+02  0.7818608E-02  0.1331013E+00
         -1   -1    0    0    0  501 -0.00000000000E+00  0.00000000000E+00  0.16645488515E+02  0.16645489278E+02  0.50400000000E-02 0.  1.
          2   -1    0    0  501    0  0.00000000000E+00 -0.00000000000E+00 -0.94477694170E+02  0.94477694204E+02  0.25500000000E-02 0. -1.
         24    2    1    2    0    0  0.00000000000E+00  0.00000000000E+00 -0.77832205655E+02  0.11112318348E+03  0.79312733341E+02 0.  0.
         66    2    3    3    0    0  0.13105426076E+02  0.29683547043E+02 -0.70821261550E+02  0.77926351420E+02  0.20000001207E+01 0.  0.
        -13    1    3    3    0    0 -0.13105426076E+02 -0.29683547043E+02 -0.70109441051E+01  0.33196832062E+02  0.10566000000E+00 0.  1.
         13    1    4    4    0    0  0.55393908879E+01  0.11285006761E+02 -0.28511408076E+02  0.31160035037E+02  0.10566000000E+00 0. -1.
        -13    1    4    4    0    0  0.64896717186E+01  0.16600938704E+02 -0.38144058475E+02  0.42103294002E+02  0.10566000000E+00 0.  1.
        -14    1    4    4    0    0  0.10763634690E+01  0.17976015778E+01 -0.41657949987E+01  0.46630223805E+01  0.00000000000E+00 0.  1.
<mgrwt>
<rscale>  0 0.79312733E+02</rscale>
<asrwt>0</asrwt>
<pdfrwt beam="1">  1        2 0.14535030E-01 0.79312733E+02</pdfrwt>
<pdfrwt beam="2">  1       -1 0.25608445E-02 0.79312733E+02</pdfrwt>
<totfact> 0.17857587E+05</totfact>
</mgrwt>
</event>
<event>
 8    1  0.2561077E-024  0.7952471E+02  0.7818608E-02  0.1330406E+00
         -1   -1    0    0    0  501 -0.00000000000E+00  0.00000000000E+00  0.12204185372E+02  0.12204186413E+02  0.50400000000E-02 0.  1.
          2   -1    0    0  501    0  0.00000000000E+00 -0.00000000000E+00 -0.12954938309E+03  0.12954938312E+03  0.25500000000E-02 0. -1.
         24    2    1    2    0    0  0.00000000000E+00 -0.35527136788E-14 -0.11734519772E+03  0.14175356953E+03  0.79524707145E+02 0.  0.
         66    2    3    3    0    0  0.34912075116E+02  0.18573336491E+02 -0.65663219299E+02  0.76677768537E+02  0.20000004424E+01 0.  0.
        -13    1    3    3    0    0 -0.34912075116E+02 -0.18573336491E+02 -0.51681978422E+02  0.65075800993E+02  0.10566000000E+00 0.  1.
         13    1    4    4    0    0  0.13427455104E+02  0.61504022588E+01 -0.24898944524E+02  0.28949829032E+02  0.10566000000E+00 0. -1.
        -13    1    4    4    0    0  0.19904293344E+02  0.11573723888E+02 -0.37559733793E+02  0.44055382700E+02  0.10566000000E+00 0.  1.
         14    1    4    4    0    0  0.15803266682E+01  0.84921034374E+00 -0.32045409816E+01  0.36725568054E+01  0.00000000000E+00 0. -1.
<mgrwt>
<rscale>  0 0.79524707E+02</rscale>
<asrwt>0</asrwt>
<pdfrwt beam="1">  1        2 0.19930673E-01 0.79524707E+02</pdfrwt>
<pdfrwt beam="2">  1       -1 0.18775672E-02 0.79524707E+02</pdfrwt>
<totfact> 0.19431762E+05</totfact>
</mgrwt>
</event>
<event>
 8    1  0.2561077E-024  0.7987009E+02  0.7818608E-02  0.1329420E+00
         -1   -1    0    0    0  501 -0.00000000000E+00  0.00000000000E+00  0.10895769650E+03  0.10895769662E+03  0.50400000000E-02 0.  1.
          2   -1    0    0  501    0  0.00000000000E+00 -0.00000000000E+00 -0.14636946422E+02  0.14636946644E+02  0.25500000000E-02 0. -1.
         24    2    1    2    0    0  0.00000000000E+00  0.00000000000E+00  0.94320750080E+02  0.12359464326E+03  0.79870094200E+02 0.  0.
         66    2    3    3    0    0  0.32258636353E+01  0.27824677108E+02  0.31981761785E+01  0.28263884895E+02  0.20000015311E+01 0.  0.
        -13    1    3    3    0    0 -0.32258636353E+01 -0.27824677108E+02  0.91122573902E+02  0.95330758367E+02  0.10566000000E+00 0.  1.
         13    1    4    4    0    0  0.19811274873E+01  0.13947136846E+02  0.14714061353E+01  0.14164169315E+02  0.10566000000E+00 0.  1.
        -13    1    4    4    0    0  0.13629464605E+01  0.13316055978E+02  0.18487362096E+01  0.13513103251E+02  0.10566000000E+00 0. -1.
        -14    1    4    4    0    0 -0.11821031249E+00  0.56148428426E+00 -0.12196616639E+00  0.58661232956E+00  0.00000000000E+00 0.  1.
<mgrwt>
<rscale>  0 0.79870094E+02</rscale>
<asrwt>0</asrwt>
<pdfrwt beam="1">  1        2 0.22518379E-02 0.79870094E+02</pdfrwt>
<pdfrwt beam="2">  1       -1 0.16762723E-01 0.79870094E+02</pdfrwt>
<totfact> 0.11681434E+05</totfact>
</mgrwt>
</event>
<event>
 8    1  0.2561077E-024  0.8217495E+02  0.7818608E-02  0.1322990E+00
         -1   -1    0    0    0  501 -0.00000000000E+00  0.00000000000E+00  0.52376492257E+02  0.52376492499E+02  0.50400000000E-02 0.  1.
          2   -1    0    0  501    0  0.00000000000E+00 -0.00000000000E+00 -0.32231646447E+02  0.32231646548E+02  0.25500000000E-02 0. -1.
         24    2    1    2    0    0  0.00000000000E+00 -0.35527136788E-14  0.20144845809E+02  0.84608139048E+02  0.82174949835E+02 0.  0.
         66    2    3    3    0    0 -0.49514805972E+01  0.21795309174E+02 -0.25389003827E+02  0.33884423797E+02  0.19999996571E+01 0.  0.
        -13    1    3    3    0    0  0.49514805972E+01 -0.21795309174E+02  0.45533849636E+02  0.50723715251E+02  0.10566000000E+00 0.  1.
         13    1    4    4    0    0 -0.94577168225E-01  0.48309007263E+00 -0.71943508729E+00  0.87810690662E+00  0.10566000000E+00 0. -1.
        -13    1    4    4    0    0 -0.14043099921E+01  0.83354717458E+01 -0.10583231046E+02  0.13545040391E+02  0.10566000000E+00 0.  1.
        -14    1    4    4    0    0 -0.34525934369E+01  0.12976747356E+02 -0.14086337694E+02  0.19461276500E+02  0.00000000000E+00 0.  1.
<mgrwt>
<rscale>  0 0.82174950E+02</rscale>
<asrwt>0</asrwt>
<pdfrwt beam="1">  1        2 0.49587149E-02 0.82174950E+02</pdfrwt>
<pdfrwt beam="2">  1       -1 0.80579219E-02 0.82174950E+02</pdfrwt>
<totfact> 0.12660583E+05</totfact>
</mgrwt>
</event>
<event>
 8    1  0.2561077E-024  0.8858534E+02  0.7818608E-02  0.1306314E+00
          2   -1    0    0  501    0  0.00000000000E+00  0.00000000000E+00  0.29080189392E+03  0.29080189393E+03  0.25500000000E-02 0. -1.
         -1   -1    0    0    0  501 -0.00000000000E+00 -0.00000000000E+00 -0.67463116089E+01  0.67463134915E+01  0.50400000000E-02 0.  1.
         24    2    1    2    0    0  0.00000000000E+00  0.00000000000E+00  0.28405558231E+03  0.29754820742E+03  0.88585336813E+02 0.  0.
         66    2    3    3    0    0 -0.43355041272E+02 -0.87346560189E+01  0.14871757157E+03  0.15516723209E+03  0.20000007991E+01 0.  0.
        -13    1    3    3    0    0  0.43355041272E+02  0.87346560189E+01  0.13533801074E+03  0.14238097533E+03  0.10566000000E+00 0.  1.
         13    1    4    4    0    0 -0.12484834979E+02 -0.28933223525E+01  0.42881972937E+02  0.44756197176E+02  0.10566000000E+00 0. -1.
        -13    1    4    4    0    0 -0.25076473670E+02 -0.43574193022E+01  0.87269735845E+02  0.90905635652E+02  0.10566000000E+00 0.  1.
        -14    1    4    4    0    0 -0.57937326239E+01 -0.14839143642E+01  0.18565862785E+02  0.19505399265E+02  0.00000000000E+00 0.  1.
<mgrwt>
<rscale>  0 0.88585337E+02</rscale>
<asrwt>0</asrwt>
<pdfrwt beam="1">  1        2 0.44738759E-01 0.88585337E+02</pdfrwt>
<pdfrwt beam="2">  1       -1 0.10378941E-02 0.88585337E+02</pdfrwt>
<totfact> 0.19267826E+05</totfact>
</mgrwt>
</event>
<event>
 8    1  0.2561077E-024  0.7970259E+02  0.7818608E-02  0.1329898E+00
          2   -1    0    0  501    0  0.00000000000E+00  0.00000000000E+00  0.82366021543E+02  0.82366021583E+02  0.25500000000E-02 0. -1.
         -1   -1    0    0    0  501 -0.00000000000E+00 -0.00000000000E+00 -0.19281321429E+02  0.19281322087E+02  0.50400000000E-02 0.  1.
         24    2    1    2    0    0  0.17763568394E-14  0.88817841970E-15  0.63084700114E+02  0.10164734367E+03  0.79702591468E+02 0.  0.
         66    2    3    3    0    0  0.13769045465E+02  0.74230241133E+01  0.78271962789E+02  0.79844774748E+02  0.19999989469E+01 0.  0.
        -13    1    3    3    0    0 -0.13769045465E+02 -0.74230241133E+01 -0.15187262674E+02  0.21802568922E+02  0.10566000000E+00 0.  1.
         13    1    4    4    0    0  0.44000835457E+01  0.18980034119E+01  0.25380959747E+02  0.25829584470E+02  0.10566000000E+00 0. -1.
        -13    1    4    4    0    0  0.16567466517E+01  0.43777437112E+00  0.76114845270E+01  0.78027121316E+01  0.10566000000E+00 0.  1.
         14    1    4    4    0    0  0.77122152681E+01  0.50872463303E+01  0.45279518515E+02  0.46212478147E+02  0.00000000000E+00 0. -1.
<mgrwt>
<rscale>  0 0.79702591E+02</rscale>
<asrwt>0</asrwt>
<pdfrwt beam="1">  1        2 0.12671696E-01 0.79702591E+02</pdfrwt>
<pdfrwt beam="2">  1       -1 0.29663572E-02 0.79702591E+02</pdfrwt>
<totfact> 0.16991398E+05</totfact>
</mgrwt>
</event>
<event>
 8    1  0.2561077E-024  0.7958608E+02  0.7818608E-02  0.1330230E+00
          2   -1    0    0  501    0  0.00000000000E+00  0.00000000000E+00  0.16194206622E+02  0.16194206822E+02  0.25500000000E-02 0. -1.
         -1   -1    0    0    0  501 -0.00000000000E+00 -0.00000000000E+00 -0.97781015093E+02  0.97781015223E+02  0.50400000000E-02 0.  1.
         24    2    1    2    0    0  0.00000000000E+00  0.00000000000E+00 -0.81586808472E+02  0.11397522205E+03  0.79586078705E+02 0.  0.
         66    2    3    3    0    0 -0.33707694444E+02  0.16685898123E+02 -0.22320421580E+02  0.43781606665E+02  0.20000004366E+01 0.  0.
        -13    1    3    3    0    0  0.33707694444E+02 -0.16685898123E+02 -0.59266386892E+02  0.70193615381E+02  0.10566000000E+00 0.  1.
         13    1    4    4    0    0 -0.12871952126E+02  0.54178402470E+01 -0.85737618881E+01  0.16387821742E+02  0.10566000000E+00 0. -1.
        -13    1    4    4    0    0 -0.46480650499E+01  0.27321838115E+01 -0.29821448196E+01  0.61622795172E+01  0.10566000000E+00 0.  1.
         14    1    4    4    0    0 -0.16187677268E+02  0.85358740647E+01 -0.10764514872E+02  0.21231505406E+02  0.00000000000E+00 0. -1.
<mgrwt>
<rscale>  0 0.79586079E+02</rscale>
<asrwt>0</asrwt>
<pdfrwt beam="1">  1        2 0.24914165E-02 0.79586079E+02</pdfrwt>
<pdfrwt beam="2">  1       -1 0.15043233E-01 0.79586079E+02</pdfrwt>
<totfact> 0.12064786E+05</totfact>
</mgrwt>
</event>
<event>
 8    1  0.2561077E-024  0.8340738E+02  0.7818608E-02  0.1319651E+00
         -1   -1    0    0    0  501 -0.00000000000E+00  0.00000000000E+00  0.22556532521E+01  0.22556588828E+01  0.50400000000E-02 0.  1.
          2   -1    0    0  501    0  0.00000000000E+00 -0.00000000000E+00 -0.77103845181E+03  0.77103845181E+03  0.25500000000E-02 0. -1.
         24    2    1    2    0    0 -0.88817841970E-15  0.00000000000E+00 -0.76878279856E+03  0.77329411070E+03  0.83407375455E+02 0.  0.
         66    2    3    3    0    0 -0.59359843872E+01  0.31157595833E+02 -0.63530740257E+03  0.63610182160E+03  0.19999993691E+01 0.  0.
        -13    1    3    3    0    0  0.59359843872E+01 -0.31157595833E+02 -0.13347539599E+03  0.13719228910E+03  0.10566000000E+00 0.  1.
         13    1    4    4    0    0 -0.61843552346E+00  0.51074886440E+01 -0.11178001901E+03  0.11189840355E+03  0.10566000000E+00 0.  1.
        -13    1    4    4    0    0 -0.33159824900E+01  0.17788470145E+02 -0.36508168734E+03  0.36552985514E+03  0.10566000000E+00 0. -1.
         14    1    4    4    0    0 -0.20015663738E+01  0.82616370439E+01 -0.15844569622E+03  0.15867356291E+03  0.00000000000E+00 0. -1.
<mgrwt>
<rscale>  0 0.83407375E+02</rscale>
<asrwt>0</asrwt>
<pdfrwt beam="1">  1        2 0.11862109E+00 0.83407375E+02</pdfrwt>
<pdfrwt beam="2">  1       -1 0.34702463E-03 0.83407375E+02</pdfrwt>
<totfact> 0.30624017E+05</totfact>
</mgrwt>
</event>
<event>
 8    1  0.2561077E-024  0.7996416E+02  0.7818608E-02  0.1329153E+00
         -1   -1    0    0    0  501 -0.00000000000E+00  0.00000000000E+00  0.51934646214E+02  0.51934646459E+02  0.50400000000E-02 0.  1.
          2   -1    0    0  501    0  0.00000000000E+00 -0.00000000000E+00 -0.30780352293E+02  0.30780352399E+02  0.25500000000E-02 0. -1.
         24    2    1    2    0    0  0.44408920985E-15 -0.71054273576E-14  0.21154293921E+02  0.82714998858E+02  0.79964160002E+02 0.  0.
         66    2    3    3    0    0  0.36617159969E+01 -0.37778210025E+02 -0.23342799534E+01  0.38079524362E+02  0.19999990032E+01 0.  0.
        -13    1    3    3    0    0 -0.36617159969E+01  0.37778210025E+02  0.23488573874E+02  0.44635474495E+02  0.10566000000E+00 0.  1.
         13    1    4    4    0    0  0.20684772950E+01 -0.22895556039E+02 -0.20761106301E+01  0.23082601327E+02  0.10566000000E+00 0. -1.
        -13    1    4    4    0    0  0.16033533027E+01 -0.13666782099E+02 -0.36483908582E-01  0.13760965441E+02  0.10566000000E+00 0.  1.
         14    1    4    4    0    0 -0.10114600743E-01 -0.12158718873E+01 -0.22168541476E+00  0.12359575942E+01  0.00000000000E+00 0. -1.
<mgrwt>
<rscale>  0 0.79964160E+02</rscale>
<asrwt>0</asrwt>
<pdfrwt beam="1">  1        2 0.47354389E-02 0.79964160E+02</pdfrwt>
<pdfrwt beam="2">  1       -1 0.79899456E-02 0.79964160E+02</pdfrwt>
<totfact> 0.13540634E+05</totfact>
</mgrwt>
</event>
<event>
 8    1  0.2561077E-024  0.7756978E+02  0.7818608E-02  0.1336093E+00
         -1   -1    0    0    0  501 -0.00000000000E+00  0.00000000000E+00  0.15144025870E+01  0.15144109736E+01  0.50400000000E-02 0.  1.
          2   -1    0    0  501    0  0.00000000000E+00 -0.00000000000E+00 -0.99330493799E+03  0.99330493799E+03  0.25500000000E-02 0. -1.
         24    2    1    2    0    0  0.35527136788E-14  0.00000000000E+00 -0.99179053540E+03  0.99481934897E+03  0.77569781255E+02 0.  0.
         66    2    3    3    0    0 -0.16318573474E+02 -0.17332830656E+02 -0.88849195878E+03  0.88881307578E+03  0.20000000501E+01 0.  0.
        -13    1    3    3    0    0  0.16318573474E+02  0.17332830656E+02 -0.10329857662E+03  0.10600627318E+03  0.10566000000E+00 0.  1.
         13    1    4    4    0    0 -0.31399458695E+01 -0.38588516787E+01 -0.19639498482E+03  0.19645801389E+03  0.10566000000E+00 0. -1.
        -13    1    4    4    0    0 -0.54920943709E+01 -0.61360546223E+01 -0.27996167885E+03  0.28008278607E+03  0.10566000000E+00 0.  1.
        -14    1    4    4    0    0 -0.76865332333E+01 -0.73379243555E+01 -0.41213529512E+03  0.41227227582E+03  0.00000000000E+00 0.  1.
<mgrwt>
<rscale>  0 0.77569781E+02</rscale>
<asrwt>0</asrwt>
<pdfrwt beam="1">  1        2 0.15281562E+00 0.77569781E+02</pdfrwt>
<pdfrwt beam="2">  1       -1 0.23298645E-03 0.77569781E+02</pdfrwt>
<totfact> 0.38152695E+05</totfact>
</mgrwt>
</event>
<event>
 8    1  0.2561077E-024  0.8081414E+02  0.7818608E-02  0.1326757E+00
          2   -1    0    0  501    0  0.00000000000E+00  0.00000000000E+00  0.23679982693E+03  0.23679982695E+03  0.25500000000E-02 0. -1.
         -1   -1    0    0    0  501 -0.00000000000E+00 -0.00000000000E+00 -0.68949835300E+01  0.68949853720E+01  0.50400000000E-02 0.  1.
         24    2    1    2    0    0  0.00000000000E+00  0.00000000000E+00  0.22990484340E+03  0.24369481232E+03  0.80814135712E+02 0.  0.
         66    2    3    3    0    0  0.17779502096E+02  0.12737672125E+02  0.21738831376E+03  0.21849493803E+03  0.19999998476E+01 0.  0.
        -13    1    3    3    0    0 -0.17779502096E+02 -0.12737672125E+02  0.12516529648E+02  0.25199874294E+02  0.10566000000E+00 0.  1.
         13    1    4    4    0    0  0.91270025650E+01  0.59391722168E+01  0.10544524938E+03  0.10600607399E+03  0.10566000000E+00 0. -1.
        -13    1    4    4    0    0  0.52184295927E+01  0.34525660703E+01  0.66272059931E+02  0.66566878487E+02  0.10566000000E+00 0.  1.
        -14    1    4    4    0    0  0.34340699384E+01  0.33459338382E+01  0.45671004447E+02  0.45921985549E+02  0.00000000000E+00 0.  1.
<mgrwt>
<rscale>  0 0.80814136E+02</rscale>
<asrwt>0</asrwt>
<pdfrwt beam="1">  1        2 0.36430735E-01 0.80814136E+02</pdfrwt>
<pdfrwt beam="2">  1       -1 0.10607671E-02 0.80814136E+02</pdfrwt>
<totfact> 0.22794479E+05</totfact>
</mgrwt>
</event>
<event>
 8    1  0.2561077E-024  0.7770070E+02  0.7818608E-02  0.1335706E+00
          2   -1    0    0  501    0  0.00000000000E+00  0.00000000000E+00  0.47011418860E+02  0.47011418929E+02  0.25500000000E-02 0. -1.
         -1   -1    0    0    0  501 -0.00000000000E+00 -0.00000000000E+00 -0.32106018784E+02  0.32106019179E+02  0.50400000000E-02 0.  1.
         24    2    1    2    0    0  0.00000000000E+00  0.00000000000E+00  0.14905400076E+02  0.79117438109E+02  0.77700695373E+02 0.  0.
         66    2    3    3    0    0  0.11532080910E+02  0.36567747683E+02  0.12509487161E+01  0.38415542984E+02  0.20000023231E+01 0.  0.
        -13    1    3    3    0    0 -0.11532080910E+02 -0.36567747683E+02  0.13654451360E+02  0.40701895125E+02  0.10566000000E+00 0.  1.
         13    1    4    4    0    0  0.84658095227E+01  0.24676894353E+02  0.25837173549E+00  0.26090169907E+02  0.10566000000E+00 0. -1.
        -13    1    4    4    0    0  0.11660512514E+01  0.39220272247E+01  0.34303313134E+00  0.41074090175E+01  0.10566000000E+00 0.  1.
         14    1    4    4    0    0  0.19002201361E+01  0.79688261061E+01  0.64954384931E+00  0.82179640598E+01  0.00000000000E+00 0. -1.
<mgrwt>
<rscale>  0 0.77700695E+02</rscale>
<asrwt>0</asrwt>
<pdfrwt beam="1">  1        2 0.72325260E-02 0.77700695E+02</pdfrwt>
<pdfrwt beam="2">  1       -1 0.49393876E-02 0.77700695E+02</pdfrwt>
<totfact> 0.15972267E+05</totfact>
</mgrwt>
</event>
<event>
 8    1  0.2561077E-024  0.7789561E+02  0.7818608E-02  0.1335132E+00
         -1   -1    0    0    0  501 -0.00000000000E+00  0.00000000000E+00  0.22543868730E+01  0.22543925068E+01  0.50400000000E-02 0.  1.
          2   -1    0    0  501    0  0.00000000000E+00 -0.00000000000E+00 -0.67287899059E+03  0.67287899060E+03  0.25500000000E-02 0. -1.
         24    2    1    2    0    0  0.00000000000E+00  0.00000000000E+00 -0.67062460372E+03  0.67513338311E+03  0.77895608783E+02 0.  0.
         66    2    3    3    0    0  0.18601641263E+02  0.22836420353E+02 -0.55606091015E+03  0.55684401672E+03  0.20000008390E+01 0.  0.
        -13    1    3    3    0    0 -0.18601641263E+02 -0.22836420353E+02 -0.11456369357E+03  0.11828936639E+03  0.10566000000E+00 0.  1.
         13    1    4    4    0    0  0.88019045865E+01  0.11840017255E+02 -0.26570626645E+03  0.26611555897E+03  0.10566000000E+00 0. -1.
        -13    1    4    4    0    0  0.80045772715E+01  0.86838717974E+01 -0.23268998067E+03  0.23298953014E+03  0.10566000000E+00 0.  1.
         14    1    4    4    0    0  0.17951594047E+01  0.23125313005E+01 -0.57664663037E+02  0.57738927609E+02  0.00000000000E+00 0. -1.
<mgrwt>
<rscale>  0 0.77895609E+02</rscale>
<asrwt>0</asrwt>
<pdfrwt beam="1">  1        2 0.10351968E+00 0.77895609E+02</pdfrwt>
<pdfrwt beam="2">  1       -1 0.34682972E-03 0.77895609E+02</pdfrwt>
<totfact> 0.35516517E+05</totfact>
</mgrwt>
</event>
<event>
 8    1  0.2561077E-024  0.8014371E+02  0.7818608E-02  0.1328644E+00
         -1   -1    0    0    0  501 -0.00000000000E+00  0.00000000000E+00  0.12822876312E+02  0.12822877302E+02  0.50400000000E-02 0.  1.
          2   -1    0    0  501    0  0.00000000000E+00 -0.00000000000E+00 -0.12522568837E+03  0.12522568839E+03  0.25500000000E-02 0. -1.
         24    2    1    2    0    0 -0.71054273576E-14 -0.17763568394E-14 -0.11240281205E+03  0.13804856569E+03  0.80143710499E+02 0.  0.
         66    2    3    3    0    0 -0.39344544923E+02 -0.73498664759E+01 -0.53967510077E+02  0.67219832587E+02  0.19999991744E+01 0.  0.
        -13    1    3    3    0    0  0.39344544923E+02  0.73498664759E+01 -0.58435301977E+02  0.70828733107E+02  0.10566000000E+00 0.  1.
         13    1    4    4    0    0 -0.11029474607E+01  0.70526463361E-01 -0.13548056034E+01  0.17516076449E+01  0.10566000000E+00 0. -1.
        -13    1    4    4    0    0 -0.19979165891E+02 -0.40900301256E+01 -0.28011268634E+02  0.34648777044E+02  0.10566000000E+00 0.  1.
         14    1    4    4    0    0 -0.18262431571E+02 -0.33303628137E+01 -0.24601435840E+02  0.30819447898E+02  0.00000000000E+00 0. -1.
<mgrwt>
<rscale>  0 0.80143710E+02</rscale>
<asrwt>0</asrwt>
<pdfrwt beam="1">  1        2 0.19265490E-01 0.80143710E+02</pdfrwt>
<pdfrwt beam="2">  1       -1 0.19727504E-02 0.80143710E+02</pdfrwt>
<totfact> 0.18838180E+05</totfact>
</mgrwt>
</event>
<event>
 8    1  0.2561077E-024  0.8224248E+02  0.7818608E-02  0.1322805E+00
         -1   -1    0    0    0  501 -0.00000000000E+00  0.00000000000E+00  0.33086441648E+01  0.33086480035E+01  0.50400000000E-02 0.  1.
          2   -1    0    0  501    0  0.00000000000E+00 -0.00000000000E+00 -0.51107200915E+03  0.51107200915E+03  0.25500000000E-02 0. -1.
         24    2    1    2    0    0  0.00000000000E+00  0.00000000000E+00 -0.50776336498E+03  0.51438065716E+03  0.82242480745E+02 0.  0.
         66    2    3    3    0    0  0.25505770478E+02  0.27537335984E+02 -0.35870730295E+03  0.36067128857E+03  0.20000008655E+01 0.  0.
        -13    1    3    3    0    0 -0.25505770478E+02 -0.27537335984E+02 -0.14905606203E+03  0.15370936859E+03  0.10566000000E+00 0.  1.
         13    1    4    4    0    0  0.11812009363E+02  0.12538546264E+02 -0.17094987577E+03  0.17181562763E+03  0.10566000000E+00 0. -1.
        -13    1    4    4    0    0  0.18227687729E+01  0.20112236472E+01 -0.22051632644E+02  0.22218307155E+02  0.10566000000E+00 0.  1.
        -14    1    4    4    0    0  0.11870992343E+02  0.12987566073E+02 -0.16570579454E+03  0.16663735378E+03  0.00000000000E+00 0.  1.
<mgrwt>
<rscale>  0 0.82242481E+02</rscale>
<asrwt>0</asrwt>
<pdfrwt beam="1">  1        2 0.78626400E-01 0.82242481E+02</pdfrwt>
<pdfrwt beam="2">  1       -1 0.50902288E-03 0.82242481E+02</pdfrwt>
<totfact> 0.28529289E+05</totfact>
</mgrwt>
</event>
<event>
 8    1  0.2561077E-024  0.8365689E+02  0.7818608E-02  0.1318983E+00
          2   -1    0    0  501    0  0.00000000000E+00  0.00000000000E+00  0.13298323462E+03  0.13298323465E+03  0.25500000000E-02 0. -1.
         -1   -1    0    0    0  501 -0.00000000000E+00 -0.00000000000E+00 -0.13156687990E+02  0.13156688956E+02  0.50400000000E-02 0.  1.
         24    2    1    2    0    0  0.00000000000E+00  0.00000000000E+00  0.11982654663E+03  0.14613992360E+03  0.83656894473E+02 0.  0.
         66    2    3    3    0    0  0.31378708006E+02  0.20091574702E+02  0.93061098147E+02  0.10026296766E+03  0.20000012669E+01 0.  0.
        -13    1    3    3    0    0 -0.31378708006E+02 -0.20091574702E+02  0.26765448487E+02  0.45876955946E+02  0.10566000000E+00 0.  1.
         13    1    4    4    0    0  0.19347020276E+02  0.12781979696E+02  0.57627726391E+02  0.62118050610E+02  0.10566000000E+00 0. -1.
        -13    1    4    4    0    0  0.12479589048E+01  0.11581197973E+01  0.39876691486E+01  0.43372009600E+01  0.10566000000E+00 0.  1.
        -14    1    4    4    0    0  0.10783728825E+02  0.61514752088E+01  0.31445702607E+02  0.33807716088E+02  0.00000000000E+00 0.  1.
<mgrwt>
<rscale>  0 0.83656894E+02</rscale>
<asrwt>0</asrwt>
<pdfrwt beam="1">  1        2 0.20458959E-01 0.83656894E+02</pdfrwt>
<pdfrwt beam="2">  1       -1 0.20241060E-02 0.83656894E+02</pdfrwt>
<totfact> 0.17114614E+05</totfact>
</mgrwt>
</event>
<event>
 8    1  0.2561077E-024  0.7987814E+02  0.7818608E-02  0.1329398E+00
         -1   -1    0    0    0  501 -0.00000000000E+00  0.00000000000E+00  0.47700105270E+01  0.47700131896E+01  0.50400000000E-02 0.  1.
          2   -1    0    0  501    0  0.00000000000E+00 -0.00000000000E+00 -0.33440782054E+03  0.33440782055E+03  0.25500000000E-02 0. -1.
         24    2    1    2    0    0 -0.35527136788E-14  0.17763568394E-14 -0.32963781001E+03  0.33917783374E+03  0.79878139124E+02 0.  0.
         66    2    3    3    0    0 -0.23251022090E+02  0.92422131358E+01 -0.29697068525E+03  0.29802955630E+03  0.19999996777E+01 0.  0.
        -13    1    3    3    0    0  0.23251022090E+02 -0.92422131358E+01 -0.32667124763E+02  0.41148277439E+02  0.10566000000E+00 0.  1.
         13    1    4    4    0    0 -0.48280167100E+01  0.14658566644E+01 -0.59214878552E+02  0.59429550621E+02  0.10566000000E+00 0. -1.
        -13    1    4    4    0    0 -0.16489324703E+02  0.73707705000E+01 -0.21135422930E+03  0.21212460370E+03  0.10566000000E+00 0.  1.
        -14    1    4    4    0    0 -0.19336806773E+01  0.40558597141E+00 -0.26401577399E+02  0.26475401982E+02  0.00000000000E+00 0.  1.
<mgrwt>
<rscale>  0 0.79878139E+02</rscale>
<asrwt>0</asrwt>
<pdfrwt beam="1">  1        2 0.51447339E-01 0.79878139E+02</pdfrwt>
<pdfrwt beam="2">  1       -1 0.73384824E-03 0.79878139E+02</pdfrwt>
<totfact> 0.26619289E+05</totfact>
</mgrwt>
</event>
<event>
 8    1  0.2561077E-024  0.8855093E+02  0.7818608E-02  0.1306399E+00
         -1   -1    0    0    0  501 -0.00000000000E+00  0.00000000000E+00  0.12351544174E+02  0.12351545203E+02  0.50400000000E-02 0.  1.
          2   -1    0    0  501    0  0.00000000000E+00 -0.00000000000E+00 -0.15871026159E+03  0.15871026162E+03  0.25500000000E-02 0. -1.
         24    2    1    2    0    0  0.00000000000E+00 -0.35527136788E-14 -0.14635871742E+03  0.17106180682E+03  0.88550932162E+02 0.  0.
         66    2    3    3    0    0  0.38036900221E+02  0.21707499553E+02 -0.85478585396E+02  0.96065653886E+02  0.19999949965E+01 0.  0.
        -13    1    3    3    0    0 -0.38036900221E+02 -0.21707499553E+02 -0.60880132024E+02  0.74996152932E+02  0.10566000000E+00 0.  1.
         13    1    4    4    0    0  0.19489465588E+02  0.11111755583E+02 -0.44056881976E+02  0.49440169847E+02  0.10566000000E+00 0. -1.
        -13    1    4    4    0    0  0.59177244631E+01  0.28874633700E+01 -0.11767265319E+02  0.13484680369E+02  0.10566000000E+00 0. -1.
        -14    1    4    4    0    0  0.12629710169E+02  0.77082806001E+01 -0.29654438101E+02  0.33140803670E+02  0.00000000000E+00 0.  1.
<mgrwt>
<rscale>  0 0.88550932E+02</rscale>
<asrwt>0</asrwt>
<pdfrwt beam="1">  1        2 0.24416962E-01 0.88550932E+02</pdfrwt>
<pdfrwt beam="2">  1       -1 0.19002378E-02 0.88550932E+02</pdfrwt>
<totfact> 0.15563585E+05</totfact>
</mgrwt>
</event>
<event>
 8    1  0.2561077E-024  0.8004681E+02  0.7818608E-02  0.1328919E+00
          2   -1    0    0  501    0  0.00000000000E+00  0.00000000000E+00  0.12039830903E+03  0.12039830906E+03  0.25500000000E-02 0. -1.
         -1   -1    0    0    0  501 -0.00000000000E+00 -0.00000000000E+00 -0.13304779433E+02  0.13304780388E+02  0.50400000000E-02 0.  1.
         24    2    1    2    0    0  0.88817841970E-15  0.00000000000E+00  0.10709352960E+03  0.13370308944E+03  0.80046811588E+02 0.  0.
         66    2    3    3    0    0 -0.66548270808E+01  0.33276837372E+02  0.88943133401E+02  0.95218252495E+02  0.19999999938E+01 0.  0.
        -13    1    3    3    0    0  0.66548270808E+01 -0.33276837372E+02  0.18150396196E+02  0.38484836950E+02  0.10566000000E+00 0.  1.
         13    1    4    4    0    0 -0.24988009491E+01  0.11446571663E+02  0.28308114830E+02  0.30637045195E+02  0.10566000000E+00 0. -1.
        -13    1    4    4    0    0 -0.18562717740E+01  0.10907885388E+02  0.29764852409E+02  0.31755083239E+02  0.10566000000E+00 0.  1.
         14    1    4    4    0    0 -0.22997543577E+01  0.10922380320E+02  0.30870166162E+02  0.32826124060E+02  0.00000000000E+00 0. -1.
<mgrwt>
<rscale>  0 0.80046812E+02</rscale>
<asrwt>0</asrwt>
<pdfrwt beam="1">  1        2 0.18522817E-01 0.80046812E+02</pdfrwt>
<pdfrwt beam="2">  1       -1 0.20468893E-02 0.80046812E+02</pdfrwt>
<totfact> 0.18675935E+05</totfact>
</mgrwt>
</event>
<event>
 8    1  0.2561077E-024  0.7901261E+02  0.7818608E-02  0.1331877E+00
         -1   -1    0    0    0  501 -0.00000000000E+00  0.00000000000E+00  0.35110426295E+02  0.35110426657E+02  0.50400000000E-02 0.  1.
          2   -1    0    0  501    0  0.00000000000E+00 -0.00000000000E+00 -0.44452557863E+02  0.44452557936E+02  0.25500000000E-02 0. -1.
         24    2    1    2    0    0  0.00000000000E+00  0.00000000000E+00 -0.93421315684E+01  0.79562984593E+02  0.79012613519E+02 0.  0.
         66    2    3    3    0    0  0.11275984896E+02  0.15740454262E+02 -0.39320598112E+02  0.43875040465E+02  0.20000010431E+01 0.  0.
        -13    1    3    3    0    0 -0.11275984896E+02 -0.15740454262E+02  0.29978466544E+02  0.35687944128E+02  0.10566000000E+00 0.  1.
         13    1    4    4    0    0  0.74157898866E+01  0.96900851778E+01 -0.24187965715E+02  0.27091706108E+02  0.10566000000E+00 0. -1.
        -13    1    4    4    0    0  0.27297998941E+01  0.33013671754E+01 -0.90665046905E+01  0.10028135621E+02  0.10566000000E+00 0.  1.
        -14    1    4    4    0    0  0.11303951154E+01  0.27490019086E+01 -0.60661277069E+01  0.67551987363E+01  0.00000000000E+00 0.  1.
<mgrwt>
<rscale>  0 0.79012614E+02</rscale>
<asrwt>0</asrwt>
<pdfrwt beam="1">  1        2 0.68388551E-02 0.79012614E+02</pdfrwt>
<pdfrwt beam="2">  1       -1 0.54016041E-02 0.79012614E+02</pdfrwt>
<totfact> 0.15077718E+05</totfact>
</mgrwt>
</event>
<event>
 8    1  0.2561077E-024  0.7523142E+02  0.7818608E-02  0.1343156E+00
          2   -1    0    0  501    0  0.00000000000E+00  0.00000000000E+00  0.77871422521E+02  0.77871422563E+02  0.25500000000E-02 0. -1.
         -1   -1    0    0    0  501 -0.00000000000E+00 -0.00000000000E+00 -0.18170227096E+02  0.18170227795E+02  0.50400000000E-02 0.  1.
         24    2    1    2    0    0  0.00000000000E+00  0.00000000000E+00  0.59701195426E+02  0.96041650357E+02  0.75231415434E+02 0.  0.
         66    2    3    3    0    0 -0.37118731049E+01 -0.24494656669E+02  0.65961069535E+02  0.70488501918E+02  0.20000002909E+01 0.  0.
        -13    1    3    3    0    0  0.37118731049E+01  0.24494656669E+02 -0.62598741097E+01  0.25553148439E+02  0.10566000000E+00 0.  1.
         13    1    4    4    0    0 -0.20283141275E+01 -0.10678687316E+02  0.28619200500E+02  0.30614020029E+02  0.10566000000E+00 0.  1.
        -13    1    4    4    0    0 -0.62285376969E+00 -0.24088030166E+01  0.78533316894E+01  0.82387050833E+01  0.10566000000E+00 0. -1.
        -14    1    4    4    0    0 -0.10607052077E+01 -0.11407166336E+02  0.29488537345E+02  0.31635776806E+02  0.00000000000E+00 0.  1.
<mgrwt>
<rscale>  0 0.75231415E+02</rscale>
<asrwt>0</asrwt>
<pdfrwt beam="1">  1        2 0.11980219E-01 0.75231415E+02</pdfrwt>
<pdfrwt beam="2">  1       -1 0.27954197E-02 0.75231415E+02</pdfrwt>
<totfact> 0.19558476E+05</totfact>
</mgrwt>
</event>
<event>
 8    1  0.2561077E-024  0.7968317E+02  0.7818608E-02  0.1329953E+00
          2   -1    0    0  501    0  0.00000000000E+00  0.00000000000E+00  0.14804280247E+02  0.14804280467E+02  0.25500000000E-02 0. -1.
         -1   -1    0    0    0  501 -0.00000000000E+00 -0.00000000000E+00 -0.10722250183E+03  0.10722250194E+03  0.50400000000E-02 0.  1.
         24    2    1    2    0    0  0.00000000000E+00  0.00000000000E+00 -0.92418221578E+02  0.12202678241E+03  0.79683172287E+02 0.  0.
         66    2    3    3    0    0 -0.29134386182E+02 -0.25028729387E+02 -0.30169585142E+02  0.48882037862E+02  0.20000012436E+01 0.  0.
        -13    1    3    3    0    0  0.29134386182E+02  0.25028729387E+02 -0.62248636436E+02  0.73144744548E+02  0.10566000000E+00 0.  1.
         13    1    4    4    0    0 -0.24433315632E+02 -0.20618577195E+02 -0.25165270304E+02  0.40686786944E+02  0.10566000000E+00 0. -1.
        -13    1    4    4    0    0 -0.28851204126E+01 -0.23369659098E+01 -0.31845022213E+01  0.48926013420E+01  0.10566000000E+00 0.  1.
         14    1    4    4    0    0 -0.18159501367E+01 -0.20731862819E+01 -0.18198126174E+01  0.33026495758E+01  0.00000000000E+00 0. -1.
<mgrwt>
<rscale>  0 0.79683172E+02</rscale>
<asrwt>0</asrwt>
<pdfrwt beam="1">  1        2 0.22775817E-02 0.79683172E+02</pdfrwt>
<pdfrwt beam="2">  1       -1 0.16495769E-01 0.79683172E+02</pdfrwt>
<totfact> 0.11791579E+05</totfact>
</mgrwt>
</event>
<event>
 8    1  0.2561077E-024  0.8703782E+02  0.7818608E-02  0.1310188E+00
         -1   -1    0    0    0  501 -0.00000000000E+00  0.00000000000E+00  0.18304026378E+02  0.18304027072E+02  0.50400000000E-02 0.  1.
          2   -1    0    0  501    0  0.00000000000E+00 -0.00000000000E+00 -0.10346878931E+03  0.10346878934E+03  0.25500000000E-02 0. -1.
         24    2    1    2    0    0  0.00000000000E+00 -0.71054273576E-14 -0.85164762934E+02  0.12177281642E+03  0.87037819207E+02 0.  0.
         66    2    3    3    0    0  0.10562766105E+02 -0.42159863009E+02 -0.40236943066E+02  0.59262447366E+02  0.20000009237E+01 0.  0.
        -13    1    3    3    0    0 -0.10562766105E+02  0.42159863009E+02 -0.44927819868E+02  0.62510369051E+02  0.10566000000E+00 0.  1.
         13    1    4    4    0    0  0.39202040448E+00 -0.15269145574E+01 -0.11387936562E+01  0.19476044491E+01  0.10566000000E+00 0.  1.
        -13    1    4    4    0    0  0.82651205847E+00 -0.40767171581E+01 -0.34220429139E+01  0.53874192996E+01  0.10566000000E+00 0. -1.
        -14    1    4    4    0    0  0.93442336417E+01 -0.36556231294E+02 -0.35676106496E+02  0.51927423617E+02  0.00000000000E+00 0.  1.
<mgrwt>
<rscale>  0 0.87037819E+02</rscale>
<asrwt>0</asrwt>
<pdfrwt beam="1">  1        2 0.15918275E-01 0.87037819E+02</pdfrwt>
<pdfrwt beam="2">  1       -1 0.28160042E-02 0.87037819E+02</pdfrwt>
<totfact> 0.14265262E+05</totfact>
</mgrwt>
</event>
<event>
 8    1  0.2561077E-024  0.7966247E+02  0.7818608E-02  0.1330012E+00
         -1   -1    0    0    0  501 -0.00000000000E+00  0.00000000000E+00  0.83016796093E+00  0.83018325987E+00  0.50400000000E-02 0.  1.
          2   -1    0    0  501    0  0.00000000000E+00 -0.00000000000E+00 -0.19110742826E+04  0.19110742826E+04  0.25500000000E-02 0. -1.
         24    2    1    2    0    0  0.00000000000E+00  0.00000000000E+00 -0.19102441146E+04  0.19119044658E+04  0.79662469633E+02 0.  0.
         66    2    3    3    0    0 -0.11021374280E+02 -0.10646600391E+02 -0.18374436124E+04  0.18375085985E+04  0.19999998929E+01 0.  0.
        -13    1    3    3    0    0  0.11021374280E+02  0.10646600391E+02 -0.72800502198E+02  0.74395867326E+02  0.10566000000E+00 0.  1.
         13    1    4    4    0    0 -0.95002355474E+00 -0.65586500183E+00 -0.17045333501E+03  0.17045727700E+03  0.10566000000E+00 0. -1.
        -13    1    4    4    0    0 -0.23510785975E+01 -0.22373174518E+01 -0.45940417986E+03  0.45941565580E+03  0.10566000000E+00 0.  1.
         14    1    4    4    0    0 -0.77202721279E+01 -0.77534179378E+01 -0.12075860975E+04  0.12076356657E+04  0.00000000000E+00 0. -1.
<mgrwt>
<rscale>  0 0.79662470E+02</rscale>
<asrwt>0</asrwt>
<pdfrwt beam="1">  1        2 0.29400791E+00 0.79662470E+02</pdfrwt>
<pdfrwt beam="2">  1       -1 0.12772085E-03 0.79662470E+02</pdfrwt>
<totfact> 0.29205663E+05</totfact>
</mgrwt>
</event>
<event>
 8    1  0.2561077E-024  0.8519078E+02  0.7818608E-02  0.1314934E+00
          2   -1    0    0  501    0  0.00000000000E+00  0.00000000000E+00  0.26171990411E+02  0.26171990536E+02  0.25500000000E-02 0. -1.
         -1   -1    0    0    0  501 -0.00000000000E+00 -0.00000000000E+00 -0.69324771154E+02  0.69324771337E+02  0.50400000000E-02 0.  1.
         24    2    1    2    0    0  0.00000000000E+00  0.00000000000E+00 -0.43152780742E+02  0.95496761872E+02  0.85190780266E+02 0.  0.
         66    2    3    3    0    0 -0.22752433840E+02  0.25488301648E+02  0.68817757735E+01  0.34909677636E+02  0.19999970674E+01 0.  0.
        -13    1    3    3    0    0  0.22752433840E+02 -0.25488301648E+02 -0.50034556516E+02  0.60587084237E+02  0.10566000000E+00 0.  1.
         13    1    4    4    0    0 -0.12908576237E+02  0.13383110921E+02  0.43939354054E+01  0.19106460446E+02  0.10566000000E+00 0. -1.
        -13    1    4    4    0    0 -0.17271051745E+01  0.21471963078E+01  0.35304204891E+00  0.27801343478E+01  0.10566000000E+00 0.  1.
         14    1    4    4    0    0 -0.81167524292E+01  0.99579944186E+01  0.21347983191E+01  0.13023082842E+02  0.00000000000E+00 0. -1.
<mgrwt>
<rscale>  0 0.85190780E+02</rscale>
<asrwt>0</asrwt>
<pdfrwt beam="1">  1        2 0.40264601E-02 0.85190780E+02</pdfrwt>
<pdfrwt beam="2">  1       -1 0.10665349E-01 0.85190780E+02</pdfrwt>
<totfact> 0.10956129E+05</totfact>
</mgrwt>
</event>
<event>
 8    1  0.2561077E-024  0.8118714E+02  0.7818608E-02  0.1325716E+00
          2   -1    0    0  501    0  0.00000000000E+00  0.00000000000E+00  0.70596783727E+02  0.70596783773E+02  0.25500000000E-02 0. -1.
         -1   -1    0    0    0  501 -0.00000000000E+00 -0.00000000000E+00 -0.23341542123E+02  0.23341542667E+02  0.50400000000E-02 0.  1.
         24    2    1    2    0    0  0.00000000000E+00  0.00000000000E+00  0.47255241603E+02  0.93938326440E+02  0.81187137622E+02 0.  0.
         66    2    3    3    0    0  0.10226178876E+02  0.23709481150E+02  0.59847310457E+02  0.65210542104E+02  0.20000004655E+01 0.  0.
        -13    1    3    3    0    0 -0.10226178876E+02 -0.23709481150E+02 -0.12592068853E+02  0.28727784336E+02  0.10566000000E+00 0.  1.
         13    1    4    4    0    0  0.54004355668E+01  0.14448567922E+02  0.34903237656E+02  0.38159834673E+02  0.10566000000E+00 0. -1.
        -13    1    4    4    0    0  0.86909692628E+00  0.21466018698E+01  0.51264689549E+01  0.56262844788E+01  0.10566000000E+00 0. -1.
         14    1    4    4    0    0  0.39566463831E+01  0.71143113573E+01  0.19817603846E+02  0.21424422953E+02  0.00000000000E+00 0. -1.
<mgrwt>
<rscale>  0 0.81187138E+02</rscale>
<asrwt>0</asrwt>
<pdfrwt beam="1">  1        2 0.10861044E-01 0.81187138E+02</pdfrwt>
<pdfrwt beam="2">  1       -1 0.35910066E-02 0.81187138E+02</pdfrwt>
<totfact> 0.15547190E+05</totfact>
</mgrwt>
</event>
<event>
 8    1  0.2561077E-024  0.7995064E+02  0.7818608E-02  0.1329192E+00
         -1   -1    0    0    0  501 -0.00000000000E+00  0.00000000000E+00  0.64167627934E+01  0.64167647727E+01  0.50400000000E-02 0.  1.
          2   -1    0    0  501    0  0.00000000000E+00 -0.00000000000E+00 -0.24903929020E+03  0.24903929021E+03  0.25500000000E-02 0. -1.
         24    2    1    2    0    0  0.00000000000E+00  0.00000000000E+00 -0.24262252740E+03  0.25545605498E+03  0.79950642422E+02 0.  0.
         66    2    3    3    0    0 -0.38925750741E+02 -0.18951147097E+01 -0.14946374975E+03  0.15447400436E+03  0.20000005774E+01 0.  0.
        -13    1    3    3    0    0  0.38925750741E+02  0.18951147097E+01 -0.93158777649E+02  0.10098205062E+03  0.10566000000E+00 0.  1.
         13    1    4    4    0    0 -0.16645645404E+02 -0.74830808429E+00 -0.64945311599E+02  0.67048804155E+02  0.10566000000E+00 0. -1.
        -13    1    4    4    0    0 -0.98069001119E+01 -0.26360864753E+00 -0.39795884986E+02  0.40987417644E+02  0.10566000000E+00 0.  1.
        -14    1    4    4    0    0 -0.12473205226E+02 -0.88319797784E+00 -0.44722553170E+02  0.46437782563E+02  0.00000000000E+00 0.  1.
<mgrwt>
<rscale>  0 0.79950642E+02</rscale>
<asrwt>0</asrwt>
<pdfrwt beam="1">  1        2 0.38313730E-01 0.79950642E+02</pdfrwt>
<pdfrwt beam="2">  1       -1 0.98719462E-03 0.79950642E+02</pdfrwt>
<totfact> 0.23874183E+05</totfact>
</mgrwt>
</event>
<event>
 8    1  0.2561077E-024  0.7998622E+02  0.7818608E-02  0.1329091E+00
          2   -1    0    0  501    0  0.00000000000E+00  0.00000000000E+00  0.23755046785E+03  0.23755046786E+03  0.25500000000E-02 0. -1.
         -1   -1    0    0    0  501 -0.00000000000E+00 -0.00000000000E+00 -0.67330900561E+01  0.67330919424E+01  0.50400000000E-02 0.  1.
         24    2    1    2    0    0  0.00000000000E+00 -0.17763568394E-14  0.23081737779E+03  0.24428355980E+03  0.79986221937E+02 0.  0.
         66    2    3    3    0    0 -0.28100162526E+02  0.15471658429E+02  0.18829653792E+03  0.19101983541E+03  0.19999951168E+01 0.  0.
        -13    1    3    3    0    0  0.28100162526E+02 -0.15471658429E+02  0.42520839875E+02  0.53263724393E+02  0.10566000000E+00 0.  1.
         13    1    4    4    0    0 -0.28959815949E+01  0.16598398900E+01  0.21359334351E+02  0.21618836828E+02  0.10566000000E+00 0. -1.
        -13    1    4    4    0    0 -0.10736320401E+02  0.63787047654E+01  0.68553578306E+02  0.69681853541E+02  0.10566000000E+00 0.  1.
        -14    1    4    4    0    0 -0.14467860530E+02  0.74331137734E+01  0.98383625259E+02  0.99719145042E+02  0.00000000000E+00 0.  1.
<mgrwt>
<rscale>  0 0.79986222E+02</rscale>
<asrwt>0</asrwt>
<pdfrwt beam="1">  1        2 0.36546227E-01 0.79986222E+02</pdfrwt>
<pdfrwt beam="2">  1       -1 0.10358601E-02 0.79986222E+02</pdfrwt>
<totfact> 0.23447291E+05</totfact>
</mgrwt>
</event>
<event>
 8    1  0.2561077E-024  0.8028316E+02  0.7818608E-02  0.1328250E+00
          2   -1    0    0  501    0  0.00000000000E+00  0.00000000000E+00  0.29825366805E+03  0.29825366806E+03  0.25500000000E-02 0. -1.
         -1   -1    0    0    0  501 -0.00000000000E+00 -0.00000000000E+00 -0.54026033824E+01  0.54026057333E+01  0.50400000000E-02 0.  1.
         24    2    1    2    0    0  0.00000000000E+00  0.17763568394E-14  0.29285106467E+03  0.30365627380E+03  0.80283164721E+02 0.  0.
         66    2    3    3    0    0 -0.36818916447E+02 -0.12651062731E+02  0.10991168223E+03  0.11662015213E+03  0.19999989037E+01 0.  0.
        -13    1    3    3    0    0  0.36818916447E+02  0.12651062731E+02  0.18293938244E+03  0.18703612167E+03  0.10566000000E+00 0.  1.
         13    1    4    4    0    0 -0.78346514578E+01 -0.25085146962E+01  0.22359603788E+02  0.23825143337E+02  0.10566000000E+00 0. -1.
        -13    1    4    4    0    0 -0.62407951241E+01 -0.21010637042E+01  0.16882718620E+02  0.18121791978E+02  0.10566000000E+00 0.  1.
         14    1    4    4    0    0 -0.22743469865E+02 -0.80414843303E+01  0.70669359823E+02  0.74673216815E+02  0.00000000000E+00 0. -1.
<mgrwt>
<rscale>  0 0.80283165E+02</rscale>
<asrwt>0</asrwt>
<pdfrwt beam="1">  1        2 0.45885179E-01 0.80283165E+02</pdfrwt>
<pdfrwt beam="2">  1       -1 0.83116996E-03 0.80283165E+02</pdfrwt>
<totfact> 0.25206010E+05</totfact>
</mgrwt>
</event>
<event>
 8    1  0.2561077E-024  0.8068449E+02  0.7818608E-02  0.1327120E+00
         -1   -1    0    0    0  501 -0.00000000000E+00  0.00000000000E+00  0.53233567013E+02  0.53233567251E+02  0.50400000000E-02 0.  1.
          2   -1    0    0  501    0  0.00000000000E+00 -0.00000000000E+00 -0.30572754681E+02  0.30572754788E+02  0.25500000000E-02 0. -1.
         24    2    1    2    0    0  0.00000000000E+00 -0.17763568394E-14  0.22660812331E+02  0.83806322039E+02  0.80684491683E+02 0.  0.
         66    2    3    3    0    0 -0.89519244484E+01  0.10712040477E+02 -0.27949473191E+02  0.31305875116E+02  0.20000006505E+01 0.  0.
        -13    1    3    3    0    0  0.89519244484E+01 -0.10712040477E+02  0.50610285522E+02  0.52500446923E+02  0.10566000000E+00 0.  1.
         13    1    4    4    0    0 -0.30552253620E+01  0.46179085700E+01 -0.11516584561E+02  0.12778981397E+02  0.10566000000E+00 0. -1.
        -13    1    4    4    0    0 -0.25678278381E+01  0.24792647370E+01 -0.81132053888E+01  0.88642968790E+01  0.10566000000E+00 0.  1.
        -14    1    4    4    0    0 -0.33288712483E+01  0.36148671695E+01 -0.83196832412E+01  0.96625968391E+01  0.00000000000E+00 0.  1.
<mgrwt>
<rscale>  0 0.80684492E+02</rscale>
<asrwt>0</asrwt>
<pdfrwt beam="1">  1        2 0.47035008E-02 0.80684492E+02</pdfrwt>
<pdfrwt beam="2">  1       -1 0.81897795E-02 0.80684492E+02</pdfrwt>
<totfact> 0.13186973E+05</totfact>
</mgrwt>
</event>
<event>
 8    1  0.2561077E-024  0.8014186E+02  0.7818608E-02  0.1328649E+00
         -1   -1    0    0    0  501 -0.00000000000E+00  0.00000000000E+00  0.91071722589E+02  0.91071722729E+02  0.50400000000E-02 0.  1.
          2   -1    0    0  501    0  0.00000000000E+00 -0.00000000000E+00 -0.17630933652E+02  0.17630933836E+02  0.25500000000E-02 0. -1.
         24    2    1    2    0    0  0.71054273576E-14  0.88817841970E-15  0.73440788937E+02  0.10870265657E+03  0.80141862123E+02 0.  0.
         66    2    3    3    0    0 -0.39359813431E+02 -0.44868892958E+01  0.28793914485E+02  0.49014452946E+02  0.19999993455E+01 0.  0.
        -13    1    3    3    0    0  0.39359813431E+02  0.44868892958E+01  0.44646874452E+02  0.59688203619E+02  0.10566000000E+00 0.  1.
         13    1    4    4    0    0 -0.14425276796E+02 -0.14716283050E+01  0.10500673788E+02  0.17903340877E+02  0.10566000000E+00 0. -1.
        -13    1    4    4    0    0 -0.12910456822E+02 -0.23139448133E+01  0.92767481517E+01  0.16065598534E+02  0.10566000000E+00 0.  1.
        -14    1    4    4    0    0 -0.12024079813E+02 -0.70131617760E+00  0.90164925448E+01  0.15045513535E+02  0.00000000000E+00 0.  1.
<mgrwt>
<rscale>  0 0.80141862E+02</rscale>
<asrwt>0</asrwt>
<pdfrwt beam="1">  1        2 0.27124513E-02 0.80141862E+02</pdfrwt>
<pdfrwt beam="2">  1       -1 0.14011034E-01 0.80141862E+02</pdfrwt>
<totfact> 0.12036572E+05</totfact>
</mgrwt>
</event>
<event>
 8    1  0.2561077E-024  0.7973749E+02  0.7818608E-02  0.1329798E+00
         -1   -1    0    0    0  501 -0.00000000000E+00  0.00000000000E+00  0.89447289968E+00  0.89448709877E+00  0.50400000000E-02 0.  1.
          2   -1    0    0  501    0  0.00000000000E+00 -0.00000000000E+00 -0.17770288520E+04  0.17770288520E+04  0.25500000000E-02 0. -1.
         24    2    1    2    0    0  0.00000000000E+00  0.88817841970E-15 -0.17761343791E+04  0.17779233391E+04  0.79737488652E+02 0.  0.
         66    2    3    3    0    0 -0.99643668871E+01 -0.67391786837E+01 -0.17355680487E+04  0.17356108886E+04  0.19999999881E+01 0.  0.
        -13    1    3    3    0    0  0.99643668871E+01  0.67391786837E+01 -0.40566330387E+02  0.42312450436E+02  0.10566000000E+00 0.  1.
         13    1    4    4    0    0 -0.98865908117E+00 -0.27581446040E+00 -0.12836679207E+03  0.12837093904E+03  0.10566000000E+00 0. -1.
        -13    1    4    4    0    0 -0.87233279302E+01 -0.60670719522E+01 -0.15650615622E+04  0.15650976360E+04  0.10566000000E+00 0.  1.
        -14    1    4    4    0    0 -0.25237987574E+00 -0.39629227108E+00 -0.42139694455E+02  0.42142313557E+02  0.00000000000E+00 0.  1.
<mgrwt>
<rscale>  0 0.79737489E+02</rscale>
<asrwt>0</asrwt>
<pdfrwt beam="1">  1        2 0.27338623E+00 0.79737489E+02</pdfrwt>
<pdfrwt beam="2">  1       -1 0.13761373E-03 0.79737489E+02</pdfrwt>
<totfact> 0.30744982E+05</totfact>
</mgrwt>
</event>
<event>
 8    1  0.2561077E-024  0.8111490E+02  0.7818608E-02  0.1325917E+00
          2   -1    0    0  501    0  0.00000000000E+00  0.00000000000E+00  0.26570313378E+03  0.26570313379E+03  0.25500000000E-02 0. -1.
         -1   -1    0    0    0  501 -0.00000000000E+00 -0.00000000000E+00 -0.61907674700E+01  0.61907695216E+01  0.50400000000E-02 0.  1.
         24    2    1    2    0    0  0.00000000000E+00  0.00000000000E+00  0.25951236631E+03  0.27189390331E+03  0.81114896237E+02 0.  0.
         66    2    3    3    0    0 -0.52723491181E+01 -0.33558745293E+02  0.20395142164E+03  0.20677081380E+03  0.20000001825E+01 0.  0.
        -13    1    3    3    0    0  0.52723491181E+01  0.33558745293E+02  0.55560944672E+02  0.65123089513E+02  0.10566000000E+00 0.  1.
         13    1    4    4    0    0 -0.71380690929E+00 -0.71913646626E+01  0.45657316182E+02  0.46225825369E+02  0.10566000000E+00 0. -1.
        -13    1    4    4    0    0 -0.26549389145E+01 -0.12073158834E+02  0.71256966772E+02  0.72321340851E+02  0.10566000000E+00 0.  1.
        -14    1    4    4    0    0 -0.19036032943E+01 -0.14294221797E+02  0.87037138685E+02  0.88223647583E+02  0.00000000000E+00 0.  1.
<mgrwt>
<rscale>  0 0.81114896E+02</rscale>
<asrwt>0</asrwt>
<pdfrwt beam="1">  1        2 0.40877390E-01 0.81114896E+02</pdfrwt>
<pdfrwt beam="2">  1       -1 0.95242628E-03 0.81114896E+02</pdfrwt>
<totfact> 0.23526343E+05</totfact>
</mgrwt>
</event>
<event>
 8    1  0.2561077E-024  0.7973007E+02  0.7818608E-02  0.1329819E+00
          2   -1    0    0  501    0  0.00000000000E+00  0.00000000000E+00  0.25115494828E+02  0.25115494957E+02  0.25500000000E-02 0. -1.
         -1   -1    0    0    0  501 -0.00000000000E+00 -0.00000000000E+00 -0.63276518858E+02  0.63276519059E+02  0.50400000000E-02 0.  1.
         24    2    1    2    0    0  0.17763568394E-14  0.00000000000E+00 -0.38161024030E+02  0.88392014016E+02  0.79730072035E+02 0.  0.
         66    2    3    3    0    0  0.10694817845E+02  0.19583248800E+02  0.17498262492E+02  0.28426606468E+02  0.20000006921E+01 0.  0.
        -13    1    3    3    0    0 -0.10694817845E+02 -0.19583248800E+02 -0.55659286522E+02  0.59965407548E+02  0.10566000000E+00 0.  1.
         13    1    4    4    0    0  0.24519365015E+01  0.47994468752E+01  0.47145002095E+01  0.71613098785E+01  0.10566000000E+00 0. -1.
        -13    1    4    4    0    0  0.14157064728E+01  0.37836478299E+01  0.32838976339E+01  0.52072414409E+01  0.10566000000E+00 0.  1.
        -14    1    4    4    0    0  0.68271748703E+01  0.11000154095E+02  0.94998646482E+01  0.16058055148E+02  0.00000000000E+00 0.  1.
<mgrwt>
<rscale>  0 0.79730072E+02</rscale>
<asrwt>0</asrwt>
<pdfrwt beam="1">  1        2 0.38639223E-02 0.79730072E+02</pdfrwt>
<pdfrwt beam="2">  1       -1 0.97348491E-02 0.79730072E+02</pdfrwt>
<totfact> 0.13117059E+05</totfact>
</mgrwt>
</event>
<event>
 8    1  0.2561077E-024  0.7945414E+02  0.7818608E-02  0.1330608E+00
         -1   -1    0    0    0  501 -0.00000000000E+00  0.00000000000E+00  0.42341166748E+01  0.42341196744E+01  0.50400000000E-02 0.  1.
          2   -1    0    0  501    0  0.00000000000E+00 -0.00000000000E+00 -0.37274353175E+03  0.37274353176E+03  0.25500000000E-02 0. -1.
         24    2    1    2    0    0  0.00000000000E+00  0.00000000000E+00 -0.36850941507E+03  0.37697765143E+03  0.79454142000E+02 0.  0.
         66    2    3    3    0    0  0.10676099232E+02  0.28183276567E+02 -0.30699470563E+03  0.30847694476E+03  0.19999973315E+01 0.  0.
        -13    1    3    3    0    0 -0.10676099232E+02 -0.28183276567E+02 -0.61514709442E+02  0.68500706672E+02  0.10566000000E+00 0.  1.
         13    1    4    4    0    0  0.72946819163E+01  0.19201585578E+02 -0.20764815513E+03  0.20866164182E+03  0.10566000000E+00 0. -1.
        -13    1    4    4    0    0  0.23949725537E+01  0.67975178444E+01 -0.69536957618E+02  0.69909525683E+02  0.10566000000E+00 0.  1.
        -14    1    4    4    0    0  0.98644476161E+00  0.21841731438E+01 -0.29809592880E+02  0.29905777256E+02  0.00000000000E+00 0.  1.
<mgrwt>
<rscale>  0 0.79454142E+02</rscale>
<asrwt>0</asrwt>
<pdfrwt beam="1">  1        2 0.57345133E-01 0.79454142E+02</pdfrwt>
<pdfrwt beam="2">  1       -1 0.65140309E-03 0.79454142E+02</pdfrwt>
<totfact> 0.28056769E+05</totfact>
</mgrwt>
</event>
<event>
 8    1  0.2561077E-024  0.7861589E+02  0.7818608E-02  0.1333026E+00
          2   -1    0    0  501    0  0.00000000000E+00  0.00000000000E+00  0.23489238902E+02  0.23489239041E+02  0.25500000000E-02 0. -1.
         -1   -1    0    0    0  501 -0.00000000000E+00 -0.00000000000E+00 -0.65779678813E+02  0.65779679006E+02  0.50400000000E-02 0.  1.
         24    2    1    2    0    0 -0.17763568394E-14  0.00000000000E+00 -0.42290439911E+02  0.89268918047E+02  0.78615891659E+02 0.  0.
         66    2    3    3    0    0 -0.12460031078E+02 -0.36161903406E+02 -0.10991539842E+02  0.39846575509E+02  0.19999998187E+01 0.  0.
        -13    1    3    3    0    0  0.12460031078E+02  0.36161903406E+02 -0.31298900069E+02  0.49422342538E+02  0.10566000000E+00 0.  1.
         13    1    4    4    0    0 -0.70328109550E+01 -0.21596799653E+02 -0.62536662668E+01  0.23558473868E+02  0.10566000000E+00 0. -1.
        -13    1    4    4    0    0 -0.16420096123E+01 -0.46129056419E+01 -0.20287202765E+01  0.53011285614E+01  0.10566000000E+00 0.  1.
        -14    1    4    4    0    0 -0.37852105102E+01 -0.99521981112E+01 -0.27091532986E+01  0.10986973079E+02  0.00000000000E+00 0.  1.
<mgrwt>
<rscale>  0 0.78615892E+02</rscale>
<asrwt>0</asrwt>
<pdfrwt beam="1">  1        2 0.36137291E-02 0.78615892E+02</pdfrwt>
<pdfrwt beam="2">  1       -1 0.10119951E-01 0.78615892E+02</pdfrwt>
<totfact> 0.13472375E+05</totfact>
</mgrwt>
</event>
<event>
 8    1  0.2561077E-024  0.7186264E+02  0.7818608E-02  0.1353871E+00
         -1   -1    0    0    0  501 -0.00000000000E+00  0.00000000000E+00  0.63606178705E+01  0.63606198673E+01  0.50400000000E-02 0.  1.
          2   -1    0    0  501    0  0.00000000000E+00 -0.00000000000E+00 -0.20297704840E+03  0.20297704842E+03  0.25500000000E-02 0. -1.
         24    2    1    2    0    0  0.00000000000E+00  0.00000000000E+00 -0.19661643053E+03  0.20933766829E+03  0.71862637081E+02 0.  0.
         66    2    3    3    0    0 -0.92420742216E+01 -0.16420722427E+02 -0.18741025604E+03  0.18836576151E+03  0.19999951464E+01 0.  0.
        -13    1    3    3    0    0  0.92420742216E+01  0.16420722427E+02 -0.92061744954E+01  0.20971906776E+02  0.10566000000E+00 0.  1.
         13    1    4    4    0    0 -0.35975448120E+01 -0.71948374178E+01 -0.81011264887E+02  0.81409730480E+02  0.10566000000E+00 0. -1.
        -13    1    4    4    0    0 -0.21038582728E+01 -0.28774664003E+01 -0.29690133891E+02  0.29903532351E+02  0.10566000000E+00 0.  1.
        -14    1    4    4    0    0 -0.35406711368E+01 -0.63484186088E+01 -0.76708857260E+02  0.77052498682E+02  0.00000000000E+00 0.  1.
<mgrwt>
<rscale>  0 0.71862637E+02</rscale>
<asrwt>0</asrwt>
<pdfrwt beam="1">  1        2 0.31227233E-01 0.71862637E+02</pdfrwt>
<pdfrwt beam="2">  1       -1 0.97855691E-03 0.71862637E+02</pdfrwt>
<totfact> 0.29372083E+05</totfact>
</mgrwt>
</event>
<event>
 8    1  0.2561077E-024  0.7964390E+02  0.7818608E-02  0.1330065E+00
          2   -1    0    0  501    0  0.00000000000E+00  0.00000000000E+00  0.28782471138E+02  0.28782471251E+02  0.25500000000E-02 0. -1.
         -1   -1    0    0    0  501 -0.00000000000E+00 -0.00000000000E+00 -0.55095603115E+02  0.55095603345E+02  0.50400000000E-02 0.  1.
         24    2    1    2    0    0  0.00000000000E+00  0.00000000000E+00 -0.26313131977E+02  0.83878074596E+02  0.79643897968E+02 0.  0.
         66    2    3    3    0    0  0.17957710828E+02  0.40587863840E+01  0.23993037168E+02  0.30308727548E+02  0.20000019774E+01 0.  0.
        -13    1    3    3    0    0 -0.17957710828E+02 -0.40587863840E+01 -0.50306169145E+02  0.53569347048E+02  0.10566000000E+00 0.  1.
         13    1    4    4    0    0  0.11626534361E+02  0.24061421109E+01  0.14508853714E+02  0.18747901782E+02  0.10566000000E+00 0. -1.
        -13    1    4    4    0    0  0.12753670858E+01  0.63435742683E+00  0.24933335615E+01  0.28734729567E+01  0.10566000000E+00 0.  1.
        -14    1    4    4    0    0  0.50558093809E+01  0.10182868463E+01  0.69908498930E+01  0.86873528087E+01  0.00000000000E+00 0.  1.
<mgrwt>
<rscale>  0 0.79643898E+02</rscale>
<asrwt>0</asrwt>
<pdfrwt beam="1">  1        2 0.44280725E-02 0.79643898E+02</pdfrwt>
<pdfrwt beam="2">  1       -1 0.84762467E-02 0.79643898E+02</pdfrwt>
<totfact> 0.13513988E+05</totfact>
</mgrwt>
</event>
<event>
 8    1  0.2561077E-024  0.8128973E+02  0.7818608E-02  0.1325431E+00
         -1   -1    0    0    0  501 -0.00000000000E+00  0.00000000000E+00  0.32826382155E+01  0.32826420846E+01  0.50400000000E-02 0.  1.
          2   -1    0    0  501    0  0.00000000000E+00 -0.00000000000E+00 -0.50325502366E+03  0.50325502366E+03  0.25500000000E-02 0. -1.
         24    2    1    2    0    0 -0.17763568394E-14  0.00000000000E+00 -0.49997238544E+03  0.50653766575E+03  0.81289732546E+02 0.  0.
         66    2    3    3    0    0 -0.15178647880E+02  0.23365717120E+02 -0.43431829791E+03  0.43521573040E+03  0.20000003239E+01 0.  0.
        -13    1    3    3    0    0  0.15178647880E+02 -0.23365717120E+02 -0.65654087533E+02  0.71321935349E+02  0.10566000000E+00 0.  1.
         13    1    4    4    0    0 -0.50816943061E+01  0.86688068901E+01 -0.16372702256E+03  0.16403512096E+03  0.10566000000E+00 0. -1.
        -13    1    4    4    0    0 -0.48399634707E+01  0.64189698810E+01 -0.12871236346E+03  0.12896321992E+03  0.10566000000E+00 0.  1.
         14    1    4    4    0    0 -0.52569901036E+01  0.82779403487E+01 -0.14187891189E+03  0.14221738951E+03  0.00000000000E+00 0. -1.
<mgrwt>
<rscale>  0 0.81289733E+02</rscale>
<asrwt>0</asrwt>
<pdfrwt beam="1">  1        2 0.77423789E-01 0.81289733E+02</pdfrwt>
<pdfrwt beam="2">  1       -1 0.50502196E-03 0.81289733E+02</pdfrwt>
<totfact> 0.29267620E+05</totfact>
</mgrwt>
</event>
<event>
 8    1  0.2561077E-024  0.8538160E+02  0.7818608E-02  0.1314438E+00
         -1   -1    0    0    0  501 -0.00000000000E+00  0.00000000000E+00  0.14503954284E+02  0.14503955160E+02  0.50400000000E-02 0.  1.
          2   -1    0    0  501    0  0.00000000000E+00 -0.00000000000E+00 -0.12565567774E+03  0.12565567777E+03  0.25500000000E-02 0. -1.
         24    2    1    2    0    0 -0.44408920985E-15 -0.17763568394E-14 -0.11115172346E+03  0.14015963293E+03  0.85381596815E+02 0.  0.
         66    2    3    3    0    0  0.29189609974E+01  0.11636407607E+02 -0.12282184324E+03  0.12342257299E+03  0.20000078993E+01 0.  0.
        -13    1    3    3    0    0 -0.29189609974E+01 -0.11636407607E+02  0.11670119787E+02  0.16737059932E+02  0.10566000000E+00 0.  1.
         13    1    4    4    0    0  0.96600176888E+00  0.18425721255E+01 -0.17461716730E+02  0.17585532311E+02  0.10566000000E+00 0. -1.
        -13    1    4    4    0    0  0.58615502132E+00  0.13454391701E+01 -0.16848749324E+02  0.16912873857E+02  0.10566000000E+00 0.  1.
         14    1    4    4    0    0  0.13668042072E+01  0.84483963111E+01 -0.88511377189E+02  0.88924166827E+02  0.00000000000E+00 0. -1.
<mgrwt>
<rscale>  0 0.85381597E+02</rscale>
<asrwt>0</asrwt>
<pdfrwt beam="1">  1        2 0.19331642E-01 0.85381597E+02</pdfrwt>
<pdfrwt beam="2">  1       -1 0.22313777E-02 0.85381597E+02</pdfrwt>
<totfact> 0.15920962E+05</totfact>
</mgrwt>
</event>
<event>
 8    1  0.2561077E-024  0.7293547E+02  0.7818608E-02  0.1350386E+00
          2   -1    0    0  501    0  0.00000000000E+00  0.00000000000E+00  0.68328968740E+03  0.68328968741E+03  0.25500000000E-02 0. -1.
         -1   -1    0    0    0  501 -0.00000000000E+00 -0.00000000000E+00 -0.19463098084E+01  0.19463163339E+01  0.50400000000E-02 0.  1.
         24    2    1    2    0    0 -0.35527136788E-14  0.00000000000E+00  0.68134337760E+03  0.68523600374E+03  0.72935468956E+02 0.  0.
         66    2    3    3    0    0 -0.23421200269E+02  0.13084823350E+02  0.57261220195E+03  0.57324383908E+03  0.19999997320E+01 0.  0.
        -13    1    3    3    0    0  0.23421200269E+02 -0.13084823350E+02  0.10873117565E+03  0.11199216466E+03  0.10566000000E+00 0.  1.
         13    1    4    4    0    0 -0.12161842856E+02  0.66319134095E+01  0.30595602721E+03  0.30626948011E+03  0.10566000000E+00 0. -1.
        -13    1    4    4    0    0 -0.85396873161E+01  0.54180431757E+01  0.20347153154E+03  0.20372274483E+03  0.10566000000E+00 0.  1.
         14    1    4    4    0    0 -0.27196700973E+01  0.10348667651E+01  0.63184643202E+02  0.63251614140E+02  0.00000000000E+00 0. -1.
<mgrwt>
<rscale>  0 0.72935469E+02</rscale>
<asrwt>0</asrwt>
<pdfrwt beam="1">  1        2 0.10512142E+00 0.72935469E+02</pdfrwt>
<pdfrwt beam="2">  1       -1 0.29943298E-03 0.72935469E+02</pdfrwt>
<totfact> 0.42252984E+05</totfact>
</mgrwt>
</event>
<event>
 8    1  0.2561077E-024  0.7860588E+02  0.7818608E-02  0.1333055E+00
         -1   -1    0    0    0  501 -0.00000000000E+00  0.00000000000E+00  0.19907939478E+01  0.19908003276E+01  0.50400000000E-02 0.  1.
          2   -1    0    0  501    0  0.00000000000E+00 -0.00000000000E+00 -0.77593097925E+03  0.77593097926E+03  0.25500000000E-02 0. -1.
         24    2    1    2    0    0  0.00000000000E+00  0.00000000000E+00 -0.77394018530E+03  0.77792177958E+03  0.78605882236E+02 0.  0.
         66    2    3    3    0    0 -0.28621299274E+02  0.27782676731E+01 -0.65199821369E+03  0.65263509574E+03  0.19999982473E+01 0.  0.
        -13    1    3    3    0    0  0.28621299274E+02 -0.27782676731E+01 -0.12194197161E+03  0.12528668384E+03  0.10566000000E+00 0.  1.
         13    1    4    4    0    0 -0.69069660354E+01  0.78922591463E+00 -0.17446971731E+03  0.17460819706E+03  0.10566000000E+00 0.  1.
        -13    1    4    4    0    0 -0.21680662612E+02  0.19462519832E+01 -0.47614212153E+03  0.47663945503E+03  0.10566000000E+00 0. -1.
         14    1    4    4    0    0 -0.33670626991E-01  0.42789775358E-01 -0.13863748457E+01  0.13874436525E+01  0.00000000000E+00 0. -1.
<mgrwt>
<rscale>  0 0.78605882E+02</rscale>
<asrwt>0</asrwt>
<pdfrwt beam="1">  1        2 0.11937376E+00 0.78605882E+02</pdfrwt>
<pdfrwt beam="2">  1       -1 0.30627710E-03 0.78605882E+02</pdfrwt>
<totfact> 0.35773389E+05</totfact>
</mgrwt>
</event>
<event>
 8    1  0.2561077E-024  0.8113622E+02  0.7818608E-02  0.1325858E+00
         -1   -1    0    0    0  501 -0.00000000000E+00  0.00000000000E+00  0.15365008435E+02  0.15365009262E+02  0.50400000000E-02 0.  1.
          2   -1    0    0  501    0  0.00000000000E+00 -0.00000000000E+00 -0.10711164634E+03  0.10711164637E+03  0.25500000000E-02 0. -1.
         24    2    1    2    0    0  0.00000000000E+00 -0.71054273576E-14 -0.91746637901E+02  0.12247665563E+03  0.81136216375E+02 0.  0.
         66    2    3    3    0    0  0.93883128433E+01  0.33502488468E+02 -0.77319757999E+02  0.84810979219E+02  0.20000168549E+01 0.  0.
        -13    1    3    3    0    0 -0.93883128433E+01 -0.33502488468E+02 -0.14426879901E+02  0.37665676409E+02  0.10566000000E+00 0.  1.
         13    1    4    4    0    0  0.37594102725E+01  0.12076561398E+02 -0.28869414392E+02  0.31518736526E+02  0.10566000000E+00 0. -1.
        -13    1    4    4    0    0  0.29668832981E+01  0.11014584913E+02 -0.26569344108E+02  0.28914783203E+02  0.10566000000E+00 0.  1.
        -14    1    4    4    0    0  0.26620192728E+01  0.10411342157E+02 -0.21880999499E+02  0.24377459490E+02  0.00000000000E+00 0.  1.
<mgrwt>
<rscale>  0 0.81136216E+02</rscale>
<asrwt>0</asrwt>
<pdfrwt beam="1">  1        2 0.16478714E-01 0.81136216E+02</pdfrwt>
<pdfrwt beam="2">  1       -1 0.23638476E-02 0.81136216E+02</pdfrwt>
<totfact> 0.17404981E+05</totfact>
</mgrwt>
</event>
<event>
 8    1  0.2561077E-024  0.7849968E+02  0.7818608E-02  0.1333364E+00
          2   -1    0    0  501    0  0.00000000000E+00  0.00000000000E+00  0.68482256208E+02  0.68482256255E+02  0.25500000000E-02 0. -1.
         -1   -1    0    0    0  501 -0.00000000000E+00 -0.00000000000E+00 -0.22495609604E+02  0.22495610169E+02  0.50400000000E-02 0.  1.
         24    2    1    2    0    0  0.00000000000E+00 -0.17763568394E-14  0.45986646604E+02  0.90977866424E+02  0.78499684796E+02 0.  0.
         66    2    3    3    0    0 -0.37920119242E+02  0.90372006846E+01  0.17964572911E+02  0.42968969148E+02  0.19999975616E+01 0.  0.
        -13    1    3    3    0    0  0.37920119242E+02 -0.90372006846E+01  0.28022073693E+02  0.48008897276E+02  0.10566000000E+00 0.  1.
         13    1    4    4    0    0 -0.26755096034E+02  0.69680562674E+01  0.12170645826E+02  0.30208024692E+02  0.10566000000E+00 0. -1.
        -13    1    4    4    0    0 -0.49525836582E+01  0.69247521827E+00  0.23668498354E+01  0.55336018106E+01  0.10566000000E+00 0. -1.
         14    1    4    4    0    0 -0.62124395496E+01  0.13766691990E+01  0.34270772491E+01  0.72273426453E+01  0.00000000000E+00 0. -1.
<mgrwt>
<rscale>  0 0.78499685E+02</rscale>
<asrwt>0</asrwt>
<pdfrwt beam="1">  1        2 0.10535732E-01 0.78499685E+02</pdfrwt>
<pdfrwt beam="2">  1       -1 0.34608631E-02 0.78499685E+02</pdfrwt>
<totfact> 0.16904695E+05</totfact>
</mgrwt>
</event>
<event>
 8    1  0.2561077E-024  0.7980444E+02  0.7818608E-02  0.1329607E+00
         -1   -1    0    0    0  501 -0.00000000000E+00  0.00000000000E+00  0.74942664235E+02  0.74942664404E+02  0.50400000000E-02 0.  1.
          2   -1    0    0  501    0  0.00000000000E+00 -0.00000000000E+00 -0.21245403448E+02  0.21245403601E+02  0.25500000000E-02 0. -1.
         24    2    1    2    0    0  0.00000000000E+00  0.00000000000E+00  0.53697260786E+02  0.96188068006E+02  0.79804439793E+02 0.  0.
         66    2    3    3    0    0 -0.13720720742E+02 -0.23330639838E+02 -0.84315597997E+01  0.28419502694E+02  0.19999999560E+01 0.  0.
        -13    1    3    3    0    0  0.13720720742E+02  0.23330639838E+02  0.62128820586E+02  0.67768565311E+02  0.10566000000E+00 0.  1.
         13    1    4    4    0    0 -0.93714870369E+01 -0.16129106338E+02 -0.53445846860E+01  0.19404859959E+02  0.10566000000E+00 0. -1.
        -13    1    4    4    0    0 -0.38494435088E+01 -0.59299447816E+01 -0.28715737707E+01  0.76314848095E+01  0.10566000000E+00 0.  1.
        -14    1    4    4    0    0 -0.49979019650E+00 -0.12715887181E+01 -0.21540134289E+00  0.13831579255E+01  0.00000000000E+00 0.  1.
<mgrwt>
<rscale>  0 0.79804440E+02</rscale>
<asrwt>0</asrwt>
<pdfrwt beam="1">  1        2 0.32685236E-02 0.79804440E+02</pdfrwt>
<pdfrwt beam="2">  1       -1 0.11529641E-01 0.79804440E+02</pdfrwt>
<totfact> 0.12655897E+05</totfact>
</mgrwt>
</event>
<event>
 8    1  0.2561077E-024  0.8166885E+02  0.7818608E-02  0.1324381E+00
          2   -1    0    0  501    0  0.00000000000E+00  0.00000000000E+00  0.13568974895E+04  0.13568974895E+04  0.25500000000E-02 0. -1.
         -1   -1    0    0    0  501 -0.00000000000E+00 -0.00000000000E+00 -0.12288644735E+01  0.12288748088E+01  0.50400000000E-02 0.  1.
         24    2    1    2    0    0  0.00000000000E+00  0.00000000000E+00  0.13556686250E+04  0.13581263643E+04  0.81668846912E+02 0.  0.
         66    2    3    3    0    0  0.19904103720E+02 -0.11008048518E+02  0.12417120345E+04  0.12419219489E+04  0.20000025462E+01 0.  0.
        -13    1    3    3    0    0 -0.19904103720E+02  0.11008048518E+02  0.11395659047E+03  0.11620441538E+03  0.10566000000E+00 0.  1.
         13    1    4    4    0    0  0.23015714469E+01 -0.97387601134E+00  0.14334683716E+03  0.14336865959E+03  0.10566000000E+00 0. -1.
        -13    1    4    4    0    0  0.67691655450E+01 -0.40632319294E+01  0.47058284816E+03  0.47064908329E+03  0.10566000000E+00 0.  1.
        -14    1    4    4    0    0  0.10833366728E+02 -0.59709405776E+01  0.62778234923E+03  0.62790420605E+03  0.00000000000E+00 0.  1.
<mgrwt>
<rscale>  0 0.81668847E+02</rscale>
<asrwt>0</asrwt>
<pdfrwt beam="1">  1        2 0.20875392E+00 0.81668847E+02</pdfrwt>
<pdfrwt beam="2">  1       -1 0.18905645E-03 0.81668847E+02</pdfrwt>
<totfact> 0.32501908E+05</totfact>
</mgrwt>
</event>
<event>
 8    1  0.2561077E-024  0.7991134E+02  0.7818608E-02  0.1329303E+00
          2   -1    0    0  501    0  0.00000000000E+00  0.00000000000E+00  0.88524407184E+01  0.88524410857E+01  0.25500000000E-02 0. -1.
         -1   -1    0    0    0  501 -0.00000000000E+00 -0.00000000000E+00 -0.18034069756E+03  0.18034069763E+03  0.50400000000E-02 0.  1.
         24    2    1    2    0    0  0.00000000000E+00 -0.44408920985E-15 -0.17148825684E+03  0.18919313872E+03  0.79911335258E+02 0.  0.
         66    2    3    3    0    0  0.37465541288E+02  0.18900101516E+01 -0.53403786541E+02  0.65293210498E+02  0.19999994544E+01 0.  0.
        -13    1    3    3    0    0 -0.37465541288E+02 -0.18900101516E+01 -0.11808447030E+03  0.12389992822E+03  0.10566000000E+00 0.  1.
         13    1    4    4    0    0  0.24445362620E+02  0.11049331789E+01 -0.34178030352E+02  0.42035051489E+02  0.10566000000E+00 0. -1.
        -13    1    4    4    0    0  0.11418525837E+02  0.34150817086E+00 -0.16934766955E+02  0.20427845113E+02  0.10566000000E+00 0.  1.
        -14    1    4    4    0    0  0.16016528305E+01  0.44356880190E+00 -0.22909892350E+01  0.28303138954E+01  0.00000000000E+00 0.  1.
<mgrwt>
<rscale>  0 0.79911335E+02</rscale>
<asrwt>0</asrwt>
<pdfrwt beam="1">  1        2 0.13619141E-02 0.79911335E+02</pdfrwt>
<pdfrwt beam="2">  1       -1 0.27744720E-01 0.79911335E+02</pdfrwt>
<totfact> 0.10295836E+05</totfact>
</mgrwt>
</event>
<event>
 8    1  0.2561077E-024  0.7726730E+02  0.7818608E-02  0.1336990E+00
          2   -1    0    0  501    0  0.00000000000E+00  0.00000000000E+00  0.35398160351E+02  0.35398160443E+02  0.25500000000E-02 0. -1.
         -1   -1    0    0    0  501 -0.00000000000E+00 -0.00000000000E+00 -0.42164869579E+02  0.42164869880E+02  0.50400000000E-02 0.  1.
         24    2    1    2    0    0  0.35527136788E-14  0.00000000000E+00 -0.67667092282E+01  0.77563030323E+02  0.77267297863E+02 0.  0.
         66    2    3    3    0    0 -0.22004826614E+02 -0.11581601886E+02  0.26260588153E+02  0.36221048840E+02  0.19999980893E+01 0.  0.
        -13    1    3    3    0    0  0.22004826614E+02  0.11581601886E+02 -0.33027297382E+02  0.41341981483E+02  0.10566000000E+00 0.  1.
         13    1    4    4    0    0 -0.13684029707E+02 -0.69965662062E+01  0.15678919361E+02  0.21955506919E+02  0.10566000000E+00 0. -1.
        -13    1    4    4    0    0 -0.24111406575E+01 -0.11345244757E+01  0.36961739891E+01  0.45578077240E+01  0.10566000000E+00 0.  1.
        -14    1    4    4    0    0 -0.59096562495E+01 -0.34505112041E+01  0.68854948035E+01  0.97077341973E+01  0.00000000000E+00 0.  1.
<mgrwt>
<rscale>  0 0.77267298E+02</rscale>
<asrwt>0</asrwt>
<pdfrwt beam="1">  1        2 0.54458708E-02 0.77267298E+02</pdfrwt>
<pdfrwt beam="2">  1       -1 0.64869031E-02 0.77267298E+02</pdfrwt>
<totfact> 0.15312113E+05</totfact>
</mgrwt>
</event>
<event>
 8    1  0.2561077E-024  0.7705937E+02  0.7818608E-02  0.1337610E+00
          2   -1    0    0  501    0  0.00000000000E+00  0.00000000000E+00  0.10511728717E+03  0.10511728720E+03  0.25500000000E-02 0. -1.
         -1   -1    0    0    0  501 -0.00000000000E+00 -0.00000000000E+00 -0.14122669484E+02  0.14122670383E+02  0.50400000000E-02 0.  1.
         24    2    1    2    0    0  0.00000000000E+00  0.00000000000E+00  0.90994617686E+02  0.11923995758E+03  0.77059373452E+02 0.  0.
         66    2    3    3    0    0  0.11020172381E+02 -0.21808423894E+02  0.91573222122E+02  0.94798241213E+02  0.19999938112E+01 0.  0.
        -13    1    3    3    0    0 -0.11020172381E+02  0.21808423894E+02 -0.57860443543E+00  0.24441716372E+02  0.10566000000E+00 0.  1.
         13    1    4    4    0    0  0.21547396205E+01 -0.52173738183E+01  0.20523589741E+02  0.21285976424E+02  0.10566000000E+00 0.  1.
        -13    1    4    4    0    0  0.62719155127E+01 -0.11886470601E+02  0.48115885361E+02  0.49957729089E+02  0.10566000000E+00 0. -1.
        -14    1    4    4    0    0  0.25935172474E+01 -0.47045794749E+01  0.22933747019E+02  0.23554535701E+02  0.00000000000E+00 0.  1.
<mgrwt>
<rscale>  0 0.77059373E+02</rscale>
<asrwt>0</asrwt>
<pdfrwt beam="1">  1        2 0.16171891E-01 0.77059373E+02</pdfrwt>
<pdfrwt beam="2">  1       -1 0.21727184E-02 0.77059373E+02</pdfrwt>
<totfact> 0.19867838E+05</totfact>
</mgrwt>
</event>
<event>
 8    1  0.2561077E-024  0.8139693E+02  0.7818608E-02  0.1325133E+00
         -1   -1    0    0    0  501 -0.00000000000E+00  0.00000000000E+00  0.71213634885E+02  0.71213635063E+02  0.50400000000E-02 0.  1.
          2   -1    0    0  501    0  0.00000000000E+00 -0.00000000000E+00 -0.23259101837E+02  0.23259101976E+02  0.25500000000E-02 0. -1.
         24    2    1    2    0    0 -0.71054273576E-14 -0.44408920985E-15  0.47954533048E+02  0.94472737039E+02  0.81396933627E+02 0.  0.
         66    2    3    3    0    0  0.35790726280E+02 -0.32681914515E+01  0.18875397428E+01  0.36044694121E+02  0.20000012382E+01 0.  0.
        -13    1    3    3    0    0 -0.35790726280E+02  0.32681914515E+01  0.46066993306E+02  0.58428042918E+02  0.10566000000E+00 0.  1.
         13    1    4    4    0    0  0.33619850616E+01 -0.43588363075E+00  0.38558108455E+00  0.34136161036E+01  0.10566000000E+00 0. -1.
        -13    1    4    4    0    0  0.21566718905E+02 -0.20140731264E+01  0.17883468533E+01  0.21734516406E+02  0.10566000000E+00 0.  1.
         14    1    4    4    0    0  0.10862022314E+02 -0.81823469431E+00 -0.28638819513E+00  0.10896561612E+02  0.00000000000E+00 0. -1.
<mgrwt>
<rscale>  0 0.81396934E+02</rscale>
<asrwt>0</asrwt>
<pdfrwt beam="1">  1        2 0.35783235E-02 0.81396934E+02</pdfrwt>
<pdfrwt beam="2">  1       -1 0.10955944E-01 0.81396934E+02</pdfrwt>
<totfact> 0.12180669E+05</totfact>
</mgrwt>
</event>
<event>
 8    1  0.2561077E-024  0.8110678E+02  0.7818608E-02  0.1325940E+00
         -1   -1    0    0    0  501 -0.00000000000E+00  0.00000000000E+00  0.29749441681E+02  0.29749442108E+02  0.50400000000E-02 0.  1.
          2   -1    0    0  501    0  0.00000000000E+00 -0.00000000000E+00 -0.55280946231E+02  0.55280946290E+02  0.25500000000E-02 0. -1.
         24    2    1    2    0    0  0.00000000000E+00 -0.17763568394E-14 -0.25531504550E+02  0.85030388398E+02  0.81106776699E+02 0.  0.
         66    2    3    3    0    0 -0.37136106521E+02  0.15597713775E+02 -0.80624166673E+01  0.41126410469E+02  0.19999982475E+01 0.  0.
        -13    1    3    3    0    0  0.37136106521E+02 -0.15597713775E+02 -0.17469087882E+02  0.43903977929E+02  0.10566000000E+00 0.  1.
         13    1    4    4    0    0 -0.24002875100E+02  0.97168200139E+01 -0.47693802274E+01  0.26330832801E+02  0.10566000000E+00 0. -1.
        -13    1    4    4    0    0 -0.62334022477E+00  0.11557176204E+00 -0.51137912045E-01  0.64473947425E+00  0.10566000000E+00 0. -1.
         14    1    4    4    0    0 -0.12509891197E+02  0.57653219986E+01 -0.32418985278E+01  0.14150838193E+02  0.00000000000E+00 0. -1.
<mgrwt>
<rscale>  0 0.81106777E+02</rscale>
<asrwt>0</asrwt>
<pdfrwt beam="1">  1        2 0.85047610E-02 0.81106777E+02</pdfrwt>
<pdfrwt beam="2">  1       -1 0.45768372E-02 0.81106777E+02</pdfrwt>
<totfact> 0.14715624E+05</totfact>
</mgrwt>
</event>
<event>
 8    1  0.2561077E-024  0.8218973E+02  0.7818608E-02  0.1322950E+00
         -1   -1    0    0    0  501 -0.00000000000E+00  0.00000000000E+00  0.15406922474E+02  0.15406923298E+02  0.50400000000E-02 0.  1.
          2   -1    0    0  501    0  0.00000000000E+00 -0.00000000000E+00 -0.10961226539E+03  0.10961226542E+03  0.25500000000E-02 0. -1.
         24    2    1    2    0    0  0.00000000000E+00  0.00000000000E+00 -0.94205342916E+02  0.12501918872E+03  0.82189725111E+02 0.  0.
         66    2    3    3    0    0 -0.23504891100E+02 -0.15033308942E+02 -0.92973628707E+02  0.97090555251E+02  0.20000001470E+01 0.  0.
        -13    1    3    3    0    0  0.23504891100E+02  0.15033308942E+02 -0.12317142084E+01  0.27928633467E+02  0.10566000000E+00 0.  1.
         13    1    4    4    0    0 -0.11795068623E+02 -0.71240028692E+01 -0.43892692865E+02  0.46004942253E+02  0.10566000000E+00 0. -1.
        -13    1    4    4    0    0 -0.11214266430E+02 -0.73613776379E+01 -0.47021619227E+02  0.48897786157E+02  0.10566000000E+00 0.  1.
        -14    1    4    4    0    0 -0.49555604759E+00 -0.54792843511E+00 -0.20593166149E+01  0.21878268411E+01  0.00000000000E+00 0.  1.
<mgrwt>
<rscale>  0 0.82189725E+02</rscale>
<asrwt>0</asrwt>
<pdfrwt beam="1">  1        2 0.16863425E-01 0.82189725E+02</pdfrwt>
<pdfrwt beam="2">  1       -1 0.23702959E-02 0.82189725E+02</pdfrwt>
<totfact> 0.16926321E+05</totfact>
</mgrwt>
</event>
<event>
 8    1  0.2561077E-024  0.7922881E+02  0.7818608E-02  0.1331254E+00
          2   -1    0    0  501    0  0.00000000000E+00  0.00000000000E+00  0.31623060801E+03  0.31623060802E+03  0.25500000000E-02 0. -1.
         -1   -1    0    0    0  501 -0.00000000000E+00 -0.00000000000E+00 -0.49625195998E+01  0.49625221591E+01  0.50400000000E-02 0.  1.
         24    2    1    2    0    0 -0.17763568394E-14  0.35527136788E-14  0.31126808841E+03  0.32119313018E+03  0.79228807967E+02 0.  0.
         66    2    3    3    0    0 -0.13674877140E+02  0.27016595493E+02  0.25912150717E+03  0.26089241878E+03  0.19999998173E+01 0.  0.
        -13    1    3    3    0    0  0.13674877140E+02 -0.27016595493E+02  0.52146581240E+02  0.60300711405E+02  0.10566000000E+00 0.  1.
         13    1    4    4    0    0 -0.82404530427E+00  0.17575846381E+01  0.17348894222E+02  0.17457475453E+02  0.10566000000E+00 0.  1.
        -13    1    4    4    0    0 -0.12687486375E+01  0.29546369335E+01  0.23144712491E+02  0.23367252360E+02  0.10566000000E+00 0. -1.
         14    1    4    4    0    0 -0.11582083199E+02  0.22304373921E+02  0.21862790046E+03  0.22006769096E+03  0.00000000000E+00 0. -1.
<mgrwt>
<rscale>  0 0.79228808E+02</rscale>
<asrwt>0</asrwt>
<pdfrwt beam="1">  1        2 0.48650881E-01 0.79228808E+02</pdfrwt>
<pdfrwt beam="2">  1       -1 0.76346446E-03 0.79228808E+02</pdfrwt>
<totfact> 0.26652458E+05</totfact>
</mgrwt>
</event>
<event>
 8    1  0.2561077E-024  0.7461788E+02  0.7818608E-02  0.1345058E+00
         -1   -1    0    0    0  501 -0.00000000000E+00  0.00000000000E+00  0.16609214018E+01  0.16609290486E+01  0.50400000000E-02 0.  1.
          2   -1    0    0  501    0  0.00000000000E+00 -0.00000000000E+00 -0.83806112059E+03  0.83806112059E+03  0.25500000000E-02 0. -1.
         24    2    1    2    0    0  0.17763568394E-14  0.00000000000E+00 -0.83640019919E+03  0.83972204964E+03  0.74617876234E+02 0.  0.
         66    2    3    3    0    0 -0.87130154493E+01 -0.18987036799E+02 -0.76600333562E+03  0.76629076361E+03  0.20000007157E+01 0.  0.
        -13    1    3    3    0    0  0.87130154493E+01  0.18987036799E+02 -0.70396863563E+02  0.73431286031E+02  0.10566000000E+00 0.  1.
         13    1    4    4    0    0 -0.17320172991E+01 -0.45612148067E+01 -0.18135741681E+03  0.18142306458E+03  0.10566000000E+00 0. -1.
        -13    1    4    4    0    0 -0.52896897298E+01 -0.93912476003E+01 -0.40335652596E+03  0.40350052608E+03  0.10566000000E+00 0.  1.
        -14    1    4    4    0    0 -0.16913084204E+01 -0.50345743917E+01 -0.18128939286E+03  0.18136717296E+03  0.00000000000E+00 0.  1.
<mgrwt>
<rscale>  0 0.74617876E+02</rscale>
<asrwt>0</asrwt>
<pdfrwt beam="1">  1        2 0.12893214E+00 0.74617876E+02</pdfrwt>
<pdfrwt beam="2">  1       -1 0.25552763E-03 0.74617876E+02</pdfrwt>
<totfact> 0.41462249E+05</totfact>
</mgrwt>
</event>
<event>
 8    1  0.2561077E-024  0.7753050E+02  0.7818608E-02  0.1336209E+00
          2   -1    0    0  501    0  0.00000000000E+00  0.00000000000E+00  0.17995375767E+03  0.17995375768E+03  0.25500000000E-02 0. -1.
         -1   -1    0    0    0  501 -0.00000000000E+00 -0.00000000000E+00 -0.83507263895E+01  0.83507279105E+01  0.50400000000E-02 0.  1.
         24    2    1    2    0    0  0.00000000000E+00  0.71054273576E-14  0.17160303128E+03  0.18830448559E+03  0.77530503363E+02 0.  0.
         66    2    3    3    0    0  0.93011933426E+01 -0.37599379821E+02  0.84116731285E+02  0.92627479942E+02  0.19999994222E+01 0.  0.
        -13    1    3    3    0    0 -0.93011933426E+01  0.37599379821E+02  0.87486299992E+02  0.95677005653E+02  0.10566000000E+00 0.  1.
         13    1    4    4    0    0  0.23391038084E+01 -0.78227183905E+01  0.18506361479E+02  0.20227775677E+02  0.10566000000E+00 0. -1.
        -13    1    4    4    0    0  0.19074949536E+00 -0.17437378539E+01  0.32855891976E+01  0.37260256956E+01  0.10566000000E+00 0.  1.
        -14    1    4    4    0    0  0.67713400388E+01 -0.28032923577E+02  0.62324780609E+02  0.68673678569E+02  0.00000000000E+00 0.  1.
<mgrwt>
<rscale>  0 0.77530503E+02</rscale>
<asrwt>0</asrwt>
<pdfrwt beam="1">  1        2 0.27685193E-01 0.77530503E+02</pdfrwt>
<pdfrwt beam="2">  1       -1 0.12847273E-02 0.77530503E+02</pdfrwt>
<totfact> 0.23107937E+05</totfact>
</mgrwt>
</event>
<event>
 8    1  0.2561077E-024  0.7883601E+02  0.7818608E-02  0.1332387E+00
          2   -1    0    0  501    0  0.00000000000E+00  0.00000000000E+00  0.69058551164E+03  0.69058551165E+03  0.25500000000E-02 0. -1.
         -1   -1    0    0    0  501 -0.00000000000E+00 -0.00000000000E+00 -0.22499417772E+01  0.22499474221E+01  0.50400000000E-02 0.  1.
         24    2    1    2    0    0  0.00000000000E+00  0.00000000000E+00  0.68833556987E+03  0.69283545907E+03  0.78836010820E+02 0.  0.
         66    2    3    3    0    0 -0.17465395600E+02  0.17449497527E+02  0.61415538020E+03  0.61465466404E+03  0.19999999538E+01 0.  0.
        -13    1    3    3    0    0  0.17465395600E+02 -0.17449497527E+02  0.74180189672E+02  0.78180795028E+02  0.10566000000E+00 0.  1.
         13    1    4    4    0    0 -0.14111092452E+01  0.15641962001E+01  0.64040087526E+02  0.64074814970E+02  0.10566000000E+00 0. -1.
        -13    1    4    4    0    0 -0.30730321305E+00  0.40968222085E+00  0.10364376082E+02  0.10377558981E+02  0.10566000000E+00 0.  1.
         14    1    4    4    0    0 -0.15746983142E+02  0.15475619106E+02  0.53975091659E+03  0.54020229009E+03  0.00000000000E+00 0. -1.
<mgrwt>
<rscale>  0 0.78836011E+02</rscale>
<asrwt>0</asrwt>
<pdfrwt beam="1">  1        2 0.10624396E+00 0.78836011E+02</pdfrwt>
<pdfrwt beam="2">  1       -1 0.34614521E-03 0.78836011E+02</pdfrwt>
<totfact> 0.34641286E+05</totfact>
</mgrwt>
</event>
<event>
 8    1  0.2561077E-024  0.8059874E+02  0.7818608E-02  0.1327361E+00
         -1   -1    0    0    0  501 -0.00000000000E+00  0.00000000000E+00  0.27666491221E+01  0.27666537128E+01  0.50400000000E-02 0.  1.
          2   -1    0    0  501    0  0.00000000000E+00 -0.00000000000E+00 -0.58700540157E+03  0.58700540157E+03  0.25500000000E-02 0. -1.
         24    2    1    2    0    0 -0.17763568394E-14 -0.71054273576E-14 -0.58423875245E+03  0.58977205529E+03  0.80598742776E+02 0.  0.
         66    2    3    3    0    0  0.13036616964E+02  0.36811452785E+02 -0.36436586300E+03  0.36645807204E+03  0.20000005818E+01 0.  0.
        -13    1    3    3    0    0 -0.13036616964E+02 -0.36811452785E+02 -0.21987288944E+03  0.22331398325E+03  0.10566000000E+00 0.  1.
         13    1    4    4    0    0  0.40128510968E+00  0.12852098129E+01 -0.11062875698E+02  0.11145006808E+02  0.10566000000E+00 0. -1.
        -13    1    4    4    0    0  0.67939985623E+01  0.21061104105E+02 -0.21138628937E+03  0.21254153246E+03  0.10566000000E+00 0.  1.
         14    1    4    4    0    0  0.58413332919E+01  0.14465138867E+02 -0.14191669794E+03  0.14277153278E+03  0.00000000000E+00 0. -1.
<mgrwt>
<rscale>  0 0.80598743E+02</rscale>
<asrwt>0</asrwt>
<pdfrwt beam="1">  1        2 0.90308424E-01 0.80598743E+02</pdfrwt>
<pdfrwt beam="2">  1       -1 0.42563915E-03 0.80598743E+02</pdfrwt>
<totfact> 0.31351458E+05</totfact>
</mgrwt>
</event>
<event>
 8    1  0.2561077E-024  0.8293865E+02  0.7818608E-02  0.1320913E+00
          2   -1    0    0  501    0  0.00000000000E+00  0.00000000000E+00  0.65137455190E+03  0.65137455190E+03  0.25500000000E-02 0. -1.
         -1   -1    0    0    0  501 -0.00000000000E+00 -0.00000000000E+00 -0.26401146872E+01  0.26401194979E+01  0.50400000000E-02 0.  1.
         24    2    1    2    0    0  0.35527136788E-14  0.00000000000E+00  0.64873443721E+03  0.65401467140E+03  0.82938654343E+02 0.  0.
         66    2    3    3    0    0  0.20109581164E+02  0.27573960797E+02  0.50998779287E+03  0.51113233853E+03  0.20000097991E+01 0.  0.
        -13    1    3    3    0    0 -0.20109581164E+02 -0.27573960797E+02  0.13874664433E+03  0.14288233287E+03  0.10566000000E+00 0.  1.
         13    1    4    4    0    0  0.14354331853E+02  0.19762227762E+02  0.37479037188E+03  0.37558544502E+03  0.10566000000E+00 0. -1.
        -13    1    4    4    0    0  0.53158026351E+01  0.68796992388E+01  0.12001633418E+03  0.12033087572E+03  0.10566000000E+00 0.  1.
        -14    1    4    4    0    0  0.43944667642E+00  0.93203379633E+00  0.15181086814E+02  0.15216017785E+02  0.00000000000E+00 0.  1.
<mgrwt>
<rscale>  0 0.82938654E+02</rscale>
<asrwt>0</asrwt>
<pdfrwt beam="1">  1        2 0.10021142E+00 0.82938654E+02</pdfrwt>
<pdfrwt beam="2">  1       -1 0.40617205E-03 0.82938654E+02</pdfrwt>
<totfact> 0.29925952E+05</totfact>
</mgrwt>
</event>
<event>
 8    1  0.2561077E-024  0.8038467E+02  0.7818608E-02  0.1327963E+00
         -1   -1    0    0    0  501 -0.00000000000E+00  0.00000000000E+00  0.53496728082E+01  0.53496751823E+01  0.50400000000E-02 0.  1.
          2   -1    0    0  501    0  0.00000000000E+00 -0.00000000000E+00 -0.30196676677E+03  0.30196676678E+03  0.25500000000E-02 0. -1.
         24    2    1    2    0    0 -0.11102230246E-15  0.71054273576E-14 -0.29661709396E+03  0.30731644197E+03  0.80384669375E+02 0.  0.
         66    2    3    3    0    0 -0.66622954596E+00  0.23003726446E+02 -0.27426013205E+03  0.27523123973E+03  0.20000001823E+01 0.  0.
        -13    1    3    3    0    0  0.66622954596E+00 -0.23003726446E+02 -0.22356961913E+02  0.32085202232E+02  0.10566000000E+00 0.  1.
         13    1    4    4    0    0 -0.40522957815E+00  0.11827030867E+02 -0.13971081218E+03  0.14021114462E+03  0.10566000000E+00 0.  1.
        -13    1    4    4    0    0 -0.64322473114E+00  0.53447651927E+01 -0.69959608034E+02  0.70166503214E+02  0.10566000000E+00 0. -1.
        -14    1    4    4    0    0  0.38222476334E+00  0.58319303860E+01 -0.64589711835E+02  0.64853591903E+02  0.00000000000E+00 0.  1.
<mgrwt>
<rscale>  0 0.80384669E+02</rscale>
<asrwt>0</asrwt>
<pdfrwt beam="1">  1        2 0.46456412E-01 0.80384669E+02</pdfrwt>
<pdfrwt beam="2">  1       -1 0.82302701E-03 0.80384669E+02</pdfrwt>
<totfact> 0.25235445E+05</totfact>
</mgrwt>
</event>
<event>
 8    1  0.2561077E-024  0.7998951E+02  0.7818608E-02  0.1329081E+00
          2   -1    0    0  501    0  0.00000000000E+00  0.00000000000E+00  0.10781291692E+04  0.10781291692E+04  0.25500000000E-02 0. -1.
         -1   -1    0    0    0  501 -0.00000000000E+00 -0.00000000000E+00 -0.14836586646E+01  0.14836672250E+01  0.50400000000E-02 0.  1.
         24    2    1    2    0    0  0.00000000000E+00  0.00000000000E+00  0.10766455106E+04  0.10796128365E+04  0.79989506963E+02 0.  0.
         66    2    3    3    0    0 -0.21725544707E+02  0.84355092788E+01  0.97692808360E+03  0.97720808308E+03  0.20000006934E+01 0.  0.
        -13    1    3    3    0    0  0.21725544707E+02 -0.84355092788E+01  0.99717426969E+02  0.10240475338E+03  0.10566000000E+00 0.  1.
         13    1    4    4    0    0 -0.77123692332E+01  0.29955964581E+01  0.34279721949E+03  0.34289706778E+03  0.10566000000E+00 0. -1.
        -13    1    4    4    0    0 -0.81632178536E+01  0.32043071289E+01  0.40225407993E+03  0.40234967589E+03  0.10566000000E+00 0.  1.
        -14    1    4    4    0    0 -0.58499576200E+01  0.22356056918E+01  0.23187678418E+03  0.23196133940E+03  0.00000000000E+00 0.  1.
<mgrwt>
<rscale>  0 0.79989507E+02</rscale>
<asrwt>0</asrwt>
<pdfrwt beam="1">  1        2 0.16586576E+00 0.79989507E+02</pdfrwt>
<pdfrwt beam="2">  1       -1 0.22825621E-03 0.79989507E+02</pdfrwt>
<totfact> 0.35280414E+05</totfact>
</mgrwt>
</event>
<event>
 8    1  0.2561077E-024  0.8075770E+02  0.7818608E-02  0.1326915E+00
         -1   -1    0    0    0  501 -0.00000000000E+00  0.00000000000E+00  0.21876275600E+01  0.21876333657E+01  0.50400000000E-02 0.  1.
          2   -1    0    0  501    0  0.00000000000E+00 -0.00000000000E+00 -0.74530485435E+03  0.74530485436E+03  0.25500000000E-02 0. -1.
         24    2    1    2    0    0  0.35527136788E-14  0.00000000000E+00 -0.74311722679E+03  0.74749248772E+03  0.80757702084E+02 0.  0.
         66    2    3    3    0    0  0.31821338343E+02 -0.82409079046E+01 -0.58845048231E+03  0.58937125844E+03  0.20000017491E+01 0.  0.
        -13    1    3    3    0    0 -0.31821338343E+02  0.82409079046E+01 -0.15466674448E+03  0.15812122928E+03  0.10566000000E+00 0.  1.
         13    1    4    4    0    0  0.11525000585E+02 -0.26520506527E+01 -0.21317447418E+03  0.21350228715E+03  0.10566000000E+00 0. -1.
        -13    1    4    4    0    0  0.76810023916E+01 -0.17563683692E+01 -0.15174879578E+03  0.15195325207E+03  0.10566000000E+00 0.  1.
         14    1    4    4    0    0  0.12615335366E+02 -0.38324888827E+01 -0.22352721235E+03  0.22391571923E+03  0.00000000000E+00 0. -1.
<mgrwt>
<rscale>  0 0.80757702E+02</rscale>
<asrwt>0</asrwt>
<pdfrwt beam="1">  1        2 0.11466208E+00 0.80757702E+02</pdfrwt>
<pdfrwt beam="2">  1       -1 0.33655913E-03 0.80757702E+02</pdfrwt>
<totfact> 0.33088567E+05</totfact>
</mgrwt>
</event>
<event>
 8    1  0.2561077E-024  0.8430956E+02  0.7818608E-02  0.1317248E+00
         -1   -1    0    0    0  501 -0.00000000000E+00  0.00000000000E+00  0.18288464527E+02  0.18288465221E+02  0.50400000000E-02 0.  1.
          2   -1    0    0  501    0  0.00000000000E+00 -0.00000000000E+00 -0.97166471887E+02  0.97166471920E+02  0.25500000000E-02 0. -1.
         24    2    1    2    0    0  0.35527136788E-14  0.35527136788E-14 -0.78878007360E+02  0.11545493714E+03  0.84309563309E+02 0.  0.
         66    2    3    3    0    0 -0.31414679312E+02 -0.27550039515E+02 -0.32069602250E+02  0.52710019367E+02  0.19999999161E+01 0.  0.
        -13    1    3    3    0    0  0.31414679312E+02  0.27550039515E+02 -0.46808405110E+02  0.62744917775E+02  0.10566000000E+00 0.  1.
         13    1    4    4    0    0 -0.12389977087E+02 -0.10369378052E+02 -0.11464098001E+02  0.19810912155E+02  0.10566000000E+00 0. -1.
        -13    1    4    4    0    0 -0.18812420002E+01 -0.14256050485E+01 -0.18286023795E+01  0.29877034517E+01  0.10566000000E+00 0.  1.
        -14    1    4    4    0    0 -0.17143460225E+02 -0.15755056414E+02 -0.18776901869E+02  0.29911403760E+02  0.00000000000E+00 0.  1.
<mgrwt>
<rscale>  0 0.84309563E+02</rscale>
<asrwt>0</asrwt>
<pdfrwt beam="1">  1        2 0.14948688E-01 0.84309563E+02</pdfrwt>
<pdfrwt beam="2">  1       -1 0.28136100E-02 0.84309563E+02</pdfrwt>
<totfact> 0.15270423E+05</totfact>
</mgrwt>
</event>
<event>
 8    1  0.2561077E-024  0.7958742E+02  0.7818608E-02  0.1330226E+00
          2   -1    0    0  501    0  0.00000000000E+00  0.00000000000E+00  0.44442169556E+03  0.44442169556E+03  0.25500000000E-02 0. -1.
         -1   -1    0    0    0  501 -0.00000000000E+00 -0.00000000000E+00 -0.35631444322E+01  0.35631479966E+01  0.50400000000E-02 0.  1.
         24    2    1    2    0    0  0.71054273576E-14  0.35527136788E-14  0.44085855112E+03  0.44798484356E+03  0.79587423381E+02 0.  0.
         66    2    3    3    0    0  0.35161610517E+02  0.14298819388E+02  0.28734507056E+03  0.28984820970E+03  0.20000001003E+01 0.  0.
        -13    1    3    3    0    0 -0.35161610517E+02 -0.14298819388E+02  0.15351348056E+03  0.15813663386E+03  0.10566000000E+00 0.  1.
         13    1    4    4    0    0  0.27608228783E+02  0.10541006536E+02  0.22244975864E+03  0.22440417420E+03  0.10566000000E+00 0. -1.
        -13    1    4    4    0    0  0.11141408734E+01  0.59765913269E+00  0.84250169677E+01  0.85200106377E+01  0.10566000000E+00 0.  1.
         14    1    4    4    0    0  0.64392408606E+01  0.31601537196E+01  0.56470294949E+02  0.56924024857E+02  0.00000000000E+00 0. -1.
<mgrwt>
<rscale>  0 0.79587423E+02</rscale>
<asrwt>0</asrwt>
<pdfrwt beam="1">  1        2 0.68372560E-01 0.79587423E+02</pdfrwt>
<pdfrwt beam="2">  1       -1 0.54817641E-03 0.79587423E+02</pdfrwt>
<totfact> 0.29693079E+05</totfact>
</mgrwt>
</event>
<event>
 8    1  0.2561077E-024  0.7949828E+02  0.7818608E-02  0.1330481E+00
         -1   -1    0    0    0  501 -0.00000000000E+00  0.00000000000E+00  0.32277896413E+01  0.32277935761E+01  0.50400000000E-02 0.  1.
          2   -1    0    0  501    0  0.00000000000E+00 -0.00000000000E+00 -0.48949688256E+03  0.48949688257E+03  0.25500000000E-02 0. -1.
         24    2    1    2    0    0  0.71054273576E-14 -0.17763568394E-14 -0.48626909292E+03  0.49272467614E+03  0.79498275151E+02 0.  0.
         66    2    3    3    0    0 -0.35876434014E+02  0.15223383115E+02 -0.29094321235E+03  0.29354867183E+03  0.20000020112E+01 0.  0.
        -13    1    3    3    0    0  0.35876434014E+02 -0.15223383115E+02 -0.19532588057E+03  0.19917600431E+03  0.10566000000E+00 0.  1.
         13    1    4    4    0    0 -0.49763306255E+01  0.19392254037E+01 -0.37357199217E+02  0.37737195961E+02  0.10566000000E+00 0. -1.
        -13    1    4    4    0    0 -0.19078796065E+02  0.89700841460E+01 -0.15708939677E+03  0.15849780001E+03  0.10566000000E+00 0.  1.
        -14    1    4    4    0    0 -0.11821307323E+02  0.43140735654E+01 -0.96496616367E+02  0.97313675852E+02  0.00000000000E+00 0.  1.
<mgrwt>
<rscale>  0 0.79498275E+02</rscale>
<asrwt>0</asrwt>
<pdfrwt beam="1">  1        2 0.75307154E-01 0.79498275E+02</pdfrwt>
<pdfrwt beam="2">  1       -1 0.49658371E-03 0.79498275E+02</pdfrwt>
<totfact> 0.30744749E+05</totfact>
</mgrwt>
</event>
<event>
 8    1  0.2561077E-024  0.7741546E+02  0.7818608E-02  0.1336550E+00
          2   -1    0    0  501    0  0.00000000000E+00  0.00000000000E+00  0.15919995645E+03  0.15919995647E+03  0.25500000000E-02 0. -1.
         -1   -1    0    0    0  501 -0.00000000000E+00 -0.00000000000E+00 -0.94113600043E+01  0.94113613538E+01  0.50400000000E-02 0.  1.
         24    2    1    2    0    0  0.88817841970E-15 -0.71054273576E-14  0.14978859645E+03  0.16861131783E+03  0.77415456295E+02 0.  0.
         66    2    3    3    0    0 -0.61211867987E+01 -0.38123424717E+02  0.80014219637E+02  0.88865852355E+02  0.19999826625E+01 0.  0.
        -13    1    3    3    0    0  0.61211867987E+01  0.38123424717E+02  0.69774376812E+02  0.79745465473E+02  0.10566000000E+00 0.  1.
         13    1    4    4    0    0 -0.22919559359E+00 -0.27221825469E+01  0.64650393159E+01  0.70193094981E+01  0.10566000000E+00 0. -1.
        -13    1    4    4    0    0 -0.27824346314E+01 -0.14334214505E+02  0.28952836465E+02  0.32426679623E+02  0.10566000000E+00 0.  1.
         14    1    4    4    0    0 -0.31095565737E+01 -0.21067027665E+02  0.44596343856E+02  0.49419863234E+02  0.00000000000E+00 0. -1.
<mgrwt>
<rscale>  0 0.77415456E+02</rscale>
<asrwt>0</asrwt>
<pdfrwt beam="1">  1        2 0.24492300E-01 0.77415456E+02</pdfrwt>
<pdfrwt beam="2">  1       -1 0.14479017E-02 0.77415456E+02</pdfrwt>
<totfact> 0.22274871E+05</totfact>
</mgrwt>
</event>
<event>
 8    1  0.2561077E-024  0.8249186E+02  0.7818608E-02  0.1322125E+00
          2   -1    0    0  501    0  0.00000000000E+00  0.00000000000E+00  0.71090492405E+02  0.71090492451E+02  0.25500000000E-02 0. -1.
         -1   -1    0    0    0  501 -0.00000000000E+00 -0.00000000000E+00 -0.23930440517E+02  0.23930441048E+02  0.50400000000E-02 0.  1.
         24    2    1    2    0    0  0.00000000000E+00  0.00000000000E+00  0.47160051888E+02  0.95020933499E+02  0.82491862077E+02 0.  0.
         66    2    3    3    0    0  0.15799445787E+02  0.37731984920E+02  0.29455634748E+02  0.50447592548E+02  0.20000005934E+01 0.  0.
        -13    1    3    3    0    0 -0.15799445787E+02 -0.37731984920E+02  0.17704417141E+02  0.44573340951E+02  0.10566000000E+00 0.  1.
         13    1    4    4    0    0  0.32284370835E+01  0.96450694687E+01  0.70901077481E+01  0.12398829097E+02  0.10566000000E+00 0. -1.
        -13    1    4    4    0    0  0.66459661522E+01  0.14058351499E+02  0.11536888359E+02  0.19362775369E+02  0.10566000000E+00 0.  1.
         14    1    4    4    0    0  0.59250425516E+01  0.14028563952E+02  0.10828638641E+02  0.18685988082E+02  0.00000000000E+00 0. -1.
<mgrwt>
<rscale>  0 0.82491862E+02</rscale>
<asrwt>0</asrwt>
<pdfrwt beam="1">  1        2 0.10936999E-01 0.82491862E+02</pdfrwt>
<pdfrwt beam="2">  1       -1 0.36816063E-02 0.82491862E+02</pdfrwt>
<totfact> 0.14914545E+05</totfact>
</mgrwt>
</event>
<event>
 8    1  0.2561077E-024  0.7929874E+02  0.7818608E-02  0.1331053E+00
         -1   -1    0    0    0  501 -0.00000000000E+00  0.00000000000E+00  0.19919072970E+02  0.19919073608E+02  0.50400000000E-02 0.  1.
          2   -1    0    0  501    0  0.00000000000E+00 -0.00000000000E+00 -0.78922965863E+02  0.78922965904E+02  0.25500000000E-02 0. -1.
         24    2    1    2    0    0  0.00000000000E+00  0.17763568394E-14 -0.59003892892E+02  0.98842039512E+02  0.79298735163E+02 0.  0.
         66    2    3    3    0    0 -0.16298247558E+02  0.13082713646E+02 -0.71481435241E+02  0.74500911829E+02  0.20000023596E+01 0.  0.
        -13    1    3    3    0    0  0.16298247558E+02 -0.13082713646E+02  0.12477542348E+02  0.24341127683E+02  0.10566000000E+00 0.  1.
         13    1    4    4    0    0 -0.97130388614E+01  0.82744474320E+01 -0.43597035297E+02  0.45426008574E+02  0.10566000000E+00 0.  1.
        -13    1    4    4    0    0 -0.37990673039E+01  0.32781967164E+01 -0.18386573946E+02  0.19059295674E+02  0.10566000000E+00 0. -1.
         14    1    4    4    0    0 -0.27861413922E+01  0.15300694978E+01 -0.94978259977E+01  0.10015607581E+02  0.00000000000E+00 0. -1.
<mgrwt>
<rscale>  0 0.79298735E+02</rscale>
<asrwt>0</asrwt>
<pdfrwt beam="1">  1        2 0.12141995E-01 0.79298735E+02</pdfrwt>
<pdfrwt beam="2">  1       -1 0.30644729E-02 0.79298735E+02</pdfrwt>
<totfact> 0.17037344E+05</totfact>
</mgrwt>
</event>
<event>
 8    1  0.2561077E-024  0.7957148E+02  0.7818608E-02  0.1330272E+00
          2   -1    0    0  501    0  0.00000000000E+00  0.00000000000E+00  0.54499193133E+02  0.54499193192E+02  0.25500000000E-02 0. -1.
         -1   -1    0    0    0  501 -0.00000000000E+00 -0.00000000000E+00 -0.29044557041E+02  0.29044557478E+02  0.50400000000E-02 0.  1.
         24    2    1    2    0    0 -0.17763568394E-14  0.00000000000E+00  0.25454636092E+02  0.83543750671E+02  0.79571475904E+02 0.  0.
         66    2    3    3    0    0  0.89673556471E+01 -0.58297190482E+01  0.52941970263E+02  0.54048601995E+02  0.20000176919E+01 0.  0.
        -13    1    3    3    0    0 -0.89673556471E+01  0.58297190482E+01 -0.27487334172E+02  0.29495148676E+02  0.10566000000E+00 0.  1.
         13    1    4    4    0    0  0.15926468620E+01 -0.14688665859E+01  0.13650939006E+02  0.13822206512E+02  0.10566000000E+00 0.  1.
        -13    1    4    4    0    0  0.52850771363E+01 -0.27788980691E+01  0.25674255257E+02  0.26359682506E+02  0.10566000000E+00 0. -1.
         14    1    4    4    0    0  0.20896316489E+01 -0.15819543932E+01  0.13616776001E+02  0.13866712977E+02  0.00000000000E+00 0. -1.
<mgrwt>
<rscale>  0 0.79571476E+02</rscale>
<asrwt>0</asrwt>
<pdfrwt beam="1">  1        2 0.83844912E-02 0.79571476E+02</pdfrwt>
<pdfrwt beam="2">  1       -1 0.44683935E-02 0.79571476E+02</pdfrwt>
<totfact> 0.15454648E+05</totfact>
</mgrwt>
</event>
<event>
 8    1  0.2561077E-024  0.8034873E+02  0.7818608E-02  0.1328065E+00
         -1   -1    0    0    0  501 -0.00000000000E+00  0.00000000000E+00  0.43539546614E+02  0.43539546905E+02  0.50400000000E-02 0.  1.
          2   -1    0    0  501    0  0.00000000000E+00 -0.00000000000E+00 -0.37069282224E+02  0.37069282312E+02  0.25500000000E-02 0. -1.
         24    2    1    2    0    0 -0.35527136788E-14  0.00000000000E+00  0.64702643892E+01  0.80608829217E+02  0.80348733820E+02 0.  0.
         66    2    3    3    0    0  0.26878610656E+02 -0.16522349965E+02 -0.21673208022E+02  0.38329827780E+02  0.19999981218E+01 0.  0.
        -13    1    3    3    0    0 -0.26878610656E+02  0.16522349965E+02  0.28143472411E+02  0.42279001438E+02  0.10566000000E+00 0.  1.
         13    1    4    4    0    0  0.52153425836E+01 -0.27299951505E+01 -0.38642044335E+01  0.70424364907E+01  0.10566000000E+00 0. -1.
        -13    1    4    4    0    0  0.16912154704E+02 -0.11002147051E+02 -0.14674460181E+02  0.24948329846E+02  0.10566000000E+00 0.  1.
        -14    1    4    4    0    0  0.47511133687E+01 -0.27902077640E+01 -0.31345434069E+01  0.63390614430E+01  0.00000000000E+00 0.  1.
<mgrwt>
<rscale>  0 0.80348734E+02</rscale>
<asrwt>0</asrwt>
<pdfrwt beam="1">  1        2 0.57029665E-02 0.80348734E+02</pdfrwt>
<pdfrwt beam="2">  1       -1 0.66983918E-02 0.80348734E+02</pdfrwt>
<totfact> 0.13867218E+05</totfact>
</mgrwt>
</event>
<event>
 8    1  0.2561077E-024  0.7809152E+02  0.7818608E-02  0.1334556E+00
         -1   -1    0    0    0  501 -0.00000000000E+00  0.00000000000E+00  0.14434260193E+02  0.14434261073E+02  0.50400000000E-02 0.  1.
          2   -1    0    0  501    0  0.00000000000E+00 -0.00000000000E+00 -0.10562171073E+03  0.10562171076E+03  0.25500000000E-02 0. -1.
         24    2    1    2    0    0  0.17763568394E-14  0.00000000000E+00 -0.91187450539E+02  0.12005597184E+03  0.78091518346E+02 0.  0.
         66    2    3    3    0    0  0.13495866999E+02 -0.33923926061E+02 -0.66792217307E+02  0.76145725265E+02  0.19999994609E+01 0.  0.
        -13    1    3    3    0    0 -0.13495866999E+02  0.33923926061E+02 -0.24395233232E+02  0.43910246571E+02  0.10566000000E+00 0.  1.
         13    1    4    4    0    0  0.27188205514E+01 -0.63953997849E+01 -0.11850308696E+02  0.13738053131E+02  0.10566000000E+00 0. -1.
        -13    1    4    4    0    0  0.17191447932E+01 -0.41347618481E+01 -0.94370812904E+01  0.10446118019E+02  0.10566000000E+00 0.  1.
         14    1    4    4    0    0  0.90579016540E+01 -0.23393764428E+02 -0.45504827321E+02  0.51961554115E+02  0.00000000000E+00 0. -1.
<mgrwt>
<rscale>  0 0.78091518E+02</rscale>
<asrwt>0</asrwt>
<pdfrwt beam="1">  1        2 0.16249493E-01 0.78091518E+02</pdfrwt>
<pdfrwt beam="2">  1       -1 0.22206556E-02 0.78091518E+02</pdfrwt>
<totfact> 0.19201543E+05</totfact>
</mgrwt>
</event>
<event>
 8    1  0.2561077E-024  0.8061974E+02  0.7818608E-02  0.1327302E+00
         -1   -1    0    0    0  501 -0.00000000000E+00  0.00000000000E+00  0.33075567922E+01  0.33075606321E+01  0.50400000000E-02 0.  1.
          2   -1    0    0  501    0  0.00000000000E+00 -0.00000000000E+00 -0.49126429391E+03  0.49126429391E+03  0.25500000000E-02 0. -1.
         24    2    1    2    0    0  0.00000000000E+00  0.00000000000E+00 -0.48795673712E+03  0.49457185455E+03  0.80619737119E+02 0.  0.
         66    2    3    3    0    0 -0.10032951291E+02 -0.38957035704E+02 -0.25724213185E+03  0.26037631447E+03  0.19999995935E+01 0.  0.
        -13    1    3    3    0    0  0.10032951291E+02  0.38957035704E+02 -0.23071460527E+03  0.23419554007E+03  0.10566000000E+00 0.  1.
         13    1    4    4    0    0 -0.67066086860E+01 -0.23042727735E+02 -0.15483060524E+03  0.15667952446E+03  0.10566000000E+00 0. -1.
        -13    1    4    4    0    0 -0.64782659311E-01 -0.49793343668E+00 -0.28045045203E+01  0.28510601783E+01  0.10566000000E+00 0. -1.
         14    1    4    4    0    0 -0.32615599458E+01 -0.15416374533E+02 -0.99607022086E+02  0.10084572983E+03  0.00000000000E+00 0. -1.
<mgrwt>
<rscale>  0 0.80619737E+02</rscale>
<asrwt>0</asrwt>
<pdfrwt beam="1">  1        2 0.75579064E-01 0.80619737E+02</pdfrwt>
<pdfrwt beam="2">  1       -1 0.50885558E-03 0.80619737E+02</pdfrwt>
<totfact> 0.29676711E+05</totfact>
</mgrwt>
</event>
<event>
 8    1  0.2561077E-024  0.7999677E+02  0.7818608E-02  0.1329061E+00
          2   -1    0    0  501    0  0.00000000000E+00  0.00000000000E+00  0.83216517797E+03  0.83216517797E+03  0.25500000000E-02 0. -1.
         -1   -1    0    0    0  501 -0.00000000000E+00 -0.00000000000E+00 -0.19225366435E+01  0.19225432498E+01  0.50400000000E-02 0.  1.
         24    2    1    2    0    0  0.00000000000E+00  0.00000000000E+00  0.83024264133E+03  0.83408772122E+03  0.79996770056E+02 0.  0.
         66    2    3    3    0    0 -0.26398915885E+02  0.84278168226E+01  0.71575335905E+03  0.71629239969E+03  0.19999995338E+01 0.  0.
        -13    1    3    3    0    0  0.26398915885E+02 -0.84278168226E+01  0.11448928227E+03  0.11779532154E+03  0.10566000000E+00 0.  1.
         13    1    4    4    0    0 -0.14062981457E+02  0.50175225524E+01  0.39309781909E+03  0.39338130296E+03  0.10566000000E+00 0. -1.
        -13    1    4    4    0    0 -0.97139371688E+01  0.26979481608E+01  0.24242550679E+03  0.24263506961E+03  0.10566000000E+00 0.  1.
        -14    1    4    4    0    0 -0.26219972588E+01  0.71234610939E+00  0.80230033178E+02  0.80276027121E+02  0.00000000000E+00 0.  1.
<mgrwt>
<rscale>  0 0.79996770E+02</rscale>
<asrwt>0</asrwt>
<pdfrwt beam="1">  1        2 0.12802578E+00 0.79996770E+02</pdfrwt>
<pdfrwt beam="2">  1       -1 0.29577453E-03 0.79996770E+02</pdfrwt>
<totfact> 0.34590582E+05</totfact>
</mgrwt>
</event>
<event>
 8    1  0.2561077E-024  0.7466456E+02  0.7818608E-02  0.1344913E+00
          2   -1    0    0  501    0  0.00000000000E+00  0.00000000000E+00  0.45251959219E+02  0.45251959291E+02  0.25500000000E-02 0. -1.
         -1   -1    0    0    0  501 -0.00000000000E+00 -0.00000000000E+00 -0.30798642738E+02  0.30798643151E+02  0.50400000000E-02 0.  1.
         24    2    1    2    0    0  0.00000000000E+00  0.00000000000E+00  0.14453316481E+02  0.76050602442E+02  0.74664555008E+02 0.  0.
         66    2    3    3    0    0  0.23656311521E+02  0.90383817887E+01  0.35133421734E+02  0.43355169467E+02  0.19999941637E+01 0.  0.
        -13    1    3    3    0    0 -0.23656311521E+02 -0.90383817887E+01 -0.20680105253E+02  0.32695432975E+02  0.10566000000E+00 0.  1.
         13    1    4    4    0    0  0.24638423620E+01  0.99188853953E+00  0.45149961023E+01  0.52393430789E+01  0.10566000000E+00 0. -1.
        -13    1    4    4    0    0  0.91367974091E+01  0.40263198039E+01  0.12991137475E+02  0.16385149831E+02  0.10566000000E+00 0.  1.
        -14    1    4    4    0    0  0.12055671750E+02  0.40201734452E+01  0.17627288157E+02  0.21730676557E+02  0.00000000000E+00 0.  1.
<mgrwt>
<rscale>  0 0.74664555E+02</rscale>
<asrwt>0</asrwt>
<pdfrwt beam="1">  1        2 0.69618399E-02 0.74664555E+02</pdfrwt>
<pdfrwt beam="2">  1       -1 0.47382528E-02 0.74664555E+02</pdfrwt>
<totfact> 0.17665773E+05</totfact>
</mgrwt>
</event>
<event>
 8    1  0.2561077E-024  0.7671929E+02  0.7818608E-02  0.1338628E+00
          2   -1    0    0  501    0  0.00000000000E+00  0.00000000000E+00  0.14311350300E+03  0.14311350302E+03  0.25500000000E-02 0. -1.
         -1   -1    0    0    0  501 -0.00000000000E+00 -0.00000000000E+00 -0.10281783782E+02  0.10281785018E+02  0.50400000000E-02 0.  1.
         24    2    1    2    0    0 -0.35527136788E-14 -0.35527136788E-14  0.13283171922E+03  0.15339528804E+03  0.76719285467E+02 0.  0.
         66    2    3    3    0    0  0.20571552115E+02  0.23136949750E+02  0.11165652689E+03  0.11588652727E+03  0.20000015050E+01 0.  0.
        -13    1    3    3    0    0 -0.20571552115E+02 -0.23136949750E+02  0.21175192327E+02  0.37508760767E+02  0.10566000000E+00 0.  1.
         13    1    4    4    0    0  0.24380924571E+01  0.29111229309E+01  0.13145811726E+02  0.13683656731E+02  0.10566000000E+00 0. -1.
        -13    1    4    4    0    0  0.43621884341E+00  0.63563456374E+00  0.39550952594E+01  0.40309131378E+01  0.10566000000E+00 0.  1.
         14    1    4    4    0    0  0.17697240814E+02  0.19590192256E+02  0.94555619902E+02  0.98171957402E+02  0.00000000000E+00 0. -1.
<mgrwt>
<rscale>  0 0.76719285E+02</rscale>
<asrwt>0</asrwt>
<pdfrwt beam="1">  1        2 0.22017459E-01 0.76719285E+02</pdfrwt>
<pdfrwt beam="2">  1       -1 0.15818132E-02 0.76719285E+02</pdfrwt>
<totfact> 0.22046626E+05</totfact>
</mgrwt>
</event>
<event>
 8    1  0.2561077E-024  0.8053157E+02  0.7818608E-02  0.1327550E+00
          2   -1    0    0  501    0  0.00000000000E+00  0.00000000000E+00  0.83577074842E+03  0.83577074842E+03  0.25500000000E-02 0. -1.
         -1   -1    0    0    0  501 -0.00000000000E+00 -0.00000000000E+00 -0.19399227673E+01  0.19399293144E+01  0.50400000000E-02 0.  1.
         24    2    1    2    0    0  0.00000000000E+00  0.00000000000E+00  0.83383082565E+03  0.83771067773E+03  0.80531570133E+02 0.  0.
         66    2    3    3    0    0 -0.95749543231E+01 -0.52044837672E+01  0.82012527868E+03  0.82020012139E+03  0.20000010178E+01 0.  0.
        -13    1    3    3    0    0  0.95749543231E+01  0.52044837672E+01  0.13705546968E+02  0.17510556339E+02  0.10566000000E+00 0.  1.
         13    1    4    4    0    0 -0.40400473314E+01 -0.31314095224E+01  0.36574783121E+03  0.36578356292E+03  0.10566000000E+00 0. -1.
        -13    1    4    4    0    0 -0.40011065544E+01 -0.13186390217E+01  0.29864851503E+03  0.29867824554E+03  0.10566000000E+00 0.  1.
        -14    1    4    4    0    0 -0.15338004373E+01 -0.75443522314E+00  0.15572893244E+03  0.15573831293E+03  0.00000000000E+00 0.  1.
<mgrwt>
<rscale>  0 0.80531570E+02</rscale>
<asrwt>0</asrwt>
<pdfrwt beam="1">  1        2 0.12858014E+00 0.80531570E+02</pdfrwt>
<pdfrwt beam="2">  1       -1 0.29845011E-03 0.80531570E+02</pdfrwt>
<totfact> 0.34019255E+05</totfact>
</mgrwt>
</event>
<event>
 8    1  0.2561077E-024  0.7872771E+02  0.7818608E-02  0.1332701E+00
         -1   -1    0    0    0  501 -0.00000000000E+00  0.00000000000E+00  0.19519003429E+03  0.19519003436E+03  0.50400000000E-02 0.  1.
          2   -1    0    0  501    0  0.00000000000E+00 -0.00000000000E+00 -0.79384838410E+01  0.79384842506E+01  0.25500000000E-02 0. -1.
         24    2    1    2    0    0  0.35527136788E-14  0.71054273576E-14  0.18725155045E+03  0.20312851861E+03  0.78727707482E+02 0.  0.
         66    2    3    3    0    0 -0.16407716583E+02 -0.32965362042E+02  0.57973703920E+02  0.68708650188E+02  0.20000016140E+01 0.  0.
        -13    1    3    3    0    0  0.16407716583E+02  0.32965362042E+02  0.12927784653E+03  0.13441986842E+03  0.10566000000E+00 0.  1.
         13    1    4    4    0    0 -0.10228083284E+02 -0.19286043847E+02  0.34908579178E+02  0.41172627305E+02  0.10566000000E+00 0. -1.
        -13    1    4    4    0    0 -0.15036658334E+00 -0.73223080214E+00  0.13016253443E+01  0.15047141354E+01  0.10566000000E+00 0.  1.
         14    1    4    4    0    0 -0.60292667156E+01 -0.12947087393E+02  0.21763499398E+02  0.26031308748E+02  0.00000000000E+00 0. -1.
<mgrwt>
<rscale>  0 0.78727707E+02</rscale>
<asrwt>0</asrwt>
<pdfrwt beam="1">  1        2 0.12213052E-02 0.78727707E+02</pdfrwt>
<pdfrwt beam="2">  1       -1 0.30029237E-01 0.78727707E+02</pdfrwt>
<totfact> 0.10450994E+05</totfact>
</mgrwt>
</event>
<event>
 8    1  0.2561077E-024  0.7882622E+02  0.7818608E-02  0.1332416E+00
         -1   -1    0    0    0  501 -0.00000000000E+00  0.00000000000E+00  0.59776346786E+01  0.59776368033E+01  0.50400000000E-02 0.  1.
          2   -1    0    0  501    0  0.00000000000E+00 -0.00000000000E+00 -0.25986751936E+03  0.25986751937E+03  0.25500000000E-02 0. -1.
         24    2    1    2    0    0  0.35527136788E-14 -0.17763568394E-14 -0.25388988468E+03  0.26584515617E+03  0.78826223546E+02 0.  0.
         66    2    3    3    0    0  0.26937064823E+02 -0.99712027981E+01 -0.21792005948E+03  0.21981397288E+03  0.20000008021E+01 0.  0.
        -13    1    3    3    0    0 -0.26937064823E+02  0.99712027981E+01 -0.35969825201E+02  0.46031183295E+02  0.10566000000E+00 0.  1.
         13    1    4    4    0    0  0.11019225558E+02 -0.36662853907E+01 -0.88702467943E+02  0.89459510191E+02  0.10566000000E+00 0. -1.
        -13    1    4    4    0    0  0.14770445562E+02 -0.55204281330E+01 -0.12033803292E+03  0.12136677684E+03  0.10566000000E+00 0.  1.
        -14    1    4    4    0    0  0.11473937024E+01 -0.78448927436E+00 -0.88795586128E+01  0.89876858472E+01  0.00000000000E+00 0.  1.
<mgrwt>
<rscale>  0 0.78826224E+02</rscale>
<asrwt>0</asrwt>
<pdfrwt beam="1">  1        2 0.39979610E-01 0.78826224E+02</pdfrwt>
<pdfrwt beam="2">  1       -1 0.91963648E-03 0.78826224E+02</pdfrwt>
<totfact> 0.25160416E+05</totfact>
</mgrwt>
</event>
<event>
 8    1  0.2561077E-024  0.7611502E+02  0.7818608E-02  0.1340453E+00
         -1   -1    0    0    0  501 -0.00000000000E+00  0.00000000000E+00  0.12438696221E+02  0.12438697242E+02  0.50400000000E-02 0.  1.
          2   -1    0    0  501    0  0.00000000000E+00 -0.00000000000E+00 -0.11644099059E+03  0.11644099062E+03  0.25500000000E-02 0. -1.
         24    2    1    2    0    0 -0.71054273576E-14  0.00000000000E+00 -0.10400229437E+03  0.12887968786E+03  0.76115022885E+02 0.  0.
         66    2    3    3    0    0 -0.29586089209E+02  0.20849771545E+02 -0.71806341430E+02  0.80437555394E+02  0.19999999946E+01 0.  0.
        -13    1    3    3    0    0  0.29586089209E+02 -0.20849771545E+02 -0.32195952940E+02  0.48442132467E+02  0.10566000000E+00 0.  1.
         13    1    4    4    0    0 -0.20753734228E+02  0.14956349154E+02 -0.51270538907E+02  0.57298247689E+02  0.10566000000E+00 0. -1.
        -13    1    4    4    0    0 -0.41602102714E+01  0.22805985230E+01 -0.96942668854E+01  0.10793444937E+02  0.10566000000E+00 0.  1.
        -14    1    4    4    0    0 -0.46721447093E+01  0.36128238680E+01 -0.10841535638E+02  0.12345862767E+02  0.00000000000E+00 0.  1.
<mgrwt>
<rscale>  0 0.76115023E+02</rscale>
<asrwt>0</asrwt>
<pdfrwt beam="1">  1        2 0.17913998E-01 0.76115023E+02</pdfrwt>
<pdfrwt beam="2">  1       -1 0.19136457E-02 0.76115023E+02</pdfrwt>
<totfact> 0.21143138E+05</totfact>
</mgrwt>
</event>
<event>
 8    1  0.2561077E-024  0.7990322E+02  0.7818608E-02  0.1329326E+00
         -1   -1    0    0    0  501 -0.00000000000E+00  0.00000000000E+00  0.17672525869E+02  0.17672526588E+02  0.50400000000E-02 0.  1.
          2   -1    0    0  501    0  0.00000000000E+00 -0.00000000000E+00 -0.90317092332E+02  0.90317092368E+02  0.25500000000E-02 0. -1.
         24    2    1    2    0    0 -0.71054273576E-14  0.88817841970E-15 -0.72644566463E+02  0.10798961896E+03  0.79903221248E+02 0.  0.
         66    2    3    3    0    0 -0.36340805473E+02  0.39837847413E+01 -0.58036595199E+02  0.68620485466E+02  0.19999900186E+01 0.  0.
        -13    1    3    3    0    0  0.36340805473E+02 -0.39837847413E+01 -0.14607971264E+02  0.39369133490E+02  0.10566000000E+00 0.  1.
         13    1    4    4    0    0 -0.87675268376E+01  0.60142728362E+00 -0.12905001090E+02  0.15613502451E+02  0.10566000000E+00 0. -1.
        -13    1    4    4    0    0 -0.10931377741E+02  0.82241190535E+00 -0.17679355189E+02  0.20802455254E+02  0.10566000000E+00 0.  1.
         14    1    4    4    0    0 -0.16641900895E+02  0.25599455523E+01 -0.27452238919E+02  0.32204527761E+02  0.00000000000E+00 0. -1.
<mgrwt>
<rscale>  0 0.79903221E+02</rscale>
<asrwt>0</asrwt>
<pdfrwt beam="1">  1        2 0.13894937E-01 0.79903221E+02</pdfrwt>
<pdfrwt beam="2">  1       -1 0.27188503E-02 0.79903221E+02</pdfrwt>
<totfact> 0.17293151E+05</totfact>
</mgrwt>
</event>
<event>
 8    1  0.2561077E-024  0.7763652E+02  0.7818608E-02  0.1335896E+00
         -1   -1    0    0    0  501 -0.00000000000E+00  0.00000000000E+00  0.46913986522E+01  0.46914013595E+01  0.50400000000E-02 0.  1.
          2   -1    0    0  501    0  0.00000000000E+00 -0.00000000000E+00 -0.32119562248E+03  0.32119562249E+03  0.25500000000E-02 0. -1.
         24    2    1    2    0    0  0.00000000000E+00  0.00000000000E+00 -0.31650422383E+03  0.32588702385E+03  0.77636515974E+02 0.  0.
         66    2    3    3    0    0 -0.86721549866E+01 -0.37802102426E+02 -0.15498041898E+03  0.15977213615E+03  0.20000004352E+01 0.  0.
        -13    1    3    3    0    0  0.86721549866E+01  0.37802102426E+02 -0.16152380484E+03  0.16611488770E+03  0.10566000000E+00 0.  1.
         13    1    4    4    0    0 -0.17475029625E+01 -0.65683937647E+01 -0.29159898269E+02  0.29941750022E+02  0.10566000000E+00 0. -1.
        -13    1    4    4    0    0 -0.35893134090E+01 -0.17075800449E+02 -0.71052760004E+02  0.73164007545E+02  0.10566000000E+00 0.  1.
         14    1    4    4    0    0 -0.33353386152E+01 -0.14157908213E+02 -0.54767760708E+02  0.56666378582E+02  0.00000000000E+00 0. -1.
<mgrwt>
<rscale>  0 0.77636516E+02</rscale>
<asrwt>0</asrwt>
<pdfrwt beam="1">  1        2 0.49414694E-01 0.77636516E+02</pdfrwt>
<pdfrwt beam="2">  1       -1 0.72175410E-03 0.77636516E+02</pdfrwt>
<totfact> 0.28263507E+05</totfact>
</mgrwt>
</event>
<event>
 8    1  0.2561077E-024  0.8283454E+02  0.7818608E-02  0.1321195E+00
          2   -1    0    0  501    0  0.00000000000E+00  0.00000000000E+00  0.12191435718E+04  0.12191435718E+04  0.25500000000E-02 0. -1.
         -1   -1    0    0    0  501 -0.00000000000E+00 -0.00000000000E+00 -0.14070407867E+01  0.14070498133E+01  0.50400000000E-02 0.  1.
         24    2    1    2    0    0 -0.17763568394E-14  0.17763568394E-14  0.12177365310E+04  0.12205506216E+04  0.82834539673E+02 0.  0.
         66    2    3    3    0    0  0.74154556755E+01 -0.83679010804E+01  0.11964691890E+04  0.11965231009E+04  0.19999986835E+01 0.  0.
        -13    1    3    3    0    0 -0.74154556755E+01  0.83679010804E+01  0.21267341951E+02  0.24027520660E+02  0.10566000000E+00 0.  1.
         13    1    4    4    0    0  0.23458885552E+01 -0.23467902176E+01  0.42808335035E+03  0.42809622356E+03  0.10566000000E+00 0. -1.
        -13    1    4    4    0    0  0.36225215938E+01 -0.43793673746E+01  0.50657003746E+03  0.50660193006E+03  0.10566000000E+00 0.  1.
        -14    1    4    4    0    0  0.14470455265E+01 -0.16417434883E+01  0.26181580122E+03  0.26182494730E+03  0.00000000000E+00 0.  1.
<mgrwt>
<rscale>  0 0.82834540E+02</rscale>
<asrwt>0</asrwt>
<pdfrwt beam="1">  1        2 0.18756116E+00 0.82834540E+02</pdfrwt>
<pdfrwt beam="2">  1       -1 0.21646780E-03 0.82834540E+02</pdfrwt>
<totfact> 0.31944514E+05</totfact>
</mgrwt>
</event>
<event>
 8    1  0.2561077E-024  0.8038053E+02  0.7818608E-02  0.1327975E+00
          2   -1    0    0  501    0  0.00000000000E+00  0.00000000000E+00  0.39269199494E+03  0.39269199495E+03  0.25500000000E-02 0. -1.
         -1   -1    0    0    0  501 -0.00000000000E+00 -0.00000000000E+00 -0.41132922650E+01  0.41132953527E+01  0.50400000000E-02 0.  1.
         24    2    1    2    0    0 -0.35527136788E-14  0.17763568394E-14  0.38857870268E+03  0.39680529030E+03  0.80380533951E+02 0.  0.
         66    2    3    3    0    0 -0.25004979536E+02  0.83416327238E+01  0.34401474837E+03  0.34502895376E+03  0.20000000052E+01 0.  0.
        -13    1    3    3    0    0  0.25004979536E+02 -0.83416327238E+01  0.44563954309E+02  0.51776336543E+02  0.10566000000E+00 0.  1.
         13    1    4    4    0    0 -0.15570726333E+02  0.59399203062E+01  0.21720174958E+03  0.21784017388E+03  0.10566000000E+00 0. -1.
        -13    1    4    4    0    0 -0.55362985936E+01  0.12261511183E+01  0.78423483537E+02  0.78628289965E+02  0.10566000000E+00 0.  1.
        -14    1    4    4    0    0 -0.38979546098E+01  0.11755612993E+01  0.48389515253E+02  0.48560489917E+02  0.00000000000E+00 0.  1.
<mgrwt>
<rscale>  0 0.80380534E+02</rscale>
<asrwt>0</asrwt>
<pdfrwt beam="1">  1        2 0.60414140E-01 0.80380534E+02</pdfrwt>
<pdfrwt beam="2">  1       -1 0.63281457E-03 0.80380534E+02</pdfrwt>
<totfact> 0.27725678E+05</totfact>
</mgrwt>
</event>
<event>
 8    1  0.2561077E-024  0.7995507E+02  0.7818608E-02  0.1329179E+00
         -1   -1    0    0    0  501 -0.00000000000E+00  0.00000000000E+00  0.59856241619E+03  0.59856241621E+03  0.50400000000E-02 0.  1.
          2   -1    0    0  501    0  0.00000000000E+00 -0.00000000000E+00 -0.26700689273E+01  0.26700701450E+01  0.25500000000E-02 0. -1.
         24    2    1    2    0    0  0.00000000000E+00  0.00000000000E+00  0.59589234726E+03  0.60123248636E+03  0.79955069407E+02 0.  0.
         66    2    3    3    0    0 -0.19800919737E+02 -0.22490099463E+02  0.49684350690E+03  0.49775029012E+03  0.19999928593E+01 0.  0.
        -13    1    3    3    0    0  0.19800919737E+02  0.22490099463E+02  0.99048840361E+02  0.10348219623E+03  0.10566000000E+00 0.  1.
         13    1    4    4    0    0 -0.14328833486E+02 -0.15572460603E+02  0.35579918698E+03  0.35642795852E+03  0.10566000000E+00 0. -1.
        -13    1    4    4    0    0 -0.18331516209E+01 -0.17262800502E+01  0.39785027379E+02  0.39864772109E+02  0.10566000000E+00 0.  1.
         14    1    4    4    0    0 -0.36389346295E+01 -0.51913588099E+01  0.10125929255E+03  0.10145755949E+03  0.00000000000E+00 0. -1.
<mgrwt>
<rscale>  0 0.79955069E+02</rscale>
<asrwt>0</asrwt>
<pdfrwt beam="1">  1        2 0.41077924E-03 0.79955069E+02</pdfrwt>
<pdfrwt beam="2">  1       -1 0.92086679E-01 0.79955069E+02</pdfrwt>
<totfact> 0.59204301E+04</totfact>
</mgrwt>
</event>
<event>
 8    1  0.2561077E-024  0.7994798E+02  0.7818608E-02  0.1329199E+00
          2   -1    0    0  501    0  0.00000000000E+00  0.00000000000E+00  0.18996429425E+02  0.18996429596E+02  0.25500000000E-02 0. -1.
         -1   -1    0    0    0  501 -0.00000000000E+00 -0.00000000000E+00 -0.84116862026E+02  0.84116862177E+02  0.50400000000E-02 0.  1.
         24    2    1    2    0    0  0.00000000000E+00  0.00000000000E+00 -0.65120432600E+02  0.10311329177E+03  0.79947984329E+02 0.  0.
         66    2    3    3    0    0 -0.61318248676E+01 -0.17399686602E+02  0.13120603594E+02  0.22726605818E+02  0.20000008197E+01 0.  0.
        -13    1    3    3    0    0  0.61318248676E+01  0.17399686602E+02 -0.78241036195E+02  0.80386685955E+02  0.10566000000E+00 0.  1.
         13    1    4    4    0    0 -0.33645751621E+01 -0.10007183338E+02  0.73331729891E+01  0.12854986367E+02  0.10566000000E+00 0. -1.
        -13    1    4    4    0    0 -0.28087560317E+01 -0.70635047869E+01  0.57619259030E+01  0.95390337282E+01  0.10566000000E+00 0.  1.
        -14    1    4    4    0    0  0.41506326158E-01 -0.32899847685E+00  0.25504702134E-01  0.33258572235E+00  0.00000000000E+00 0.  1.
<mgrwt>
<rscale>  0 0.79947984E+02</rscale>
<asrwt>0</asrwt>
<pdfrwt beam="1">  1        2 0.29225277E-02 0.79947984E+02</pdfrwt>
<pdfrwt beam="2">  1       -1 0.12941056E-01 0.79947984E+02</pdfrwt>
<totfact> 0.12309491E+05</totfact>
</mgrwt>
</event>
<event>
 8    1  0.2561077E-024  0.7786215E+02  0.7818608E-02  0.1335230E+00
          2   -1    0    0  501    0  0.00000000000E+00  0.00000000000E+00  0.21807049385E+02  0.21807049534E+02  0.25500000000E-02 0. -1.
         -1   -1    0    0    0  501 -0.00000000000E+00 -0.00000000000E+00 -0.69501764312E+02  0.69501764495E+02  0.50400000000E-02 0.  1.
         24    2    1    2    0    0  0.00000000000E+00  0.00000000000E+00 -0.47694714927E+02  0.91308814029E+02  0.77862145407E+02 0.  0.
         66    2    3    3    0    0 -0.28539017064E+02 -0.18711484395E+02 -0.19543436694E+01  0.34240540268E+02  0.19999988449E+01 0.  0.
        -13    1    3    3    0    0  0.28539017064E+02  0.18711484395E+02 -0.45740371258E+02  0.57068273761E+02  0.10566000000E+00 0.  1.
         13    1    4    4    0    0 -0.50261293252E+01 -0.41039539448E+01 -0.25153863390E+00  0.64945245934E+01  0.10566000000E+00 0. -1.
        -13    1    4    4    0    0 -0.15016002225E+02 -0.97164463174E+01 -0.87787317059E+00  0.17907302343E+02  0.10566000000E+00 0.  1.
        -14    1    4    4    0    0 -0.84968855144E+01 -0.48910841327E+01 -0.82493186489E+00  0.98387133315E+01  0.00000000000E+00 0.  1.
<mgrwt>
<rscale>  0 0.77862145E+02</rscale>
<asrwt>0</asrwt>
<pdfrwt beam="1">  1        2 0.33549307E-02 0.77862145E+02</pdfrwt>
<pdfrwt beam="2">  1       -1 0.10692579E-01 0.77862145E+02</pdfrwt>
<totfact> 0.13646589E+05</totfact>
</mgrwt>
</event>
<event>
 8    1  0.2561077E-024  0.7963719E+02  0.7818608E-02  0.1330084E+00
          2   -1    0    0  501    0  0.00000000000E+00  0.00000000000E+00  0.15685173210E+04  0.15685173210E+04  0.25500000000E-02 0. -1.
         -1   -1    0    0    0  501 -0.00000000000E+00 -0.00000000000E+00 -0.10108341160E+01  0.10108466806E+01  0.50400000000E-02 0.  1.
         24    2    1    2    0    0  0.17763568394E-14  0.00000000000E+00  0.15675064869E+04  0.15695281677E+04  0.79637194361E+02 0.  0.
         66    2    3    3    0    0  0.12556753120E+02 -0.73522353739E+01  0.15142022324E+04  0.15142734654E+04  0.20000006321E+01 0.  0.
        -13    1    3    3    0    0 -0.12556753120E+02  0.73522353739E+01  0.53304254471E+02  0.55254702267E+02  0.10566000000E+00 0.  1.
         13    1    4    4    0    0  0.71844813604E+01 -0.50721534888E+01  0.90009340227E+03  0.90013637161E+03  0.10566000000E+00 0. -1.
        -13    1    4    4    0    0  0.24246192516E+01 -0.62581414828E+00  0.24845797930E+03  0.24847062012E+03  0.10566000000E+00 0.  1.
        -14    1    4    4    0    0  0.29476525078E+01 -0.16542677368E+01  0.36565085081E+03  0.36566647365E+03  0.00000000000E+00 0.  1.
<mgrwt>
<rscale>  0 0.79637194E+02</rscale>
<asrwt>0</asrwt>
<pdfrwt beam="1">  1        2 0.24131214E+00 0.79637194E+02</pdfrwt>
<pdfrwt beam="2">  1       -1 0.15551276E-03 0.79637194E+02</pdfrwt>
<totfact> 0.33036752E+05</totfact>
</mgrwt>
</event>
<event>
 8    1  0.2561077E-024  0.7682488E+02  0.7818608E-02  0.1338311E+00
         -1   -1    0    0    0  501 -0.00000000000E+00  0.00000000000E+00  0.39843086633E+01  0.39843118510E+01  0.50400000000E-02 0.  1.
          2   -1    0    0  501    0  0.00000000000E+00 -0.00000000000E+00 -0.37033152992E+03  0.37033152992E+03  0.25500000000E-02 0. -1.
         24    2    1    2    0    0  0.00000000000E+00  0.00000000000E+00 -0.36634722125E+03  0.37431584178E+03  0.76824884541E+02 0.  0.
         66    2    3    3    0    0 -0.12986438132E+02 -0.31667804459E+02 -0.26797127398E+03  0.27015569787E+03  0.19999983671E+01 0.  0.
        -13    1    3    3    0    0  0.12986438132E+02  0.31667804459E+02 -0.98375947268E+02  0.10416014391E+03  0.10566000000E+00 0.  1.
         13    1    4    4    0    0 -0.10637162359E+02 -0.24753824733E+02 -0.20891263134E+03  0.21064282508E+03  0.10566000000E+00 0. -1.
        -13    1    4    4    0    0 -0.47077025723E+00 -0.85796379094E+00 -0.92672017215E+01  0.93193303560E+01  0.10566000000E+00 0.  1.
         14    1    4    4    0    0 -0.18785055149E+01 -0.60560159343E+01 -0.49791440925E+02  0.50193542427E+02  0.00000000000E+00 0. -1.
<mgrwt>
<rscale>  0 0.76824885E+02</rscale>
<asrwt>0</asrwt>
<pdfrwt beam="1">  1        2 0.56974054E-01 0.76824885E+02</pdfrwt>
<pdfrwt beam="2">  1       -1 0.61297111E-03 0.76824885E+02</pdfrwt>
<totfact> 0.30560544E+05</totfact>
</mgrwt>
</event>
<event>
 8    1  0.2561077E-024  0.8054797E+02  0.7818608E-02  0.1327504E+00
          2   -1    0    0  501    0  0.00000000000E+00  0.00000000000E+00  0.15539347794E+03  0.15539347796E+03  0.25500000000E-02 0. -1.
         -1   -1    0    0    0  501 -0.00000000000E+00 -0.00000000000E+00 -0.10437978666E+02  0.10437979883E+02  0.50400000000E-02 0.  1.
         24    2    1    2    0    0  0.00000000000E+00  0.00000000000E+00  0.14495549927E+03  0.16583145784E+03  0.80547971054E+02 0.  0.
         66    2    3    3    0    0  0.92567065182E+01 -0.34264895684E+02  0.11159701998E+03  0.11712243407E+03  0.20000008519E+01 0.  0.
        -13    1    3    3    0    0 -0.92567065182E+01  0.34264895684E+02  0.33358479297E+02  0.48709023772E+02  0.10566000000E+00 0.  1.
         13    1    4    4    0    0  0.60119240458E+01 -0.24162230581E+02  0.76516241651E+02  0.80465539318E+02  0.10566000000E+00 0. -1.
        -13    1    4    4    0    0  0.45050682559E+00 -0.11825569861E+01  0.35840905801E+01  0.38024027597E+01  0.10566000000E+00 0. -1.
         14    1    4    4    0    0  0.27942756469E+01 -0.89201081163E+01  0.31496687747E+02  0.32854491995E+02  0.00000000000E+00 0. -1.
<mgrwt>
<rscale>  0 0.80547971E+02</rscale>
<asrwt>0</asrwt>
<pdfrwt beam="1">  1        2 0.23906688E-01 0.80547971E+02</pdfrwt>
<pdfrwt beam="2">  1       -1 0.16058430E-02 0.80547971E+02</pdfrwt>
<totfact> 0.19896931E+05</totfact>
</mgrwt>
</event>
<event>
 8    1  0.2561077E-024  0.7788470E+02  0.7818608E-02  0.1335164E+00
          2   -1    0    0  501    0  0.00000000000E+00  0.00000000000E+00  0.46663115234E+03  0.46663115234E+03  0.25500000000E-02 0. -1.
         -1   -1    0    0    0  501 -0.00000000000E+00 -0.00000000000E+00 -0.32499024969E+01  0.32499064049E+01  0.50400000000E-02 0.  1.
         24    2    1    2    0    0  0.00000000000E+00  0.00000000000E+00  0.46338124984E+03  0.46988105875E+03  0.77884701113E+02 0.  0.
         66    2    3    3    0    0  0.24835968985E+02 -0.61967419305E+01  0.40869185942E+03  0.40949757132E+03  0.19999978244E+01 0.  0.
        -13    1    3    3    0    0 -0.24835968985E+02  0.61967419305E+01  0.54689390415E+02  0.60383487428E+02  0.10566000000E+00 0.  1.
         13    1    4    4    0    0  0.63328789285E+01 -0.18491818186E+01  0.10679157831E+03  0.10699522041E+03  0.10566000000E+00 0. -1.
        -13    1    4    4    0    0  0.66993585992E+01 -0.22949274325E+01  0.11756170035E+03  0.11777483878E+03  0.10566000000E+00 0.  1.
        -14    1    4    4    0    0  0.11803731457E+02 -0.20526326794E+01  0.18433858077E+03  0.18472751213E+03  0.00000000000E+00 0.  1.
<mgrwt>
<rscale>  0 0.77884701E+02</rscale>
<asrwt>0</asrwt>
<pdfrwt beam="1">  1        2 0.71789414E-01 0.77884701E+02</pdfrwt>
<pdfrwt beam="2">  1       -1 0.49998526E-03 0.77884701E+02</pdfrwt>
<totfact> 0.31928597E+05</totfact>
</mgrwt>
</event>
<event>
 8    1  0.2561077E-024  0.8011955E+02  0.7818608E-02  0.1328713E+00
          2   -1    0    0  501    0  0.00000000000E+00  0.00000000000E+00  0.11282940909E+03  0.11282940912E+03  0.25500000000E-02 0. -1.
         -1   -1    0    0    0  501 -0.00000000000E+00 -0.00000000000E+00 -0.14223112139E+02  0.14223113032E+02  0.50400000000E-02 0.  1.
         24    2    1    2    0    0  0.35527136788E-14 -0.35527136788E-14  0.98606296952E+02  0.12705252215E+03  0.80119545597E+02 0.  0.
         66    2    3    3    0    0 -0.28176960395E+02  0.22908690952E+02  0.76059409078E+02  0.84307668251E+02  0.19999995671E+01 0.  0.
        -13    1    3    3    0    0  0.28176960395E+02 -0.22908690952E+02  0.22546887874E+02  0.42744853902E+02  0.10566000000E+00 0.  1.
         13    1    4    4    0    0 -0.10573472794E+02  0.93041901529E+01  0.31012670658E+02  0.34061168311E+02  0.10566000000E+00 0. -1.
        -13    1    4    4    0    0 -0.59436272759E+01  0.43394311174E+01  0.14302433517E+02  0.16085028323E+02  0.10566000000E+00 0.  1.
         14    1    4    4    0    0 -0.11659860325E+02  0.92650696818E+01  0.30744304904E+02  0.34161471617E+02  0.00000000000E+00 0. -1.
<mgrwt>
<rscale>  0 0.80119546E+02</rscale>
<asrwt>0</asrwt>
<pdfrwt beam="1">  1        2 0.17358371E-01 0.80119546E+02</pdfrwt>
<pdfrwt beam="2">  1       -1 0.21881711E-02 0.80119546E+02</pdfrwt>
<totfact> 0.18275970E+05</totfact>
</mgrwt>
</event>
<event>
 8    1  0.2561077E-024  0.7993847E+02  0.7818608E-02  0.1329226E+00
          2   -1    0    0  501    0  0.00000000000E+00  0.00000000000E+00  0.61955062849E+02  0.61955062901E+02  0.25500000000E-02 0. -1.
         -1   -1    0    0    0  501 -0.00000000000E+00 -0.00000000000E+00 -0.25785459241E+02  0.25785459733E+02  0.50400000000E-02 0.  1.
         24    2    1    2    0    0  0.35527136788E-14  0.00000000000E+00  0.36169603608E+02  0.87740522635E+02  0.79938470632E+02 0.  0.
         66    2    3    3    0    0  0.21144546556E+02  0.33884147409E+02  0.18704759295E+02  0.44148559549E+02  0.19999988171E+01 0.  0.
        -13    1    3    3    0    0 -0.21144546556E+02 -0.33884147409E+02  0.17464844314E+02  0.43591963086E+02  0.10566000000E+00 0.  1.
         13    1    4    4    0    0  0.85276915758E+00  0.93512378234E+00  0.78347833265E+00  0.14922044289E+01  0.10566000000E+00 0. -1.
        -13    1    4    4    0    0  0.61211319787E+01  0.10780363568E+02  0.58753953031E+01  0.13719181075E+02  0.10566000000E+00 0.  1.
         14    1    4    4    0    0  0.14170645420E+02  0.22168660059E+02  0.12045885659E+02  0.28937174045E+02  0.00000000000E+00 0. -1.
<mgrwt>
<rscale>  0 0.79938471E+02</rscale>
<asrwt>0</asrwt>
<pdfrwt beam="1">  1        2 0.95315479E-02 0.79938471E+02</pdfrwt>
<pdfrwt beam="2">  1       -1 0.39669939E-02 0.79938471E+02</pdfrwt>
<totfact> 0.15715376E+05</totfact>
</mgrwt>
</event>
<event>
 8    1  0.2561077E-024  0.7941384E+02  0.7818608E-02  0.1330723E+00
         -1   -1    0    0    0  501 -0.00000000000E+00  0.00000000000E+00  0.16538341222E+01  0.16538418018E+01  0.50400000000E-02 0.  1.
          2   -1    0    0  501    0  0.00000000000E+00 -0.00000000000E+00 -0.95332161700E+03  0.95332161701E+03  0.25500000000E-02 0. -1.
         24    2    1    2    0    0  0.44408920985E-15 -0.17763568394E-14 -0.95166778288E+03  0.95497545881E+03  0.79413839805E+02 0.  0.
         66    2    3    3    0    0  0.37115102788E+01 -0.12149674704E+02 -0.92820381124E+03  0.92829289834E+03  0.20000007214E+01 0.  0.
        -13    1    3    3    0    0 -0.37115102788E+01  0.12149674704E+02 -0.23463971638E+02  0.26682560466E+02  0.10566000000E+00 0.  1.
         13    1    4    4    0    0 -0.12899047722E+00 -0.54993438775E+00 -0.32430779832E+02  0.32435870744E+02  0.10566000000E+00 0.  1.
        -13    1    4    4    0    0  0.31629624020E+00 -0.38582456255E+00 -0.41271790289E+02  0.41274940843E+02  0.10566000000E+00 0. -1.
         14    1    4    4    0    0  0.35242045159E+01 -0.11213915753E+02 -0.85450124112E+03  0.85458208676E+03  0.00000000000E+00 0. -1.
<mgrwt>
<rscale>  0 0.79413840E+02</rscale>
<asrwt>0</asrwt>
<pdfrwt beam="1">  1        2 0.14666442E+00 0.79413840E+02</pdfrwt>
<pdfrwt beam="2">  1       -1 0.25443737E-03 0.79413840E+02</pdfrwt>
<totfact> 0.35810073E+05</totfact>
</mgrwt>
</event>
<event>
 8    1  0.2561077E-024  0.8074776E+02  0.7818608E-02  0.1326943E+00
         -1   -1    0    0    0  501 -0.00000000000E+00  0.00000000000E+00  0.10910160035E+03  0.10910160046E+03  0.50400000000E-02 0.  1.
          2   -1    0    0  501    0  0.00000000000E+00 -0.00000000000E+00 -0.14940662143E+02  0.14940662361E+02  0.25500000000E-02 0. -1.
         24    2    1    2    0    0  0.00000000000E+00 -0.35527136788E-14  0.94160938205E+02  0.12404226283E+03  0.80747759617E+02 0.  0.
         66    2    3    3    0    0  0.83133118375E+01  0.21633949630E+02 -0.36286784340E+01  0.23543709519E+02  0.20000051105E+01 0.  0.
        -13    1    3    3    0    0 -0.83133118375E+01 -0.21633949630E+02  0.97789616639E+02  0.10049855331E+03  0.10566000000E+00 0.  1.
         13    1    4    4    0    0  0.33278293757E+01  0.97156277659E+01 -0.68836333625E+00  0.10293341506E+02  0.10566000000E+00 0. -1.
        -13    1    4    4    0    0  0.34025900950E+01  0.81720336981E+01 -0.20575529754E+01  0.90886986087E+01  0.10566000000E+00 0.  1.
         14    1    4    4    0    0  0.15828923668E+01  0.37462881656E+01 -0.88276212233E+00  0.41616694041E+01  0.00000000000E+00 0. -1.
<mgrwt>
<rscale>  0 0.80747760E+02</rscale>
<asrwt>0</asrwt>
<pdfrwt beam="1">  1        2 0.22985635E-02 0.80747760E+02</pdfrwt>
<pdfrwt beam="2">  1       -1 0.16784861E-01 0.80747760E+02</pdfrwt>
<totfact> 0.11363134E+05</totfact>
</mgrwt>
</event>
<event>
 8    1  0.2561077E-024  0.7873353E+02  0.7818608E-02  0.1332684E+00
          2   -1    0    0  501    0  0.00000000000E+00  0.00000000000E+00  0.38803908441E+02  0.38803908525E+02  0.25500000000E-02 0. -1.
         -1   -1    0    0    0  501 -0.00000000000E+00 -0.00000000000E+00 -0.39937782875E+02  0.39937783193E+02  0.50400000000E-02 0.  1.
         24    2    1    2    0    0  0.00000000000E+00 -0.88817841970E-15 -0.11338744338E+01  0.78741691717E+02  0.78733527441E+02 0.  0.
         66    2    3    3    0    0 -0.10801817914E+02 -0.74762022668E+01  0.36519750763E+02  0.38862128967E+02  0.20000003716E+01 0.  0.
        -13    1    3    3    0    0  0.10801817914E+02  0.74762022668E+01 -0.37653625197E+02  0.39879562750E+02  0.10566000000E+00 0.  1.
         13    1    4    4    0    0 -0.45233138649E+01 -0.29677215503E+01  0.14134239876E+02  0.15134584250E+02  0.10566000000E+00 0. -1.
        -13    1    4    4    0    0 -0.46896994016E+01 -0.39979599685E+01  0.16649389798E+02  0.17753599890E+02  0.10566000000E+00 0.  1.
         14    1    4    4    0    0 -0.15888046475E+01 -0.51052074803E+00  0.57361210898E+01  0.59739448272E+01  0.00000000000E+00 0. -1.
<mgrwt>
<rscale>  0 0.78733527E+02</rscale>
<asrwt>0</asrwt>
<pdfrwt beam="1">  1        2 0.59698321E-02 0.78733527E+02</pdfrwt>
<pdfrwt beam="2">  1       -1 0.61442743E-02 0.78733527E+02</pdfrwt>
<totfact> 0.14805883E+05</totfact>
</mgrwt>
</event>
<event>
 8    1  0.2561077E-024  0.7985377E+02  0.7818608E-02  0.1329467E+00
         -1   -1    0    0    0  501 -0.00000000000E+00  0.00000000000E+00  0.18021863510E+02  0.18021864214E+02  0.50400000000E-02 0.  1.
          2   -1    0    0  501    0  0.00000000000E+00 -0.00000000000E+00 -0.88456775961E+02  0.88456775998E+02  0.25500000000E-02 0. -1.
         24    2    1    2    0    0 -0.71054273576E-14  0.17763568394E-14 -0.70434912451E+02  0.10647864021E+03  0.79853765906E+02 0.  0.
         66    2    3    3    0    0 -0.34440804604E+02  0.87304009944E+01 -0.59453537802E+02  0.69290057602E+02  0.20000005005E+01 0.  0.
        -13    1    3    3    0    0  0.34440804604E+02 -0.87304009944E+01 -0.10981374650E+02  0.37188582610E+02  0.10566000000E+00 0.  1.
         13    1    4    4    0    0 -0.13608789133E+02  0.40918810326E+01 -0.22422686553E+02  0.26546763802E+02  0.10566000000E+00 0. -1.
        -13    1    4    4    0    0 -0.10974109974E+02  0.22349230375E+01 -0.19258697795E+02  0.22278567627E+02  0.10566000000E+00 0.  1.
         14    1    4    4    0    0 -0.98579054969E+01  0.24035969244E+01 -0.17772153453E+02  0.20464726173E+02  0.00000000000E+00 0. -1.
<mgrwt>
<rscale>  0 0.79853766E+02</rscale>
<asrwt>0</asrwt>
<pdfrwt beam="1">  1        2 0.13608735E-01 0.79853766E+02</pdfrwt>
<pdfrwt beam="2">  1       -1 0.27725945E-02 0.79853766E+02</pdfrwt>
<totfact> 0.17225543E+05</totfact>
</mgrwt>
</event>
<event>
 8    1  0.2561077E-024  0.7859014E+02  0.7818608E-02  0.1333101E+00
          2   -1    0    0  501    0  0.00000000000E+00  0.00000000000E+00  0.16557255045E+03  0.16557255047E+03  0.25500000000E-02 0. -1.
         -1   -1    0    0    0  501 -0.00000000000E+00 -0.00000000000E+00 -0.93258351432E+01  0.93258365051E+01  0.50400000000E-02 0.  1.
         24    2    1    2    0    0  0.00000000000E+00 -0.88817841970E-15  0.15624671531E+03  0.17489838698E+03  0.78590137563E+02 0.  0.
         66    2    3    3    0    0 -0.16569306774E+02  0.60904568747E+01  0.15623799805E+03  0.15724486518E+03  0.19999997401E+01 0.  0.
        -13    1    3    3    0    0  0.16569306774E+02 -0.60904568747E+01  0.87172617998E-02  0.17653521799E+02  0.10566000000E+00 0.  1.
         13    1    4    4    0    0 -0.45598796769E+01  0.98883300504E+00  0.40495777895E+02  0.40763825689E+02  0.10566000000E+00 0. -1.
        -13    1    4    4    0    0 -0.86173986296E+00  0.47013505099E+00  0.11461477002E+02  0.11503922881E+02  0.10566000000E+00 0.  1.
         14    1    4    4    0    0 -0.11147687234E+02  0.46314888187E+01  0.10428074315E+03  0.10497711661E+03  0.00000000000E+00 0. -1.
<mgrwt>
<rscale>  0 0.78590138E+02</rscale>
<asrwt>0</asrwt>
<pdfrwt beam="1">  1        2 0.25472700E-01 0.78590138E+02</pdfrwt>
<pdfrwt beam="2">  1       -1 0.14347440E-02 0.78590138E+02</pdfrwt>
<totfact> 0.21683484E+05</totfact>
</mgrwt>
</event>
<event>
 8    1  0.2561077E-024  0.8284820E+02  0.7818608E-02  0.1321158E+00
         -1   -1    0    0    0  501 -0.00000000000E+00  0.00000000000E+00  0.19381088454E+01  0.19381153986E+01  0.50400000000E-02 0.  1.
          2   -1    0    0  501    0  0.00000000000E+00 -0.00000000000E+00 -0.88537494294E+03  0.88537494294E+03  0.25500000000E-02 0. -1.
         24    2    1    2    0    0  0.00000000000E+00 -0.35527136788E-14 -0.88343683409E+03  0.88731305834E+03  0.82848196538E+02 0.  0.
         66    2    3    3    0    0 -0.11279321684E+02  0.29725546785E+02 -0.72596864417E+03  0.72666725780E+03  0.20000031937E+01 0.  0.
        -13    1    3    3    0    0  0.11279321684E+02 -0.29725546785E+02 -0.15746818992E+03  0.16064580054E+03  0.10566000000E+00 0.  1.
         13    1    4    4    0    0 -0.28095115453E+01  0.58078767837E+01 -0.14043597522E+03  0.14058413526E+03  0.10566000000E+00 0. -1.
        -13    1    4    4    0    0 -0.18547176256E+01  0.56473657002E+01 -0.12775614343E+03  0.12789439419E+03  0.10566000000E+00 0.  1.
         14    1    4    4    0    0 -0.66150925135E+01  0.18270304301E+02 -0.45777652552E+03  0.45818872835E+03  0.00000000000E+00 0. -1.
<mgrwt>
<rscale>  0 0.82848197E+02</rscale>
<asrwt>0</asrwt>
<pdfrwt beam="1">  1        2 0.13621121E+00 0.82848197E+02</pdfrwt>
<pdfrwt beam="2">  1       -1 0.29817180E-03 0.82848197E+02</pdfrwt>
<totfact> 0.31846782E+05</totfact>
</mgrwt>
</event>
<event>
 8    1  0.2561077E-024  0.8039884E+02  0.7818608E-02  0.1327923E+00
         -1   -1    0    0    0  501 -0.00000000000E+00  0.00000000000E+00  0.12825892153E+02  0.12825893143E+02  0.50400000000E-02 0.  1.
          2   -1    0    0  501    0  0.00000000000E+00 -0.00000000000E+00 -0.12599459793E+03  0.12599459795E+03  0.25500000000E-02 0. -1.
         24    2    1    2    0    0  0.00000000000E+00  0.17763568394E-14 -0.11316870577E+03  0.13882049110E+03  0.80398835698E+02 0.  0.
         66    2    3    3    0    0  0.42637583471E+01  0.14926571721E+02 -0.12059865261E+03  0.12161010317E+03  0.20000010434E+01 0.  0.
        -13    1    3    3    0    0 -0.42637583471E+01 -0.14926571721E+02  0.74299468319E+01  0.17210387925E+02  0.10566000000E+00 0.  1.
         13    1    4    4    0    0  0.73562219211E+00  0.26289262245E+01 -0.23999021765E+02  0.24154018358E+02  0.10566000000E+00 0. -1.
        -13    1    4    4    0    0  0.13580704349E+01  0.70420493877E+01 -0.50379599749E+02  0.50887621773E+02  0.10566000000E+00 0.  1.
        -14    1    4    4    0    0  0.21700657201E+01  0.52555961087E+01 -0.46220031092E+02  0.46568463040E+02  0.00000000000E+00 0.  1.
<mgrwt>
<rscale>  0 0.80398836E+02</rscale>
<asrwt>0</asrwt>
<pdfrwt beam="1">  1        2 0.19383783E-01 0.80398836E+02</pdfrwt>
<pdfrwt beam="2">  1       -1 0.19732143E-02 0.80398836E+02</pdfrwt>
<totfact> 0.18714185E+05</totfact>
</mgrwt>
</event>
<event>
 8    1  0.2561077E-024  0.7999518E+02  0.7818608E-02  0.1329065E+00
          2   -1    0    0  501    0  0.00000000000E+00  0.00000000000E+00  0.35335120099E+03  0.35335120100E+03  0.25500000000E-02 0. -1.
         -1   -1    0    0    0  501 -0.00000000000E+00 -0.00000000000E+00 -0.45275260757E+01  0.45275288809E+01  0.50400000000E-02 0.  1.
         24    2    1    2    0    0  0.17763568394E-14  0.00000000000E+00  0.34882367491E+03  0.35787872988E+03  0.79995181854E+02 0.  0.
         66    2    3    3    0    0  0.11452867704E+02  0.35872557533E+02  0.23450786012E+03  0.23752040969E+03  0.19999998110E+01 0.  0.
        -13    1    3    3    0    0 -0.11452867704E+02 -0.35872557533E+02  0.11431581480E+03  0.12035832019E+03  0.10566000000E+00 0.  1.
         13    1    4    4    0    0  0.34060436893E+01  0.95630944442E+01  0.60438925828E+02  0.61285633131E+02  0.10566000000E+00 0. -1.
        -13    1    4    4    0    0  0.29022671646E+01  0.91374224332E+01  0.64674222905E+02  0.65381051657E+02  0.10566000000E+00 0.  1.
        -14    1    4    4    0    0  0.51445568505E+01  0.17172040655E+02  0.10939471139E+03  0.11085372490E+03  0.00000000000E+00 0.  1.
<mgrwt>
<rscale>  0 0.79995182E+02</rscale>
<asrwt>0</asrwt>
<pdfrwt beam="1">  1        2 0.54361718E-01 0.79995182E+02</pdfrwt>
<pdfrwt beam="2">  1       -1 0.69654276E-03 0.79995182E+02</pdfrwt>
<totfact> 0.27045635E+05</totfact>
</mgrwt>
</event>
<event>
 8    1  0.2561077E-024  0.7892670E+02  0.7818608E-02  0.1332125E+00
         -1   -1    0    0    0  501 -0.00000000000E+00  0.00000000000E+00  0.44342886957E+01  0.44342915600E+01  0.50400000000E-02 0.  1.
          2   -1    0    0  501    0  0.00000000000E+00 -0.00000000000E+00 -0.35120749778E+03  0.35120749779E+03  0.25500000000E-02 0. -1.
         24    2    1    2    0    0  0.00000000000E+00  0.00000000000E+00 -0.34677320908E+03  0.35564178935E+03  0.78926698860E+02 0.  0.
         66    2    3    3    0    0 -0.21200697325E+02  0.16551215917E+02 -0.30346505125E+03  0.30466120467E+03  0.19999960188E+01 0.  0.
        -13    1    3    3    0    0  0.21200697325E+02 -0.16551215917E+02 -0.43308157834E+02  0.50980584681E+02  0.10566000000E+00 0.  1.
         13    1    4    4    0    0 -0.14045937231E+02  0.10775939511E+02 -0.19327404307E+03  0.19408316804E+03  0.10566000000E+00 0. -1.
        -13    1    4    4    0    0 -0.16577635923E+00  0.28538241146E+00 -0.32734728640E+01  0.32917645038E+01  0.10566000000E+00 0. -1.
        -14    1    4    4    0    0 -0.69889837347E+01  0.54898939945E+01 -0.10691753531E+03  0.10728627213E+03  0.00000000000E+00 0.  1.
<mgrwt>
<rscale>  0 0.78926699E+02</rscale>
<asrwt>0</asrwt>
<pdfrwt beam="1">  1        2 0.54031901E-01 0.78926699E+02</pdfrwt>
<pdfrwt beam="2">  1       -1 0.68219876E-03 0.78926699E+02</pdfrwt>
<totfact> 0.27952688E+05</totfact>
</mgrwt>
</event>
<event>
 8    1  0.2561077E-024  0.8846771E+02  0.7818608E-02  0.1306605E+00
          2   -1    0    0  501    0  0.00000000000E+00  0.00000000000E+00  0.19865799815E+02  0.19865799979E+02  0.25500000000E-02 0. -1.
         -1   -1    0    0    0  501 -0.00000000000E+00 -0.00000000000E+00 -0.98492574739E+02  0.98492574868E+02  0.50400000000E-02 0.  1.
         24    2    1    2    0    0  0.00000000000E+00 -0.35527136788E-14 -0.78626774923E+02  0.11835837485E+03  0.88467706885E+02 0.  0.
         66    2    3    3    0    0  0.23777006145E+02 -0.25029278267E+02 -0.23825540729E+01  0.34662477881E+02  0.20000042834E+01 0.  0.
        -13    1    3    3    0    0 -0.23777006145E+02  0.25029278267E+02 -0.76244220851E+02  0.83695896966E+02  0.10566000000E+00 0.  1.
         13    1    4    4    0    0  0.13518176439E+02 -0.13919337405E+02 -0.89930012961E+00  0.19424442149E+02  0.10566000000E+00 0. -1.
        -13    1    4    4    0    0  0.70137341024E+01 -0.73747348630E+01 -0.15142983611E+01  0.10289968121E+02  0.10566000000E+00 0.  1.
        -14    1    4    4    0    0  0.32450956028E+01 -0.37352059997E+01  0.31044417836E-01  0.49480676115E+01  0.00000000000E+00 0.  1.
<mgrwt>
<rscale>  0 0.88467707E+02</rscale>
<asrwt>0</asrwt>
<pdfrwt beam="1">  1        2 0.30562770E-02 0.88467707E+02</pdfrwt>
<pdfrwt beam="2">  1       -1 0.15152704E-01 0.88467707E+02</pdfrwt>
<totfact> 0.92568005E+04</totfact>
</mgrwt>
</event>
<event>
 8    1  0.2561077E-024  0.7983820E+02  0.7818608E-02  0.1329511E+00
          2   -1    0    0  501    0  0.00000000000E+00  0.00000000000E+00  0.14965888091E+02  0.14965888309E+02  0.25500000000E-02 0. -1.
         -1   -1    0    0    0  501 -0.00000000000E+00 -0.00000000000E+00 -0.10647777270E+03  0.10647777282E+03  0.50400000000E-02 0.  1.
         24    2    1    2    0    0 -0.17763568394E-14  0.00000000000E+00 -0.91511884610E+02  0.12144366113E+03  0.79838197648E+02 0.  0.
         66    2    3    3    0    0 -0.69107089993E+01  0.17866911836E+02  0.74448171520E+01  0.20649690947E+02  0.19999990963E+01 0.  0.
        -13    1    3    3    0    0  0.69107089993E+01 -0.17866911836E+02 -0.98956701762E+02  0.10079397018E+03  0.10566000000E+00 0.  1.
         13    1    4    4    0    0 -0.64043567197E+01  0.14902319020E+02  0.61742890425E+01  0.17355918482E+02  0.10566000000E+00 0. -1.
        -13    1    4    4    0    0 -0.45849331097E+00  0.16290889376E+01  0.60063753611E+00  0.17989097721E+01  0.10566000000E+00 0.  1.
        -14    1    4    4    0    0 -0.47858968540E-01  0.13355038784E+01  0.66989057336E+00  0.14948626929E+01  0.00000000000E+00 0.  1.
<mgrwt>
<rscale>  0 0.79838198E+02</rscale>
<asrwt>0</asrwt>
<pdfrwt beam="1">  1        2 0.23024444E-02 0.79838198E+02</pdfrwt>
<pdfrwt beam="2">  1       -1 0.16381195E-01 0.79838198E+02</pdfrwt>
<totfact> 0.11752343E+05</totfact>
</mgrwt>
</event>
<event>
 8    1  0.2561077E-024  0.8014762E+02  0.7818608E-02  0.1328633E+00
          2   -1    0    0  501    0  0.00000000000E+00  0.00000000000E+00  0.40796914233E+01  0.40796922203E+01  0.25500000000E-02 0. -1.
         -1   -1    0    0    0  501 -0.00000000000E+00 -0.00000000000E+00 -0.39363516361E+03  0.39363516364E+03  0.50400000000E-02 0.  1.
         24    2    1    2    0    0  0.00000000000E+00  0.88817841970E-15 -0.38955547219E+03  0.39771485586E+03  0.80147617951E+02 0.  0.
         66    2    3    3    0    0 -0.39562318953E+02 -0.45593846096E+01 -0.21591681536E+03  0.21956783967E+03  0.19999985252E+01 0.  0.
        -13    1    3    3    0    0  0.39562318953E+02  0.45593846096E+01 -0.17363865682E+03  0.17814701619E+03  0.10566000000E+00 0.  1.
         13    1    4    4    0    0 -0.46569782347E+01 -0.72885063712E+00 -0.23705484158E+02  0.24169812012E+02  0.10566000000E+00 0. -1.
        -13    1    4    4    0    0 -0.86574006024E+01 -0.13876647911E+01 -0.45515150633E+02  0.46352090567E+02  0.10566000000E+00 0.  1.
        -14    1    4    4    0    0 -0.26247940116E+02 -0.24428691813E+01 -0.14669618057E+03  0.14904593710E+03  0.00000000000E+00 0.  1.
<mgrwt>
<rscale>  0 0.80147618E+02</rscale>
<asrwt>0</asrwt>
<pdfrwt beam="1">  1        2 0.62764521E-03 0.80147618E+02</pdfrwt>
<pdfrwt beam="2">  1       -1 0.60559226E-01 0.80147618E+02</pdfrwt>
<totfact> 0.76060284E+04</totfact>
</mgrwt>
</event>
<event>
 8    1  0.2561077E-024  0.8020156E+02  0.7818608E-02  0.1328480E+00
          2   -1    0    0  501    0  0.00000000000E+00  0.00000000000E+00  0.20449840122E+03  0.20449840124E+03  0.25500000000E-02 0. -1.
         -1   -1    0    0    0  501 -0.00000000000E+00 -0.00000000000E+00 -0.78634965169E+01  0.78634981320E+01  0.50400000000E-02 0.  1.
         24    2    1    2    0    0  0.44408920985E-15  0.00000000000E+00  0.19663490471E+03  0.21236189937E+03  0.80201562053E+02 0.  0.
         66    2    3    3    0    0  0.26561692409E+01 -0.17028109561E+02  0.19418004636E+03  0.19495358975E+03  0.20000009617E+01 0.  0.
        -13    1    3    3    0    0 -0.26561692409E+01  0.17028109561E+02  0.24548583499E+01  0.17408309619E+02  0.10566000000E+00 0.  1.
         13    1    4    4    0    0  0.21412525075E+01 -0.12545479226E+02  0.14024998625E+03  0.14082628951E+03  0.10566000000E+00 0. -1.
        -13    1    4    4    0    0  0.12621927332E+00 -0.34796062835E+01  0.44484373679E+02  0.44620558679E+02  0.10566000000E+00 0.  1.
         14    1    4    4    0    0  0.38869746006E+00 -0.10030240511E+01  0.94456864288E+01  0.95067415593E+01  0.00000000000E+00 0. -1.
<mgrwt>
<rscale>  0 0.80201562E+02</rscale>
<asrwt>0</asrwt>
<pdfrwt beam="1">  1        2 0.31461292E-01 0.80201562E+02</pdfrwt>
<pdfrwt beam="2">  1       -1 0.12097688E-02 0.80201562E+02</pdfrwt>
<totfact> 0.22082885E+05</totfact>
</mgrwt>
</event>
<event>
 8    1  0.2561077E-024  0.7858570E+02  0.7818608E-02  0.1333114E+00
          2   -1    0    0  501    0  0.00000000000E+00  0.00000000000E+00  0.79625360479E+01  0.79625364562E+01  0.25500000000E-02 0. -1.
         -1   -1    0    0    0  501 -0.00000000000E+00 -0.00000000000E+00 -0.19389904864E+03  0.19389904871E+03  0.50400000000E-02 0.  1.
         24    2    1    2    0    0  0.35527136788E-14  0.71054273576E-14 -0.18593651259E+03  0.20186158516E+03  0.78585703847E+02 0.  0.
         66    2    3    3    0    0 -0.16655956255E+02 -0.28070449113E+02 -0.36953802005E+02  0.49345257478E+02  0.19999901985E+01 0.  0.
        -13    1    3    3    0    0  0.16655956255E+02  0.28070449113E+02 -0.14898271059E+03  0.15251632768E+03  0.10566000000E+00 0.  1.
         13    1    4    4    0    0 -0.85193913564E+00 -0.15377825098E+01 -0.23022243595E+01  0.28986162864E+01  0.10566000000E+00 0. -1.
        -13    1    4    4    0    0 -0.23700532636E+01 -0.31272325040E+01 -0.39125481011E+01  0.55421956195E+01  0.10566000000E+00 0.  1.
         14    1    4    4    0    0 -0.13433963856E+02 -0.23405434099E+02 -0.30739029544E+02  0.40904445572E+02  0.00000000000E+00 0. -1.
<mgrwt>
<rscale>  0 0.78585704E+02</rscale>
<asrwt>0</asrwt>
<pdfrwt beam="1">  1        2 0.12250057E-02 0.78585704E+02</pdfrwt>
<pdfrwt beam="2">  1       -1 0.29830619E-01 0.78585704E+02</pdfrwt>
<totfact> 0.10519739E+05</totfact>
</mgrwt>
</event>
<event>
 8    1  0.2561077E-024  0.7893981E+02  0.7818608E-02  0.1332087E+00
          2   -1    0    0  501    0  0.00000000000E+00  0.00000000000E+00  0.35847993842E+03  0.35847993842E+03  0.25500000000E-02 0. -1.
         -1   -1    0    0    0  501 -0.00000000000E+00 -0.00000000000E+00 -0.43457747293E+01  0.43457776519E+01  0.50400000000E-02 0.  1.
         24    2    1    2    0    0 -0.17763568394E-14  0.00000000000E+00  0.35413416369E+03  0.36282571608E+03  0.78939814775E+02 0.  0.
         66    2    3    3    0    0 -0.10994369199E+02  0.22733850313E+02  0.31645191226E+03  0.31746419780E+03  0.20000012236E+01 0.  0.
        -13    1    3    3    0    0  0.10994369199E+02 -0.22733850313E+02  0.37682251425E+02  0.45361518280E+02  0.10566000000E+00 0.  1.
         13    1    4    4    0    0 -0.80702597859E+01  0.16708919583E+02  0.22880112648E+03  0.22955235509E+03  0.10566000000E+00 0. -1.
        -13    1    4    4    0    0 -0.76646592279E+00  0.26450524190E+01  0.37228114450E+02  0.37329980469E+02  0.10566000000E+00 0.  1.
        -14    1    4    4    0    0 -0.21576434908E+01  0.33798783112E+01  0.50422671332E+02  0.50581862234E+02  0.00000000000E+00 0.  1.
<mgrwt>
<rscale>  0 0.78939815E+02</rscale>
<asrwt>0</asrwt>
<pdfrwt beam="1">  1        2 0.55150763E-01 0.78939815E+02</pdfrwt>
<pdfrwt beam="2">  1       -1 0.66858091E-03 0.78939815E+02</pdfrwt>
<totfact> 0.28145097E+05</totfact>
</mgrwt>
</event>
<event>
 8    1  0.2561077E-024  0.7895296E+02  0.7818608E-02  0.1332049E+00
         -1   -1    0    0    0  501 -0.00000000000E+00  0.00000000000E+00  0.18761821982E+01  0.18761889677E+01  0.50400000000E-02 0.  1.
          2   -1    0    0  501    0  0.00000000000E+00 -0.00000000000E+00 -0.83061749684E+03  0.83061749685E+03  0.25500000000E-02 0. -1.
         24    2    1    2    0    0  0.00000000000E+00  0.71054273576E-14 -0.82874131464E+03  0.83249368581E+03  0.78952962718E+02 0.  0.
         66    2    3    3    0    0 -0.10838065324E+02 -0.30815282699E+02 -0.64788433800E+03  0.64871038278E+03  0.19999994781E+01 0.  0.
        -13    1    3    3    0    0  0.10838065324E+02  0.30815282699E+02 -0.18085697665E+03  0.18378330303E+03  0.10566000000E+00 0.  1.
         13    1    4    4    0    0 -0.50967179163E+01 -0.15896508833E+02 -0.33124510848E+03  0.33166550707E+03  0.10566000000E+00 0. -1.
        -13    1    4    4    0    0 -0.48611405916E+01 -0.12499198740E+02 -0.25613038369E+03  0.25648127665E+03  0.10566000000E+00 0.  1.
         14    1    4    4    0    0 -0.88020681615E+00 -0.24195751260E+01 -0.60508845829E+02  0.60563599063E+02  0.00000000000E+00 0. -1.
<mgrwt>
<rscale>  0 0.78952963E+02</rscale>
<asrwt>0</asrwt>
<pdfrwt beam="1">  1        2 0.12778701E+00 0.78952963E+02</pdfrwt>
<pdfrwt beam="2">  1       -1 0.28864460E-03 0.78952963E+02</pdfrwt>
<totfact> 0.35779841E+05</totfact>
</mgrwt>
</event>
<event>
 8    1  0.2561077E-024  0.7991198E+02  0.7818608E-02  0.1329301E+00
         -1   -1    0    0    0  501 -0.00000000000E+00  0.00000000000E+00  0.11842492870E+02  0.11842493942E+02  0.50400000000E-02 0.  1.
          2   -1    0    0  501    0  0.00000000000E+00 -0.00000000000E+00 -0.13480955653E+03  0.13480955655E+03  0.25500000000E-02 0. -1.
         24    2    1    2    0    0  0.00000000000E+00 -0.71054273576E-14 -0.12296706366E+03  0.14665205050E+03  0.79911983893E+02 0.  0.
         66    2    3    3    0    0 -0.13165852733E+02  0.33361385818E+02 -0.29306757258E+02  0.46359548777E+02  0.19999999860E+01 0.  0.
        -13    1    3    3    0    0  0.13165852733E+02 -0.33361385818E+02 -0.93660306402E+02  0.10029250172E+03  0.10566000000E+00 0.  1.
         13    1    4    4    0    0 -0.60452858922E+00  0.25026281528E+01 -0.22245387983E+01  0.34041650059E+01  0.10566000000E+00 0. -1.
        -13    1    4    4    0    0 -0.98782746235E+00  0.27216529093E+01 -0.19410470307E+01  0.34874095350E+01  0.10566000000E+00 0.  1.
         14    1    4    4    0    0 -0.11573496682E+02  0.28137104756E+02 -0.25141171429E+02  0.39467974236E+02  0.00000000000E+00 0. -1.
<mgrwt>
<rscale>  0 0.79911984E+02</rscale>
<asrwt>0</asrwt>
<pdfrwt beam="1">  1        2 0.20739931E-01 0.79911984E+02</pdfrwt>
<pdfrwt beam="2">  1       -1 0.18219222E-02 0.79911984E+02</pdfrwt>
<totfact> 0.19420090E+05</totfact>
</mgrwt>
</event>
<event>
 8    1  0.2561077E-024  0.7908734E+02  0.7818608E-02  0.1331662E+00
          2   -1    0    0  501    0  0.00000000000E+00  0.00000000000E+00  0.14427672879E+04  0.14427672879E+04  0.25500000000E-02 0. -1.
         -1   -1    0    0    0  501 -0.00000000000E+00 -0.00000000000E+00 -0.10838155153E+01  0.10838272339E+01  0.50400000000E-02 0.  1.
         24    2    1    2    0    0 -0.17763568394E-14 -0.17763568394E-14  0.14416834724E+04  0.14438511151E+04  0.79087344959E+02 0.  0.
         66    2    3    3    0    0 -0.13461368672E+02 -0.10114414304E+02  0.13740000009E+04  0.13741046221E+04  0.20000010063E+01 0.  0.
        -13    1    3    3    0    0  0.13461368672E+02  0.10114414304E+02  0.67683471417E+02  0.69746493032E+02  0.10566000000E+00 0.  1.
         13    1    4    4    0    0 -0.54795936401E+01 -0.37094279943E+01  0.49828900519E+03  0.49833295061E+03  0.10566000000E+00 0. -1.
        -13    1    4    4    0    0 -0.11063124367E+01 -0.14794936779E+01  0.16133230753E+03  0.16134291880E+03  0.10566000000E+00 0.  1.
        -14    1    4    4    0    0 -0.68754625955E+01 -0.49254926321E+01  0.71437868821E+03  0.71442875267E+03  0.00000000000E+00 0.  1.
<mgrwt>
<rscale>  0 0.79087345E+02</rscale>
<asrwt>0</asrwt>
<pdfrwt beam="1">  1        2 0.22196543E+00 0.79087345E+02</pdfrwt>
<pdfrwt beam="2">  1       -1 0.16674082E-03 0.79087345E+02</pdfrwt>
<totfact> 0.34725423E+05</totfact>
</mgrwt>
</event>
<event>
 8    1  0.2561077E-024  0.8068116E+02  0.7818608E-02  0.1327129E+00
          2   -1    0    0  501    0  0.00000000000E+00  0.00000000000E+00  0.63457932490E+01  0.63457937613E+01  0.25500000000E-02 0. -1.
         -1   -1    0    0    0  501 -0.00000000000E+00 -0.00000000000E+00 -0.25644743973E+03  0.25644743978E+03  0.50400000000E-02 0.  1.
         24    2    1    2    0    0  0.00000000000E+00  0.00000000000E+00 -0.25010164648E+03  0.26279323354E+03  0.80681162748E+02 0.  0.
         66    2    3    3    0    0  0.18034920996E+02 -0.35721859646E+02 -0.14110023611E+03  0.14667851329E+03  0.19999997212E+01 0.  0.
        -13    1    3    3    0    0 -0.18034920996E+02  0.35721859646E+02 -0.10900141037E+03  0.11611472025E+03  0.10566000000E+00 0.  1.
         13    1    4    4    0    0  0.11858505133E+02 -0.23318047268E+02 -0.93267838918E+02  0.96867210205E+02  0.10566000000E+00 0. -1.
        -13    1    4    4    0    0  0.16848147810E+01 -0.44103153585E+01 -0.17133151472E+02  0.17772043377E+02  0.10566000000E+00 0.  1.
         14    1    4    4    0    0  0.44916010815E+01 -0.79934970197E+01 -0.30699245720E+02  0.32039259708E+02  0.00000000000E+00 0. -1.
<mgrwt>
<rscale>  0 0.80681163E+02</rscale>
<asrwt>0</asrwt>
<pdfrwt beam="1">  1        2 0.97627612E-03 0.80681163E+02</pdfrwt>
<pdfrwt beam="2">  1       -1 0.39453444E-01 0.80681163E+02</pdfrwt>
<totfact> 0.89803415E+04</totfact>
</mgrwt>
</event>
<event>
 8    1  0.2561077E-024  0.7954959E+02  0.7818608E-02  0.1330335E+00
         -1   -1    0    0    0  501 -0.00000000000E+00  0.00000000000E+00  0.34278223410E+02  0.34278223781E+02  0.50400000000E-02 0.  1.
          2   -1    0    0  501    0  0.00000000000E+00 -0.00000000000E+00 -0.46152750948E+02  0.46152751019E+02  0.25500000000E-02 0. -1.
         24    2    1    2    0    0  0.00000000000E+00 -0.55511151231E-16 -0.11874527538E+02  0.80430974800E+02  0.79549590213E+02 0.  0.
         66    2    3    3    0    0  0.27922168974E+02  0.38146356084E+00 -0.34542882224E+02  0.44463510295E+02  0.20000001931E+01 0.  0.
        -13    1    3    3    0    0 -0.27922168974E+02 -0.38146356084E+00  0.22668354686E+02  0.35967464504E+02  0.10566000000E+00 0.  1.
         13    1    4    4    0    0  0.17416698101E+01 -0.37120340800E+00 -0.18591518767E+01  0.25765898847E+01  0.10566000000E+00 0. -1.
        -13    1    4    4    0    0  0.10956555094E+02  0.55707371120E+00 -0.13837122765E+02  0.17658809730E+02  0.10566000000E+00 0.  1.
         14    1    4    4    0    0  0.15223944070E+02  0.19559325764E+00 -0.18846607582E+02  0.24228110680E+02  0.00000000000E+00 0. -1.
<mgrwt>
<rscale>  0 0.79549590E+02</rscale>
<asrwt>0</asrwt>
<pdfrwt beam="1">  1        2 0.71004233E-02 0.79549590E+02</pdfrwt>
<pdfrwt beam="2">  1       -1 0.52735728E-02 0.79549590E+02</pdfrwt>
<totfact> 0.14917341E+05</totfact>
</mgrwt>
</event>
<event>
 8    1  0.2561077E-024  0.7956793E+02  0.7818608E-02  0.1330282E+00
          2   -1    0    0  501    0  0.00000000000E+00  0.00000000000E+00  0.89009559204E+03  0.89009559204E+03  0.25500000000E-02 0. -1.
         -1   -1    0    0    0  501 -0.00000000000E+00 -0.00000000000E+00 -0.17781917409E+01  0.17781988835E+01  0.50400000000E-02 0.  1.
         24    2    1    2    0    0  0.00000000000E+00 -0.88817841970E-15  0.88831740030E+03  0.89187379092E+03  0.79567928643E+02 0.  0.
         66    2    3    3    0    0 -0.18133699051E+02 -0.73891260089E+01  0.83229589679E+03  0.83252861215E+03  0.20000032247E+01 0.  0.
        -13    1    3    3    0    0  0.18133699051E+02  0.73891260089E+01  0.56021503505E+02  0.59345178771E+02  0.10566000000E+00 0.  1.
         13    1    4    4    0    0 -0.28631260062E+01 -0.50362691287E+00  0.11258292633E+03  0.11262050255E+03  0.10566000000E+00 0. -1.
        -13    1    4    4    0    0 -0.17387434810E+01 -0.80232563875E+00  0.76109615016E+02  0.76133774485E+02  0.10566000000E+00 0.  1.
         14    1    4    4    0    0 -0.13531829564E+02 -0.60831734573E+01  0.64360335545E+03  0.64377433512E+03  0.00000000000E+00 0. -1.
<mgrwt>
<rscale>  0 0.79567929E+02</rscale>
<asrwt>0</asrwt>
<pdfrwt beam="1">  1        2 0.13693764E+00 0.79567929E+02</pdfrwt>
<pdfrwt beam="2">  1       -1 0.27356881E-03 0.79567929E+02</pdfrwt>
<totfact> 0.35396950E+05</totfact>
</mgrwt>
</event>
<event>
 8    1  0.2561077E-024  0.7975009E+02  0.7818608E-02  0.1329762E+00
          2   -1    0    0  501    0  0.00000000000E+00  0.00000000000E+00  0.28446112789E+02  0.28446112903E+02  0.25500000000E-02 0. -1.
         -1   -1    0    0    0  501 -0.00000000000E+00 -0.00000000000E+00 -0.55895838543E+02  0.55895838770E+02  0.50400000000E-02 0.  1.
         24    2    1    2    0    0  0.00000000000E+00  0.35527136788E-14 -0.27449725754E+02  0.84341951673E+02  0.79750093216E+02 0.  0.
         66    2    3    3    0    0  0.29206345850E+01  0.31446783895E+02 -0.39434665498E+02  0.50562072035E+02  0.19999904493E+01 0.  0.
        -13    1    3    3    0    0 -0.29206345850E+01 -0.31446783895E+02  0.11984939744E+02  0.33779879638E+02  0.10566000000E+00 0.  1.
         13    1    4    4    0    0  0.22766935416E+01  0.22013742962E+02 -0.28220551951E+02  0.35863615672E+02  0.10566000000E+00 0. -1.
        -13    1    4    4    0    0  0.16601038391E+00  0.77343941737E+01 -0.90715109685E+01  0.11922746662E+02  0.10566000000E+00 0.  1.
        -14    1    4    4    0    0  0.47793065951E+00  0.16986467593E+01 -0.21426025789E+01  0.27757097000E+01  0.00000000000E+00 0.  1.
<mgrwt>
<rscale>  0 0.79750093E+02</rscale>
<asrwt>0</asrwt>
<pdfrwt beam="1">  1        2 0.43763251E-02 0.79750093E+02</pdfrwt>
<pdfrwt beam="2">  1       -1 0.85993598E-02 0.79750093E+02</pdfrwt>
<totfact> 0.13432478E+05</totfact>
</mgrwt>
</event>
<event>
 8    1  0.2561077E-024  0.8020855E+02  0.7818608E-02  0.1328461E+00
         -1   -1    0    0    0  501 -0.00000000000E+00  0.00000000000E+00  0.48548854605E+02  0.48548854867E+02  0.50400000000E-02 0.  1.
          2   -1    0    0  501    0  0.00000000000E+00 -0.00000000000E+00 -0.33128544687E+02  0.33128544785E+02  0.25500000000E-02 0. -1.
         24    2    1    2    0    0  0.00000000000E+00  0.00000000000E+00  0.15420309918E+02  0.81677399652E+02  0.80208551015E+02 0.  0.
         66    2    3    3    0    0 -0.20267744710E+02 -0.13002985066E+02 -0.24910652783E+02  0.34704462628E+02  0.20000019897E+01 0.  0.
        -13    1    3    3    0    0  0.20267744710E+02  0.13002985066E+02  0.40330962701E+02  0.46972937024E+02  0.10566000000E+00 0.  1.
         13    1    4    4    0    0 -0.10412638540E+02 -0.59164408152E+01 -0.12368128788E+02  0.17216535280E+02  0.10566000000E+00 0. -1.
        -13    1    4    4    0    0 -0.56972411359E+01 -0.41544636470E+01 -0.65213298143E+01  0.96050523860E+01  0.10566000000E+00 0.  1.
         14    1    4    4    0    0 -0.41578650343E+01 -0.29320806034E+01 -0.60211941803E+01  0.78828749619E+01  0.00000000000E+00 0. -1.
<mgrwt>
<rscale>  0 0.80208551E+02</rscale>
<asrwt>0</asrwt>
<pdfrwt beam="1">  1        2 0.50966992E-02 0.80208551E+02</pdfrwt>
<pdfrwt beam="2">  1       -1 0.74690546E-02 0.80208551E+02</pdfrwt>
<totfact> 0.13623110E+05</totfact>
</mgrwt>
</event>
<event>
 8    1  0.2561077E-024  0.7929601E+02  0.7818608E-02  0.1331061E+00
         -1   -1    0    0    0  501 -0.00000000000E+00  0.00000000000E+00  0.57871503463E+02  0.57871503683E+02  0.50400000000E-02 0.  1.
          2   -1    0    0  501    0  0.00000000000E+00 -0.00000000000E+00 -0.27163011268E+02  0.27163011388E+02  0.25500000000E-02 0. -1.
         24    2    1    2    0    0  0.00000000000E+00  0.17763568394E-14  0.30708492195E+02  0.85034515071E+02  0.79296010369E+02 0.  0.
         66    2    3    3    0    0  0.37564402228E+02 -0.89396881664E+01  0.58351626072E+01  0.39103087615E+02  0.19999997775E+01 0.  0.
        -13    1    3    3    0    0 -0.37564402228E+02  0.89396881664E+01  0.24873329588E+02  0.45931427456E+02  0.10566000000E+00 0.  1.
         13    1    4    4    0    0  0.25192530298E+02 -0.63113409417E+01  0.37014934831E+01  0.26233734491E+02  0.10566000000E+00 0. -1.
        -13    1    4    4    0    0  0.10565876815E+02 -0.24950554622E+01  0.15522165566E+01  0.10967387789E+02  0.10566000000E+00 0.  1.
        -14    1    4    4    0    0  0.18059951148E+01 -0.13329176247E+00  0.58145256743E+00  0.19019653353E+01  0.00000000000E+00 0.  1.
<mgrwt>
<rscale>  0 0.79296010E+02</rscale>
<asrwt>0</asrwt>
<pdfrwt beam="1">  1        2 0.41789249E-02 0.79296010E+02</pdfrwt>
<pdfrwt beam="2">  1       -1 0.89033081E-02 0.79296010E+02</pdfrwt>
<totfact> 0.13526990E+05</totfact>
</mgrwt>
</event>
<event>
 8    1  0.2561077E-024  0.8214265E+02  0.7818608E-02  0.1323079E+00
          2   -1    0    0  501    0  0.00000000000E+00  0.00000000000E+00  0.10824721908E+03  0.10824721911E+03  0.25500000000E-02 0. -1.
         -1   -1    0    0    0  501 -0.00000000000E+00 -0.00000000000E+00 -0.15583343885E+02  0.15583344700E+02  0.50400000000E-02 0.  1.
         24    2    1    2    0    0  0.00000000000E+00  0.00000000000E+00  0.92663875193E+02  0.12383056381E+03  0.82142648893E+02 0.  0.
         66    2    3    3    0    0 -0.33375402567E+02 -0.88702047885E+01  0.79805952589E+02  0.86980389219E+02  0.20000026426E+01 0.  0.
        -13    1    3    3    0    0  0.33375402567E+02  0.88702047885E+01  0.12857922604E+02  0.36850174589E+02  0.10566000000E+00 0.  1.
         13    1    4    4    0    0 -0.59327809201E+01 -0.13243990731E+01  0.14702029924E+02  0.15909518229E+02  0.10566000000E+00 0. -1.
        -13    1    4    4    0    0 -0.27369895354E+02 -0.74797284118E+01  0.64586541863E+02  0.70544241881E+02  0.10566000000E+00 0.  1.
        -14    1    4    4    0    0 -0.72726292827E-01 -0.66077303603E-01  0.51738080248E+00  0.52662910904E+00  0.00000000000E+00 0.  1.
<mgrwt>
<rscale>  0 0.82142649E+02</rscale>
<asrwt>0</asrwt>
<pdfrwt beam="1">  1        2 0.16653418E-01 0.82142649E+02</pdfrwt>
<pdfrwt beam="2">  1       -1 0.23974376E-02 0.82142649E+02</pdfrwt>
<totfact> 0.16890706E+05</totfact>
</mgrwt>
</event>
<event>
 8    1  0.2561077E-024  0.8024553E+02  0.7818608E-02  0.1328356E+00
         -1   -1    0    0    0  501 -0.00000000000E+00  0.00000000000E+00  0.14719484660E+03  0.14719484669E+03  0.50400000000E-02 0.  1.
          2   -1    0    0  501    0  0.00000000000E+00 -0.00000000000E+00 -0.10936769817E+02  0.10936770114E+02  0.25500000000E-02 0. -1.
         24    2    1    2    0    0  0.00000000000E+00  0.00000000000E+00  0.13625807678E+03  0.15813161680E+03  0.80245527871E+02 0.  0.
         66    2    3    3    0    0  0.11869264907E+01 -0.34205511472E+02  0.27004836762E+02  0.43642720270E+02  0.20000036108E+01 0.  0.
        -13    1    3    3    0    0 -0.11869264907E+01  0.34205511472E+02  0.10925324002E+03  0.11448889653E+03  0.10566000000E+00 0.  1.
         13    1    4    4    0    0  0.10092009160E+01 -0.14686463489E+02  0.11185912830E+02  0.18489091546E+02  0.10566000000E+00 0. -1.
        -13    1    4    4    0    0 -0.93694808955E-01 -0.11275347960E+02  0.84176537281E+01  0.14071613577E+02  0.10566000000E+00 0.  1.
        -14    1    4    4    0    0  0.27142038364E+00 -0.82437000236E+01  0.74012702040E+01  0.11082015148E+02  0.00000000000E+00 0.  1.
<mgrwt>
<rscale>  0 0.80245528E+02</rscale>
<asrwt>0</asrwt>
<pdfrwt beam="1">  1        2 0.16825802E-02 0.80245528E+02</pdfrwt>
<pdfrwt beam="2">  1       -1 0.22645358E-01 0.80245528E+02</pdfrwt>
<totfact> 0.10755459E+05</totfact>
</mgrwt>
</event>
<event>
 8    1  0.2561077E-024  0.8057977E+02  0.7818608E-02  0.1327414E+00
          2   -1    0    0  501    0  0.00000000000E+00  0.00000000000E+00  0.80880284566E+03  0.80880284566E+03  0.25500000000E-02 0. -1.
         -1   -1    0    0    0  501 -0.00000000000E+00 -0.00000000000E+00 -0.20070061654E+01  0.20070124937E+01  0.50400000000E-02 0.  1.
         24    2    1    2    0    0 -0.35527136788E-14 -0.17763568394E-14  0.80679583949E+03  0.81080985816E+03  0.80579770786E+02 0.  0.
         66    2    3    3    0    0  0.15483943328E+02  0.15134905758E+02  0.74523516180E+03  0.74555232161E+03  0.20000025480E+01 0.  0.
        -13    1    3    3    0    0 -0.15483943328E+02 -0.15134905758E+02  0.61560677696E+02  0.65257536544E+02  0.10566000000E+00 0.  1.
         13    1    4    4    0    0  0.74390518936E+01  0.72353966861E+01  0.36136123332E+03  0.36151022471E+03  0.10566000000E+00 0. -1.
        -13    1    4    4    0    0  0.16198241393E+00  0.30192230279E-01  0.38548172865E+01  0.38597837014E+01  0.10566000000E+00 0. -1.
        -14    1    4    4    0    0  0.78829090204E+01  0.78693168420E+01  0.38001911119E+03  0.38018231320E+03  0.00000000000E+00 0.  1.
<mgrwt>
<rscale>  0 0.80579771E+02</rscale>
<asrwt>0</asrwt>
<pdfrwt beam="1">  1        2 0.12443115E+00 0.80579771E+02</pdfrwt>
<pdfrwt beam="2">  1       -1 0.30877081E-03 0.80579771E+02</pdfrwt>
<totfact> 0.33789571E+05</totfact>
</mgrwt>
</event>
<event>
 8    1  0.2561077E-024  0.8801395E+02  0.7818608E-02  0.1307734E+00
         -1   -1    0    0    0  501 -0.00000000000E+00  0.00000000000E+00  0.12385265805E+03  0.12385265815E+03  0.50400000000E-02 0.  1.
          2   -1    0    0  501    0  0.00000000000E+00 -0.00000000000E+00 -0.15636431738E+02  0.15636431946E+02  0.25500000000E-02 0. -1.
         24    2    1    2    0    0  0.00000000000E+00  0.00000000000E+00  0.10821622631E+03  0.13948909009E+03  0.88013945593E+02 0.  0.
         66    2    3    3    0    0 -0.33137537560E+02  0.92477734546E+01  0.10704349799E+02  0.36086019860E+02  0.20000038320E+01 0.  0.
        -13    1    3    3    0    0  0.33137537560E+02 -0.92477734546E+01  0.97511876510E+02  0.10340307023E+03  0.10566000000E+00 0.  1.
         13    1    4    4    0    0 -0.13360796381E+02  0.37050241061E+01  0.35932959692E+01  0.14323443145E+02  0.10566000000E+00 0. -1.
        -13    1    4    4    0    0 -0.72459095968E+01  0.15301443210E+01  0.27656283743E+01  0.79059731766E+01  0.10566000000E+00 0.  1.
         14    1    4    4    0    0 -0.12530831582E+02  0.40126050275E+01  0.43454254553E+01  0.13856603539E+02  0.00000000000E+00 0. -1.
<mgrwt>
<rscale>  0 0.88013946E+02</rscale>
<asrwt>0</asrwt>
<pdfrwt beam="1">  1        2 0.24056049E-02 0.88013946E+02</pdfrwt>
<pdfrwt beam="2">  1       -1 0.19054255E-01 0.88013946E+02</pdfrwt>
<totfact> 0.88907948E+04</totfact>
</mgrwt>
</event>
<event>
 8    1  0.2561077E-024  0.7974599E+02  0.7818608E-02  0.1329774E+00
         -1   -1    0    0    0  501 -0.00000000000E+00  0.00000000000E+00  0.13653255421E+02  0.13653256351E+02  0.50400000000E-02 0.  1.
          2   -1    0    0  501    0  0.00000000000E+00 -0.00000000000E+00 -0.11644516336E+03  0.11644516339E+03  0.25500000000E-02 0. -1.
         24    2    1    2    0    0  0.00000000000E+00  0.00000000000E+00 -0.10279190794E+03  0.13009841974E+03  0.79745987241E+02 0.  0.
         66    2    3    3    0    0 -0.13958593351E+02 -0.36746011642E+02 -0.40762839425E+02  0.56663222424E+02  0.19999993968E+01 0.  0.
        -13    1    3    3    0    0  0.13958593351E+02  0.36746011642E+02 -0.62029068518E+02  0.73435197318E+02  0.10566000000E+00 0.  1.
         13    1    4    4    0    0 -0.64893155359E+01 -0.17300365473E+02 -0.17905913668E+02  0.25730269527E+02  0.10566000000E+00 0. -1.
        -13    1    4    4    0    0 -0.64986645809E+01 -0.17489470732E+02 -0.20388903423E+02  0.27637524756E+02  0.10566000000E+00 0.  1.
         14    1    4    4    0    0 -0.97061323368E+00 -0.19561754371E+01 -0.24680223344E+01  0.32954281411E+01  0.00000000000E+00 0. -1.
<mgrwt>
<rscale>  0 0.79745987E+02</rscale>
<asrwt>0</asrwt>
<pdfrwt beam="1">  1        2 0.17914640E-01 0.79745987E+02</pdfrwt>
<pdfrwt beam="2">  1       -1 0.21005010E-02 0.79745987E+02</pdfrwt>
<totfact> 0.18677942E+05</totfact>
</mgrwt>
</event>
<event>
 8    1  0.2561077E-024  0.8256239E+02  0.7818608E-02  0.1321933E+00
         -1   -1    0    0    0  501 -0.00000000000E+00  0.00000000000E+00  0.14241321304E+01  0.14241410487E+01  0.50400000000E-02 0.  1.
          2   -1    0    0  501    0  0.00000000000E+00 -0.00000000000E+00 -0.11966105552E+04  0.11966105552E+04  0.25500000000E-02 0. -1.
         24    2    1    2    0    0  0.00000000000E+00 -0.44408920985E-15 -0.11951864231E+04  0.11980346962E+04  0.82562385698E+02 0.  0.
         66    2    3    3    0    0 -0.23715754705E+02 -0.20638736141E+01 -0.10868973020E+04  0.10871598051E+04  0.19999995096E+01 0.  0.
        -13    1    3    3    0    0  0.23715754705E+02  0.20638736141E+01 -0.10828912104E+03  0.11087489118E+03  0.10566000000E+00 0.  1.
         13    1    4    4    0    0 -0.19666868895E+02 -0.10389754697E+01 -0.90208305287E+03  0.90229801654E+03  0.10566000000E+00 0. -1.
        -13    1    4    4    0    0 -0.38092023268E+01 -0.93955955545E+00 -0.17656955882E+03  0.17661317352E+03  0.10566000000E+00 0.  1.
         14    1    4    4    0    0 -0.23968348321E+00 -0.85338589024E-01 -0.82446903231E+01  0.82486149971E+01  0.00000000000E+00 0. -1.
<mgrwt>
<rscale>  0 0.82562386E+02</rscale>
<asrwt>0</asrwt>
<pdfrwt beam="1">  1        2 0.18409313E+00 0.82562386E+02</pdfrwt>
<pdfrwt beam="2">  1       -1 0.21909889E-03 0.82562386E+02</pdfrwt>
<totfact> 0.32289893E+05</totfact>
</mgrwt>
</event>
<event>
 8    1  0.2561077E-024  0.8457305E+02  0.7818608E-02  0.1316553E+00
         -1   -1    0    0    0  501 -0.00000000000E+00  0.00000000000E+00  0.16430348365E+02  0.16430349138E+02  0.50400000000E-02 0.  1.
          2   -1    0    0  501    0  0.00000000000E+00 -0.00000000000E+00 -0.10883215732E+03  0.10883215734E+03  0.25500000000E-02 0. -1.
         24    2    1    2    0    0  0.00000000000E+00  0.00000000000E+00 -0.92401808950E+02  0.12526250648E+03  0.84573052642E+02 0.  0.
         66    2    3    3    0    0  0.33462375582E+02 -0.27697900727E+01 -0.84240977460E+02  0.90708018334E+02  0.19999974987E+01 0.  0.
        -13    1    3    3    0    0 -0.33462375582E+02  0.27697900727E+01 -0.81608314896E+01  0.34554488149E+02  0.10566000000E+00 0.  1.
         13    1    4    4    0    0  0.91831440528E+01 -0.11045888177E+01 -0.22550546252E+02  0.24373931801E+02  0.10566000000E+00 0. -1.
        -13    1    4    4    0    0  0.49920358568E+01 -0.88751971085E+00 -0.13542582753E+02  0.14461010508E+02  0.10566000000E+00 0.  1.
         14    1    4    4    0    0  0.19287195672E+02 -0.77768154422E+00 -0.48147848455E+02  0.51873076026E+02  0.00000000000E+00 0. -1.
<mgrwt>
<rscale>  0 0.84573053E+02</rscale>
<asrwt>0</asrwt>
<pdfrwt beam="1">  1        2 0.16743408E-01 0.84573053E+02</pdfrwt>
<pdfrwt beam="2">  1       -1 0.25277460E-02 0.84573053E+02</pdfrwt>
<totfact> 0.15642787E+05</totfact>
</mgrwt>
</event>
<event>
 8    1  0.2561077E-024  0.7998897E+02  0.7818608E-02  0.1329083E+00
         -1   -1    0    0    0  501 -0.00000000000E+00  0.00000000000E+00  0.74722941511E+01  0.74722958508E+01  0.50400000000E-02 0.  1.
          2   -1    0    0  501    0  0.00000000000E+00 -0.00000000000E+00 -0.21406524958E+03  0.21406524959E+03  0.25500000000E-02 0. -1.
         24    2    1    2    0    0  0.00000000000E+00  0.00000000000E+00 -0.20659295543E+03  0.22153754544E+03  0.79988966797E+02 0.  0.
         66    2    3    3    0    0 -0.22260986944E+02  0.32378320172E+02 -0.12364649485E+03  0.12975501092E+03  0.20000034890E+01 0.  0.
        -13    1    3    3    0    0  0.22260986944E+02 -0.32378320172E+02 -0.82946460581E+02  0.91782534526E+02  0.10566000000E+00 0.  1.
         13    1    4    4    0    0 -0.18210315285E+02  0.26154585093E+02 -0.97802546717E+02  0.10286412014E+03  0.10566000000E+00 0. -1.
        -13    1    4    4    0    0 -0.21782634142E+01  0.31761090397E+01 -0.13593616316E+02  0.14129050525E+02  0.10566000000E+00 0.  1.
         14    1    4    4    0    0 -0.18724082449E+01  0.30476260391E+01 -0.12250331813E+02  0.12761840253E+02  0.00000000000E+00 0. -1.
<mgrwt>
<rscale>  0 0.79988967E+02</rscale>
<asrwt>0</asrwt>
<pdfrwt beam="1">  1        2 0.32933111E-01 0.79988967E+02</pdfrwt>
<pdfrwt beam="2">  1       -1 0.11495840E-02 0.79988967E+02</pdfrwt>
<totfact> 0.22596848E+05</totfact>
</mgrwt>
</event>
<event>
 8    1  0.2561077E-024  0.8022226E+02  0.7818608E-02  0.1328422E+00
         -1   -1    0    0    0  501 -0.00000000000E+00  0.00000000000E+00  0.13219508885E+01  0.13219604961E+01  0.50400000000E-02 0.  1.
          2   -1    0    0  501    0  0.00000000000E+00 -0.00000000000E+00 -0.12170625376E+04  0.12170625376E+04  0.25500000000E-02 0. -1.
         24    2    1    2    0    0 -0.17763568394E-14  0.00000000000E+00 -0.12157405867E+04  0.12183844981E+04  0.80222260189E+02 0.  0.
         66    2    3    3    0    0 -0.12419709644E+02  0.11787594458E+02 -0.11587222747E+04  0.11588505109E+04  0.20000018012E+01 0.  0.
        -13    1    3    3    0    0  0.12419709644E+02 -0.11787594458E+02 -0.57018312007E+02  0.59533987259E+02  0.10566000000E+00 0.  1.
         13    1    4    4    0    0 -0.91220540667E+01  0.85447625244E+01 -0.80156203783E+03  0.80165948911E+03  0.10566000000E+00 0. -1.
        -13    1    4    4    0    0 -0.27515072049E+00  0.91144399069E-01 -0.17547025798E+02  0.17549737708E+02  0.10566000000E+00 0. -1.
         14    1    4    4    0    0 -0.30225048567E+01  0.31516875350E+01 -0.33961321110E+03  0.33964128404E+03  0.00000000000E+00 0. -1.
<mgrwt>
<rscale>  0 0.80222260E+02</rscale>
<asrwt>0</asrwt>
<pdfrwt beam="1">  1        2 0.18723949E+00 0.80222260E+02</pdfrwt>
<pdfrwt beam="2">  1       -1 0.20337877E-03 0.80222260E+02</pdfrwt>
<totfact> 0.34729054E+05</totfact>
</mgrwt>
</event>
<event>
 8    1  0.2561077E-024  0.8098238E+02  0.7818608E-02  0.1326286E+00
         -1   -1    0    0    0  501 -0.00000000000E+00  0.00000000000E+00  0.39460904839E+01  0.39460937025E+01  0.50400000000E-02 0.  1.
          2   -1    0    0  501    0  0.00000000000E+00 -0.00000000000E+00 -0.41548352844E+03  0.41548352845E+03  0.25500000000E-02 0. -1.
         24    2    1    2    0    0  0.00000000000E+00  0.44408920985E-15 -0.41153743796E+03  0.41942962215E+03  0.80982375229E+02 0.  0.
         66    2    3    3    0    0  0.21617120273E+02 -0.22279509231E+01 -0.38269353585E+03  0.38331528280E+03  0.19999975051E+01 0.  0.
        -13    1    3    3    0    0 -0.21617120273E+02  0.22279509231E+01 -0.28843902107E+02  0.36114339354E+02  0.10566000000E+00 0.  1.
         13    1    4    4    0    0  0.11731294951E+02 -0.91523003807E+00 -0.20424474055E+03  0.20458344541E+03  0.10566000000E+00 0. -1.
        -13    1    4    4    0    0  0.50476659633E+01 -0.10358343273E+01 -0.10124584252E+03  0.10137693858E+03  0.10566000000E+00 0.  1.
        -14    1    4    4    0    0  0.48381593585E+01 -0.27688655782E+00 -0.77202952781E+02  0.77354898812E+02  0.00000000000E+00 0.  1.
<mgrwt>
<rscale>  0 0.80982375E+02</rscale>
<asrwt>0</asrwt>
<pdfrwt beam="1">  1        2 0.63920508E-01 0.80982375E+02</pdfrwt>
<pdfrwt beam="2">  1       -1 0.60709142E-03 0.80982375E+02</pdfrwt>
<totfact> 0.27730587E+05</totfact>
</mgrwt>
</event>
<event>
 8    1  0.2561077E-024  0.7890492E+02  0.7818608E-02  0.1332188E+00
         -1   -1    0    0    0  501 -0.00000000000E+00  0.00000000000E+00  0.58720938444E+00  0.58723101312E+00  0.50400000000E-02 0.  1.
          2   -1    0    0  501    0  0.00000000000E+00 -0.00000000000E+00 -0.26506185121E+04  0.26506185121E+04  0.25500000000E-02 0. -1.
         24    2    1    2    0    0  0.44408920985E-15  0.00000000000E+00 -0.26500313027E+04  0.26512057431E+04  0.78904923485E+02 0.  0.
         66    2    3    3    0    0 -0.30520061850E+01 -0.11183847664E+02 -0.25920536820E+04  0.25920803775E+04  0.19999735351E+01 0.  0.
        -13    1    3    3    0    0  0.30520061850E+01  0.11183847664E+02 -0.57977620686E+02  0.59125365578E+02  0.10566000000E+00 0.  1.
         13    1    4    4    0    0 -0.19740687034E+01 -0.72177220930E+01 -0.15175470615E+04  0.15175655134E+04  0.10566000000E+00 0. -1.
        -13    1    4    4    0    0 -0.43494191758E-02 -0.62891258175E+00 -0.24604822957E+03  0.24604905606E+03  0.10566000000E+00 0.  1.
        -14    1    4    4    0    0 -0.10735880625E+01 -0.33372129891E+01 -0.82845839096E+03  0.82846580806E+03  0.00000000000E+00 0.  1.
<mgrwt>
<rscale>  0 0.78904923E+02</rscale>
<asrwt>0</asrwt>
<pdfrwt beam="1">  1        2 0.40777788E+00 0.78904923E+02</pdfrwt>
<pdfrwt beam="2">  1       -1 0.90343692E-04 0.78904923E+02</pdfrwt>
<totfact> 0.19636285E+05</totfact>
</mgrwt>
</event>
<event>
 8    1  0.2561077E-024  0.7995587E+02  0.7818608E-02  0.1329177E+00
         -1   -1    0    0    0  501 -0.00000000000E+00  0.00000000000E+00  0.18824544763E+01  0.18824612232E+01  0.50400000000E-02 0.  1.
          2   -1    0    0  501    0  0.00000000000E+00 -0.00000000000E+00 -0.84901514037E+03  0.84901514038E+03  0.25500000000E-02 0. -1.
         24    2    1    2    0    0  0.88817841970E-15  0.00000000000E+00 -0.84713268590E+03  0.85089760160E+03  0.79955868415E+02 0.  0.
         66    2    3    3    0    0  0.55372534706E+01 -0.10955072799E+02 -0.82844781980E+03  0.82854116671E+03  0.20000004925E+01 0.  0.
        -13    1    3    3    0    0 -0.55372534706E+01  0.10955072799E+02 -0.18684866101E+02  0.22356434896E+02  0.10566000000E+00 0.  1.
         13    1    4    4    0    0  0.51449772282E+00 -0.32212155560E+00 -0.56358455599E+02  0.56361823531E+02  0.10566000000E+00 0. -1.
        -13    1    4    4    0    0  0.17860177786E+01 -0.29410285622E+01 -0.22700574289E+03  0.22703184353E+03  0.10566000000E+00 0.  1.
         14    1    4    4    0    0  0.32367379692E+01 -0.76919226814E+01 -0.54508362131E+03  0.54514749964E+03  0.00000000000E+00 0. -1.
<mgrwt>
<rscale>  0 0.79955868E+02</rscale>
<asrwt>0</asrwt>
<pdfrwt beam="1">  1        2 0.13061741E+00 0.79955868E+02</pdfrwt>
<pdfrwt beam="2">  1       -1 0.28960958E-03 0.79955868E+02</pdfrwt>
<totfact> 0.34739308E+05</totfact>
</mgrwt>
</event>
<event>
 8    1  0.2561077E-024  0.8070565E+02  0.7818608E-02  0.1327061E+00
         -1   -1    0    0    0  501 -0.00000000000E+00  0.00000000000E+00  0.17476235470E+01  0.17476308144E+01  0.50400000000E-02 0.  1.
          2   -1    0    0  501    0  0.00000000000E+00 -0.00000000000E+00 -0.93174943747E+03  0.93174943747E+03  0.25500000000E-02 0. -1.
         24    2    1    2    0    0 -0.17763568394E-14  0.35527136788E-14 -0.93000181392E+03  0.93349706829E+03  0.80705654090E+02 0.  0.
         66    2    3    3    0    0 -0.11486706724E+02  0.10649055549E+02 -0.89512451731E+03  0.89526378700E+03  0.19999992529E+01 0.  0.
        -13    1    3    3    0    0  0.11486706724E+02 -0.10649055549E+02 -0.34877296610E+02  0.38233281292E+02  0.10566000000E+00 0.  1.
         13    1    4    4    0    0 -0.55166910034E+01  0.52276452911E+01 -0.41495709525E+03  0.41502670302E+03  0.10566000000E+00 0. -1.
        -13    1    4    4    0    0 -0.48978995563E+01  0.38289210726E+01 -0.38624495249E+03  0.38629499679E+03  0.10566000000E+00 0.  1.
        -14    1    4    4    0    0 -0.10721161640E+01  0.15924891857E+01 -0.93922469571E+02  0.93942087188E+02  0.00000000000E+00 0.  1.
<mgrwt>
<rscale>  0 0.80705654E+02</rscale>
<asrwt>0</asrwt>
<pdfrwt beam="1">  1        2 0.14334567E+00 0.80705654E+02</pdfrwt>
<pdfrwt beam="2">  1       -1 0.26886646E-03 0.80705654E+02</pdfrwt>
<totfact> 0.34276526E+05</totfact>
</mgrwt>
</event>
<event>
 8    1  0.2561077E-024  0.7953353E+02  0.7818608E-02  0.1330380E+00
          2   -1    0    0  501    0  0.00000000000E+00  0.00000000000E+00  0.40602756018E+02  0.40602756098E+02  0.25500000000E-02 0. -1.
         -1   -1    0    0    0  501 -0.00000000000E+00 -0.00000000000E+00 -0.38947981723E+02  0.38947982049E+02  0.50400000000E-02 0.  1.
         24    2    1    2    0    0 -0.88817841970E-15  0.00000000000E+00  0.16547742949E+01  0.79550738147E+02  0.79533525395E+02 0.  0.
         66    2    3    3    0    0  0.60476120948E+01  0.26159874619E+02  0.30134041976E+02  0.40410062325E+02  0.19999997818E+01 0.  0.
        -13    1    3    3    0    0 -0.60476120948E+01 -0.26159874619E+02 -0.28479267681E+02  0.39140675822E+02  0.10566000000E+00 0.  1.
         13    1    4    4    0    0  0.40044090250E+01  0.16525851994E+02  0.20289422707E+02  0.26472833501E+02  0.10566000000E+00 0. -1.
        -13    1    4    4    0    0  0.17579598753E+00  0.17552830343E+01  0.16764393358E+01  0.24358849812E+01  0.10566000000E+00 0.  1.
         14    1    4    4    0    0  0.18674070823E+01  0.78787395913E+01  0.81681799331E+01  0.11501343842E+02  0.00000000000E+00 0. -1.
<mgrwt>
<rscale>  0 0.79533525E+02</rscale>
<asrwt>0</asrwt>
<pdfrwt beam="1">  1        2 0.62465778E-02 0.79533525E+02</pdfrwt>
<pdfrwt beam="2">  1       -1 0.59919973E-02 0.79533525E+02</pdfrwt>
<totfact> 0.14531975E+05</totfact>
</mgrwt>
</event>
<event>
 8    1  0.2561077E-024  0.8057207E+02  0.7818608E-02  0.1327436E+00
         -1   -1    0    0    0  501 -0.00000000000E+00  0.00000000000E+00  0.13853941214E+01  0.13854032890E+01  0.50400000000E-02 0.  1.
          2   -1    0    0  501    0  0.00000000000E+00 -0.00000000000E+00 -0.11714784035E+04  0.11714784035E+04  0.25500000000E-02 0. -1.
         24    2    1    2    0    0  0.00000000000E+00 -0.35527136788E-14 -0.11700930094E+04  0.11728638068E+04  0.80572071373E+02 0.  0.
         66    2    3    3    0    0  0.81108636139E+01 -0.19340571850E+02 -0.10856815644E+04  0.10858859531E+04  0.20000003403E+01 0.  0.
        -13    1    3    3    0    0 -0.81108636139E+01  0.19340571850E+02 -0.84411444983E+02  0.86977853711E+02  0.10566000000E+00 0.  1.
         13    1    4    4    0    0  0.61820134601E+01 -0.14483481113E+02 -0.77226982650E+03  0.77243037525E+03  0.10566000000E+00 0. -1.
        -13    1    4    4    0    0  0.16124870602E+01 -0.37234664338E+01 -0.24920523091E+03  0.24923828476E+03  0.10566000000E+00 0.  1.
         14    1    4    4    0    0  0.31636309361E+00 -0.11336243027E+01 -0.64206506967E+02  0.64217293050E+02  0.00000000000E+00 0. -1.
<mgrwt>
<rscale>  0 0.80572071E+02</rscale>
<asrwt>0</asrwt>
<pdfrwt beam="1">  1        2 0.18022666E+00 0.80572071E+02</pdfrwt>
<pdfrwt beam="2">  1       -1 0.21313920E-03 0.80572071E+02</pdfrwt>
<totfact> 0.34477425E+05</totfact>
</mgrwt>
</event>
<event>
 8    1  0.2561077E-024  0.7798353E+02  0.7818608E-02  0.1334873E+00
         -1   -1    0    0    0  501 -0.00000000000E+00  0.00000000000E+00  0.41094215832E+01  0.41094246739E+01  0.50400000000E-02 0.  1.
          2   -1    0    0  501    0  0.00000000000E+00 -0.00000000000E+00 -0.36996861494E+03  0.36996861495E+03  0.25500000000E-02 0. -1.
         24    2    1    2    0    0  0.00000000000E+00  0.00000000000E+00 -0.36585919335E+03  0.37407803962E+03  0.77983526236E+02 0.  0.
         66    2    3    3    0    0  0.36761931611E+02  0.88986088724E+01 -0.13812045399E+03  0.14321970768E+03  0.20000003589E+01 0.  0.
        -13    1    3    3    0    0 -0.36761931611E+02 -0.88986088724E+01 -0.22773873937E+03  0.23085833194E+03  0.10566000000E+00 0.  1.
         13    1    4    4    0    0  0.35242637197E+01  0.42431369235E+00 -0.14090641245E+02  0.14531270130E+02  0.10566000000E+00 0. -1.
        -13    1    4    4    0    0  0.15605794694E+02  0.43263324759E+01 -0.57548823363E+02  0.59784079948E+02  0.10566000000E+00 0.  1.
         14    1    4    4    0    0  0.17631873197E+02  0.41479627041E+01 -0.66480989380E+02  0.68904357598E+02  0.00000000000E+00 0. -1.
<mgrwt>
<rscale>  0 0.77983526E+02</rscale>
<asrwt>0</asrwt>
<pdfrwt beam="1">  1        2 0.56918223E-01 0.77983526E+02</pdfrwt>
<pdfrwt beam="2">  1       -1 0.63221923E-03 0.77983526E+02</pdfrwt>
<totfact> 0.29381186E+05</totfact>
</mgrwt>
</event>
<event>
 8    1  0.2561077E-024  0.8013350E+02  0.7818608E-02  0.1328673E+00
          2   -1    0    0  501    0  0.00000000000E+00  0.00000000000E+00  0.12095492472E+03  0.12095492475E+03  0.25500000000E-02 0. -1.
         -1   -1    0    0    0  501 -0.00000000000E+00 -0.00000000000E+00 -0.13272252743E+02  0.13272253700E+02  0.50400000000E-02 0.  1.
         24    2    1    2    0    0  0.00000000000E+00 -0.27755575616E-16  0.10768267198E+03  0.13422717845E+03  0.80133498548E+02 0.  0.
         66    2    3    3    0    0  0.18375864651E+02 -0.14756406039E+00  0.11346601196E+03  0.11496186344E+03  0.19999996629E+01 0.  0.
        -13    1    3    3    0    0 -0.18375864651E+02  0.14756406039E+00 -0.57833399846E+01  0.19265315005E+02  0.10566000000E+00 0.  1.
         13    1    4    4    0    0  0.12077089007E+02 -0.32079196163E+00  0.77026235907E+02  0.77968013752E+02  0.10566000000E+00 0. -1.
        -13    1    4    4    0    0  0.29003423420E+01 -0.32451643422E+00  0.15170282485E+02  0.15448816502E+02  0.10566000000E+00 0.  1.
        -14    1    4    4    0    0  0.33984333022E+01  0.49774433546E+00  0.21269493568E+02  0.21545033185E+02  0.00000000000E+00 0.  1.
<mgrwt>
<rscale>  0 0.80133499E+02</rscale>
<asrwt>0</asrwt>
<pdfrwt beam="1">  1        2 0.18608450E-01 0.80133499E+02</pdfrwt>
<pdfrwt beam="2">  1       -1 0.20418851E-02 0.80133499E+02</pdfrwt>
<totfact> 0.18647869E+05</totfact>
</mgrwt>
</event>
<event>
 8    1  0.2561077E-024  0.7901459E+02  0.7818608E-02  0.1331871E+00
          2   -1    0    0  501    0  0.00000000000E+00  0.00000000000E+00  0.37429915476E+03  0.37429915477E+03  0.25500000000E-02 0. -1.
         -1   -1    0    0    0  501 -0.00000000000E+00 -0.00000000000E+00 -0.41699958866E+01  0.41699989324E+01  0.50400000000E-02 0.  1.
         24    2    1    2    0    0  0.00000000000E+00  0.00000000000E+00  0.37012915887E+03  0.37846915370E+03  0.79014593936E+02 0.  0.
         66    2    3    3    0    0 -0.35507461745E+01 -0.30914448544E+02  0.30157854478E+03  0.30318629520E+03  0.19999999267E+01 0.  0.
        -13    1    3    3    0    0  0.35507461745E+01  0.30914448544E+02  0.68550614095E+02  0.75282858501E+02  0.10566000000E+00 0.  1.
         13    1    4    4    0    0 -0.20054300844E+01 -0.17705266929E+02  0.17602602490E+03  0.17692560819E+03  0.10566000000E+00 0. -1.
        -13    1    4    4    0    0 -0.70448466487E+00 -0.95580622047E+01  0.86870934885E+02  0.87398074027E+02  0.10566000000E+00 0.  1.
         14    1    4    4    0    0 -0.84083142527E+00 -0.36511194098E+01  0.38681584994E+02  0.38862612986E+02  0.00000000000E+00 0. -1.
<mgrwt>
<rscale>  0 0.79014594E+02</rscale>
<asrwt>0</asrwt>
<pdfrwt beam="1">  1        2 0.57584503E-01 0.79014594E+02</pdfrwt>
<pdfrwt beam="2">  1       -1 0.64153787E-03 0.79014594E+02</pdfrwt>
<totfact> 0.28508354E+05</totfact>
</mgrwt>
</event>
<event>
 8    1  0.2561077E-024  0.8066448E+02  0.7818608E-02  0.1327176E+00
         -1   -1    0    0    0  501 -0.00000000000E+00  0.00000000000E+00  0.42699676209E+02  0.42699676506E+02  0.50400000000E-02 0.  1.
          2   -1    0    0  501    0  0.00000000000E+00 -0.00000000000E+00 -0.38096066150E+02  0.38096066235E+02  0.25500000000E-02 0. -1.
         24    2    1    2    0    0  0.88817841970E-15  0.00000000000E+00  0.46036100587E+01  0.80795742741E+02  0.80664483012E+02 0.  0.
         66    2    3    3    0    0  0.62626516311E+01 -0.36235328012E+02 -0.14230155693E+02  0.39480591791E+02  0.19999988780E+01 0.  0.
        -13    1    3    3    0    0 -0.62626516311E+01  0.36235328012E+02  0.18833765752E+02  0.41315150950E+02  0.10566000000E+00 0.  1.
         13    1    4    4    0    0  0.12772612873E+01 -0.10277363213E+02 -0.40570745088E+01  0.11123246316E+02  0.10566000000E+00 0. -1.
        -13    1    4    4    0    0  0.29274992642E+01 -0.11785065564E+02 -0.44065468997E+01  0.12918469023E+02  0.10566000000E+00 0.  1.
        -14    1    4    4    0    0  0.20578910796E+01 -0.14172899236E+02 -0.57665342845E+01  0.15438876452E+02  0.00000000000E+00 0.  1.
<mgrwt>
<rscale>  0 0.80664483E+02</rscale>
<asrwt>0</asrwt>
<pdfrwt beam="1">  1        2 0.58609333E-02 0.80664483E+02</pdfrwt>
<pdfrwt beam="2">  1       -1 0.65691810E-02 0.80664483E+02</pdfrwt>
<totfact> 0.13793733E+05</totfact>
</mgrwt>
</event>
<event>
 8    1  0.2561077E-024  0.7805786E+02  0.7818608E-02  0.1334655E+00
         -1   -1    0    0    0  501 -0.00000000000E+00  0.00000000000E+00  0.35890836881E+01  0.35890872268E+01  0.50400000000E-02 0.  1.
          2   -1    0    0  501    0  0.00000000000E+00 -0.00000000000E+00 -0.42441375832E+03  0.42441375833E+03  0.25500000000E-02 0. -1.
         24    2    1    2    0    0  0.00000000000E+00  0.00000000000E+00 -0.42082467463E+03  0.42800284556E+03  0.78057856899E+02 0.  0.
         66    2    3    3    0    0 -0.97714450930E+01  0.25140497721E+02 -0.36502767653E+03  0.36602831912E+03  0.20000011677E+01 0.  0.
        -13    1    3    3    0    0  0.97714450930E+01 -0.25140497721E+02 -0.55796998107E+02  0.61974526434E+02  0.10566000000E+00 0.  1.
         13    1    4    4    0    0 -0.50975200140E+01  0.13112548948E+02 -0.17947266295E+03  0.18002325283E+03  0.10566000000E+00 0. -1.
        -13    1    4    4    0    0 -0.42170275949E+01  0.11257016028E+02 -0.17031934804E+03  0.17074306783E+03  0.10566000000E+00 0.  1.
        -14    1    4    4    0    0 -0.45689748402E+00  0.77093274432E+00 -0.15235665546E+02  0.15261998468E+02  0.00000000000E+00 0.  1.
<mgrwt>
<rscale>  0 0.78057857E+02</rscale>
<asrwt>0</asrwt>
<pdfrwt beam="1">  1        2 0.65294385E-01 0.78057857E+02</pdfrwt>
<pdfrwt beam="2">  1       -1 0.55216733E-03 0.78057857E+02</pdfrwt>
<totfact> 0.30748063E+05</totfact>
</mgrwt>
</event>
<event>
 8    1  0.2561077E-024  0.8060432E+02  0.7818608E-02  0.1327345E+00
         -1   -1    0    0    0  501 -0.00000000000E+00  0.00000000000E+00  0.30396130471E+01  0.30396172255E+01  0.50400000000E-02 0.  1.
          2   -1    0    0  501    0  0.00000000000E+00 -0.00000000000E+00 -0.53436503893E+03  0.53436503894E+03  0.25500000000E-02 0. -1.
         24    2    1    2    0    0  0.17763568394E-14 -0.71054273576E-14 -0.53132542588E+03  0.53740465616E+03  0.80604319205E+02 0.  0.
         66    2    3    3    0    0 -0.11807800547E+02  0.32302034264E+02 -0.40558482721E+03  0.40704532627E+03  0.20000008200E+01 0.  0.
        -13    1    3    3    0    0  0.11807800547E+02 -0.32302034264E+02 -0.12574059867E+03  0.13035932989E+03  0.10566000000E+00 0.  1.
         13    1    4    4    0    0 -0.10734202015E+02  0.29301776231E+02 -0.36220520354E+03  0.36354702284E+03  0.10566000000E+00 0. -1.
        -13    1    4    4    0    0 -0.46811371004E+00  0.11088040844E+01 -0.18620357286E+02  0.18659513564E+02  0.10566000000E+00 0.  1.
        -14    1    4    4    0    0 -0.60548482235E+00  0.18914539481E+01 -0.24759266388E+02  0.24838789865E+02  0.00000000000E+00 0.  1.
<mgrwt>
<rscale>  0 0.80604319E+02</rscale>
<asrwt>0</asrwt>
<pdfrwt beam="1">  1        2 0.82209931E-01 0.80604319E+02</pdfrwt>
<pdfrwt beam="2">  1       -1 0.46763352E-03 0.80604319E+02</pdfrwt>
<totfact> 0.30486339E+05</totfact>
</mgrwt>
</event>
<event>
 8    1  0.2561077E-024  0.8207645E+02  0.7818608E-02  0.1323260E+00
         -1   -1    0    0    0  501 -0.00000000000E+00  0.00000000000E+00  0.87488492498E+02  0.87488492643E+02  0.50400000000E-02 0.  1.
          2   -1    0    0  501    0  0.00000000000E+00 -0.00000000000E+00 -0.19249796894E+02  0.19249797063E+02  0.25500000000E-02 0. -1.
         24    2    1    2    0    0  0.00000000000E+00  0.00000000000E+00  0.68238695604E+02  0.10673828971E+03  0.82076445535E+02 0.  0.
         66    2    3    3    0    0 -0.19761845239E+02  0.19440628500E+02 -0.51696779946E+01  0.28270021966E+02  0.20000019195E+01 0.  0.
        -13    1    3    3    0    0  0.19761845239E+02 -0.19440628500E+02  0.73408373598E+02  0.78468267740E+02  0.10566000000E+00 0.  1.
         13    1    4    4    0    0 -0.47906639318E+01  0.56241923151E+01 -0.12857619826E+01  0.74997565304E+01  0.10566000000E+00 0. -1.
        -13    1    4    4    0    0 -0.21864022547E+01  0.18142696542E+01 -0.18818089564E+00  0.28492990861E+01  0.10566000000E+00 0.  1.
         14    1    4    4    0    0 -0.12784779053E+02  0.12002166530E+02 -0.36957351164E+01  0.17920966350E+02  0.00000000000E+00 0. -1.
<mgrwt>
<rscale>  0 0.82076446E+02</rscale>
<asrwt>0</asrwt>
<pdfrwt beam="1">  1        2 0.29615072E-02 0.82076446E+02</pdfrwt>
<pdfrwt beam="2">  1       -1 0.13459768E-01 0.82076446E+02</pdfrwt>
<totfact> 0.11440921E+05</totfact>
</mgrwt>
</event>
<event>
 8    1  0.2561077E-024  0.7920169E+02  0.7818608E-02  0.1331332E+00
         -1   -1    0    0    0  501 -0.00000000000E+00  0.00000000000E+00  0.27424990494E+01  0.27425036805E+01  0.50400000000E-02 0.  1.
          2   -1    0    0  501    0  0.00000000000E+00 -0.00000000000E+00 -0.57182355181E+03  0.57182355181E+03  0.25500000000E-02 0. -1.
         24    2    1    2    0    0  0.00000000000E+00  0.00000000000E+00 -0.56908105276E+03  0.57456605549E+03  0.79201688854E+02 0.  0.
         66    2    3    3    0    0  0.24916587799E+01 -0.35989261540E+02 -0.40276807675E+03  0.40438540894E+03  0.20000007071E+01 0.  0.
        -13    1    3    3    0    0 -0.24916587799E+01  0.35989261540E+02 -0.16631297601E+03  0.17018064655E+03  0.10566000000E+00 0.  1.
         13    1    4    4    0    0  0.15637342729E+01 -0.10996554373E+02 -0.12067555902E+03  0.12118568885E+03  0.10566000000E+00 0.  1.
        -13    1    4    4    0    0  0.22952542937E+00 -0.24807795093E+01 -0.29054633932E+02  0.29161444852E+02  0.10566000000E+00 0. -1.
         14    1    4    4    0    0  0.69839907767E+00 -0.22511927657E+02 -0.25303788380E+03  0.25403827524E+03  0.00000000000E+00 0. -1.
<mgrwt>
<rscale>  0 0.79201689E+02</rscale>
<asrwt>0</asrwt>
<pdfrwt beam="1">  1        2 0.87972759E-01 0.79201689E+02</pdfrwt>
<pdfrwt beam="2">  1       -1 0.42192374E-03 0.79201689E+02</pdfrwt>
<totfact> 0.32564764E+05</totfact>
</mgrwt>
</event>
<event>
 8    1  0.2561077E-024  0.7941520E+02  0.7818608E-02  0.1330719E+00
         -1   -1    0    0    0  501 -0.00000000000E+00  0.00000000000E+00  0.63944446696E+01  0.63944466558E+01  0.50400000000E-02 0.  1.
          2   -1    0    0  501    0  0.00000000000E+00 -0.00000000000E+00 -0.24657233394E+03  0.24657233396E+03  0.25500000000E-02 0. -1.
         24    2    1    2    0    0  0.71054273576E-14 -0.35527136788E-14 -0.24017788927E+03  0.25296678061E+03  0.79415197522E+02 0.  0.
         66    2    3    3    0    0  0.35824152988E+02 -0.16971638945E+02 -0.12593559054E+03  0.13204233954E+03  0.19999998752E+01 0.  0.
        -13    1    3    3    0    0 -0.35824152988E+02  0.16971638945E+02 -0.11424229873E+03  0.12092444107E+03  0.10566000000E+00 0.  1.
         13    1    4    4    0    0  0.54029084792E+01 -0.21981016591E+01 -0.18156587044E+02  0.19070812464E+02  0.10566000000E+00 0. -1.
        -13    1    4    4    0    0  0.15728309991E+02 -0.82282030119E+01 -0.54573646417E+02  0.57387952632E+02  0.10566000000E+00 0.  1.
        -14    1    4    4    0    0  0.14692934518E+02 -0.65453342737E+01 -0.53205357081E+02  0.55583574441E+02  0.00000000000E+00 0.  1.
<mgrwt>
<rscale>  0 0.79415198E+02</rscale>
<asrwt>0</asrwt>
<pdfrwt beam="1">  1        2 0.37934198E-01 0.79415198E+02</pdfrwt>
<pdfrwt beam="2">  1       -1 0.98376106E-03 0.79415198E+02</pdfrwt>
<totfact> 0.24213191E+05</totfact>
</mgrwt>
</event>
<event>
 8    1  0.2561077E-024  0.8028118E+02  0.7818608E-02  0.1328255E+00
          2   -1    0    0  501    0  0.00000000000E+00  0.00000000000E+00  0.55278042714E+01  0.55278048596E+01  0.25500000000E-02 0. -1.
         -1   -1    0    0    0  501 -0.00000000000E+00 -0.00000000000E+00 -0.29148405385E+03  0.29148405390E+03  0.50400000000E-02 0.  1.
         24    2    1    2    0    0  0.00000000000E+00  0.00000000000E+00 -0.28595624958E+03  0.29701185875E+03  0.80281178161E+02 0.  0.
         66    2    3    3    0    0  0.23688199194E+02 -0.30865757939E+02 -0.10692425639E+03  0.11380080139E+03  0.19999990613E+01 0.  0.
        -13    1    3    3    0    0 -0.23688199194E+02  0.30865757939E+02 -0.17903199319E+03  0.18321105737E+03  0.10566000000E+00 0.  1.
         13    1    4    4    0    0  0.47919456436E+01 -0.58095116612E+01 -0.21052910029E+02  0.22359547257E+02  0.10566000000E+00 0. -1.
        -13    1    4    4    0    0  0.46187381526E+01 -0.53696684210E+01 -0.17916866328E+02  0.19266326690E+02  0.10566000000E+00 0.  1.
        -14    1    4    4    0    0  0.14277515398E+02 -0.19686577857E+02 -0.67954480037E+02  0.72174927439E+02  0.00000000000E+00 0.  1.
<mgrwt>
<rscale>  0 0.80281178E+02</rscale>
<asrwt>0</asrwt>
<pdfrwt beam="1">  1        2 0.85043170E-03 0.80281178E+02</pdfrwt>
<pdfrwt beam="2">  1       -1 0.44843689E-01 0.80281178E+02</pdfrwt>
<totfact> 0.86653569E+04</totfact>
</mgrwt>
</event>
<event>
 8    1  0.2561077E-024  0.7928365E+02  0.7818608E-02  0.1331097E+00
          2   -1    0    0  501    0  0.00000000000E+00  0.00000000000E+00  0.26010709429E+03  0.26010709430E+03  0.25500000000E-02 0. -1.
         -1   -1    0    0    0  501 -0.00000000000E+00 -0.00000000000E+00 -0.60416427137E+01  0.60416448159E+01  0.50400000000E-02 0.  1.
         24    2    1    2    0    0  0.00000000000E+00 -0.35527136788E-14  0.25406545157E+03  0.26614873912E+03  0.79283653104E+02 0.  0.
         66    2    3    3    0    0  0.12704451107E+01  0.31063158326E+02  0.20954161628E+03  0.21184480823E+03  0.19999965416E+01 0.  0.
        -13    1    3    3    0    0 -0.12704451107E+01 -0.31063158326E+02  0.44523835293E+02  0.54303930882E+02  0.10566000000E+00 0.  1.
         13    1    4    4    0    0  0.10438100980E+01  0.27323040054E+02  0.18357655473E+03  0.18560172593E+03  0.10566000000E+00 0. -1.
        -13    1    4    4    0    0 -0.23237413137E+00  0.10320697289E+01  0.72259245375E+01  0.73037192662E+01  0.10566000000E+00 0.  1.
         14    1    4    4    0    0  0.45900914406E+00  0.27080485438E+01  0.18739137012E+02  0.18939363038E+02  0.00000000000E+00 0. -1.
<mgrwt>
<rscale>  0 0.79283653E+02</rscale>
<asrwt>0</asrwt>
<pdfrwt beam="1">  1        2 0.40016466E-01 0.79283653E+02</pdfrwt>
<pdfrwt beam="2">  1       -1 0.92948389E-03 0.79283653E+02</pdfrwt>
<totfact> 0.24789519E+05</totfact>
</mgrwt>
</event>
<event>
 8    1  0.2561077E-024  0.7629257E+02  0.7818608E-02  0.1339914E+00
         -1   -1    0    0    0  501 -0.00000000000E+00  0.00000000000E+00  0.72001702951E+02  0.72001703127E+02  0.50400000000E-02 0.  1.
          2   -1    0    0  501    0  0.00000000000E+00 -0.00000000000E+00 -0.20209784075E+02  0.20209784236E+02  0.25500000000E-02 0. -1.
         24    2    1    2    0    0  0.00000000000E+00  0.00000000000E+00  0.51791918876E+02  0.92211487363E+02  0.76292565437E+02 0.  0.
         66    2    3    3    0    0  0.20101391332E+02  0.11790745284E+02 -0.10547797360E+02  0.25658208013E+02  0.20000003544E+01 0.  0.
        -13    1    3    3    0    0 -0.20101391332E+02 -0.11790745284E+02  0.62339716236E+02  0.66553279350E+02  0.10566000000E+00 0.  1.
         13    1    4    4    0    0  0.60280531995E+01  0.29556765252E+01 -0.31474327536E+01  0.74155880463E+01  0.10566000000E+00 0. -1.
        -13    1    4    4    0    0  0.81402630549E+01  0.54373999575E+01 -0.36779729594E+01  0.10457908492E+02  0.10566000000E+00 0.  1.
        -14    1    4    4    0    0  0.59330750780E+01  0.33976688015E+01 -0.37223916475E+01  0.77847114746E+01  0.00000000000E+00 0.  1.
<mgrwt>
<rscale>  0 0.76292565E+02</rscale>
<asrwt>0</asrwt>
<pdfrwt beam="1">  1        2 0.31091975E-02 0.76292565E+02</pdfrwt>
<pdfrwt beam="2">  1       -1 0.11077185E-01 0.76292565E+02</pdfrwt>
<totfact> 0.14248043E+05</totfact>
</mgrwt>
</event>
<event>
 8    1  0.2561077E-024  0.7903482E+02  0.7818608E-02  0.1331813E+00
         -1   -1    0    0    0  501 -0.00000000000E+00  0.00000000000E+00  0.59015577912E+01  0.59015599433E+01  0.50400000000E-02 0.  1.
          2   -1    0    0  501    0  0.00000000000E+00 -0.00000000000E+00 -0.26461238834E+03  0.26461238835E+03  0.25500000000E-02 0. -1.
         24    2    1    2    0    0  0.00000000000E+00  0.00000000000E+00 -0.25871083055E+03  0.27051394829E+03  0.79034817512E+02 0.  0.
         66    2    3    3    0    0  0.17160445797E+02 -0.17327568295E+02 -0.23575711129E+03  0.23702350317E+03  0.20000017072E+01 0.  0.
        -13    1    3    3    0    0 -0.17160445797E+02  0.17327568295E+02 -0.22953719255E+02  0.33490445124E+02  0.10566000000E+00 0.  1.
         13    1    4    4    0    0  0.81847313877E+01 -0.84715742102E+01 -0.10598461236E+03  0.10663726656E+03  0.10566000000E+00 0. -1.
        -13    1    4    4    0    0  0.61314930745E+01 -0.55110882486E+01 -0.85202483569E+02  0.85600477051E+02  0.10566000000E+00 0.  1.
         14    1    4    4    0    0  0.28442213350E+01 -0.33449058358E+01 -0.44570015359E+02  0.44785759558E+02  0.00000000000E+00 0. -1.
<mgrwt>
<rscale>  0 0.79034818E+02</rscale>
<asrwt>0</asrwt>
<pdfrwt beam="1">  1        2 0.40709589E-01 0.79034818E+02</pdfrwt>
<pdfrwt beam="2">  1       -1 0.90793234E-03 0.79034818E+02</pdfrwt>
<totfact> 0.25150269E+05</totfact>
</mgrwt>
</event>
<event>
 8    1  0.2561077E-024  0.8005607E+02  0.7818608E-02  0.1328892E+00
         -1   -1    0    0    0  501 -0.00000000000E+00  0.00000000000E+00  0.19593523760E+01  0.19593588582E+01  0.50400000000E-02 0.  1.
          2   -1    0    0  501    0  0.00000000000E+00 -0.00000000000E+00 -0.81773998007E+03  0.81773998007E+03  0.25500000000E-02 0. -1.
         24    2    1    2    0    0  0.35527136788E-14  0.00000000000E+00 -0.81578062769E+03  0.81969933893E+03  0.80056066135E+02 0.  0.
         66    2    3    3    0    0 -0.24396076570E+02  0.18293859558E+02 -0.67325584388E+03  0.67394900784E+03  0.19999985483E+01 0.  0.
        -13    1    3    3    0    0  0.24396076570E+02 -0.18293859558E+02 -0.14252478381E+03  0.14575033110E+03  0.10566000000E+00 0.  1.
         13    1    4    4    0    0 -0.10251064525E+02  0.67142823931E+01 -0.26860062268E+03  0.26888003195E+03  0.10566000000E+00 0. -1.
        -13    1    4    4    0    0 -0.13470000974E+02  0.11260205316E+02 -0.38841916618E+03  0.38881575710E+03  0.10566000000E+00 0.  1.
        -14    1    4    4    0    0 -0.67501107139E+00  0.31937184834E+00 -0.16236055028E+02  0.16253218795E+02  0.00000000000E+00 0.  1.
<mgrwt>
<rscale>  0 0.80056066E+02</rscale>
<asrwt>0</asrwt>
<pdfrwt beam="1">  1        2 0.12580588E+00 0.80056066E+02</pdfrwt>
<pdfrwt beam="2">  1       -1 0.30143998E-03 0.80056066E+02</pdfrwt>
<totfact> 0.34429143E+05</totfact>
</mgrwt>
</event>
<event>
 8    1  0.2561077E-024  0.7998737E+02  0.7818608E-02  0.1329087E+00
         -1   -1    0    0    0  501 -0.00000000000E+00  0.00000000000E+00  0.25921633718E+01  0.25921682714E+01  0.50400000000E-02 0.  1.
          2   -1    0    0  501    0  0.00000000000E+00 -0.00000000000E+00 -0.61704955305E+03  0.61704955305E+03  0.25500000000E-02 0. -1.
         24    2    1    2    0    0 -0.17763568394E-14 -0.88817841970E-15 -0.61445738968E+03  0.61964172132E+03  0.79987368243E+02 0.  0.
         66    2    3    3    0    0  0.11837657140E+02  0.47134391722E+01 -0.60089236369E+03  0.60103076408E+03  0.19999999458E+01 0.  0.
        -13    1    3    3    0    0 -0.11837657140E+02 -0.47134391722E+01 -0.13565025990E+02  0.18610957244E+02  0.10566000000E+00 0.  1.
         13    1    4    4    0    0  0.66263887808E+01  0.28761159106E+01 -0.31419689422E+03  0.31427993982E+03  0.10566000000E+00 0. -1.
        -13    1    4    4    0    0  0.85738311011E+00  0.72211654504E+00 -0.65867381606E+02  0.65877004196E+02  0.10566000000E+00 0.  1.
         14    1    4    4    0    0  0.43538852488E+01  0.11152067165E+01 -0.22082808786E+03  0.22087382006E+03  0.00000000000E+00 0. -1.
<mgrwt>
<rscale>  0 0.79987368E+02</rscale>
<asrwt>0</asrwt>
<pdfrwt beam="1">  1        2 0.94930584E-01 0.79987368E+02</pdfrwt>
<pdfrwt beam="2">  1       -1 0.39879523E-03 0.79987368E+02</pdfrwt>
<totfact> 0.32425038E+05</totfact>
</mgrwt>
</event>
<event>
 8    1  0.2561077E-024  0.8075523E+02  0.7818608E-02  0.1326922E+00
         -1   -1    0    0    0  501 -0.00000000000E+00  0.00000000000E+00  0.16020803511E+02  0.16020804304E+02  0.50400000000E-02 0.  1.
          2   -1    0    0  501    0  0.00000000000E+00 -0.00000000000E+00 -0.10176466135E+03  0.10176466138E+03  0.25500000000E-02 0. -1.
         24    2    1    2    0    0  0.00000000000E+00  0.00000000000E+00 -0.85743857840E+02  0.11778546569E+03  0.80755227507E+02 0.  0.
         66    2    3    3    0    0 -0.64457955153E+01 -0.13974087296E+02 -0.97306595351E+02  0.98536271980E+02  0.20000003670E+01 0.  0.
        -13    1    3    3    0    0  0.64457955153E+01  0.13974087296E+02  0.11562737510E+02  0.19249193707E+02  0.10566000000E+00 0.  1.
         13    1    4    4    0    0 -0.10497114566E+01 -0.11771747736E+01 -0.99829770645E+01  0.10107355228E+02  0.10566000000E+00 0. -1.
        -13    1    4    4    0    0 -0.34922102330E+01 -0.96086205511E+01 -0.64204359311E+02  0.65013322018E+02  0.10566000000E+00 0.  1.
        -14    1    4    4    0    0 -0.19038738256E+01 -0.31882919715E+01 -0.23119258975E+02  0.23415594735E+02  0.00000000000E+00 0.  1.
<mgrwt>
<rscale>  0 0.80755228E+02</rscale>
<asrwt>0</asrwt>
<pdfrwt beam="1">  1        2 0.15656101E-01 0.80755228E+02</pdfrwt>
<pdfrwt beam="2">  1       -1 0.24647391E-02 0.80755228E+02</pdfrwt>
<totfact> 0.17370317E+05</totfact>
</mgrwt>
</event>
<event>
 8    1  0.2561077E-024  0.7882389E+02  0.7818608E-02  0.1332423E+00
          2   -1    0    0  501    0  0.00000000000E+00  0.00000000000E+00  0.18621227222E+02  0.18621227397E+02  0.25500000000E-02 0. -1.
         -1   -1    0    0    0  501 -0.00000000000E+00 -0.00000000000E+00 -0.83415620725E+02  0.83415620877E+02  0.50400000000E-02 0.  1.
         24    2    1    2    0    0  0.71054273576E-14  0.00000000000E+00 -0.64794393502E+02  0.10203684827E+03  0.78823885824E+02 0.  0.
         66    2    3    3    0    0  0.32377456060E+02  0.72194093079E+01 -0.49309459970E+01  0.33596633174E+02  0.20000001303E+01 0.  0.
        -13    1    3    3    0    0 -0.32377456060E+02 -0.72194093079E+01 -0.59863447505E+02  0.68440215100E+02  0.10566000000E+00 0.  1.
         13    1    4    4    0    0  0.83406139449E+00  0.11876698654E+00 -0.93281113502E-01  0.85418347479E+00  0.10566000000E+00 0.  1.
        -13    1    4    4    0    0  0.48620238528E+00  0.32136752361E+00 -0.14117016458E+00  0.60890302648E+00  0.10566000000E+00 0.  1.
         14    1    4    4    0    0  0.31057192280E+02  0.67792747978E+01 -0.46964947189E+01  0.32133546673E+02  0.00000000000E+00 0. -1.
<mgrwt>
<rscale>  0 0.78823886E+02</rscale>
<asrwt>0</asrwt>
<pdfrwt beam="1">  1        2 0.28648043E-02 0.78823886E+02</pdfrwt>
<pdfrwt beam="2">  1       -1 0.12833172E-01 0.78823886E+02</pdfrwt>
<totfact> 0.12769951E+05</totfact>
</mgrwt>
</event>
<event>
 8    1  0.2561077E-024  0.8056069E+02  0.7818608E-02  0.1327468E+00
         -1   -1    0    0    0  501 -0.00000000000E+00  0.00000000000E+00  0.29481442781E+01  0.29481485862E+01  0.50400000000E-02 0.  1.
          2   -1    0    0  501    0  0.00000000000E+00 -0.00000000000E+00 -0.55034796186E+03  0.55034796186E+03  0.25500000000E-02 0. -1.
         24    2    1    2    0    0 -0.17763568394E-14  0.00000000000E+00 -0.54739981758E+03  0.55329611045E+03  0.80560694838E+02 0.  0.
         66    2    3    3    0    0 -0.12075711369E+02  0.29004130723E+02 -0.44672506803E+03  0.44783294738E+03  0.19999868657E+01 0.  0.
        -13    1    3    3    0    0  0.12075711369E+02 -0.29004130723E+02 -0.10067474955E+03  0.10546316307E+03  0.10566000000E+00 0.  1.
         13    1    4    4    0    0 -0.33661353506E+01  0.83414537424E+01 -0.13469218766E+03  0.13499224903E+03  0.10566000000E+00 0. -1.
        -13    1    4    4    0    0 -0.67744881936E+01  0.16893794352E+02 -0.24664552039E+03  0.24731623050E+03  0.10566000000E+00 0.  1.
        -14    1    4    4    0    0 -0.19350878250E+01  0.37688826288E+01 -0.65387359982E+02  0.65524467846E+02  0.00000000000E+00 0.  1.
<mgrwt>
<rscale>  0 0.80560695E+02</rscale>
<asrwt>0</asrwt>
<pdfrwt beam="1">  1        2 0.84668835E-01 0.80560695E+02</pdfrwt>
<pdfrwt beam="2">  1       -1 0.45356143E-03 0.80560695E+02</pdfrwt>
<totfact> 0.30803497E+05</totfact>
</mgrwt>
</event>
<event>
 8    1  0.2561077E-024  0.8010879E+02  0.7818608E-02  0.1328743E+00
          2   -1    0    0  501    0  0.00000000000E+00  0.00000000000E+00  0.43905770616E+03  0.43905770617E+03  0.25500000000E-02 0. -1.
         -1   -1    0    0    0  501 -0.00000000000E+00 -0.00000000000E+00 -0.36540844991E+01  0.36540879749E+01  0.50400000000E-02 0.  1.
         24    2    1    2    0    0  0.00000000000E+00  0.00000000000E+00  0.43540362166E+03  0.44271179415E+03  0.80108794257E+02 0.  0.
         66    2    3    3    0    0 -0.16478700326E+02  0.67669893850E+01  0.41594154412E+03  0.41632764481E+03  0.19999997879E+01 0.  0.
        -13    1    3    3    0    0  0.16478700326E+02 -0.67669893850E+01  0.19462077547E+02  0.26384149337E+02  0.10566000000E+00 0.  1.
         13    1    4    4    0    0 -0.52198965435E+01  0.17787787209E+01  0.13152534511E+03  0.13164094707E+03  0.10566000000E+00 0. -1.
        -13    1    4    4    0    0 -0.12683236125E+01  0.77950460472E-01  0.28667530431E+02  0.28695874026E+02  0.10566000000E+00 0.  1.
         14    1    4    4    0    0 -0.99904801702E+01  0.49102602037E+01  0.25574866858E+03  0.25599082372E+03  0.00000000000E+00 0. -1.
<mgrwt>
<rscale>  0 0.80108794E+02</rscale>
<asrwt>0</asrwt>
<pdfrwt beam="1">  1        2 0.67547327E-01 0.80108794E+02</pdfrwt>
<pdfrwt beam="2">  1       -1 0.56216722E-03 0.80108794E+02</pdfrwt>
<totfact> 0.29071930E+05</totfact>
</mgrwt>
</event>
<event>
 8    1  0.2561077E-024  0.7979003E+02  0.7818608E-02  0.1329648E+00
         -1   -1    0    0    0  501 -0.00000000000E+00  0.00000000000E+00  0.50391782041E+01  0.50391807246E+01  0.50400000000E-02 0.  1.
          2   -1    0    0  501    0  0.00000000000E+00 -0.00000000000E+00 -0.31584747172E+03  0.31584747173E+03  0.25500000000E-02 0. -1.
         24    2    1    2    0    0 -0.13877787808E-16  0.00000000000E+00 -0.31080829352E+03  0.32088665246E+03  0.79790026980E+02 0.  0.
         66    2    3    3    0    0  0.10236406838E+00  0.24892960889E+02 -0.28075067910E+03  0.28185920918E+03  0.20000009387E+01 0.  0.
        -13    1    3    3    0    0 -0.10236406838E+00 -0.24892960889E+02 -0.30057614415E+02  0.39027443275E+02  0.10566000000E+00 0.  1.
         13    1    4    4    0    0 -0.61864637148E-01  0.18952801941E+02 -0.20639499459E+03  0.20726340122E+03  0.10566000000E+00 0.  1.
        -13    1    4    4    0    0 -0.12492110058E+00  0.29646310311E+01 -0.33866566793E+02  0.33996472652E+02  0.10566000000E+00 0. -1.
        -14    1    4    4    0    0  0.28914980611E+00  0.29755279167E+01 -0.40489117719E+02  0.40599335311E+02  0.00000000000E+00 0.  1.
<mgrwt>
<rscale>  0 0.79790027E+02</rscale>
<asrwt>0</asrwt>
<pdfrwt beam="1">  1        2 0.48591903E-01 0.79790027E+02</pdfrwt>
<pdfrwt beam="2">  1       -1 0.77525863E-03 0.79790027E+02</pdfrwt>
<totfact> 0.26152949E+05</totfact>
</mgrwt>
</event>
<event>
 8    1  0.2561077E-024  0.7975034E+02  0.7818608E-02  0.1329761E+00
         -1   -1    0    0    0  501 -0.00000000000E+00  0.00000000000E+00  0.34604554069E+01  0.34604590772E+01  0.50400000000E-02 0.  1.
          2   -1    0    0  501    0  0.00000000000E+00 -0.00000000000E+00 -0.45948525692E+03  0.45948525693E+03  0.25500000000E-02 0. -1.
         24    2    1    2    0    0  0.00000000000E+00  0.71054273576E-14 -0.45602480151E+03  0.46294571600E+03  0.79750337753E+02 0.  0.
         66    2    3    3    0    0  0.17430628820E+02  0.33873959462E+02 -0.29603897277E+03  0.29848675907E+03  0.19999988378E+01 0.  0.
        -13    1    3    3    0    0 -0.17430628820E+02 -0.33873959462E+02 -0.15998582875E+03  0.16445895693E+03  0.10566000000E+00 0.  1.
         13    1    4    4    0    0  0.67803892845E+01  0.12962660689E+02 -0.11599220699E+03  0.11691110939E+03  0.10566000000E+00 0. -1.
        -13    1    4    4    0    0  0.48134263956E+01  0.11044034390E+02 -0.91354342514E+02  0.92145357069E+02  0.10566000000E+00 0.  1.
        -14    1    4    4    0    0  0.58368131395E+01  0.98672643828E+01 -0.88692423259E+02  0.89430292617E+02  0.00000000000E+00 0.  1.
<mgrwt>
<rscale>  0 0.79750338E+02</rscale>
<asrwt>0</asrwt>
<pdfrwt beam="1">  1        2 0.70689991E-01 0.79750338E+02</pdfrwt>
<pdfrwt beam="2">  1       -1 0.53237840E-03 0.79750338E+02</pdfrwt>
<totfact> 0.29866724E+05</totfact>
</mgrwt>
</event>
<event>
 8    1  0.2561077E-024  0.8067809E+02  0.7818608E-02  0.1327138E+00
          2   -1    0    0  501    0  0.00000000000E+00  0.00000000000E+00  0.61547633658E+01  0.61547638940E+01  0.25500000000E-02 0. -1.
         -1   -1    0    0    0  501 -0.00000000000E+00 -0.00000000000E+00 -0.26438684381E+03  0.26438684386E+03  0.50400000000E-02 0.  1.
         24    2    1    2    0    0 -0.22204460493E-15  0.00000000000E+00 -0.25823208045E+03  0.27054160776E+03  0.80678089681E+02 0.  0.
         66    2    3    3    0    0 -0.13463264276E+01  0.37769922690E+02 -0.82146155430E+02  0.90445400666E+02  0.19999986844E+01 0.  0.
        -13    1    3    3    0    0  0.13463264276E+01 -0.37769922690E+02 -0.17608592502E+03  0.18009620709E+03  0.10566000000E+00 0.  1.
         13    1    4    4    0    0 -0.76568583995E-01  0.24500573362E+01 -0.50152820212E+01  0.55832662023E+01  0.10566000000E+00 0. -1.
        -13    1    4    4    0    0  0.60210462883E-01  0.10197910608E+02 -0.20603739757E+02  0.22989699043E+02  0.10566000000E+00 0.  1.
        -14    1    4    4    0    0 -0.13299683065E+01  0.25121954746E+02 -0.56527133651E+02  0.61872435420E+02  0.00000000000E+00 0.  1.
<mgrwt>
<rscale>  0 0.80678090E+02</rscale>
<asrwt>0</asrwt>
<pdfrwt beam="1">  1        2 0.94688692E-03 0.80678090E+02</pdfrwt>
<pdfrwt beam="2">  1       -1 0.40674890E-01 0.80678090E+02</pdfrwt>
<totfact> 0.88819366E+04</totfact>
</mgrwt>
</event>
<event>
 8    1  0.3200304E-024  0.7700421E+02  0.7818608E-02  0.1337775E+00
          2   -1    0    0  501    0  0.00000000000E+00  0.00000000000E+00  0.17111750572E+04  0.17111750572E+04  0.25500000000E-02 0. -1.
         -1   -1    0    0    0  501 -0.00000000000E+00 -0.00000000000E+00 -0.86630504463E+00  0.86631970539E+00  0.50400000000E-02 0.  1.
         24    2    1    2    0    0  0.17763568394E-14 -0.17763568394E-14  0.17103087521E+04  0.17120413769E+04  0.77004211205E+02 0.  0.
         66    2    3    3    0    0 -0.11527122655E+02  0.10530327265E+02  0.16375775458E+04  0.16376531931E+04  0.19999984987E+01 0.  0.
        -13    1    3    3    0    0  0.11527122655E+02 -0.10530327265E+02  0.72731206335E+02  0.74388183793E+02  0.10566000000E+00 0.  1.
         13    1    4    4    0    0 -0.34921751864E+01  0.26090058594E+01  0.42119675704E+03  0.42121932707E+03  0.10566000000E+00 0. -1.
        -13    1    4    4    0    0 -0.38443265187E-03  0.14119506238E+00  0.15754164691E+02  0.15755151708E+02  0.10566000000E+00 0.  1.
         14    1    4    4    0    0 -0.80345630357E+01  0.77801263437E+01  0.12006266241E+04  0.12006787143E+04  0.00000000000E+00 0. -1.
<mgrwt>
<rscale>  0 0.77004211E+02</rscale>
<asrwt>0</asrwt>
<pdfrwt beam="1">  1        2 0.26325790E+00 0.77004211E+02</pdfrwt>
<pdfrwt beam="2">  1       -1 0.13327872E-03 0.77004211E+02</pdfrwt>
<totfact> 0.34466857E+05</totfact>
</mgrwt>
</event>
<event>
 8    1  0.2561077E-024  0.8082840E+02  0.7818608E-02  0.1326717E+00
         -1   -1    0    0    0  501 -0.00000000000E+00  0.00000000000E+00  0.45892226080E+01  0.45892253755E+01  0.50400000000E-02 0.  1.
          2   -1    0    0  501    0  0.00000000000E+00 -0.00000000000E+00 -0.35590058228E+03  0.35590058229E+03  0.25500000000E-02 0. -1.
         24    2    1    2    0    0  0.00000000000E+00  0.00000000000E+00 -0.35131135967E+03  0.36048980766E+03  0.80828398447E+02 0.  0.
         66    2    3    3    0    0 -0.73780908283E+01  0.27036461579E+02 -0.30547712348E+03  0.30676649010E+03  0.19999997005E+01 0.  0.
        -13    1    3    3    0    0  0.73780908283E+01 -0.27036461579E+02 -0.45834236194E+02  0.53723317568E+02  0.10566000000E+00 0.  1.
         13    1    4    4    0    0 -0.51561422167E+01  0.18380255914E+02 -0.20888247394E+03  0.20975299448E+03  0.10566000000E+00 0. -1.
        -13    1    4    4    0    0 -0.10799172190E+01  0.33806892203E+01 -0.43778746223E+02  0.43922489293E+02  0.10566000000E+00 0.  1.
         14    1    4    4    0    0 -0.11420313926E+01  0.52755164451E+01 -0.52815903317E+02  0.53091006326E+02  0.00000000000E+00 0. -1.
<mgrwt>
<rscale>  0 0.80828398E+02</rscale>
<asrwt>0</asrwt>
<pdfrwt beam="1">  1        2 0.54753914E-01 0.80828398E+02</pdfrwt>
<pdfrwt beam="2">  1       -1 0.70603474E-03 0.80828398E+02</pdfrwt>
<totfact> 0.26389525E+05</totfact>
</mgrwt>
</event>
<event>
 8    1  0.2561077E-024  0.7922223E+02  0.7818608E-02  0.1331273E+00
          2   -1    0    0  501    0  0.00000000000E+00  0.00000000000E+00  0.64292327927E+03  0.64292327927E+03  0.25500000000E-02 0. -1.
         -1   -1    0    0    0  501 -0.00000000000E+00 -0.00000000000E+00 -0.24404756671E+01  0.24404808713E+01  0.50400000000E-02 0.  1.
         24    2    1    2    0    0  0.00000000000E+00  0.00000000000E+00  0.64048280360E+03  0.64536376014E+03  0.79222226674E+02 0.  0.
         66    2    3    3    0    0  0.10286735279E+02  0.27935586954E+02  0.53300130597E+03  0.53383574824E+03  0.19999993722E+01 0.  0.
        -13    1    3    3    0    0 -0.10286735279E+02 -0.27935586954E+02  0.10748149763E+03  0.11152801190E+03  0.10566000000E+00 0.  1.
         13    1    4    4    0    0  0.16035503876E+01  0.46279524566E+01  0.79674389743E+02  0.79824863687E+02  0.10566000000E+00 0. -1.
        -13    1    4    4    0    0  0.14812162102E+01  0.55780326523E+01  0.10795063392E+03  0.10810485178E+03  0.10566000000E+00 0.  1.
         14    1    4    4    0    0  0.72019686809E+01  0.17729601845E+02  0.34537628231E+03  0.34590603278E+03  0.00000000000E+00 0. -1.
<mgrwt>
<rscale>  0 0.79222227E+02</rscale>
<asrwt>0</asrwt>
<pdfrwt beam="1">  1        2 0.98911304E-01 0.79222227E+02</pdfrwt>
<pdfrwt beam="2">  1       -1 0.37545808E-03 0.79222227E+02</pdfrwt>
<totfact> 0.33608169E+05</totfact>
</mgrwt>
</event>
<event>
 8    1  0.2561077E-024  0.7687681E+02  0.7818608E-02  0.1338156E+00
         -1   -1    0    0    0  501 -0.00000000000E+00  0.00000000000E+00  0.37843442970E+02  0.37843443306E+02  0.50400000000E-02 0.  1.
          2   -1    0    0  501    0  0.00000000000E+00 -0.00000000000E+00 -0.39042722980E+02  0.39042723063E+02  0.25500000000E-02 0. -1.
         24    2    1    2    0    0  0.00000000000E+00  0.00000000000E+00 -0.11992800099E+01  0.76886166369E+02  0.76876812541E+02 0.  0.
         66    2    3    3    0    0  0.36716451275E+02 -0.56846599254E+01 -0.10352795899E+02  0.38621154023E+02  0.20000006037E+01 0.  0.
        -13    1    3    3    0    0 -0.36716451275E+02  0.56846599254E+01  0.91535158894E+01  0.38265012346E+02  0.10566000000E+00 0.  1.
         13    1    4    4    0    0  0.48973014127E+01 -0.11375920269E+01 -0.14906947272E+01  0.52450940461E+01  0.10566000000E+00 0. -1.
        -13    1    4    4    0    0  0.71219486026E+00 -0.16611477076E+00 -0.40961399523E+00  0.84484513180E+00  0.10566000000E+00 0.  1.
         14    1    4    4    0    0  0.31106955002E+02 -0.43809531278E+01 -0.84524871769E+01  0.32531214845E+02  0.00000000000E+00 0. -1.
<mgrwt>
<rscale>  0 0.76876813E+02</rscale>
<asrwt>0</asrwt>
<pdfrwt beam="1">  1        2 0.60065728E-02 0.76876813E+02</pdfrwt>
<pdfrwt beam="2">  1       -1 0.58220682E-02 0.76876813E+02</pdfrwt>
<totfact> 0.15831846E+05</totfact>
</mgrwt>
</event>
<event>
 8    1  0.2561077E-024  0.8119366E+02  0.7818608E-02  0.1325698E+00
         -1   -1    0    0    0  501 -0.00000000000E+00  0.00000000000E+00  0.23036059222E+02  0.23036059773E+02  0.50400000000E-02 0.  1.
          2   -1    0    0  501    0  0.00000000000E+00 -0.00000000000E+00 -0.71544470510E+02  0.71544470556E+02  0.25500000000E-02 0. -1.
         24    2    1    2    0    0  0.00000000000E+00  0.71054273576E-14 -0.48508411289E+02  0.94580530329E+02  0.81193662016E+02 0.  0.
         66    2    3    3    0    0  0.69972620389E+01 -0.35342866548E+02 -0.45999913076E+02  0.58464278874E+02  0.20000023249E+01 0.  0.
        -13    1    3    3    0    0 -0.69972620389E+01  0.35342866548E+02 -0.25084982122E+01  0.36116251455E+02  0.10566000000E+00 0.  1.
         13    1    4    4    0    0  0.28747361699E+01 -0.11561424240E+02 -0.15372923826E+02  0.19449128245E+02  0.10566000000E+00 0. -1.
        -13    1    4    4    0    0  0.35448456636E+00 -0.15383739524E+01 -0.24986801791E+01  0.29575023919E+01  0.10566000000E+00 0. -1.
        -14    1    4    4    0    0  0.37680413027E+01 -0.22243068356E+02 -0.28128309072E+02  0.36057648237E+02  0.00000000000E+00 0.  1.
<mgrwt>
<rscale>  0 0.81193662E+02</rscale>
<asrwt>0</asrwt>
<pdfrwt beam="1">  1        2 0.11006842E-01 0.81193662E+02</pdfrwt>
<pdfrwt beam="2">  1       -1 0.35440092E-02 0.81193662E+02</pdfrwt>
<totfact> 0.15595054E+05</totfact>
</mgrwt>
</event>
<event>
 8    1  0.2561077E-024  0.8066261E+02  0.7818608E-02  0.1327181E+00
         -1   -1    0    0    0  501 -0.00000000000E+00  0.00000000000E+00  0.32620966389E+01  0.32621005324E+01  0.50400000000E-02 0.  1.
          2   -1    0    0  501    0  0.00000000000E+00 -0.00000000000E+00 -0.49864041313E+03  0.49864041314E+03  0.25500000000E-02 0. -1.
         24    2    1    2    0    0  0.00000000000E+00  0.00000000000E+00 -0.49537831649E+03  0.50190251367E+03  0.80662610779E+02 0.  0.
         66    2    3    3    0    0 -0.50920442435E+01  0.20974250667E+02 -0.45964983223E+03  0.46016064192E+03  0.19999989384E+01 0.  0.
        -13    1    3    3    0    0  0.50920442435E+01 -0.20974250667E+02 -0.35728484261E+02  0.41741871751E+02  0.10566000000E+00 0.  1.
         13    1    4    4    0    0 -0.77090244368E+00  0.19892918953E+01 -0.37790873080E+02  0.37851193178E+02  0.10566000000E+00 0. -1.
        -13    1    4    4    0    0 -0.15872213559E+01  0.68328203462E+01 -0.14100944106E+03  0.14118385296E+03  0.10566000000E+00 0.  1.
         14    1    4    4    0    0 -0.27339204439E+01  0.12152138426E+02 -0.28084951809E+03  0.28112559578E+03  0.00000000000E+00 0. -1.
<mgrwt>
<rscale>  0 0.80662611E+02</rscale>
<asrwt>0</asrwt>
<pdfrwt beam="1">  1        2 0.76713849E-01 0.80662611E+02</pdfrwt>
<pdfrwt beam="2">  1       -1 0.50186172E-03 0.80662611E+02</pdfrwt>
<totfact> 0.29777548E+05</totfact>
</mgrwt>
</event>
<event>
 8    1  0.2561077E-024  0.7316832E+02  0.7818608E-02  0.1349639E+00
          2   -1    0    0  501    0  0.00000000000E+00  0.00000000000E+00  0.40843424845E+03  0.40843424845E+03  0.25500000000E-02 0. -1.
         -1   -1    0    0    0  501 -0.00000000000E+00 -0.00000000000E+00 -0.32769044903E+01  0.32769083661E+01  0.50400000000E-02 0.  1.
         24    2    1    2    0    0 -0.35527136788E-14  0.44408920985E-15  0.40515734396E+03  0.41171115682E+03  0.73168321621E+02 0.  0.
         66    2    3    3    0    0 -0.22350057989E+02  0.30272933399E+01  0.36461501320E+03  0.36531739276E+03  0.20000000607E+01 0.  0.
        -13    1    3    3    0    0  0.22350057989E+02 -0.30272933399E+01  0.40542330752E+02  0.46393764063E+02  0.10566000000E+00 0.  1.
         13    1    4    4    0    0 -0.53908973147E+01  0.55229216073E+00  0.75079651675E+02  0.75275042745E+02  0.10566000000E+00 0. -1.
        -13    1    4    4    0    0 -0.10943795379E+02  0.14942505461E+01  0.18815538855E+03  0.18847933799E+03  0.10566000000E+00 0.  1.
         14    1    4    4    0    0 -0.60153652950E+01  0.98075063306E+00  0.10137997297E+03  0.10156301203E+03  0.00000000000E+00 0. -1.
<mgrwt>
<rscale>  0 0.73168322E+02</rscale>
<asrwt>0</asrwt>
<pdfrwt beam="1">  1        2 0.62836035E-01 0.73168322E+02</pdfrwt>
<pdfrwt beam="2">  1       -1 0.50413948E-03 0.73168322E+02</pdfrwt>
<totfact> 0.35891708E+05</totfact>
</mgrwt>
</event>
<event>
 8    1  0.2561077E-024  0.7945168E+02  0.7818608E-02  0.1330615E+00
         -1   -1    0    0    0  501 -0.00000000000E+00  0.00000000000E+00  0.29164802517E+01  0.29164846065E+01  0.50400000000E-02 0.  1.
          2   -1    0    0  501    0  0.00000000000E+00 -0.00000000000E+00 -0.54111154800E+03  0.54111154800E+03  0.25500000000E-02 0. -1.
         24    2    1    2    0    0 -0.71054273576E-14  0.00000000000E+00 -0.53819506774E+03  0.54402803261E+03  0.79451679149E+02 0.  0.
         66    2    3    3    0    0  0.36711956248E+02  0.93450327417E+01 -0.35058607549E+03  0.35263251932E+03  0.19999964130E+01 0.  0.
        -13    1    3    3    0    0 -0.36711956248E+02 -0.93450327417E+01 -0.18760899226E+03  0.19139551329E+03  0.10566000000E+00 0.  1.
         13    1    4    4    0    0  0.50017382283E+01  0.16802546274E+01 -0.49149142676E+02  0.49431670321E+02  0.10566000000E+00 0. -1.
        -13    1    4    4    0    0  0.84347177276E+01  0.16137240928E+01 -0.84108333480E+02  0.84545676965E+02  0.10566000000E+00 0.  1.
         14    1    4    4    0    0  0.23275500292E+02  0.60510540214E+01 -0.21732859933E+03  0.21865517203E+03  0.00000000000E+00 0. -1.
<mgrwt>
<rscale>  0 0.79451679E+02</rscale>
<asrwt>0</asrwt>
<pdfrwt beam="1">  1        2 0.83247851E-01 0.79451679E+02</pdfrwt>
<pdfrwt beam="2">  1       -1 0.44869004E-03 0.79451679E+02</pdfrwt>
<totfact> 0.31772892E+05</totfact>
</mgrwt>
</event>
<event>
 8    1  0.2561077E-024  0.7981036E+02  0.7818608E-02  0.1329590E+00
          2   -1    0    0  501    0  0.00000000000E+00  0.00000000000E+00  0.30896346912E+03  0.30896346913E+03  0.25500000000E-02 0. -1.
         -1   -1    0    0    0  501 -0.00000000000E+00 -0.00000000000E+00 -0.51540823356E+01  0.51540847998E+01  0.50400000000E-02 0.  1.
         24    2    1    2    0    0 -0.17763568394E-14  0.00000000000E+00  0.30380938678E+03  0.31411755393E+03  0.79810363919E+02 0.  0.
         66    2    3    3    0    0  0.13831788780E+02 -0.21405333357E+02  0.27272765067E+03  0.27392312445E+03  0.19999985060E+01 0.  0.
        -13    1    3    3    0    0 -0.13831788780E+02  0.21405333357E+02  0.31081736116E+02  0.40194429477E+02  0.10566000000E+00 0.  1.
         13    1    4    4    0    0  0.29696492595E+01 -0.41810552887E+01  0.52892776314E+02  0.53140916347E+02  0.10566000000E+00 0. -1.
        -13    1    4    4    0    0  0.20153813071E+01 -0.37728014940E+01  0.40056926305E+02  0.40284789958E+02  0.10566000000E+00 0.  1.
         14    1    4    4    0    0  0.88467582130E+01 -0.13451476575E+02  0.17977794805E+03  0.18049741815E+03  0.00000000000E+00 0. -1.
<mgrwt>
<rscale>  0 0.79810364E+02</rscale>
<asrwt>0</asrwt>
<pdfrwt beam="1">  1        2 0.47532842E-01 0.79810364E+02</pdfrwt>
<pdfrwt beam="2">  1       -1 0.79293593E-03 0.79810364E+02</pdfrwt>
<totfact> 0.25928268E+05</totfact>
</mgrwt>
</event>
<event>
 8    1  0.2561077E-024  0.8035828E+02  0.7818608E-02  0.1328038E+00
         -1   -1    0    0    0  501 -0.00000000000E+00  0.00000000000E+00  0.91797727413E+01  0.91797741249E+01  0.50400000000E-02 0.  1.
          2   -1    0    0  501    0  0.00000000000E+00 -0.00000000000E+00 -0.17586089471E+03  0.17586089473E+03  0.25500000000E-02 0. -1.
         24    2    1    2    0    0 -0.17763568394E-14  0.00000000000E+00 -0.16668112197E+03  0.18504066886E+03  0.80358277166E+02 0.  0.
         66    2    3    3    0    0 -0.15016026927E+02 -0.15387472535E+02 -0.16148374688E+03  0.16292101137E+03  0.20000153511E+01 0.  0.
        -13    1    3    3    0    0  0.15016026927E+02  0.15387472535E+02 -0.51973750899E+01  0.22119657492E+02  0.10566000000E+00 0.  1.
         13    1    4    4    0    0 -0.54080066598E+01 -0.58878490598E+01 -0.58846747841E+02  0.59387407740E+02  0.10566000000E+00 0. -1.
        -13    1    4    4    0    0 -0.79329934957E+01 -0.72641191454E+01 -0.77836003258E+02  0.78575787492E+02  0.10566000000E+00 0.  1.
        -14    1    4    4    0    0 -0.16750267713E+01 -0.22355043300E+01 -0.24800995784E+02  0.24957816134E+02  0.00000000000E+00 0.  1.
<mgrwt>
<rscale>  0 0.80358277E+02</rscale>
<asrwt>0</asrwt>
<pdfrwt beam="1">  1        2 0.27055520E-01 0.80358277E+02</pdfrwt>
<pdfrwt beam="2">  1       -1 0.14122730E-02 0.80358277E+02</pdfrwt>
<totfact> 0.20859551E+05</totfact>
</mgrwt>
</event>
<event>
 8    1  0.2561077E-024  0.7967055E+02  0.7818608E-02  0.1329989E+00
          2   -1    0    0  501    0  0.00000000000E+00  0.00000000000E+00  0.21992903081E+02  0.21992903229E+02  0.25500000000E-02 0. -1.
         -1   -1    0    0    0  501 -0.00000000000E+00 -0.00000000000E+00 -0.72152781266E+02  0.72152781442E+02  0.50400000000E-02 0.  1.
         24    2    1    2    0    0  0.00000000000E+00 -0.71054273576E-14 -0.50159878185E+02  0.94145684670E+02  0.79670550158E+02 0.  0.
         66    2    3    3    0    0  0.96953324773E+01 -0.29274252794E+02  0.46552096328E+01  0.31251437199E+02  0.20000004466E+01 0.  0.
        -13    1    3    3    0    0 -0.96953324773E+01  0.29274252794E+02 -0.54815087818E+02  0.62894247471E+02  0.10566000000E+00 0.  1.
         13    1    4    4    0    0  0.83147920820E+01 -0.24838864449E+02  0.35939557899E+01  0.26439225343E+02  0.10566000000E+00 0. -1.
        -13    1    4    4    0    0  0.33749395029E+00 -0.45482126530E+00  0.18383752375E+00  0.60475186696E+00  0.10566000000E+00 0.  1.
        -14    1    4    4    0    0  0.10430464450E+01 -0.39805670793E+01  0.87741631913E+00  0.42074599887E+01  0.00000000000E+00 0.  1.
<mgrwt>
<rscale>  0 0.79670550E+02</rscale>
<asrwt>0</asrwt>
<pdfrwt beam="1">  1        2 0.33835236E-02 0.79670550E+02</pdfrwt>
<pdfrwt beam="2">  1       -1 0.11100428E-01 0.79670550E+02</pdfrwt>
<totfact> 0.12804653E+05</totfact>
</mgrwt>
</event>
<event>
 8    1  0.2561077E-024  0.7922980E+02  0.7818608E-02  0.1331251E+00
         -1   -1    0    0    0  501 -0.00000000000E+00  0.00000000000E+00  0.38125916427E+02  0.38125916760E+02  0.50400000000E-02 0.  1.
          2   -1    0    0  501    0  0.00000000000E+00 -0.00000000000E+00 -0.41162037205E+02  0.41162037284E+02  0.25500000000E-02 0. -1.
         24    2    1    2    0    0 -0.71054273576E-14  0.00000000000E+00 -0.30361207784E+01  0.79287954044E+02  0.79229802645E+02 0.  0.
         66    2    3    3    0    0 -0.24945031803E+02  0.16571158156E+02 -0.27431611296E+02  0.40661421507E+02  0.20000015941E+01 0.  0.
        -13    1    3    3    0    0  0.24945031803E+02 -0.16571158156E+02  0.24395490517E+02  0.38626532538E+02  0.10566000000E+00 0.  1.
         13    1    4    4    0    0 -0.15458015225E+02  0.10536056351E+02 -0.17375694678E+02  0.25532031797E+02  0.10566000000E+00 0. -1.
        -13    1    4    4    0    0 -0.83604691760E+01  0.48707876269E+01 -0.84181611976E+01  0.12825701499E+02  0.10566000000E+00 0.  1.
        -14    1    4    4    0    0 -0.11265474014E+01  0.11643141787E+01 -0.16377554206E+01  0.23036882107E+01  0.00000000000E+00 0.  1.
<mgrwt>
<rscale>  0 0.79229803E+02</rscale>
<asrwt>0</asrwt>
<pdfrwt beam="1">  1        2 0.63326211E-02 0.79229803E+02</pdfrwt>
<pdfrwt beam="2">  1       -1 0.58655257E-02 0.79229803E+02</pdfrwt>
<totfact> 0.14727504E+05</totfact>
</mgrwt>
</event>
<event>
 8    1  0.2561077E-024  0.7810004E+02  0.7818608E-02  0.1334531E+00
          2   -1    0    0  501    0  0.00000000000E+00  0.00000000000E+00  0.94276476676E+02  0.94276476710E+02  0.25500000000E-02 0. -1.
         -1   -1    0    0    0  501 -0.00000000000E+00 -0.00000000000E+00 -0.16174808511E+02  0.16174809296E+02  0.50400000000E-02 0.  1.
         24    2    1    2    0    0  0.00000000000E+00  0.00000000000E+00  0.78101668165E+02  0.11045128601E+03  0.78100038479E+02 0.  0.
         66    2    3    3    0    0 -0.33184501128E+02 -0.20449190656E+02  0.41729155517E+02  0.57137579008E+02  0.20000003023E+01 0.  0.
        -13    1    3    3    0    0  0.33184501128E+02  0.20449190656E+02  0.36372512648E+02  0.53313706998E+02  0.10566000000E+00 0.  1.
         13    1    4    4    0    0 -0.10917572867E+02 -0.69614607833E+01  0.15112867270E+02  0.19901388261E+02  0.10566000000E+00 0.  1.
        -13    1    4    4    0    0 -0.16743055311E+02 -0.10403225372E+02  0.20327686990E+02  0.28315773372E+02  0.10566000000E+00 0. -1.
        -14    1    4    4    0    0 -0.55238729502E+01 -0.30845045004E+01  0.62886012571E+01  0.89204173755E+01  0.00000000000E+00 0.  1.
<mgrwt>
<rscale>  0 0.78100038E+02</rscale>
<asrwt>0</asrwt>
<pdfrwt beam="1">  1        2 0.14504073E-01 0.78100038E+02</pdfrwt>
<pdfrwt beam="2">  1       -1 0.24884322E-02 0.78100038E+02</pdfrwt>
<totfact> 0.18598956E+05</totfact>
</mgrwt>
</event>
<event>
 8    1  0.2561077E-024  0.7818037E+02  0.7818608E-02  0.1334296E+00
          2   -1    0    0  501    0  0.00000000000E+00  0.00000000000E+00  0.13780136870E+02  0.13780137106E+02  0.25500000000E-02 0. -1.
         -1   -1    0    0    0  501 -0.00000000000E+00 -0.00000000000E+00 -0.11088733296E+03  0.11088733308E+03  0.50400000000E-02 0.  1.
         24    2    1    2    0    0  0.00000000000E+00  0.00000000000E+00 -0.97107196091E+02  0.12466747018E+03  0.78180372145E+02 0.  0.
         66    2    3    3    0    0  0.15225034563E+02  0.32339824235E+02 -0.23454470069E+02  0.42799276580E+02  0.20000001384E+01 0.  0.
        -13    1    3    3    0    0 -0.15225034563E+02 -0.32339824235E+02 -0.73652726022E+02  0.81868193601E+02  0.10566000000E+00 0.  1.
         13    1    4    4    0    0  0.70262184797E+01  0.14520048610E+02 -0.10934549181E+02  0.19487818954E+02  0.10566000000E+00 0. -1.
        -13    1    4    4    0    0  0.75551712791E+01  0.16338322452E+02 -0.11013898843E+02  0.21103045405E+02  0.10566000000E+00 0.  1.
        -14    1    4    4    0    0  0.64364480395E+00  0.14814531733E+01 -0.15060220446E+01  0.22084122208E+01  0.00000000000E+00 0.  1.
<mgrwt>
<rscale>  0 0.78180372E+02</rscale>
<asrwt>0</asrwt>
<pdfrwt beam="1">  1        2 0.21200212E-02 0.78180372E+02</pdfrwt>
<pdfrwt beam="2">  1       -1 0.17059589E-01 0.78180372E+02</pdfrwt>
<totfact> 0.12275846E+05</totfact>
</mgrwt>
</event>
<event>
 8    1  0.2561077E-024  0.7913764E+02  0.7818608E-02  0.1331517E+00
          2   -1    0    0  501    0  0.00000000000E+00  0.00000000000E+00  0.38138209670E+02  0.38138209755E+02  0.25500000000E-02 0. -1.
         -1   -1    0    0    0  501 -0.00000000000E+00 -0.00000000000E+00 -0.41053091380E+02  0.41053091689E+02  0.50400000000E-02 0.  1.
         24    2    1    2    0    0  0.00000000000E+00 -0.11102230246E-15 -0.29148817101E+01  0.79191301444E+02  0.79137637626E+02 0.  0.
         66    2    3    3    0    0  0.39396601351E+02  0.98553371991E+00 -0.47198739377E+01  0.39740919498E+02  0.19999994478E+01 0.  0.
        -13    1    3    3    0    0 -0.39396601351E+02 -0.98553371991E+00  0.18049922276E+01  0.39450381946E+02  0.10566000000E+00 0.  1.
         13    1    4    4    0    0  0.20231757628E+02  0.68425742303E+00 -0.18927034536E+01  0.20331889124E+02  0.10566000000E+00 0. -1.
        -13    1    4    4    0    0  0.14942209728E+02  0.68140746031E+00 -0.23708316013E+01  0.15144832591E+02  0.10566000000E+00 0.  1.
         14    1    4    4    0    0  0.42226339952E+01 -0.38013116343E+00 -0.45633888276E+00  0.42641977832E+01  0.00000000000E+00 0. -1.
<mgrwt>
<rscale>  0 0.79137638E+02</rscale>
<asrwt>0</asrwt>
<pdfrwt beam="1">  1        2 0.58674169E-02 0.79137638E+02</pdfrwt>
<pdfrwt beam="2">  1       -1 0.63158602E-02 0.79137638E+02</pdfrwt>
<totfact> 0.14546847E+05</totfact>
</mgrwt>
</event>
<event>
 8    1  0.2561077E-024  0.8048957E+02  0.7818608E-02  0.1327668E+00
         -1   -1    0    0    0  501 -0.00000000000E+00  0.00000000000E+00  0.18493311417E+01  0.18493380094E+01  0.50400000000E-02 0.  1.
          2   -1    0    0  501    0  0.00000000000E+00 -0.00000000000E+00 -0.87579763649E+03  0.87579763649E+03  0.25500000000E-02 0. -1.
         24    2    1    2    0    0  0.00000000000E+00  0.17763568394E-14 -0.87394830535E+03  0.87764697450E+03  0.80489573444E+02 0.  0.
         66    2    3    3    0    0  0.22895740151E+02  0.12345903620E+02 -0.77172725447E+03  0.77216811094E+03  0.19999992487E+01 0.  0.
        -13    1    3    3    0    0 -0.22895740151E+02 -0.12345903620E+02 -0.10222105087E+03  0.10547886356E+03  0.10566000000E+00 0.  1.
         13    1    4    4    0    0  0.89511714222E+01  0.43336326127E+01 -0.31531995348E+03  0.31547676312E+03  0.10566000000E+00 0. -1.
        -13    1    4    4    0    0  0.11608032946E+01  0.51890025060E+00 -0.31917698271E+02  0.31943189395E+02  0.10566000000E+00 0.  1.
         14    1    4    4    0    0  0.12783765434E+02  0.74933707567E+01 -0.42448960272E+03  0.42474815842E+03  0.00000000000E+00 0. -1.
<mgrwt>
<rscale>  0 0.80489573E+02</rscale>
<asrwt>0</asrwt>
<pdfrwt beam="1">  1        2 0.13473777E+00 0.80489573E+02</pdfrwt>
<pdfrwt beam="2">  1       -1 0.28451371E-03 0.80489573E+02</pdfrwt>
<totfact> 0.34286722E+05</totfact>
</mgrwt>
</event>
<event>
 8    1  0.2561077E-024  0.8108066E+02  0.7818608E-02  0.1326012E+00
         -1   -1    0    0    0  501 -0.00000000000E+00  0.00000000000E+00  0.39895465525E+02  0.39895465843E+02  0.50400000000E-02 0.  1.
          2   -1    0    0  501    0  0.00000000000E+00 -0.00000000000E+00 -0.41195615997E+02  0.41195616076E+02  0.25500000000E-02 0. -1.
         24    2    1    2    0    0  0.00000000000E+00  0.88817841970E-15 -0.13001504725E+01  0.81091081920E+02  0.81080658456E+02 0.  0.
         66    2    3    3    0    0 -0.38720748855E+02  0.48067338100E+01  0.10264788591E+02  0.40395135422E+02  0.19999997786E+01 0.  0.
        -13    1    3    3    0    0  0.38720748855E+02 -0.48067338100E+01 -0.11564939063E+02  0.40695946498E+02  0.10566000000E+00 0.  1.
         13    1    4    4    0    0 -0.22417591885E+02  0.35610218917E+01  0.57803718762E+01  0.23423346599E+02  0.10566000000E+00 0. -1.
        -13    1    4    4    0    0 -0.60138728883E+01  0.30588728178E+00  0.13147579751E+01  0.61644129254E+01  0.10566000000E+00 0.  1.
         14    1    4    4    0    0 -0.10289284081E+02  0.93982463654E+00  0.31696587395E+01  0.10807375897E+02  0.00000000000E+00 0. -1.
<mgrwt>
<rscale>  0 0.81080658E+02</rscale>
<asrwt>0</asrwt>
<pdfrwt beam="1">  1        2 0.63377871E-02 0.81080658E+02</pdfrwt>
<pdfrwt beam="2">  1       -1 0.61377640E-02 0.81080658E+02</pdfrwt>
<totfact> 0.13819962E+05</totfact>
</mgrwt>
</event>
<event>
 8    1  0.2561077E-024  0.7951022E+02  0.7818608E-02  0.1330447E+00
          2   -1    0    0  501    0  0.00000000000E+00  0.00000000000E+00  0.11072850654E+03  0.11072850657E+03  0.25500000000E-02 0. -1.
         -1   -1    0    0    0  501 -0.00000000000E+00 -0.00000000000E+00 -0.14273368260E+02  0.14273369150E+02  0.50400000000E-02 0.  1.
         24    2    1    2    0    0  0.00000000000E+00  0.00000000000E+00  0.96455138277E+02  0.12500187572E+03  0.79510220932E+02 0.  0.
         66    2    3    3    0    0  0.19447640796E+02 -0.34473720144E+02  0.42853889984E+02  0.58370403456E+02  0.19999999189E+01 0.  0.
        -13    1    3    3    0    0 -0.19447640796E+02  0.34473720144E+02  0.53601248293E+02  0.66631472261E+02  0.10566000000E+00 0.  1.
         13    1    4    4    0    0  0.50113534577E+01 -0.85922307688E+01  0.11815029971E+02  0.15444940606E+02  0.10566000000E+00 0.  1.
        -13    1    4    4    0    0  0.13090180860E+02 -0.23245940188E+02  0.27543918845E+02  0.38345862874E+02  0.10566000000E+00 0. -1.
         14    1    4    4    0    0  0.13461064780E+01 -0.26355491873E+01  0.34949411678E+01  0.45795999755E+01  0.00000000000E+00 0. -1.
<mgrwt>
<rscale>  0 0.79510221E+02</rscale>
<asrwt>0</asrwt>
<pdfrwt beam="1">  1        2 0.17035156E-01 0.79510221E+02</pdfrwt>
<pdfrwt beam="2">  1       -1 0.21959028E-02 0.79510221E+02</pdfrwt>
<totfact> 0.18550516E+05</totfact>
</mgrwt>
</event>
<event>
 8    1  0.2561077E-024  0.8173847E+02  0.7818608E-02  0.1324189E+00
         -1   -1    0    0    0  501 -0.00000000000E+00  0.00000000000E+00  0.39193110552E+01  0.39193142957E+01  0.50400000000E-02 0.  1.
          2   -1    0    0  501    0  0.00000000000E+00 -0.00000000000E+00 -0.42617025312E+03  0.42617025313E+03  0.25500000000E-02 0. -1.
         24    2    1    2    0    0  0.00000000000E+00  0.35527136788E-14 -0.42225094207E+03  0.43008956743E+03  0.81738472776E+02 0.  0.
         66    2    3    3    0    0  0.10216604010E+02  0.30133194750E+02 -0.34600858849E+03  0.34747421736E+03  0.19999996077E+01 0.  0.
        -13    1    3    3    0    0 -0.10216604010E+02 -0.30133194750E+02 -0.76242353579E+02  0.82615350067E+02  0.10566000000E+00 0.  1.
         13    1    4    4    0    0  0.31860260287E+01  0.11390318477E+02 -0.12614410497E+03  0.12669742105E+03  0.10566000000E+00 0. -1.
        -13    1    4    4    0    0  0.48372062379E+01  0.14164244012E+02 -0.16194050820E+03  0.16263075888E+03  0.10566000000E+00 0.  1.
        -14    1    4    4    0    0  0.21933717439E+01  0.45786322605E+01 -0.57923975317E+02  0.58146037436E+02  0.00000000000E+00 0.  1.
<mgrwt>
<rscale>  0 0.81738473E+02</rscale>
<asrwt>0</asrwt>
<pdfrwt beam="1">  1        2 0.65564618E-01 0.81738473E+02</pdfrwt>
<pdfrwt beam="2">  1       -1 0.60297152E-03 0.81738473E+02</pdfrwt>
<totfact> 0.27302728E+05</totfact>
</mgrwt>
</event>
<event>
 8    1  0.2561077E-024  0.7513025E+02  0.7818608E-02  0.1343468E+00
         -1   -1    0    0    0  501 -0.00000000000E+00  0.00000000000E+00  0.16779506359E+02  0.16779507116E+02  0.50400000000E-02 0.  1.
          2   -1    0    0  501    0  0.00000000000E+00 -0.00000000000E+00 -0.84098940376E+02  0.84098940415E+02  0.25500000000E-02 0. -1.
         24    2    1    2    0    0  0.00000000000E+00  0.00000000000E+00 -0.67319434017E+02  0.10087844753E+03  0.75130253426E+02 0.  0.
         66    2    3    3    0    0 -0.20985942809E+02  0.16281835040E+02 -0.69300266841E+02  0.74243079868E+02  0.19999940553E+01 0.  0.
        -13    1    3    3    0    0  0.20985942809E+02 -0.16281835040E+02  0.19808328234E+01  0.26635367663E+02  0.10566000000E+00 0.  1.
         13    1    4    4    0    0 -0.51840911375E+01  0.44082758960E+01 -0.19907619971E+02  0.21038825876E+02  0.10566000000E+00 0. -1.
        -13    1    4    4    0    0 -0.62456406541E+01  0.48940937790E+01 -0.19178482801E+02  0.20755373947E+02  0.10566000000E+00 0.  1.
         14    1    4    4    0    0 -0.95562110171E+01  0.69794653652E+01 -0.30214164069E+02  0.32448880045E+02  0.00000000000E+00 0. -1.
<mgrwt>
<rscale>  0 0.75130253E+02</rscale>
<asrwt>0</asrwt>
<pdfrwt beam="1">  1        2 0.12938298E-01 0.75130253E+02</pdfrwt>
<pdfrwt beam="2">  1       -1 0.25814626E-02 0.75130253E+02</pdfrwt>
<totfact> 0.20014775E+05</totfact>
</mgrwt>
</event>
<event>
 8    1  0.2561077E-024  0.8056966E+02  0.7818608E-02  0.1327443E+00
         -1   -1    0    0    0  501 -0.00000000000E+00  0.00000000000E+00  0.27829716776E+02  0.27829717232E+02  0.50400000000E-02 0.  1.
          2   -1    0    0  501    0  0.00000000000E+00 -0.00000000000E+00 -0.58314192758E+02  0.58314192814E+02  0.25500000000E-02 0. -1.
         24    2    1    2    0    0 -0.35527136788E-14  0.00000000000E+00 -0.30484475982E+02  0.86143910046E+02  0.80569659066E+02 0.  0.
         66    2    3    3    0    0  0.28565780023E+02  0.27556249567E+02 -0.22464593040E+02  0.45650943188E+02  0.19999987420E+01 0.  0.
        -13    1    3    3    0    0 -0.28565780023E+02 -0.27556249567E+02 -0.80198829427E+01  0.40492966858E+02  0.10566000000E+00 0.  1.
         13    1    4    4    0    0  0.21591504754E+02  0.20948553423E+02 -0.17570674021E+02  0.34839269763E+02  0.10566000000E+00 0. -1.
        -13    1    4    4    0    0  0.41944289782E+01  0.41092434017E+01 -0.25704858149E+01  0.64107470039E+01  0.10566000000E+00 0.  1.
         14    1    4    4    0    0  0.27798462904E+01  0.24984527429E+01 -0.23234332038E+01  0.44009264206E+01  0.00000000000E+00 0. -1.
<mgrwt>
<rscale>  0 0.80569659E+02</rscale>
<asrwt>0</asrwt>
<pdfrwt beam="1">  1        2 0.89714143E-02 0.80569659E+02</pdfrwt>
<pdfrwt beam="2">  1       -1 0.42814949E-02 0.80569659E+02</pdfrwt>
<totfact> 0.15168430E+05</totfact>
</mgrwt>
</event>
<event>
 8    1  0.2561077E-024  0.8062345E+02  0.7818608E-02  0.1327291E+00
          2   -1    0    0  501    0  0.00000000000E+00  0.00000000000E+00  0.14522733572E+04  0.14522733572E+04  0.25500000000E-02 0. -1.
         -1   -1    0    0    0  501 -0.00000000000E+00 -0.00000000000E+00 -0.11189539301E+01  0.11189652807E+01  0.50400000000E-02 0.  1.
         24    2    1    2    0    0  0.00000000000E+00  0.00000000000E+00  0.14511544032E+04  0.14533923224E+04  0.80623451443E+02 0.  0.
         66    2    3    3    0    0 -0.99834197185E+01 -0.87570905441E+01  0.14116795229E+04  0.14117434012E+04  0.19999993449E+01 0.  0.
        -13    1    3    3    0    0  0.99834197185E+01  0.87570905441E+01  0.39474880304E+02  0.41648921272E+02  0.10566000000E+00 0.  1.
         13    1    4    4    0    0 -0.31025768038E+01 -0.30843579236E+01  0.47802885493E+03  0.47804888511E+03  0.10566000000E+00 0. -1.
        -13    1    4    4    0    0 -0.17502818704E+01 -0.23429586959E+01  0.31814096334E+03  0.31815442266E+03  0.10566000000E+00 0.  1.
        -14    1    4    4    0    0 -0.51305610443E+01 -0.33297739246E+01  0.61550970466E+03  0.61554009340E+03  0.00000000000E+00 0.  1.
<mgrwt>
<rscale>  0 0.80623451E+02</rscale>
<asrwt>0</asrwt>
<pdfrwt beam="1">  1        2 0.22342655E+00 0.80623451E+02</pdfrwt>
<pdfrwt beam="2">  1       -1 0.17214772E-03 0.80623451E+02</pdfrwt>
<totfact> 0.32961857E+05</totfact>
</mgrwt>
</event>
<event>
 8    1  0.2561077E-024  0.8030254E+02  0.7818608E-02  0.1328195E+00
          2   -1    0    0  501    0  0.00000000000E+00  0.00000000000E+00  0.25115075668E+03  0.25115075669E+03  0.25500000000E-02 0. -1.
         -1   -1    0    0    0  501 -0.00000000000E+00 -0.00000000000E+00 -0.64189498179E+01  0.64189517965E+01  0.50400000000E-02 0.  1.
         24    2    1    2    0    0  0.35527136788E-14  0.00000000000E+00  0.24473180686E+03  0.25756970849E+03  0.80302536955E+02 0.  0.
         66    2    3    3    0    0  0.29132143722E+02  0.19512713922E+02  0.18502398783E+03  0.18832765031E+03  0.19999997278E+01 0.  0.
        -13    1    3    3    0    0 -0.29132143722E+02 -0.19512713922E+02  0.59707819036E+02  0.69242058176E+02  0.10566000000E+00 0.  1.
         13    1    4    4    0    0  0.23485615426E+02  0.16048320674E+02  0.15046405160E+03  0.15312924187E+03  0.10566000000E+00 0. -1.
        -13    1    4    4    0    0  0.13157282195E+01  0.10331105196E+01  0.10272968092E+02  0.10408818162E+02  0.10566000000E+00 0.  1.
         14    1    4    4    0    0  0.43308000759E+01  0.24312827285E+01  0.24286968135E+02  0.24789590279E+02  0.00000000000E+00 0. -1.
<mgrwt>
<rscale>  0 0.80302537E+02</rscale>
<asrwt>0</asrwt>
<pdfrwt beam="1">  1        2 0.38638580E-01 0.80302537E+02</pdfrwt>
<pdfrwt beam="2">  1       -1 0.98753084E-03 0.80302537E+02</pdfrwt>
<totfact> 0.23671574E+05</totfact>
</mgrwt>
</event>
<event>
 8    1  0.2561077E-024  0.7909905E+02  0.7818608E-02  0.1331628E+00
         -1   -1    0    0    0  501 -0.00000000000E+00  0.00000000000E+00  0.34855751252E+01  0.34855787690E+01  0.50400000000E-02 0.  1.
          2   -1    0    0  501    0  0.00000000000E+00 -0.00000000000E+00 -0.44875349630E+03  0.44875349631E+03  0.25500000000E-02 0. -1.
         24    2    1    2    0    0  0.00000000000E+00  0.00000000000E+00 -0.44526792118E+03  0.45223907508E+03  0.79099048025E+02 0.  0.
         66    2    3    3    0    0 -0.34808536497E+02  0.18700897279E+02 -0.22789648125E+03  0.23130534784E+03  0.20000001333E+01 0.  0.
        -13    1    3    3    0    0  0.34808536497E+02 -0.18700897279E+02 -0.21737143993E+03  0.22093372724E+03  0.10566000000E+00 0.  1.
         13    1    4    4    0    0 -0.26212671660E+01  0.17422830024E+01 -0.16622282525E+02  0.16917979548E+02  0.10566000000E+00 0. -1.
        -13    1    4    4    0    0 -0.23312620208E+02  0.11674170956E+02 -0.15215810903E+03  0.15437572942E+03  0.10566000000E+00 0.  1.
        -14    1    4    4    0    0 -0.88746491228E+01  0.52844433203E+01 -0.59116089695E+02  0.60011638864E+02  0.00000000000E+00 0.  1.
<mgrwt>
<rscale>  0 0.79099048E+02</rscale>
<asrwt>0</asrwt>
<pdfrwt beam="1">  1        2 0.69038954E-01 0.79099048E+02</pdfrwt>
<pdfrwt beam="2">  1       -1 0.53624296E-03 0.79099048E+02</pdfrwt>
<totfact> 0.30272031E+05</totfact>
</mgrwt>
</event>
<event>
 8    1  0.2561077E-024  0.7680398E+02  0.7818608E-02  0.1338374E+00
          2   -1    0    0  501    0  0.00000000000E+00  0.00000000000E+00  0.71901216855E+02  0.71901216900E+02  0.25500000000E-02 0. -1.
         -1   -1    0    0    0  501 -0.00000000000E+00 -0.00000000000E+00 -0.20510259600E+02  0.20510260219E+02  0.50400000000E-02 0.  1.
         24    2    1    2    0    0  0.00000000000E+00 -0.35527136788E-14  0.51390957256E+02  0.92411477119E+02  0.76803975260E+02 0.  0.
         66    2    3    3    0    0 -0.13471488534E+02  0.24383817962E+02  0.57470729861E+02  0.63897859659E+02  0.20000241152E+01 0.  0.
        -13    1    3    3    0    0  0.13471488534E+02 -0.24383817962E+02 -0.60797726055E+01  0.28513617461E+02  0.10566000000E+00 0.  1.
         13    1    4    4    0    0 -0.75084479057E-01  0.13200736250E+00  0.21050687576E+00  0.28025132130E+00  0.10566000000E+00 0. -1.
        -13    1    4    4    0    0 -0.82058838844E+01  0.14340648534E+02  0.33282307297E+02  0.37157958418E+02  0.10566000000E+00 0. -1.
         14    1    4    4    0    0 -0.51905201705E+01  0.99111620653E+01  0.23977915688E+02  0.26459649920E+02  0.00000000000E+00 0. -1.
<mgrwt>
<rscale>  0 0.76803975E+02</rscale>
<asrwt>0</asrwt>
<pdfrwt beam="1">  1        2 0.11061726E-01 0.76803975E+02</pdfrwt>
<pdfrwt beam="2">  1       -1 0.31554246E-02 0.76803975E+02</pdfrwt>
<totfact> 0.18142560E+05</totfact>
</mgrwt>
</event>
<event>
 8    1  0.2561077E-024  0.8001132E+02  0.7818608E-02  0.1329019E+00
         -1   -1    0    0    0  501 -0.00000000000E+00  0.00000000000E+00  0.21805324118E+03  0.21805324124E+03  0.50400000000E-02 0.  1.
          2   -1    0    0  501    0  0.00000000000E+00 -0.00000000000E+00 -0.73397331849E+01  0.73397336279E+01  0.25500000000E-02 0. -1.
         24    2    1    2    0    0  0.00000000000E+00  0.71054273576E-14  0.21071350799E+03  0.22539297486E+03  0.80011315870E+02 0.  0.
         66    2    3    3    0    0 -0.22977252172E+02 -0.32601210100E+02  0.97628536281E+02  0.10548044421E+03  0.19999991122E+01 0.  0.
        -13    1    3    3    0    0  0.22977252172E+02  0.32601210100E+02  0.11308497171E+03  0.11991253066E+03  0.10566000000E+00 0.  1.
         13    1    4    4    0    0 -0.99266427552E+01 -0.13376449346E+02  0.39648362044E+02  0.43005481165E+02  0.10566000000E+00 0. -1.
        -13    1    4    4    0    0 -0.12118679004E+02 -0.17903202213E+02  0.54712721816E+02  0.58829245472E+02  0.10566000000E+00 0.  1.
        -14    1    4    4    0    0 -0.93193041330E+00 -0.13215585408E+01  0.32674524212E+01  0.36457175696E+01  0.00000000000E+00 0.  1.
<mgrwt>
<rscale>  0 0.80011316E+02</rscale>
<asrwt>0</asrwt>
<pdfrwt beam="1">  1        2 0.11291900E-02 0.80011316E+02</pdfrwt>
<pdfrwt beam="2">  1       -1 0.33546644E-01 0.80011316E+02</pdfrwt>
<totfact> 0.96925001E+04</totfact>
</mgrwt>
</event>
<event>
 8    1  0.2561077E-024  0.7786976E+02  0.7818608E-02  0.1335208E+00
         -1   -1    0    0    0  501 -0.00000000000E+00  0.00000000000E+00  0.16471905116E+03  0.16471905124E+03  0.50400000000E-02 0.  1.
          2   -1    0    0  501    0  0.00000000000E+00 -0.00000000000E+00 -0.92030936542E+01  0.92030940074E+01  0.25500000000E-02 0. -1.
         24    2    1    2    0    0 -0.71054273576E-14 -0.88817841970E-15  0.15551595751E+03  0.17392214525E+03  0.77869760289E+02 0.  0.
         66    2    3    3    0    0 -0.38553851653E+02 -0.23990148001E+01  0.88229125320E+02  0.96335524627E+02  0.20000002728E+01 0.  0.
        -13    1    3    3    0    0  0.38553851653E+02  0.23990148001E+01  0.67286832186E+02  0.77586620618E+02  0.10566000000E+00 0.  1.
         13    1    4    4    0    0 -0.58602979141E+01 -0.19334485739E+00  0.13544639062E+02  0.14759704782E+02  0.10566000000E+00 0. -1.
        -13    1    4    4    0    0 -0.26853355484E+02 -0.20343582446E+01  0.59726927613E+02  0.65517618702E+02  0.10566000000E+00 0.  1.
         14    1    4    4    0    0 -0.58401982544E+01 -0.17131169810E+00  0.14957558645E+02  0.16058201143E+02  0.00000000000E+00 0. -1.
<mgrwt>
<rscale>  0 0.77869760E+02</rscale>
<asrwt>0</asrwt>
<pdfrwt beam="1">  1        2 0.14158606E-02 0.77869760E+02</pdfrwt>
<pdfrwt beam="2">  1       -1 0.25341392E-01 0.77869760E+02</pdfrwt>
<totfact> 0.11271251E+05</totfact>
</mgrwt>
</event>
<event>
 8    1  0.2561077E-024  0.8211492E+02  0.7818608E-02  0.1323155E+00
         -1   -1    0    0    0  501 -0.00000000000E+00  0.00000000000E+00  0.29685354279E+01  0.29685397064E+01  0.50400000000E-02 0.  1.
          2   -1    0    0  501    0  0.00000000000E+00 -0.00000000000E+00 -0.56786047463E+03  0.56786047464E+03  0.25500000000E-02 0. -1.
         24    2    1    2    0    0  0.00000000000E+00  0.00000000000E+00 -0.56489193920E+03  0.57082901434E+03  0.82114923365E+02 0.  0.
         66    2    3    3    0    0  0.24464139589E+02 -0.19829435393E+01 -0.51120126690E+03  0.51179406158E+03  0.20000003561E+01 0.  0.
        -13    1    3    3    0    0 -0.24464139589E+02  0.19829435393E+01 -0.53690672307E+02  0.59034952763E+02  0.10566000000E+00 0.  1.
         13    1    4    4    0    0  0.31080156133E+01 -0.22021606430E+00 -0.66195653452E+02  0.66269027125E+02  0.10566000000E+00 0. -1.
        -13    1    4    4    0    0  0.10715363709E+02  0.22107058991E-01 -0.21878444418E+03  0.21904671576E+03  0.10566000000E+00 0.  1.
        -14    1    4    4    0    0  0.10640760267E+02 -0.17848345339E+01 -0.22622116927E+03  0.22647831869E+03  0.00000000000E+00 0.  1.
<mgrwt>
<rscale>  0 0.82114923E+02</rscale>
<asrwt>0</asrwt>
<pdfrwt beam="1">  1        2 0.87363064E-01 0.82114923E+02</pdfrwt>
<pdfrwt beam="2">  1       -1 0.45669854E-03 0.82114923E+02</pdfrwt>
<totfact> 0.29579832E+05</totfact>
</mgrwt>
</event>
<event>
 8    1  0.2561077E-024  0.8684756E+02  0.7818608E-02  0.1310670E+00
          2   -1    0    0  501    0  0.00000000000E+00  0.00000000000E+00  0.76546907887E+03  0.76546907887E+03  0.25500000000E-02 0. -1.
         -1   -1    0    0    0  501 -0.00000000000E+00 -0.00000000000E+00 -0.24633557695E+01  0.24633609254E+01  0.50400000000E-02 0.  1.
         24    2    1    2    0    0  0.00000000000E+00 -0.35527136788E-14  0.76300572310E+03  0.76793243979E+03  0.86847559623E+02 0.  0.
         66    2    3    3    0    0 -0.31740027618E+02  0.16059511662E+02  0.60157099158E+03  0.60262508674E+03  0.19999997136E+01 0.  0.
        -13    1    3    3    0    0  0.31740027618E+02 -0.16059511662E+02  0.16143473152E+03  0.16530735305E+03  0.10566000000E+00 0.  1.
         13    1    4    4    0    0 -0.22791147363E+02  0.11638730779E+02  0.42672306119E+03  0.42748974090E+03  0.10566000000E+00 0. -1.
        -13    1    4    4    0    0 -0.11417737340E+01  0.55223691430E+00  0.17372022604E+02  0.17418580489E+02  0.10566000000E+00 0.  1.
        -14    1    4    4    0    0 -0.78071065205E+01  0.38685439684E+01  0.15747590778E+03  0.15771676536E+03  0.00000000000E+00 0.  1.
<mgrwt>
<rscale>  0 0.86847560E+02</rscale>
<asrwt>0</asrwt>
<pdfrwt beam="1">  1        2 0.11776451E+00 0.86847560E+02</pdfrwt>
<pdfrwt beam="2">  1       -1 0.37897808E-03 0.86847560E+02</pdfrwt>
<totfact> 0.27515070E+05</totfact>
</mgrwt>
</event>
<event>
 8    1  0.2561077E-024  0.8008408E+02  0.7818608E-02  0.1328813E+00
         -1   -1    0    0    0  501 -0.00000000000E+00  0.00000000000E+00  0.34375123356E+02  0.34375123726E+02  0.50400000000E-02 0.  1.
          2   -1    0    0  501    0  0.00000000000E+00 -0.00000000000E+00 -0.46643175206E+02  0.46643175276E+02  0.25500000000E-02 0. -1.
         24    2    1    2    0    0  0.00000000000E+00  0.00000000000E+00 -0.12268051849E+02  0.81018299002E+02  0.80084078798E+02 0.  0.
         66    2    3    3    0    0  0.34308139861E+02  0.10343782682E+02  0.11883373123E+02  0.37805513935E+02  0.20000065540E+01 0.  0.
        -13    1    3    3    0    0 -0.34308139861E+02 -0.10343782682E+02 -0.24151424973E+02  0.43212785066E+02  0.10566000000E+00 0.  1.
         13    1    4    4    0    0  0.80516305331E+00  0.38085139226E+00  0.45882298511E+00  0.10074809639E+01  0.10566000000E+00 0. -1.
        -13    1    4    4    0    0  0.61933285865E+01  0.18751133888E+01  0.26688026570E+01  0.70005029005E+01  0.10566000000E+00 0.  1.
         14    1    4    4    0    0  0.27309648221E+02  0.80878179011E+01  0.87557474812E+01  0.29797530071E+02  0.00000000000E+00 0. -1.
<mgrwt>
<rscale>  0 0.80084079E+02</rscale>
<asrwt>0</asrwt>
<pdfrwt beam="1">  1        2 0.71758731E-02 0.80084079E+02</pdfrwt>
<pdfrwt beam="2">  1       -1 0.52884806E-02 0.80084079E+02</pdfrwt>
<totfact> 0.14678483E+05</totfact>
</mgrwt>
</event>
<event>
 8    1  0.2561077E-024  0.8044342E+02  0.7818608E-02  0.1327798E+00
          2   -1    0    0  501    0  0.00000000000E+00  0.00000000000E+00  0.10595491680E+04  0.10595491680E+04  0.25500000000E-02 0. -1.
         -1   -1    0    0    0  501 -0.00000000000E+00 -0.00000000000E+00 -0.15268584378E+01  0.15268667561E+01  0.50400000000E-02 0.  1.
         24    2    1    2    0    0  0.00000000000E+00  0.00000000000E+00  0.10580223096E+04  0.10610760348E+04  0.80443421167E+02 0.  0.
         66    2    3    3    0    0  0.17406185972E+02  0.72022488407E+01  0.99772122362E+03  0.99790104107E+03  0.20000000952E+01 0.  0.
        -13    1    3    3    0    0 -0.17406185972E+02 -0.72022488407E+01  0.60301085969E+02  0.63174993720E+02  0.10566000000E+00 0.  1.
         13    1    4    4    0    0  0.85509938564E+01  0.44744345256E+01  0.52766538061E+03  0.52775364056E+03  0.10566000000E+00 0. -1.
        -13    1    4    4    0    0  0.32536449075E+01  0.96025794431E+00  0.18291800131E+03  0.18294948666E+03  0.10566000000E+00 0. -1.
        -14    1    4    4    0    0  0.56015472077E+01  0.17675563708E+01  0.28713784170E+03  0.28719791385E+03  0.00000000000E+00 0.  1.
<mgrwt>
<rscale>  0 0.80443421E+02</rscale>
<asrwt>0</asrwt>
<pdfrwt beam="1">  1        2 0.16300836E+00 0.80443421E+02</pdfrwt>
<pdfrwt beam="2">  1       -1 0.23490079E-03 0.80443421E+02</pdfrwt>
<totfact> 0.34770681E+05</totfact>
</mgrwt>
</event>
<event>
 8    1  0.2561077E-024  0.7913380E+02  0.7818608E-02  0.1331528E+00
         -1   -1    0    0    0  501 -0.00000000000E+00  0.00000000000E+00  0.21435946927E+02  0.21435947519E+02  0.50400000000E-02 0.  1.
          2   -1    0    0  501    0  0.00000000000E+00 -0.00000000000E+00 -0.73033366960E+02  0.73033367005E+02  0.25500000000E-02 0. -1.
         24    2    1    2    0    0  0.00000000000E+00  0.00000000000E+00 -0.51597420034E+02  0.94469314524E+02  0.79133795767E+02 0.  0.
         66    2    3    3    0    0 -0.84831678118E+01  0.25899436878E+02 -0.60016604359E+02  0.65944960097E+02  0.19999991686E+01 0.  0.
        -13    1    3    3    0    0  0.84831678118E+01 -0.25899436878E+02  0.84191843254E+01  0.28524354427E+02  0.10566000000E+00 0.  1.
         13    1    4    4    0    0 -0.47848412730E+01  0.14778824350E+02 -0.36351449651E+02  0.39531600156E+02  0.10566000000E+00 0. -1.
        -13    1    4    4    0    0 -0.24037596874E+01  0.79679146888E+01 -0.16791393388E+02  0.18741072037E+02  0.10566000000E+00 0. -1.
         14    1    4    4    0    0 -0.12945668513E+01  0.31526978392E+01 -0.68737613201E+01  0.76722879041E+01  0.00000000000E+00 0. -1.
<mgrwt>
<rscale>  0 0.79133796E+02</rscale>
<asrwt>0</asrwt>
<pdfrwt beam="1">  1        2 0.11235902E-01 0.79133796E+02</pdfrwt>
<pdfrwt beam="2">  1       -1 0.32978381E-02 0.79133796E+02</pdfrwt>
<totfact> 0.16802963E+05</totfact>
</mgrwt>
</event>
<event>
 8    1  0.2561077E-024  0.7799260E+02  0.7818608E-02  0.1334847E+00
          2   -1    0    0  501    0  0.00000000000E+00  0.00000000000E+00  0.17452354617E+02  0.17452354803E+02  0.25500000000E-02 0. -1.
         -1   -1    0    0    0  501 -0.00000000000E+00 -0.00000000000E+00 -0.87135034332E+02  0.87135034478E+02  0.50400000000E-02 0.  1.
         24    2    1    2    0    0  0.00000000000E+00  0.35527136788E-14 -0.69682679716E+02  0.10458738928E+03  0.77992603138E+02 0.  0.
         66    2    3    3    0    0 -0.52768439902E+01 -0.28484349998E+02  0.91810578821E-01  0.29038107768E+02  0.19999990648E+01 0.  0.
        -13    1    3    3    0    0  0.52768439902E+01  0.28484349998E+02 -0.69774490294E+02  0.75549281513E+02  0.10566000000E+00 0.  1.
         13    1    4    4    0    0 -0.90774141236E+00 -0.27540996650E+01  0.21503084425E+00  0.29097184977E+01  0.10566000000E+00 0. -1.
        -13    1    4    4    0    0 -0.22041416807E+01 -0.16411010862E+02  0.77161882510E-01  0.16558883901E+02  0.10566000000E+00 0.  1.
        -14    1    4    4    0    0 -0.21649608972E+01 -0.93192394707E+01 -0.20038214794E+00  0.95695053688E+01  0.00000000000E+00 0.  1.
<mgrwt>
<rscale>  0 0.77992603E+02</rscale>
<asrwt>0</asrwt>
<pdfrwt beam="1">  1        2 0.26849777E-02 0.77992603E+02</pdfrwt>
<pdfrwt beam="2">  1       -1 0.13405390E-01 0.77992603E+02</pdfrwt>
<totfact> 0.12993987E+05</totfact>
</mgrwt>
</event>
<event>
 8    1  0.2561077E-024  0.8001834E+02  0.7818608E-02  0.1328999E+00
          2   -1    0    0  501    0  0.00000000000E+00  0.00000000000E+00  0.26459851651E+03  0.26459851652E+03  0.25500000000E-02 0. -1.
         -1   -1    0    0    0  501 -0.00000000000E+00 -0.00000000000E+00 -0.60496682155E+01  0.60496703149E+01  0.50400000000E-02 0.  1.
         24    2    1    2    0    0  0.00000000000E+00 -0.22204460493E-15  0.25854884829E+03  0.27064818684E+03  0.80018335923E+02 0.  0.
         66    2    3    3    0    0 -0.38710896819E+02 -0.19179864734E+01  0.16258386616E+03  0.16715180446E+03  0.19999986720E+01 0.  0.
        -13    1    3    3    0    0  0.38710896819E+02  0.19179864734E+01  0.95964982132E+02  0.10349638237E+03  0.10566000000E+00 0.  1.
         13    1    4    4    0    0 -0.70842305659E+01 -0.89021753685E+00  0.31957364732E+02  0.32745429217E+02  0.10566000000E+00 0. -1.
        -13    1    4    4    0    0 -0.13138113335E+02 -0.35799872171E+00  0.55652103552E+02  0.57183091722E+02  0.10566000000E+00 0.  1.
         14    1    4    4    0    0 -0.18488552918E+02 -0.66977021479E+00  0.74974397878E+02  0.77223283525E+02  0.00000000000E+00 0. -1.
<mgrwt>
<rscale>  0 0.80018336E+02</rscale>
<asrwt>0</asrwt>
<pdfrwt beam="1">  1        2 0.40707464E-01 0.80018336E+02</pdfrwt>
<pdfrwt beam="2">  1       -1 0.93071835E-03 0.80018336E+02</pdfrwt>
<totfact> 0.24346457E+05</totfact>
</mgrwt>
</event>
<event>
 8    1  0.2561077E-024  0.7482616E+02  0.7818608E-02  0.1344410E+00
          2   -1    0    0  501    0  0.00000000000E+00  0.00000000000E+00  0.98291326732E+03  0.98291326732E+03  0.25500000000E-02 0. -1.
         -1   -1    0    0    0  501 -0.00000000000E+00 -0.00000000000E+00 -0.14240668715E+01  0.14240757902E+01  0.50400000000E-02 0.  1.
         24    2    1    2    0    0  0.17763568394E-14 -0.17763568394E-14  0.98148920045E+03  0.98433734311E+03  0.74826161539E+02 0.  0.
         66    2    3    3    0    0  0.95387639157E+01 -0.12194133778E+02  0.93876003147E+03  0.93888981335E+03  0.20000046831E+01 0.  0.
        -13    1    3    3    0    0 -0.95387639157E+01  0.12194133778E+02  0.42729168982E+02  0.45447529763E+02  0.10566000000E+00 0.  1.
         13    1    4    4    0    0  0.13605568062E+01 -0.10648427982E+01  0.10648082065E+03  0.10649488878E+03  0.10566000000E+00 0. -1.
        -13    1    4    4    0    0  0.70227369684E+00 -0.71380060632E+00  0.44466059382E+02  0.44477458343E+02  0.10566000000E+00 0.  1.
         14    1    4    4    0    0  0.74759334126E+01 -0.10415490373E+02  0.78781315143E+03  0.78791746623E+03  0.00000000000E+00 0. -1.
<mgrwt>
<rscale>  0 0.74826162E+02</rscale>
<asrwt>0</asrwt>
<pdfrwt beam="1">  1        2 0.15121758E+00 0.74826162E+02</pdfrwt>
<pdfrwt beam="2">  1       -1 0.21908767E-03 0.74826162E+02</pdfrwt>
<totfact> 0.41849995E+05</totfact>
</mgrwt>
</event>
<event>
 8    1  0.2561077E-024  0.8028418E+02  0.7818608E-02  0.1328247E+00
         -1   -1    0    0    0  501 -0.00000000000E+00  0.00000000000E+00  0.30947678066E+02  0.30947678476E+02  0.50400000000E-02 0.  1.
          2   -1    0    0  501    0  0.00000000000E+00 -0.00000000000E+00 -0.52068115526E+02  0.52068115589E+02  0.25500000000E-02 0. -1.
         24    2    1    2    0    0  0.00000000000E+00 -0.35527136788E-14 -0.21120437460E+02  0.83015794065E+02  0.80284177680E+02 0.  0.
         66    2    3    3    0    0  0.15441457418E+02 -0.29013375053E+02 -0.34353085141E+02  0.47585176404E+02  0.20000038737E+01 0.  0.
        -13    1    3    3    0    0 -0.15441457418E+02  0.29013375053E+02  0.13232647681E+02  0.35430617661E+02  0.10566000000E+00 0.  1.
         13    1    4    4    0    0  0.52795507417E+01 -0.10864704229E+02 -0.12859929880E+02  0.17643820861E+02  0.10566000000E+00 0. -1.
        -13    1    4    4    0    0  0.31655350469E+01 -0.44895765376E+01 -0.53995182071E+01  0.77034323859E+01  0.10566000000E+00 0.  1.
        -14    1    4    4    0    0  0.69963716294E+01 -0.13659094286E+02 -0.16093637054E+02  0.22237923157E+02  0.00000000000E+00 0.  1.
<mgrwt>
<rscale>  0 0.80284178E+02</rscale>
<asrwt>0</asrwt>
<pdfrwt beam="1">  1        2 0.80104793E-02 0.80284178E+02</pdfrwt>
<pdfrwt beam="2">  1       -1 0.47611813E-02 0.80284178E+02</pdfrwt>
<totfact> 0.14930691E+05</totfact>
</mgrwt>
</event>
<event>
 8    1  0.2561077E-024  0.8083775E+02  0.7818608E-02  0.1326691E+00
         -1   -1    0    0    0  501 -0.00000000000E+00  0.00000000000E+00  0.10918144515E+01  0.10918260842E+01  0.50400000000E-02 0.  1.
          2   -1    0    0  501    0  0.00000000000E+00 -0.00000000000E+00 -0.14962950467E+04  0.14962950467E+04  0.25500000000E-02 0. -1.
         24    2    1    2    0    0  0.00000000000E+00  0.00000000000E+00 -0.14952032322E+04  0.14973868728E+04  0.80837745308E+02 0.  0.
         66    2    3    3    0    0 -0.51490660672E+01  0.95209640315E+01 -0.14689282727E+04  0.14689695137E+04  0.20000051735E+01 0.  0.
        -13    1    3    3    0    0  0.51490660672E+01 -0.95209640315E+01 -0.26274959491E+02  0.28417359091E+02  0.10566000000E+00 0.  1.
         13    1    4    4    0    0 -0.13481743770E+01  0.22456054400E+01 -0.33727149103E+03  0.33728167775E+03  0.10566000000E+00 0. -1.
        -13    1    4    4    0    0 -0.38423746352E+01  0.64394957244E+01 -0.97651168299E+03  0.97654048003E+03  0.10566000000E+00 0.  1.
        -14    1    4    4    0    0  0.41482945010E-01  0.83586286703E+00 -0.15514509870E+03  0.15514735589E+03  0.00000000000E+00 0.  1.
<mgrwt>
<rscale>  0 0.80837745E+02</rscale>
<asrwt>0</asrwt>
<pdfrwt beam="1">  1        2 0.23019760E+00 0.80837745E+02</pdfrwt>
<pdfrwt beam="2">  1       -1 0.16797355E-03 0.80837745E+02</pdfrwt>
<totfact> 0.32392917E+05</totfact>
</mgrwt>
</event>
<event>
 8    1  0.2561077E-024  0.8099745E+02  0.7818608E-02  0.1326244E+00
         -1   -1    0    0    0  501 -0.00000000000E+00  0.00000000000E+00  0.49377338558E+01  0.49377364280E+01  0.50400000000E-02 0.  1.
          2   -1    0    0  501    0  0.00000000000E+00 -0.00000000000E+00 -0.33216582306E+03  0.33216582307E+03  0.25500000000E-02 0. -1.
         24    2    1    2    0    0  0.00000000000E+00  0.00000000000E+00 -0.32722808921E+03  0.33710355950E+03  0.80997453428E+02 0.  0.
         66    2    3    3    0    0 -0.13770471021E+01 -0.40445277052E+02 -0.16642736978E+03  0.17128860473E+03  0.20000006410E+01 0.  0.
        -13    1    3    3    0    0  0.13770471021E+01  0.40445277052E+02 -0.16080071942E+03  0.16581495477E+03  0.10566000000E+00 0.  1.
         13    1    4    4    0    0 -0.27037457280E+00 -0.15090042910E+02 -0.65660258745E+02  0.67372570382E+02  0.10566000000E+00 0. -1.
        -13    1    4    4    0    0 -0.39451625068E+00 -0.83866446267E+01 -0.32157602090E+02  0.33235733592E+02  0.10566000000E+00 0.  1.
         14    1    4    4    0    0 -0.71215627858E+00 -0.16968589515E+02 -0.68609508946E+02  0.70680300753E+02  0.00000000000E+00 0. -1.
<mgrwt>
<rscale>  0 0.80997453E+02</rscale>
<asrwt>0</asrwt>
<pdfrwt beam="1">  1        2 0.51102417E-01 0.80997453E+02</pdfrwt>
<pdfrwt beam="2">  1       -1 0.75965183E-03 0.80997453E+02</pdfrwt>
<totfact> 0.25604437E+05</totfact>
</mgrwt>
</event>
<event>
 8    1  0.2561077E-024  0.8279818E+02  0.7818608E-02  0.1321293E+00
          2   -1    0    0  501    0  0.00000000000E+00  0.00000000000E+00  0.14416204602E+04  0.14416204602E+04  0.25500000000E-02 0. -1.
         -1   -1    0    0    0  501 -0.00000000000E+00 -0.00000000000E+00 -0.11888544230E+01  0.11888651062E+01  0.50400000000E-02 0.  1.
         24    2    1    2    0    0  0.00000000000E+00  0.17763568394E-14  0.14404316058E+04  0.14428093253E+04  0.82798177973E+02 0.  0.
         66    2    3    3    0    0 -0.34095318852E+01  0.13629013763E+02  0.13987812614E+04  0.13988532418E+04  0.20000041206E+01 0.  0.
        -13    1    3    3    0    0  0.34095318852E+01 -0.13629013763E+02  0.41650344376E+02  0.43956083476E+02  0.10566000000E+00 0.  1.
         13    1    4    4    0    0 -0.16664603836E+01  0.77829671955E+01  0.73159777414E+03  0.73164107728E+03  0.10566000000E+00 0. -1.
        -13    1    4    4    0    0 -0.23126155900E+00  0.16784028579E+01  0.14752784891E+03  0.14753761516E+03  0.10566000000E+00 0.  1.
         14    1    4    4    0    0 -0.15118099426E+01  0.41676437092E+01  0.51965563836E+03  0.51967454941E+03  0.00000000000E+00 0. -1.
<mgrwt>
<rscale>  0 0.82798178E+02</rscale>
<asrwt>0</asrwt>
<pdfrwt beam="1">  1        2 0.22178883E+00 0.82798178E+02</pdfrwt>
<pdfrwt beam="2">  1       -1 0.18290062E-03 0.82798178E+02</pdfrwt>
<totfact> 0.30828315E+05</totfact>
</mgrwt>
</event>
<event>
 8    1  0.2561077E-024  0.8035841E+02  0.7818608E-02  0.1328037E+00
         -1   -1    0    0    0  501 -0.00000000000E+00  0.00000000000E+00  0.19174010051E+01  0.19174076290E+01  0.50400000000E-02 0.  1.
          2   -1    0    0  501    0  0.00000000000E+00 -0.00000000000E+00 -0.84195513755E+03  0.84195513755E+03  0.25500000000E-02 0. -1.
         24    2    1    2    0    0  0.35527136788E-14  0.00000000000E+00 -0.84003773654E+03  0.84387254518E+03  0.80358407736E+02 0.  0.
         66    2    3    3    0    0 -0.17002351472E+02 -0.24654669140E+02 -0.70116383582E+03  0.70180599693E+03  0.19999996387E+01 0.  0.
        -13    1    3    3    0    0  0.17002351472E+02  0.24654669140E+02 -0.13887390072E+03  0.14206654825E+03  0.10566000000E+00 0.  1.
         13    1    4    4    0    0 -0.18912137968E+01 -0.34613061359E+01 -0.84306771984E+02  0.84399053882E+02  0.10566000000E+00 0. -1.
        -13    1    4    4    0    0 -0.30196400417E+01 -0.48305380281E+01 -0.14156840722E+03  0.14168301737E+03  0.10566000000E+00 0.  1.
         14    1    4    4    0    0 -0.12091497633E+02 -0.16362824976E+02 -0.47528865662E+03  0.47572392568E+03  0.00000000000E+00 0. -1.
<mgrwt>
<rscale>  0 0.80358408E+02</rscale>
<asrwt>0</asrwt>
<pdfrwt beam="1">  1        2 0.12953127E+00 0.80358408E+02</pdfrwt>
<pdfrwt beam="2">  1       -1 0.29498595E-03 0.80358408E+02</pdfrwt>
<totfact> 0.34247649E+05</totfact>
</mgrwt>
</event>
<event>
 8    1  0.2561077E-024  0.7720065E+02  0.7818608E-02  0.1337189E+00
          2   -1    0    0  501    0  0.00000000000E+00  0.00000000000E+00  0.32716511028E+02  0.32716511128E+02  0.25500000000E-02 0. -1.
         -1   -1    0    0    0  501 -0.00000000000E+00 -0.00000000000E+00 -0.45542292546E+02  0.45542292825E+02  0.50400000000E-02 0.  1.
         24    2    1    2    0    0  0.11102230246E-15  0.35527136788E-14 -0.12825781517E+02  0.78258803952E+02  0.77200645881E+02 0.  0.
         66    2    3    3    0    0 -0.51656750097E+00  0.17242823462E+02  0.28557872218E+02  0.33423552604E+02  0.20000000220E+01 0.  0.
        -13    1    3    3    0    0  0.51656750097E+00 -0.17242823462E+02 -0.41383653736E+02  0.44835251349E+02  0.10566000000E+00 0.  1.
         13    1    4    4    0    0 -0.24797021463E+00  0.66734571001E+01  0.10764014755E+02  0.12667742363E+02  0.10566000000E+00 0. -1.
        -13    1    4    4    0    0  0.60956570287E+00  0.29057955320E+01  0.50735710746E+01  0.58794137041E+01  0.10566000000E+00 0.  1.
        -14    1    4    4    0    0 -0.87816298921E+00  0.76635708301E+01  0.12720286389E+02  0.14876396536E+02  0.00000000000E+00 0.  1.
<mgrwt>
<rscale>  0 0.77200646E+02</rscale>
<asrwt>0</asrwt>
<pdfrwt beam="1">  1        2 0.50333094E-02 0.77200646E+02</pdfrwt>
<pdfrwt beam="2">  1       -1 0.70065066E-02 0.77200646E+02</pdfrwt>
<totfact> 0.15114368E+05</totfact>
</mgrwt>
</event>
<event>
 8    1  0.2561077E-024  0.7672257E+02  0.7818608E-02  0.1338618E+00
         -1   -1    0    0    0  501 -0.00000000000E+00  0.00000000000E+00  0.91707396942E+01  0.91707410791E+01  0.50400000000E-02 0.  1.
          2   -1    0    0  501    0  0.00000000000E+00 -0.00000000000E+00 -0.16046559883E+03  0.16046559885E+03  0.25500000000E-02 0. -1.
         24    2    1    2    0    0  0.00000000000E+00  0.00000000000E+00 -0.15129485914E+03  0.16963633993E+03  0.76722574408E+02 0.  0.
         66    2    3    3    0    0 -0.29496146706E+02 -0.43431338070E+01 -0.12897950888E+03  0.13239561622E+03  0.20000000355E+01 0.  0.
        -13    1    3    3    0    0  0.29496146706E+02  0.43431338070E+01 -0.22315350257E+02  0.37240723716E+02  0.10566000000E+00 0.  1.
         13    1    4    4    0    0 -0.12810688320E+02 -0.10773790850E+01 -0.55920896135E+02  0.57379720019E+02  0.10566000000E+00 0. -1.
        -13    1    4    4    0    0 -0.93437169206E+01 -0.19982664699E+01 -0.42765825990E+02  0.43820373702E+02  0.10566000000E+00 0.  1.
        -14    1    4    4    0    0 -0.73417414649E+01 -0.12674882522E+01 -0.30292786757E+02  0.31195522494E+02  0.00000000000E+00 0.  1.
<mgrwt>
<rscale>  0 0.76722574E+02</rscale>
<asrwt>0</asrwt>
<pdfrwt beam="1">  1        2 0.24687013E-01 0.76722574E+02</pdfrwt>
<pdfrwt beam="2">  1       -1 0.14108833E-02 0.76722574E+02</pdfrwt>
<totfact> 0.22868761E+05</totfact>
</mgrwt>
</event>
