<event>
 8    1  0.2433467E-020  0.7961428E+02  0.7818608E-02  0.1330150E+00
          2   -1    0    0  501    0  0.00000000000E+00  0.00000000000E+00  0.15950981207E+02  0.15950981411E+02  0.25500000000E-02 0. -1.
         -1   -1    0    0    0  501 -0.00000000000E+00 -0.00000000000E+00 -0.99342373033E+02  0.99342373160E+02  0.50400000000E-02 0.  1.
         24    2    1    2    0    0  0.00000000000E+00  0.35527136788E-14 -0.83391391825E+02  0.11529335457E+03  0.79614278731E+02 0.  0.
         66    2    3    3    0    0 -0.29335453683E+01  0.31024030739E+02 -0.59111286523E+01  0.31781088903E+02  0.19999995507E+01 0.  0.
        -13    1    3    3    0    0  0.29335453683E+01 -0.31024030739E+02 -0.77480263173E+02  0.83512265669E+02  0.10566000000E+00 0.  1.
         13    1    4    4    0    0 -0.88001251184E+00  0.11637604683E+02 -0.17138155026E+01  0.11796465250E+02  0.10566000000E+00 0. -1.
        -13    1    4    4    0    0 -0.12873735790E+00  0.62039909340E+00 -0.35105016437E+00  0.73203046106E+00  0.10566000000E+00 0. -1.
         14    1    4    4    0    0 -0.19247954985E+01  0.18766026962E+02 -0.38462629853E+01  0.19252593192E+02  0.00000000000E+00 0. -1.
<mgrwt>
<rscale>  0 0.79614279E+02</rscale>
<asrwt>0</asrwt>
<pdfrwt beam="1">  1        2 0.24539972E-02 0.79614279E+02</pdfrwt>
<pdfrwt beam="2">  1       -1 0.15283442E-01 0.79614279E+02</pdfrwt>
<totfact> 0.12013575E+05</totfact>
</mgrwt>
</event>
<event>
 8    1  0.2433467E-020  0.7835637E+02  0.7818608E-02  0.1333782E+00
         -1   -1    0    0    0  501 -0.00000000000E+00  0.00000000000E+00  0.84795979636E+01  0.84795994614E+01  0.50400000000E-02 0.  1.
          2   -1    0    0  501    0  0.00000000000E+00 -0.00000000000E+00 -0.18101449307E+03  0.18101449309E+03  0.25500000000E-02 0. -1.
         24    2    1    2    0    0 -0.35527136788E-14  0.17763568394E-14 -0.17253489510E+03  0.18949409255E+03  0.78356372310E+02 0.  0.
         66    2    3    3    0    0 -0.23361487093E+02  0.14580824674E+02 -0.15362898743E+03  0.15609043951E+03  0.19999998491E+01 0.  0.
        -13    1    3    3    0    0  0.23361487093E+02 -0.14580824674E+02 -0.18905907673E+02  0.33403653039E+02  0.10566000000E+00 0.  1.
         13    1    4    4    0    0 -0.14472698796E+02  0.80972431027E+01 -0.91685627421E+02  0.93173439327E+02  0.10566000000E+00 0. -1.
        -13    1    4    4    0    0 -0.86543074828E+00  0.80086577526E+00 -0.75326143126E+01  0.76250769693E+01  0.10566000000E+00 0.  1.
        -14    1    4    4    0    0 -0.80233575486E+01  0.56827157958E+01 -0.54410745696E+02  0.55291923211E+02  0.00000000000E+00 0.  1.
<mgrwt>
<rscale>  0 0.78356372E+02</rscale>
<asrwt>0</asrwt>
<pdfrwt beam="1">  1        2 0.27848381E-01 0.78356372E+02</pdfrwt>
<pdfrwt beam="2">  1       -1 0.13045538E-02 0.78356372E+02</pdfrwt>
<totfact> 0.22516116E+05</totfact>
</mgrwt>
</event>
<event>
 8    1  0.2433467E-020  0.7918020E+02  0.7818608E-02  0.1331394E+00
          2   -1    0    0  501    0  0.00000000000E+00  0.00000000000E+00  0.78427386837E+03  0.78427386837E+03  0.25500000000E-02 0. -1.
         -1   -1    0    0    0  501 -0.00000000000E+00 -0.00000000000E+00 -0.19985027913E+01  0.19985091465E+01  0.50400000000E-02 0.  1.
         24    2    1    2    0    0 -0.17763568394E-14 -0.17763568394E-14  0.78227536558E+03  0.78627237752E+03  0.79180199928E+02 0.  0.
         66    2    3    3    0    0 -0.11000568653E+02 -0.12304960050E+02  0.74845106093E+03  0.74863570257E+03  0.19999995311E+01 0.  0.
        -13    1    3    3    0    0  0.11000568653E+02  0.12304960050E+02  0.33824304645E+02  0.37636674950E+02  0.10566000000E+00 0.  1.
         13    1    4    4    0    0 -0.66746044136E+01 -0.64070699891E+01  0.41289602928E+03  0.41299968892E+03  0.10566000000E+00 0. -1.
        -13    1    4    4    0    0 -0.32591879415E+00 -0.49097560623E+00  0.18606550176E+02  0.18616179887E+02  0.10566000000E+00 0. -1.
         14    1    4    4    0    0 -0.40000454457E+01 -0.54069144550E+01  0.31694848147E+03  0.31701983376E+03  0.00000000000E+00 0. -1.
<mgrwt>
<rscale>  0 0.79180200E+02</rscale>
<asrwt>0</asrwt>
<pdfrwt beam="1">  1        2 0.12065764E+00 0.79180200E+02</pdfrwt>
<pdfrwt beam="2">  1       -1 0.30746214E-03 0.79180200E+02</pdfrwt>
<totfact> 0.35173285E+05</totfact>
</mgrwt>
</event>
<event>
 8    1  0.2433467E-020  0.7970568E+02  0.7818608E-02  0.1329889E+00
          2   -1    0    0  501    0  0.00000000000E+00  0.00000000000E+00  0.90453819823E+02  0.90453819859E+02  0.25500000000E-02 0. -1.
         -1   -1    0    0    0  501 -0.00000000000E+00 -0.00000000000E+00 -0.17558669137E+02  0.17558669860E+02  0.50400000000E-02 0.  1.
         24    2    1    2    0    0  0.00000000000E+00  0.00000000000E+00  0.72895150687E+02  0.10801248972E+03  0.79705676973E+02 0.  0.
         66    2    3    3    0    0  0.10381729470E+02  0.19153892691E+02  0.81651622208E+02  0.84531883476E+02  0.20000007295E+01 0.  0.
        -13    1    3    3    0    0 -0.10381729470E+02 -0.19153892691E+02 -0.87564715213E+01  0.23480606243E+02  0.10566000000E+00 0.  1.
         13    1    4    4    0    0  0.62799007220E+01  0.11978080323E+02  0.51735456400E+02  0.53474107513E+02  0.10566000000E+00 0. -1.
        -13    1    4    4    0    0  0.40950839276E+01  0.71030323823E+01  0.28948856055E+02  0.30087708659E+02  0.10566000000E+00 0.  1.
        -14    1    4    4    0    0  0.67448199568E-02  0.72779984888E-01  0.96730975214E+00  0.97006730456E+00  0.00000000000E+00 0.  1.
<mgrwt>
<rscale>  0 0.79705677E+02</rscale>
<asrwt>0</asrwt>
<pdfrwt beam="1">  1        2 0.13915973E-01 0.79705677E+02</pdfrwt>
<pdfrwt beam="2">  1       -1 0.27013337E-02 0.79705677E+02</pdfrwt>
<totfact> 0.17415573E+05</totfact>
</mgrwt>
</event>
<event>
 8    1  0.2433467E-020  0.7885620E+02  0.7818608E-02  0.1332329E+00
         -1   -1    0    0    0  501 -0.00000000000E+00  0.00000000000E+00  0.23540467948E+01  0.23540521901E+01  0.50400000000E-02 0.  1.
          2   -1    0    0  501    0  0.00000000000E+00 -0.00000000000E+00 -0.66038334411E+03  0.66038334412E+03  0.25500000000E-02 0. -1.
         24    2    1    2    0    0  0.00000000000E+00  0.17763568394E-14 -0.65802929732E+03  0.66273739631E+03  0.78856200366E+02 0.  0.
         66    2    3    3    0    0  0.19767309062E+02 -0.14189110057E+02 -0.58969268681E+03  0.59019788396E+03  0.20000008458E+01 0.  0.
        -13    1    3    3    0    0 -0.19767309062E+02  0.14189110057E+02 -0.68336610511E+02  0.72539512350E+02  0.10566000000E+00 0.  1.
         13    1    4    4    0    0  0.60204194895E+01 -0.43626529440E+01 -0.18429544258E+03  0.18444538354E+03  0.10566000000E+00 0. -1.
        -13    1    4    4    0    0  0.68537817658E+00 -0.24414120524E+00 -0.24282178952E+02  0.24293306216E+02  0.10566000000E+00 0.  1.
        -14    1    4    4    0    0  0.13061511396E+02 -0.95823159079E+01 -0.38111506528E+03  0.38145919420E+03  0.00000000000E+00 0.  1.
<mgrwt>
<rscale>  0 0.78856200E+02</rscale>
<asrwt>0</asrwt>
<pdfrwt beam="1">  1        2 0.10159729E+00 0.78856200E+02</pdfrwt>
<pdfrwt beam="2">  1       -1 0.36216199E-03 0.78856200E+02</pdfrwt>
<totfact> 0.34246580E+05</totfact>
</mgrwt>
</event>
<event>
 8    1  0.2433467E-020  0.7922230E+02  0.7818608E-02  0.1331273E+00
          2   -1    0    0  501    0  0.00000000000E+00  0.00000000000E+00  0.24048741700E+02  0.24048741835E+02  0.25500000000E-02 0. -1.
         -1   -1    0    0    0  501 -0.00000000000E+00 -0.00000000000E+00 -0.65244297389E+02  0.65244297584E+02  0.50400000000E-02 0.  1.
         24    2    1    2    0    0  0.35527136788E-14 -0.44408920985E-15 -0.41195555689E+02  0.89293039419E+02  0.79222301659E+02 0.  0.
         66    2    3    3    0    0 -0.25542535419E+02  0.33930430063E+01  0.13260998881E+02  0.29048028371E+02  0.20000011171E+01 0.  0.
        -13    1    3    3    0    0  0.25542535419E+02 -0.33930430063E+01 -0.54456554570E+02  0.60245011047E+02  0.10566000000E+00 0.  1.
         13    1    4    4    0    0 -0.75917720262E+01  0.99907341232E+00  0.30577167281E+01  0.82458441536E+01  0.10566000000E+00 0. -1.
        -13    1    4    4    0    0 -0.89692027401E+01  0.15907642327E+01  0.50304226700E+01  0.10406413643E+02  0.10566000000E+00 0.  1.
         14    1    4    4    0    0 -0.89815606527E+01  0.80320536120E+00  0.51728594827E+01  0.10395770575E+02  0.00000000000E+00 0. -1.
<mgrwt>
<rscale>  0 0.79222302E+02</rscale>
<asrwt>0</asrwt>
<pdfrwt beam="1">  1        2 0.36998065E-02 0.79222302E+02</pdfrwt>
<pdfrwt beam="2">  1       -1 0.10037584E-01 0.79222302E+02</pdfrwt>
<totfact> 0.13243101E+05</totfact>
</mgrwt>
</event>
<event>
 8    1  0.2433467E-020  0.8459277E+02  0.7818608E-02  0.1316501E+00
         -1   -1    0    0    0  501 -0.00000000000E+00  0.00000000000E+00  0.23880452168E+01  0.23880505353E+01  0.50400000000E-02 0.  1.
          2   -1    0    0  501    0  0.00000000000E+00 -0.00000000000E+00 -0.74914087221E+03  0.74914087222E+03  0.25500000000E-02 0. -1.
         24    2    1    2    0    0 -0.35527136788E-14  0.00000000000E+00 -0.74675282700E+03  0.75152892275E+03  0.84592772191E+02 0.  0.
         66    2    3    3    0    0 -0.28697364197E+02 -0.93118847985E+01 -0.63663872260E+03  0.63735634697E+03  0.19999990581E+01 0.  0.
        -13    1    3    3    0    0  0.28697364197E+02  0.93118847985E+01 -0.11011410440E+03  0.11417257579E+03  0.10566000000E+00 0.  1.
         13    1    4    4    0    0 -0.41216639120E+01 -0.16957804045E+01 -0.94717416101E+02  0.94822275134E+02  0.10566000000E+00 0. -1.
        -13    1    4    4    0    0 -0.88073484085E+00  0.42568296238E-02 -0.19528662361E+02  0.19548798675E+02  0.10566000000E+00 0.  1.
         14    1    4    4    0    0 -0.23694965444E+02 -0.76203612235E+01 -0.52239264414E+03  0.52298527316E+03  0.00000000000E+00 0. -1.
<mgrwt>
<rscale>  0 0.84592772E+02</rscale>
<asrwt>0</asrwt>
<pdfrwt beam="1">  1        2 0.11525226E+00 0.84592772E+02</pdfrwt>
<pdfrwt beam="2">  1       -1 0.36739258E-03 0.84592772E+02</pdfrwt>
<totfact> 0.29349577E+05</totfact>
</mgrwt>
</event>
<event>
 8    1  0.2433467E-020  0.8063447E+02  0.7818608E-02  0.1327260E+00
          2   -1    0    0  501    0  0.00000000000E+00  0.00000000000E+00  0.14709542823E+04  0.14709542823E+04  0.25500000000E-02 0. -1.
         -1   -1    0    0    0  501 -0.00000000000E+00 -0.00000000000E+00 -0.11050452359E+01  0.11050567293E+01  0.50400000000E-02 0.  1.
         24    2    1    2    0    0  0.00000000000E+00  0.35527136788E-14  0.14698492371E+04  0.14720593391E+04  0.80634471114E+02 0.  0.
         66    2    3    3    0    0  0.11262734191E+02  0.16597283473E+02  0.13733305090E+04  0.13734784330E+04  0.20000010725E+01 0.  0.
        -13    1    3    3    0    0 -0.11262734191E+02 -0.16597283473E+02  0.96518728083E+02  0.98580906037E+02  0.10566000000E+00 0.  1.
         13    1    4    4    0    0  0.18879029904E+01  0.33120557220E+01  0.22019886682E+03  0.22023189143E+03  0.10566000000E+00 0. -1.
        -13    1    4    4    0    0  0.64543949267E+01  0.93996005276E+01  0.78513303212E+03  0.78521583083E+03  0.10566000000E+00 0. -1.
         14    1    4    4    0    0  0.29204362739E+01  0.38856272235E+01  0.36799861007E+03  0.36803071076E+03  0.00000000000E+00 0. -1.
<mgrwt>
<rscale>  0 0.80634471E+02</rscale>
<asrwt>0</asrwt>
<pdfrwt beam="1">  1        2 0.22630073E+00 0.80634471E+02</pdfrwt>
<pdfrwt beam="2">  1       -1 0.17000779E-03 0.80634471E+02</pdfrwt>
<totfact> 0.32807287E+05</totfact>
</mgrwt>
</event>
<event>
 8    1  0.2433467E-020  0.7328612E+02  0.7818608E-02  0.1349262E+00
         -1   -1    0    0    0  501 -0.00000000000E+00  0.00000000000E+00  0.87340954628E+02  0.87340954773E+02  0.50400000000E-02 0.  1.
          2   -1    0    0  501    0  0.00000000000E+00 -0.00000000000E+00 -0.15373242155E+02  0.15373242367E+02  0.25500000000E-02 0. -1.
         24    2    1    2    0    0  0.00000000000E+00 -0.35527136788E-14  0.71967712473E+02  0.10271419714E+03  0.73286115026E+02 0.  0.
         66    2    3    3    0    0 -0.18816983964E+02  0.24044878899E+02  0.76842159989E+01  0.31548094467E+02  0.20000005640E+01 0.  0.
        -13    1    3    3    0    0  0.18816983964E+02 -0.24044878899E+02  0.64283496474E+02  0.71166102673E+02  0.10566000000E+00 0.  1.
         13    1    4    4    0    0 -0.87523891096E+01  0.11916953735E+02  0.35813171668E+01  0.15213648416E+02  0.10566000000E+00 0. -1.
        -13    1    4    4    0    0 -0.72340528697E+01  0.78437323105E+01  0.29641331720E+01  0.11074877289E+02  0.10566000000E+00 0.  1.
        -14    1    4    4    0    0 -0.28305419844E+01  0.42841928535E+01  0.11387656601E+01  0.52595687618E+01  0.00000000000E+00 0.  1.
<mgrwt>
<rscale>  0 0.73286115E+02</rscale>
<asrwt>0</asrwt>
<pdfrwt beam="1">  1        2 0.23651142E-02 0.73286115E+02</pdfrwt>
<pdfrwt beam="2">  1       -1 0.13437070E-01 0.73286115E+02</pdfrwt>
<totfact> 0.15152245E+05</totfact>
</mgrwt>
</event>
<event>
 8    1  0.2433467E-020  0.8460552E+02  0.7818608E-02  0.1316467E+00
          2   -1    0    0  501    0  0.00000000000E+00  0.00000000000E+00  0.98044637112E+01  0.98044640428E+01  0.25500000000E-02 0. -1.
         -1   -1    0    0    0  501 -0.00000000000E+00 -0.00000000000E+00 -0.18252131573E+03  0.18252131580E+03  0.50400000000E-02 0.  1.
         24    2    1    2    0    0  0.00000000000E+00  0.00000000000E+00 -0.17271685202E+03  0.19232577984E+03  0.84605523582E+02 0.  0.
         66    2    3    3    0    0  0.15755391671E+02  0.32236218738E+02 -0.35570402807E+02  0.50563422847E+02  0.20000022482E+01 0.  0.
        -13    1    3    3    0    0 -0.15755391671E+02 -0.32236218738E+02 -0.13714644921E+03  0.14176235699E+03  0.10566000000E+00 0.  1.
         13    1    4    4    0    0  0.51954451264E+01  0.11751463534E+02 -0.12913815464E+02  0.18217226439E+02  0.10566000000E+00 0. -1.
        -13    1    4    4    0    0  0.90212969487E+01  0.17910590601E+02 -0.20262494326E+02  0.28508821348E+02  0.10566000000E+00 0.  1.
        -14    1    4    4    0    0  0.15386495958E+01  0.25741646030E+01 -0.23940930170E+01  0.38373750606E+01  0.00000000000E+00 0.  1.
<mgrwt>
<rscale>  0 0.84605524E+02</rscale>
<asrwt>0</asrwt>
<pdfrwt beam="1">  1        2 0.15083792E-02 0.84605524E+02</pdfrwt>
<pdfrwt beam="2">  1       -1 0.28080200E-01 0.84605524E+02</pdfrwt>
<totfact> 0.88746089E+04</totfact>
</mgrwt>
</event>
<event>
 8    1  0.2433467E-020  0.8057498E+02  0.7818608E-02  0.1327428E+00
         -1   -1    0    0    0  501 -0.00000000000E+00  0.00000000000E+00  0.13334836018E+01  0.13334931263E+01  0.50400000000E-02 0.  1.
          2   -1    0    0  501    0  0.00000000000E+00 -0.00000000000E+00 -0.12171697473E+04  0.12171697473E+04  0.25500000000E-02 0. -1.
         24    2    1    2    0    0  0.00000000000E+00  0.17763568394E-14 -0.12158362637E+04  0.12185032404E+04  0.80574976340E+02 0.  0.
         66    2    3    3    0    0 -0.77832608512E+01  0.11722257951E+02 -0.11787738521E+04  0.11788595272E+04  0.20000004158E+01 0.  0.
        -13    1    3    3    0    0  0.77832608512E+01 -0.11722257951E+02 -0.37062411621E+02  0.39643713249E+02  0.10566000000E+00 0.  1.
         13    1    4    4    0    0 -0.12005389654E+01  0.15753419362E+01 -0.19061780042E+03  0.19062811964E+03  0.10566000000E+00 0.  1.
        -13    1    4    4    0    0 -0.29370487876E+01  0.32578508948E+01 -0.38485180516E+03  0.38487681529E+03  0.10566000000E+00 0. -1.
         14    1    4    4    0    0 -0.36456730983E+01  0.68890651201E+01 -0.60330424648E+03  0.60335459224E+03  0.00000000000E+00 0. -1.
<mgrwt>
<rscale>  0 0.80574976E+02</rscale>
<asrwt>0</asrwt>
<pdfrwt beam="1">  1        2 0.18725600E+00 0.80574976E+02</pdfrwt>
<pdfrwt beam="2">  1       -1 0.20515303E-03 0.80574976E+02</pdfrwt>
<totfact> 0.34335138E+05</totfact>
</mgrwt>
</event>
<event>
 8    1  0.2433467E-020  0.7955754E+02  0.7818608E-02  0.1330312E+00
          2   -1    0    0  501    0  0.00000000000E+00  0.00000000000E+00  0.10770150992E+04  0.10770150992E+04  0.25500000000E-02 0. -1.
         -1   -1    0    0    0  501 -0.00000000000E+00 -0.00000000000E+00 -0.14691957780E+01  0.14692044227E+01  0.50400000000E-02 0.  1.
         24    2    1    2    0    0  0.00000000000E+00  0.00000000000E+00  0.10755459034E+04  0.10784843036E+04  0.79557543948E+02 0.  0.
         66    2    3    3    0    0  0.13590933270E+02 -0.21023238465E+02  0.95673985843E+03  0.95706940539E+03  0.20000008414E+01 0.  0.
        -13    1    3    3    0    0 -0.13590933270E+02  0.21023238465E+02  0.11880604498E+03  0.12141489823E+03  0.10566000000E+00 0.  1.
         13    1    4    4    0    0  0.64390453078E+01 -0.84091276399E+01  0.40118547626E+03  0.40132526990E+03  0.10566000000E+00 0. -1.
        -13    1    4    4    0    0  0.29061128292E+01 -0.50148802722E+01  0.20811272291E+03  0.20819344639E+03  0.10566000000E+00 0.  1.
         14    1    4    4    0    0  0.42457751333E+01 -0.75992305526E+01  0.34744165925E+03  0.34755068910E+03  0.00000000000E+00 0. -1.
<mgrwt>
<rscale>  0 0.79557544E+02</rscale>
<asrwt>0</asrwt>
<pdfrwt beam="1">  1        2 0.16569489E+00 0.79557544E+02</pdfrwt>
<pdfrwt beam="2">  1       -1 0.22603043E-03 0.79557544E+02</pdfrwt>
<totfact> 0.35780274E+05</totfact>
</mgrwt>
</event>
<event>
 8    1  0.2433467E-020  0.7831344E+02  0.7818608E-02  0.1333907E+00
         -1   -1    0    0    0  501 -0.00000000000E+00  0.00000000000E+00  0.19565580773E+03  0.19565580780E+03  0.50400000000E-02 0.  1.
          2   -1    0    0  501    0  0.00000000000E+00 -0.00000000000E+00 -0.78364581695E+01  0.78364585844E+01  0.25500000000E-02 0. -1.
         24    2    1    2    0    0  0.00000000000E+00  0.00000000000E+00  0.18781934956E+03  0.20349226638E+03  0.78313436950E+02 0.  0.
         66    2    3    3    0    0  0.71159967892E+01  0.37010656163E+02  0.66617059729E+02  0.76565388594E+02  0.20000009114E+01 0.  0.
        -13    1    3    3    0    0 -0.71159967892E+01 -0.37010656163E+02  0.12120228983E+03  0.12692687779E+03  0.10566000000E+00 0.  1.
         13    1    4    4    0    0  0.19446412063E+01  0.63404772069E+01  0.11724303667E+02  0.13470476649E+02  0.10566000000E+00 0. -1.
        -13    1    4    4    0    0  0.13695348595E+01  0.84848438653E+01  0.15662837828E+02  0.17866277005E+02  0.10566000000E+00 0.  1.
         14    1    4    4    0    0  0.38018207234E+01  0.22185335091E+02  0.39229918233E+02  0.45228634940E+02  0.00000000000E+00 0. -1.
<mgrwt>
<rscale>  0 0.78313437E+02</rscale>
<asrwt>0</asrwt>
<pdfrwt beam="1">  1        2 0.12056091E-02 0.78313437E+02</pdfrwt>
<pdfrwt beam="2">  1       -1 0.30100891E-01 0.78313437E+02</pdfrwt>
<totfact> 0.10584623E+05</totfact>
</mgrwt>
</event>
<event>
 8    1  0.2433467E-020  0.8395148E+02  0.7818608E-02  0.1318198E+00
          2   -1    0    0  501    0  0.00000000000E+00  0.00000000000E+00  0.27258634732E+03  0.27258634733E+03  0.25500000000E-02 0. -1.
         -1   -1    0    0    0  501 -0.00000000000E+00 -0.00000000000E+00 -0.64638695556E+01  0.64638715205E+01  0.50400000000E-02 0.  1.
         24    2    1    2    0    0  0.00000000000E+00 -0.35527136788E-14  0.26612247776E+03  0.27905021885E+03  0.83951482835E+02 0.  0.
         66    2    3    3    0    0 -0.31422352522E+02 -0.16099584217E+02  0.20845140429E+03  0.21142977276E+03  0.20000022065E+01 0.  0.
        -13    1    3    3    0    0  0.31422352522E+02  0.16099584217E+02  0.57671073473E+02  0.67620446092E+02  0.10566000000E+00 0.  1.
         13    1    4    4    0    0 -0.15516739925E+02 -0.72873810775E+01  0.10144161257E+03  0.10287996436E+03  0.10566000000E+00 0. -1.
        -13    1    4    4    0    0 -0.93576692909E+01 -0.47503065134E+01  0.59203779007E+02  0.60126782712E+02  0.10566000000E+00 0.  1.
         14    1    4    4    0    0 -0.65479433060E+01 -0.40618966264E+01  0.47806012712E+02  0.48423025692E+02  0.00000000000E+00 0. -1.
<mgrwt>
<rscale>  0 0.83951483E+02</rscale>
<asrwt>0</asrwt>
<pdfrwt beam="1">  1        2 0.41936364E-01 0.83951483E+02</pdfrwt>
<pdfrwt beam="2">  1       -1 0.99444156E-03 0.83951483E+02</pdfrwt>
<totfact> 0.21690294E+05</totfact>
</mgrwt>
</event>
<event>
 8    1  0.2433467E-020  0.8110882E+02  0.7818608E-02  0.1325934E+00
         -1   -1    0    0    0  501 -0.00000000000E+00  0.00000000000E+00  0.39932908608E+02  0.39932908926E+02  0.50400000000E-02 0.  1.
          2   -1    0    0  501    0  0.00000000000E+00 -0.00000000000E+00 -0.41185581906E+02  0.41185581985E+02  0.25500000000E-02 0. -1.
         24    2    1    2    0    0  0.71054273576E-14 -0.35527136788E-14 -0.12526732986E+01  0.81118490911E+02  0.81108818123E+02 0.  0.
         66    2    3    3    0    0 -0.33608510481E+02  0.20921185241E+02 -0.93126327887E+01  0.40717970127E+02  0.19999982901E+01 0.  0.
        -13    1    3    3    0    0  0.33608510481E+02 -0.20921185241E+02  0.80599594901E+01  0.40400520784E+02  0.10566000000E+00 0.  1.
         13    1    4    4    0    0 -0.98989386873E+00  0.64944247276E+00 -0.51520555673E-01  0.11897410643E+01  0.10566000000E+00 0. -1.
        -13    1    4    4    0    0 -0.93525983189E+01  0.51596174120E+01 -0.27923347401E+01  0.11040880603E+02  0.10566000000E+00 0.  1.
         14    1    4    4    0    0 -0.23266018294E+02  0.15112125356E+02 -0.64687774930E+01  0.28487348460E+02  0.00000000000E+00 0. -1.
<mgrwt>
<rscale>  0 0.81108818E+02</rscale>
<asrwt>0</asrwt>
<pdfrwt beam="1">  1        2 0.63362434E-02 0.81108818E+02</pdfrwt>
<pdfrwt beam="2">  1       -1 0.61435245E-02 0.81108818E+02</pdfrwt>
<totfact> 0.13805989E+05</totfact>
</mgrwt>
</event>
<event>
 8    1  0.2433467E-020  0.8225962E+02  0.7818608E-02  0.1322759E+00
          2   -1    0    0  501    0  0.00000000000E+00  0.00000000000E+00  0.58530868434E+03  0.58530868435E+03  0.25500000000E-02 0. -1.
         -1   -1    0    0    0  501 -0.00000000000E+00 -0.00000000000E+00 -0.28902010813E+01  0.28902054757E+01  0.50400000000E-02 0.  1.
         24    2    1    2    0    0  0.00000000000E+00 -0.35527136788E-14  0.58241848326E+03  0.58819888983E+03  0.82259615521E+02 0.  0.
         66    2    3    3    0    0  0.39252154037E+00  0.26464408069E+02  0.51626864316E+03  0.51695051106E+03  0.20000007379E+01 0.  0.
        -13    1    3    3    0    0 -0.39252154037E+00 -0.26464408069E+02  0.66149840101E+02  0.71248378767E+02  0.10566000000E+00 0.  1.
         13    1    4    4    0    0  0.16144711580E+00  0.13762258765E+02  0.27574705451E+03  0.27609033859E+03  0.10566000000E+00 0. -1.
        -13    1    4    4    0    0  0.81260856979E-01  0.12508302679E+02  0.23418134218E+03  0.23451519445E+03  0.10566000000E+00 0.  1.
        -14    1    4    4    0    0  0.14981356759E+00  0.19384662515E+00  0.63402464799E+01  0.63449780177E+01  0.00000000000E+00 0.  1.
<mgrwt>
<rscale>  0 0.82259616E+02</rscale>
<asrwt>0</asrwt>
<pdfrwt beam="1">  1        2 0.90047398E-01 0.82259616E+02</pdfrwt>
<pdfrwt beam="2">  1       -1 0.44464711E-03 0.82259616E+02</pdfrwt>
<totfact> 0.29703279E+05</totfact>
</mgrwt>
</event>
<event>
 8    1  0.2433467E-020  0.7653013E+02  0.7818608E-02  0.1339197E+00
         -1   -1    0    0    0  501 -0.00000000000E+00  0.00000000000E+00  0.11303867689E+01  0.11303980046E+01  0.50400000000E-02 0.  1.
          2   -1    0    0  501    0  0.00000000000E+00 -0.00000000000E+00 -0.12953160286E+04  0.12953160286E+04  0.25500000000E-02 0. -1.
         24    2    1    2    0    0  0.88817841970E-15  0.00000000000E+00 -0.12941856419E+04  0.12964464266E+04  0.76530134853E+02 0.  0.
         66    2    3    3    0    0 -0.74782919166E+01  0.17326162366E+02 -0.12109340886E+04  0.12110827749E+04  0.19999974022E+01 0.  0.
        -13    1    3    3    0    0  0.74782919166E+01 -0.17326162366E+02 -0.83251553255E+02  0.85363651725E+02  0.10566000000E+00 0.  1.
         13    1    4    4    0    0 -0.35948502256E+01  0.97095994504E+01 -0.61808496345E+03  0.61817168528E+03  0.10566000000E+00 0. -1.
        -13    1    4    4    0    0 -0.22055134590E+01  0.42639339352E+01 -0.35329735758E+03  0.35332998664E+03  0.10566000000E+00 0.  1.
        -14    1    4    4    0    0 -0.16779282320E+01  0.33526289802E+01 -0.23955176759E+03  0.23958110301E+03  0.00000000000E+00 0.  1.
<mgrwt>
<rscale>  0 0.76530135E+02</rscale>
<asrwt>0</asrwt>
<pdfrwt beam="1">  1        2 0.19927820E+00 0.76530135E+02</pdfrwt>
<pdfrwt beam="2">  1       -1 0.17390756E-03 0.76530135E+02</pdfrwt>
<totfact> 0.38858397E+05</totfact>
</mgrwt>
</event>
<event>
 8    1  0.2433467E-020  0.7823510E+02  0.7818608E-02  0.1334136E+00
         -1   -1    0    0    0  501 -0.00000000000E+00  0.00000000000E+00  0.17475734076E+02  0.17475734803E+02  0.50400000000E-02 0.  1.
          2   -1    0    0  501    0  0.00000000000E+00 -0.00000000000E+00 -0.87560412623E+02  0.87560412660E+02  0.25500000000E-02 0. -1.
         24    2    1    2    0    0  0.88817841970E-15  0.00000000000E+00 -0.70084678547E+02  0.10503614746E+03  0.78235095109E+02 0.  0.
         66    2    3    3    0    0 -0.78672174686E+01  0.23054597633E+02 -0.76112944896E+02  0.79941153103E+02  0.19999989979E+01 0.  0.
        -13    1    3    3    0    0  0.78672174686E+01 -0.23054597633E+02  0.60282663492E+01  0.25094994360E+02  0.10566000000E+00 0.  1.
         13    1    4    4    0    0 -0.29720239355E+01  0.89322843930E+01 -0.30372294453E+02  0.31797894036E+02  0.10566000000E+00 0. -1.
        -13    1    4    4    0    0 -0.79200467359E+00  0.14308265308E+01 -0.39793611107E+01  0.43036048668E+01  0.10566000000E+00 0.  1.
        -14    1    4    4    0    0 -0.41031888595E+01  0.12691486709E+02 -0.41761289333E+02  0.43839654200E+02  0.00000000000E+00 0.  1.
<mgrwt>
<rscale>  0 0.78235095E+02</rscale>
<asrwt>0</asrwt>
<pdfrwt beam="1">  1        2 0.13470832E-01 0.78235095E+02</pdfrwt>
<pdfrwt beam="2">  1       -1 0.26885746E-02 0.78235095E+02</pdfrwt>
<totfact> 0.18149689E+05</totfact>
</mgrwt>
</event>
<event>
 8    1  0.2433467E-020  0.8123132E+02  0.7818608E-02  0.1325593E+00
         -1   -1    0    0    0  501 -0.00000000000E+00  0.00000000000E+00  0.37345914675E+01  0.37345948684E+01  0.50400000000E-02 0.  1.
          2   -1    0    0  501    0  0.00000000000E+00 -0.00000000000E+00 -0.44171665547E+03  0.44171665548E+03  0.25500000000E-02 0. -1.
         24    2    1    2    0    0  0.00000000000E+00  0.00000000000E+00 -0.43798206400E+03  0.44545125035E+03  0.81231324295E+02 0.  0.
         66    2    3    3    0    0 -0.66658415832E+01  0.35771271482E+02 -0.31777121916E+03  0.31985397454E+03  0.19999991223E+01 0.  0.
        -13    1    3    3    0    0  0.66658415832E+01 -0.35771271482E+02 -0.12021084484E+03  0.12559727580E+03  0.10566000000E+00 0.  1.
         13    1    4    4    0    0 -0.33905171282E+01  0.20328787666E+02 -0.18566271221E+03  0.18680312921E+03  0.10566000000E+00 0. -1.
        -13    1    4    4    0    0 -0.33946648926E+00  0.30633402202E+01 -0.26326496993E+02  0.26506506725E+02  0.10566000000E+00 0.  1.
         14    1    4    4    0    0 -0.29358579658E+01  0.12379143596E+02 -0.10578200996E+03  0.10654433861E+03  0.00000000000E+00 0. -1.
<mgrwt>
<rscale>  0 0.81231324E+02</rscale>
<asrwt>0</asrwt>
<pdfrwt beam="1">  1        2 0.67956367E-01 0.81231324E+02</pdfrwt>
<pdfrwt beam="2">  1       -1 0.57455315E-03 0.81231324E+02</pdfrwt>
<totfact> 0.28091784E+05</totfact>
</mgrwt>
</event>
<event>
 8    1  0.2433467E-020  0.7946200E+02  0.7818608E-02  0.1330585E+00
          2   -1    0    0  501    0  0.00000000000E+00  0.00000000000E+00  0.46762219958E+03  0.46762219959E+03  0.25500000000E-02 0. -1.
         -1   -1    0    0    0  501 -0.00000000000E+00 -0.00000000000E+00 -0.33756985906E+01  0.33757023530E+01  0.50400000000E-02 0.  1.
         24    2    1    2    0    0  0.00000000000E+00  0.00000000000E+00  0.46424650099E+03  0.47099790194E+03  0.79462003190E+02 0.  0.
         66    2    3    3    0    0  0.17971595448E+02  0.20817313770E+02  0.40202453063E+03  0.40296905839E+03  0.19999985463E+01 0.  0.
        -13    1    3    3    0    0 -0.17971595448E+02 -0.20817313770E+02  0.62221970354E+02  0.68028843547E+02  0.10566000000E+00 0.  1.
         13    1    4    4    0    0  0.11454376860E+02  0.14330064177E+02  0.26134050249E+03  0.26198363097E+03  0.10566000000E+00 0. -1.
        -13    1    4    4    0    0  0.10351701709E+01  0.94282673328E+00  0.18942321252E+02  0.18994293827E+02  0.10566000000E+00 0. -1.
        -14    1    4    4    0    0  0.54820484169E+01  0.55444228591E+01  0.12174170689E+03  0.12199113360E+03  0.00000000000E+00 0.  1.
<mgrwt>
<rscale>  0 0.79462003E+02</rscale>
<asrwt>0</asrwt>
<pdfrwt beam="1">  1        2 0.71941860E-01 0.79462003E+02</pdfrwt>
<pdfrwt beam="2">  1       -1 0.51933866E-03 0.79462003E+02</pdfrwt>
<totfact> 0.30325849E+05</totfact>
</mgrwt>
</event>
<event>
 8    1  0.2433467E-020  0.7611067E+02  0.7818608E-02  0.1340466E+00
         -1   -1    0    0    0  501 -0.00000000000E+00  0.00000000000E+00  0.51526130957E+01  0.51526155606E+01  0.50400000000E-02 0.  1.
          2   -1    0    0  501    0  0.00000000000E+00 -0.00000000000E+00 -0.28106285874E+03  0.28106285875E+03  0.25500000000E-02 0. -1.
         24    2    1    2    0    0  0.00000000000E+00 -0.35527136788E-14 -0.27591024564E+03  0.28621547431E+03  0.76110669975E+02 0.  0.
         66    2    3    3    0    0  0.82912968179E+01  0.31879333511E+02 -0.20951637785E+03  0.21209938730E+03  0.20000003074E+01 0.  0.
        -13    1    3    3    0    0 -0.82912968179E+01 -0.31879333511E+02 -0.66393867795E+02  0.74116087004E+02  0.10566000000E+00 0.  1.
         13    1    4    4    0    0  0.77719608538E+01  0.28044838518E+02 -0.18680470495E+03  0.18905799454E+03  0.10566000000E+00 0. -1.
        -13    1    4    4    0    0  0.28799725201E+00  0.17308660488E+01 -0.11128101488E+02  0.11266083901E+02  0.10566000000E+00 0. -1.
         14    1    4    4    0    0  0.23133871208E+00  0.21036289442E+01 -0.11583571408E+02  0.11775308866E+02  0.00000000000E+00 0. -1.
<mgrwt>
<rscale>  0 0.76110670E+02</rscale>
<asrwt>0</asrwt>
<pdfrwt beam="1">  1        2 0.43240428E-01 0.76110670E+02</pdfrwt>
<pdfrwt beam="2">  1       -1 0.79271012E-03 0.76110670E+02</pdfrwt>
<totfact> 0.28369083E+05</totfact>
</mgrwt>
</event>
<event>
 8    1  0.2433467E-020  0.8032615E+02  0.7818608E-02  0.1328128E+00
          2   -1    0    0  501    0  0.00000000000E+00  0.00000000000E+00  0.66032243475E+03  0.66032243475E+03  0.25500000000E-02 0. -1.
         -1   -1    0    0    0  501 -0.00000000000E+00 -0.00000000000E+00 -0.24428534895E+01  0.24428586886E+01  0.50400000000E-02 0.  1.
         24    2    1    2    0    0  0.00000000000E+00  0.71054273576E-14  0.65787958126E+03  0.66276529344E+03  0.80326152365E+02 0.  0.
         66    2    3    3    0    0 -0.10918738066E+02  0.36651215705E+02  0.42970204159E+03  0.43140511704E+03  0.20000009647E+01 0.  0.
        -13    1    3    3    0    0  0.10918738066E+02 -0.36651215705E+02  0.22817753967E+03  0.23136017640E+03  0.10566000000E+00 0.  1.
         13    1    4    4    0    0 -0.19471770519E+01  0.52443049209E+01  0.67495390452E+02  0.67726901073E+02  0.10566000000E+00 0.  1.
        -13    1    4    4    0    0 -0.53703738874E+00  0.24581630470E+01  0.30698542766E+02  0.30801666623E+02  0.10566000000E+00 0. -1.
         14    1    4    4    0    0 -0.84345236252E+01  0.28948747737E+02  0.33150810837E+03  0.33287654934E+03  0.00000000000E+00 0. -1.
<mgrwt>
<rscale>  0 0.80326152E+02</rscale>
<asrwt>0</asrwt>
<pdfrwt beam="1">  1        2 0.10158796E+00 0.80326152E+02</pdfrwt>
<pdfrwt beam="2">  1       -1 0.37582440E-03 0.80326152E+02</pdfrwt>
<totfact> 0.32640712E+05</totfact>
</mgrwt>
</event>
<event>
 8    1  0.2433467E-020  0.7820665E+02  0.7818608E-02  0.1334219E+00
          2   -1    0    0  501    0  0.00000000000E+00  0.00000000000E+00  0.12352192015E+04  0.12352192015E+04  0.25500000000E-02 0. -1.
         -1   -1    0    0    0  501 -0.00000000000E+00 -0.00000000000E+00 -0.12378885296E+01  0.12378987896E+01  0.50400000000E-02 0.  1.
         24    2    1    2    0    0 -0.88817841970E-15 -0.35527136788E-14  0.12339813130E+04  0.12364571003E+04  0.78206649992E+02 0.  0.
         66    2    3    3    0    0  0.56999380232E+01  0.21382273641E+02  0.11266102622E+04  0.11268293455E+04  0.20000002671E+01 0.  0.
        -13    1    3    3    0    0 -0.56999380232E+01 -0.21382273641E+02  0.10737105077E+03  0.10962775482E+03  0.10566000000E+00 0.  1.
         13    1    4    4    0    0  0.45240754457E+01  0.17413839423E+02  0.92386601488E+03  0.92404119696E+03  0.10566000000E+00 0. -1.
        -13    1    4    4    0    0  0.11404676575E+01  0.36688300726E+01  0.19525999756E+03  0.19529782075E+03  0.10566000000E+00 0.  1.
        -14    1    4    4    0    0  0.35394919997E-01  0.29960414594E+00  0.74842497693E+01  0.74903277668E+01  0.00000000000E+00 0.  1.
<mgrwt>
<rscale>  0 0.78206650E+02</rscale>
<asrwt>0</asrwt>
<pdfrwt beam="1">  1        2 0.19003396E+00 0.78206650E+02</pdfrwt>
<pdfrwt beam="2">  1       -1 0.19044494E-03 0.78206650E+02</pdfrwt>
<totfact> 0.37026301E+05</totfact>
</mgrwt>
</event>
<event>
 8    1  0.2433467E-020  0.8399380E+02  0.7818608E-02  0.1318085E+00
         -1   -1    0    0    0  501 -0.00000000000E+00  0.00000000000E+00  0.54787818230E+01  0.54787841412E+01  0.50400000000E-02 0.  1.
          2   -1    0    0  501    0  0.00000000000E+00 -0.00000000000E+00 -0.32192179857E+03  0.32192179858E+03  0.25500000000E-02 0. -1.
         24    2    1    2    0    0  0.00000000000E+00  0.17763568394E-14 -0.31644301674E+03  0.32740058272E+03  0.83993801665E+02 0.  0.
         66    2    3    3    0    0 -0.34921203327E+02  0.11683418736E+02 -0.23682678481E+03  0.23968086848E+03  0.19999987927E+01 0.  0.
        -13    1    3    3    0    0  0.34921203327E+02 -0.11683418736E+02 -0.79616231930E+02  0.87719714238E+02  0.10566000000E+00 0.  1.
         13    1    4    4    0    0 -0.26409292495E+02  0.92741371805E+01 -0.17774742159E+03  0.17993781536E+03  0.10566000000E+00 0. -1.
        -13    1    4    4    0    0 -0.84162719627E+01  0.24011689074E+01 -0.57670753459E+02  0.58331177036E+02  0.10566000000E+00 0.  1.
        -14    1    4    4    0    0 -0.95638869087E-01  0.81126482646E-02 -0.14086097636E+01  0.14118760832E+01  0.00000000000E+00 0.  1.
<mgrwt>
<rscale>  0 0.83993802E+02</rscale>
<asrwt>0</asrwt>
<pdfrwt beam="1">  1        2 0.49526416E-01 0.83993802E+02</pdfrwt>
<pdfrwt beam="2">  1       -1 0.84288994E-03 0.83993802E+02</pdfrwt>
<totfact> 0.23012559E+05</totfact>
</mgrwt>
</event>
<event>
 8    1  0.2433467E-020  0.7874981E+02  0.7818608E-02  0.1332637E+00
         -1   -1    0    0    0  501 -0.00000000000E+00  0.00000000000E+00  0.10519718836E+03  0.10519718848E+03  0.50400000000E-02 0.  1.
          2   -1    0    0  501    0  0.00000000000E+00 -0.00000000000E+00 -0.14737875825E+02  0.14737876046E+02  0.25500000000E-02 0. -1.
         24    2    1    2    0    0  0.00000000000E+00  0.00000000000E+00  0.90459312538E+02  0.11993506453E+03  0.78749809390E+02 0.  0.
         66    2    3    3    0    0 -0.51358956884E+01 -0.18943822340E+02 -0.66823622674E+01  0.20830261531E+02  0.20000001462E+01 0.  0.
        -13    1    3    3    0    0  0.51358956884E+01  0.18943822340E+02  0.97141674806E+02  0.99104802999E+02  0.10566000000E+00 0.  1.
         13    1    4    4    0    0 -0.65725015962E+00 -0.13066523911E+01 -0.42244180648E+00  0.15260862882E+01  0.10566000000E+00 0. -1.
        -13    1    4    4    0    0 -0.69022723372E+00 -0.42687905083E+01 -0.20418532926E+01  0.47832326875E+01  0.10566000000E+00 0.  1.
        -14    1    4    4    0    0 -0.37884182950E+01 -0.13368379441E+02 -0.42180671683E+01  0.14520942555E+02  0.00000000000E+00 0.  1.
<mgrwt>
<rscale>  0 0.78749809E+02</rscale>
<asrwt>0</asrwt>
<pdfrwt beam="1">  1        2 0.22673657E-02 0.78749809E+02</pdfrwt>
<pdfrwt beam="2">  1       -1 0.16184182E-01 0.78749809E+02</pdfrwt>
<totfact> 0.12194389E+05</totfact>
</mgrwt>
</event>
<event>
 8    1  0.2433467E-020  0.8444041E+02  0.7818608E-02  0.1316902E+00
         -1   -1    0    0    0  501 -0.00000000000E+00  0.00000000000E+00  0.15685282475E+01  0.15685363448E+01  0.50400000000E-02 0.  1.
          2   -1    0    0  501    0  0.00000000000E+00 -0.00000000000E+00 -0.11364417055E+04  0.11364417055E+04  0.25500000000E-02 0. -1.
         24    2    1    2    0    0 -0.17763568394E-14  0.35527136788E-14 -0.11348731772E+04  0.11380102418E+04  0.84440405630E+02 0.  0.
         66    2    3    3    0    0 -0.12309772928E+02  0.16946093045E+02 -0.10614348034E+04  0.10616433217E+04  0.19999992611E+01 0.  0.
        -13    1    3    3    0    0  0.12309772928E+02 -0.16946093045E+02 -0.73438373783E+02  0.76366920109E+02  0.10566000000E+00 0.  1.
         13    1    4    4    0    0 -0.25867931641E+01  0.43053962928E+01 -0.23415382125E+03  0.23420770932E+03  0.10566000000E+00 0. -1.
        -13    1    4    4    0    0 -0.70895652454E+01  0.94858055249E+01 -0.63976823856E+03  0.63987784200E+03  0.10566000000E+00 0.  1.
        -14    1    4    4    0    0 -0.26334145181E+01  0.31548912269E+01 -0.18751274363E+03  0.18755777039E+03  0.00000000000E+00 0.  1.
<mgrwt>
<rscale>  0 0.84440406E+02</rscale>
<asrwt>0</asrwt>
<pdfrwt beam="1">  1        2 0.17483653E+00 0.84440406E+02</pdfrwt>
<pdfrwt beam="2">  1       -1 0.24131357E-03 0.84440406E+02</pdfrwt>
<totfact> 0.30581601E+05</totfact>
</mgrwt>
</event>
<event>
 8    1  0.2433467E-020  0.7612198E+02  0.7818608E-02  0.1340431E+00
         -1   -1    0    0    0  501 -0.00000000000E+00  0.00000000000E+00  0.84851650199E+01  0.84851665167E+01  0.50400000000E-02 0.  1.
          2   -1    0    0  501    0  0.00000000000E+00 -0.00000000000E+00 -0.17072606634E+03  0.17072606636E+03  0.25500000000E-02 0. -1.
         24    2    1    2    0    0 -0.35527136788E-14  0.00000000000E+00 -0.16224090132E+03  0.17921123288E+03  0.76121980583E+02 0.  0.
         66    2    3    3    0    0 -0.22629570309E+02  0.29374215658E+02 -0.10111012243E+03  0.10771350362E+03  0.20000012572E+01 0.  0.
        -13    1    3    3    0    0  0.22629570309E+02 -0.29374215658E+02 -0.61130778892E+02  0.71497729264E+02  0.10566000000E+00 0.  1.
         13    1    4    4    0    0 -0.11590656225E+02  0.14293728938E+02 -0.49644448286E+02  0.52945598574E+02  0.10566000000E+00 0.  1.
        -13    1    4    4    0    0 -0.74285547699E+01  0.10947016821E+02 -0.35480817123E+02  0.37867138141E+02  0.10566000000E+00 0. -1.
        -14    1    4    4    0    0 -0.36103593145E+01  0.41334698990E+01 -0.15984857024E+02  0.16900766902E+02  0.00000000000E+00 0.  1.
<mgrwt>
<rscale>  0 0.76121981E+02</rscale>
<asrwt>0</asrwt>
<pdfrwt beam="1">  1        2 0.26265546E-01 0.76121981E+02</pdfrwt>
<pdfrwt beam="2">  1       -1 0.13054102E-02 0.76121981E+02</pdfrwt>
<totfact> 0.23827928E+05</totfact>
</mgrwt>
</event>
<event>
 8    1  0.2433467E-020  0.7639553E+02  0.7818608E-02  0.1339603E+00
         -1   -1    0    0    0  501 -0.00000000000E+00  0.00000000000E+00  0.16246724913E+01  0.16246803087E+01  0.50400000000E-02 0.  1.
          2   -1    0    0  501    0  0.00000000000E+00 -0.00000000000E+00 -0.89806754163E+03  0.89806754163E+03  0.25500000000E-02 0. -1.
         24    2    1    2    0    0  0.00000000000E+00  0.35527136788E-14 -0.89644286914E+03  0.89969222194E+03  0.76395527316E+02 0.  0.
         66    2    3    3    0    0 -0.21051770243E+02 -0.21697136014E+02 -0.72298491422E+03  0.72361946417E+03  0.19999979220E+01 0.  0.
        -13    1    3    3    0    0  0.21051770243E+02  0.21697136014E+02 -0.17345795491E+03  0.17607275777E+03  0.10566000000E+00 0.  1.
         13    1    4    4    0    0 -0.10948294146E+02 -0.11724604622E+02 -0.37137067836E+03  0.37171699371E+03  0.10566000000E+00 0. -1.
        -13    1    4    4    0    0 -0.56876057824E+00 -0.72300681426E+00 -0.29234159404E+02  0.29248819934E+02  0.10566000000E+00 0.  1.
        -14    1    4    4    0    0 -0.95347155189E+01 -0.92495245780E+01 -0.32238007646E+03  0.32265365053E+03  0.00000000000E+00 0.  1.
<mgrwt>
<rscale>  0 0.76395527E+02</rscale>
<asrwt>0</asrwt>
<pdfrwt beam="1">  1        2 0.13816384E+00 0.76395527E+02</pdfrwt>
<pdfrwt beam="2">  1       -1 0.24995093E-03 0.76395527E+02</pdfrwt>
<totfact> 0.39370297E+05</totfact>
</mgrwt>
</event>
<event>
 8    1  0.2433467E-020  0.8245820E+02  0.7818608E-02  0.1322217E+00
          2   -1    0    0  501    0  0.00000000000E+00  0.00000000000E+00  0.30935670915E+03  0.30935670916E+03  0.25500000000E-02 0. -1.
         -1   -1    0    0    0  501 -0.00000000000E+00 -0.00000000000E+00 -0.54947523273E+01  0.54947546388E+01  0.50400000000E-02 0.  1.
         24    2    1    2    0    0  0.00000000000E+00  0.00000000000E+00  0.30386195682E+03  0.31485146380E+03  0.82458204276E+02 0.  0.
         66    2    3    3    0    0  0.29856792442E+02  0.25856803100E+02  0.10719244096E+03  0.11425507312E+03  0.20000030588E+01 0.  0.
        -13    1    3    3    0    0 -0.29856792442E+02 -0.25856803100E+02  0.19666951586E+03  0.20059639068E+03  0.10566000000E+00 0.  1.
         13    1    4    4    0    0  0.22756382739E+02  0.20196751806E+02  0.81280569410E+02  0.86788846441E+02  0.10566000000E+00 0. -1.
        -13    1    4    4    0    0  0.34985650415E+00  0.29262901965E+00  0.17398251982E+01  0.18017178115E+01  0.10566000000E+00 0. -1.
        -14    1    4    4    0    0  0.67505531996E+01  0.53674222745E+01  0.24172046355E+02  0.25664508866E+02  0.00000000000E+00 0.  1.
<mgrwt>
<rscale>  0 0.82458204E+02</rscale>
<asrwt>0</asrwt>
<pdfrwt beam="1">  1        2 0.47593342E-01 0.82458204E+02</pdfrwt>
<pdfrwt beam="2">  1       -1 0.84534666E-03 0.82458204E+02</pdfrwt>
<totfact> 0.23810832E+05</totfact>
</mgrwt>
</event>
<event>
 8    1  0.2433467E-020  0.7903026E+02  0.7818608E-02  0.1331826E+00
          2   -1    0    0  501    0  0.00000000000E+00  0.00000000000E+00  0.40896966879E+03  0.40896966879E+03  0.25500000000E-02 0. -1.
         -1   -1    0    0    0  501 -0.00000000000E+00 -0.00000000000E+00 -0.38179966889E+01  0.38180000155E+01  0.50400000000E-02 0.  1.
         24    2    1    2    0    0 -0.35527136788E-14  0.17763568394E-14  0.40515167210E+03  0.41278766881E+03  0.79030260774E+02 0.  0.
         66    2    3    3    0    0  0.22623961058E+02 -0.12971093147E+02  0.35759172912E+03  0.35854698103E+03  0.19999987015E+01 0.  0.
        -13    1    3    3    0    0 -0.22623961058E+02  0.12971093147E+02  0.47559942973E+02  0.54240687781E+02  0.10566000000E+00 0.  1.
         13    1    4    4    0    0  0.11701516714E+02 -0.69830170117E+01  0.17946416257E+03  0.17998079017E+03  0.10566000000E+00 0. -1.
        -13    1    4    4    0    0  0.26832225574E+01 -0.16491785121E+01  0.51942669447E+02  0.52038173934E+02  0.10566000000E+00 0.  1.
        -14    1    4    4    0    0  0.82392217862E+01 -0.43388976231E+01  0.12618489711E+03  0.12652801692E+03  0.00000000000E+00 0.  1.
<mgrwt>
<rscale>  0 0.79030261E+02</rscale>
<asrwt>0</asrwt>
<pdfrwt beam="1">  1        2 0.62918439E-01 0.79030261E+02</pdfrwt>
<pdfrwt beam="2">  1       -1 0.58738410E-03 0.79030261E+02</pdfrwt>
<totfact> 0.29393680E+05</totfact>
</mgrwt>
</event>
<event>
 8    1  0.2433467E-020  0.8007993E+02  0.7818608E-02  0.1328825E+00
         -1   -1    0    0    0  501 -0.00000000000E+00  0.00000000000E+00  0.56982715283E+01  0.56982737572E+01  0.50400000000E-02 0.  1.
          2   -1    0    0  501    0  0.00000000000E+00 -0.00000000000E+00 -0.28134823510E+03  0.28134823511E+03  0.25500000000E-02 0. -1.
         24    2    1    2    0    0 -0.35527136788E-14 -0.71054273576E-14 -0.27564996357E+03  0.28704650887E+03  0.80079934046E+02 0.  0.
         66    2    3    3    0    0 -0.22708663686E+02 -0.32873205440E+02 -0.14581528647E+03  0.15120326986E+03  0.20000014019E+01 0.  0.
        -13    1    3    3    0    0  0.22708663686E+02  0.32873205440E+02 -0.12983467711E+03  0.13584323901E+03  0.10566000000E+00 0.  1.
         13    1    4    4    0    0 -0.12577729477E+02 -0.19088471506E+02 -0.82205348918E+02  0.85324671567E+02  0.10566000000E+00 0. -1.
        -13    1    4    4    0    0 -0.69002537378E+01 -0.99747082126E+01 -0.43780692645E+02  0.45429819701E+02  0.10566000000E+00 0.  1.
        -14    1    4    4    0    0 -0.32306804714E+01 -0.38100257220E+01 -0.19829244904E+02  0.20448778588E+02  0.00000000000E+00 0.  1.
<mgrwt>
<rscale>  0 0.80079934E+02</rscale>
<asrwt>0</asrwt>
<pdfrwt beam="1">  1        2 0.43284333E-01 0.80079934E+02</pdfrwt>
<pdfrwt beam="2">  1       -1 0.87665755E-03 0.80079934E+02</pdfrwt>
<totfact> 0.24843295E+05</totfact>
</mgrwt>
</event>
<event>
 8    1  0.8279794E-020  0.8054511E+02  0.7818608E-02  0.1327512E+00
         -1   -1    0    0    0  501 -0.00000000000E+00  0.00000000000E+00  0.49600346107E+00  0.49602906668E+00  0.50400000000E-02 0.  1.
          2   -1    0    0  501    0  0.00000000000E+00 -0.00000000000E+00 -0.32698094321E+04  0.32698094321E+04  0.25500000000E-02 0. -1.
         24    2    1    2    0    0  0.00000000000E+00  0.00000000000E+00 -0.32693134286E+04  0.32703054611E+04  0.80545109499E+02 0.  0.
         66    2    3    3    0    0  0.11638637403E+01 -0.11216659818E+02 -0.32043485478E+04  0.32043690149E+04  0.20000008754E+01 0.  0.
        -13    1    3    3    0    0 -0.11638637403E+01  0.11216659818E+02 -0.64964880815E+02  0.65936446217E+02  0.10566000000E+00 0.  1.
         13    1    4    4    0    0  0.76595604777E+00 -0.79732173735E+01 -0.21266948458E+04  0.21267099325E+04  0.10566000000E+00 0. -1.
        -13    1    4    4    0    0  0.33622504202E+00 -0.36313745207E+00 -0.20509153023E+03  0.20509215454E+03  0.10566000000E+00 0.  1.
        -14    1    4    4    0    0  0.61682650497E-01 -0.28803049924E+01 -0.87256217179E+03  0.87256692786E+03  0.00000000000E+00 0.  1.
<mgrwt>
<rscale>  0 0.80545109E+02</rscale>
<asrwt>0</asrwt>
<pdfrwt beam="1">  1        2 0.50303035E+00 0.80545109E+02</pdfrwt>
<pdfrwt beam="2">  1       -1 0.76312813E-04 0.80545109E+02</pdfrwt>
<totfact> 0.11102687E+05</totfact>
</mgrwt>
</event>
<event>
 8    1  0.2433467E-020  0.8110328E+02  0.7818608E-02  0.1325949E+00
         -1   -1    0    0    0  501 -0.00000000000E+00  0.00000000000E+00  0.38178878171E+01  0.38178911437E+01  0.50400000000E-02 0.  1.
          2   -1    0    0  501    0  0.00000000000E+00 -0.00000000000E+00 -0.43071845140E+03  0.43071845141E+03  0.25500000000E-02 0. -1.
         24    2    1    2    0    0  0.00000000000E+00 -0.88817841970E-15 -0.42690056359E+03  0.43453634255E+03  0.81103278666E+02 0.  0.
         66    2    3    3    0    0  0.21422842658E+02 -0.68360042234E+01 -0.39422322134E+03  0.39486911425E+03  0.20000003151E+01 0.  0.
        -13    1    3    3    0    0 -0.21422842658E+02  0.68360042234E+01 -0.32677342247E+02  0.39667228308E+02  0.10566000000E+00 0.  1.
         13    1    4    4    0    0  0.25741277686E+01 -0.10249731846E+01 -0.43450160297E+02  0.43538538074E+02  0.10566000000E+00 0. -1.
        -13    1    4    4    0    0  0.68688341007E+01 -0.28881622945E+01 -0.13018172367E+03  0.13039484156E+03  0.10566000000E+00 0.  1.
        -14    1    4    4    0    0  0.11979880789E+02 -0.29228687444E+01 -0.22059133737E+03  0.22093573461E+03  0.00000000000E+00 0.  1.
<mgrwt>
<rscale>  0 0.81103279E+02</rscale>
<asrwt>0</asrwt>
<pdfrwt beam="1">  1        2 0.66264339E-01 0.81103279E+02</pdfrwt>
<pdfrwt beam="2">  1       -1 0.58736796E-03 0.81103279E+02</pdfrwt>
<totfact> 0.27966904E+05</totfact>
</mgrwt>
</event>
<event>
 8    1  0.2433467E-020  0.8030190E+02  0.7818608E-02  0.1328197E+00
         -1   -1    0    0    0  501 -0.00000000000E+00  0.00000000000E+00  0.84769748723E+00  0.84771246980E+00  0.50400000000E-02 0.  1.
          2   -1    0    0  501    0  0.00000000000E+00 -0.00000000000E+00 -0.19017217114E+04  0.19017217114E+04  0.25500000000E-02 0. -1.
         24    2    1    2    0    0 -0.88817841970E-15  0.17763568394E-14 -0.19008740139E+04  0.19025694239E+04  0.80301904597E+02 0.  0.
         66    2    3    3    0    0  0.47200808235E+01  0.11557143486E+02 -0.18545366592E+04  0.18545797548E+04  0.19999996140E+01 0.  0.
        -13    1    3    3    0    0 -0.47200808235E+01 -0.11557143486E+02 -0.46337354744E+02  0.47989669068E+02  0.10566000000E+00 0.  1.
         13    1    4    4    0    0  0.22804517560E+01  0.59609030566E+01 -0.10209598175E+04  0.10209797711E+04  0.10566000000E+00 0. -1.
        -13    1    4    4    0    0  0.22028747864E+01  0.51698262256E+01 -0.71289278116E+03  0.71291493767E+03  0.10566000000E+00 0.  1.
        -14    1    4    4    0    0  0.23675428115E+00  0.42641420350E+00 -0.12068406048E+03  0.12068504603E+03  0.00000000000E+00 0.  1.
<mgrwt>
<rscale>  0 0.80301905E+02</rscale>
<asrwt>0</asrwt>
<pdfrwt beam="1">  1        2 0.29256916E+00 0.80301905E+02</pdfrwt>
<pdfrwt beam="2">  1       -1 0.13041767E-03 0.80301905E+02</pdfrwt>
<totfact> 0.28717860E+05</totfact>
</mgrwt>
</event>
<event>
 8    1  0.2433467E-020  0.8074631E+02  0.7818608E-02  0.1326947E+00
         -1   -1    0    0    0  501 -0.00000000000E+00  0.00000000000E+00  0.11077754402E+03  0.11077754414E+03  0.50400000000E-02 0.  1.
          2   -1    0    0  501    0  0.00000000000E+00 -0.00000000000E+00 -0.14714098397E+02  0.14714098618E+02  0.25500000000E-02 0. -1.
         24    2    1    2    0    0 -0.71054273576E-14 -0.44408920985E-15  0.96063445627E+02  0.12549164276E+03  0.80746311470E+02 0.  0.
         66    2    3    3    0    0 -0.39774108876E+02 -0.27871262525E+01  0.38450632611E+02  0.55427420808E+02  0.20000049188E+01 0.  0.
        -13    1    3    3    0    0  0.39774108876E+02  0.27871262525E+01  0.57612813016E+02  0.70064221948E+02  0.10566000000E+00 0.  1.
         13    1    4    4    0    0 -0.71271417791E+01 -0.43954944291E+00  0.77284738595E+01  0.10522824045E+02  0.10566000000E+00 0. -1.
        -13    1    4    4    0    0 -0.13134593917E+02 -0.46663471072E+00  0.12676295583E+02  0.18260200959E+02  0.10566000000E+00 0.  1.
         14    1    4    4    0    0 -0.19512373179E+02 -0.18809420988E+01  0.18045863169E+02  0.26644395804E+02  0.00000000000E+00 0. -1.
<mgrwt>
<rscale>  0 0.80746311E+02</rscale>
<asrwt>0</asrwt>
<pdfrwt beam="1">  1        2 0.22637074E-02 0.80746311E+02</pdfrwt>
<pdfrwt beam="2">  1       -1 0.17042700E-01 0.80746311E+02</pdfrwt>
<totfact> 0.11325220E+05</totfact>
</mgrwt>
</event>
<event>
 8    1  0.2433467E-020  0.7961003E+02  0.7818608E-02  0.1330162E+00
         -1   -1    0    0    0  501 -0.00000000000E+00  0.00000000000E+00  0.11374496793E+01  0.11374608452E+01  0.50400000000E-02 0.  1.
          2   -1    0    0  501    0  0.00000000000E+00 -0.00000000000E+00 -0.13929682710E+04  0.13929682710E+04  0.25500000000E-02 0. -1.
         24    2    1    2    0    0  0.00000000000E+00 -0.35527136788E-14 -0.13918308213E+04  0.13941057319E+04  0.79610026957E+02 0.  0.
         66    2    3    3    0    0  0.13044208810E+02 -0.18372710434E+02 -0.12704392956E+04  0.12706406698E+04  0.20000010522E+01 0.  0.
        -13    1    3    3    0    0 -0.13044208810E+02  0.18372710434E+02 -0.12139152570E+03  0.12346506205E+03  0.10566000000E+00 0.  1.
         13    1    4    4    0    0  0.29666011424E+01 -0.33814458836E+01 -0.25343154220E+03  0.25347148291E+03  0.10566000000E+00 0. -1.
        -13    1    4    4    0    0  0.40100784471E+00 -0.24783560010E+00 -0.30220982014E+02  0.30224843221E+02  0.10566000000E+00 0.  1.
         14    1    4    4    0    0  0.96765998225E+01 -0.14743428950E+02 -0.98678677143E+03  0.98694434369E+03  0.00000000000E+00 0. -1.
<mgrwt>
<rscale>  0 0.79610027E+02</rscale>
<asrwt>0</asrwt>
<pdfrwt beam="1">  1        2 0.21430145E+00 0.79610027E+02</pdfrwt>
<pdfrwt beam="2">  1       -1 0.17499423E-03 0.79610027E+02</pdfrwt>
<totfact> 0.34496778E+05</totfact>
</mgrwt>
</event>
<event>
 8    1  0.2433467E-020  0.8005250E+02  0.7818608E-02  0.1328903E+00
          2   -1    0    0  501    0  0.00000000000E+00  0.00000000000E+00  0.12335030792E+04  0.12335030792E+04  0.25500000000E-02 0. -1.
         -1   -1    0    0    0  501 -0.00000000000E+00 -0.00000000000E+00 -0.12988170073E+01  0.12988267860E+01  0.50400000000E-02 0.  1.
         24    2    1    2    0    0 -0.88817841970E-15  0.00000000000E+00  0.12322042622E+04  0.12348019060E+04  0.80052503191E+02 0.  0.
         66    2    3    3    0    0 -0.79793981307E+01 -0.13194369449E+02  0.11858156843E+04  0.11859176191E+04  0.20000072718E+01 0.  0.
        -13    1    3    3    0    0  0.79793981307E+01  0.13194369449E+02  0.46388577897E+02  0.48884286872E+02  0.10566000000E+00 0.  1.
         13    1    4    4    0    0 -0.54436473629E+01 -0.86397073428E+01  0.83316671534E+03  0.83322929891E+03  0.10566000000E+00 0. -1.
        -13    1    4    4    0    0 -0.35473981373E+00 -0.11493984153E+01  0.69767970764E+02  0.69778419770E+02  0.10566000000E+00 0.  1.
         14    1    4    4    0    0 -0.21810109541E+01 -0.34052636905E+01  0.28288099816E+03  0.28290990041E+03  0.00000000000E+00 0. -1.
<mgrwt>
<rscale>  0 0.80052503E+02</rscale>
<asrwt>0</asrwt>
<pdfrwt beam="1">  1        2 0.18977042E+00 0.80052503E+02</pdfrwt>
<pdfrwt beam="2">  1       -1 0.19981800E-03 0.80052503E+02</pdfrwt>
<totfact> 0.34859277E+05</totfact>
</mgrwt>
</event>
<event>
 8    1  0.2433467E-020  0.8172516E+02  0.7818608E-02  0.1324226E+00
         -1   -1    0    0    0  501 -0.00000000000E+00  0.00000000000E+00  0.21943769437E+01  0.21943827316E+01  0.50400000000E-02 0.  1.
          2   -1    0    0  501    0  0.00000000000E+00 -0.00000000000E+00 -0.76092136513E+03  0.76092136514E+03  0.25500000000E-02 0. -1.
         24    2    1    2    0    0  0.00000000000E+00 -0.17763568394E-14 -0.75872698819E+03  0.76311574787E+03  0.81725161601E+02 0.  0.
         66    2    3    3    0    0  0.14053384459E+02 -0.15739959420E+02 -0.70607213371E+03  0.70639019100E+03  0.20000021305E+01 0.  0.
        -13    1    3    3    0    0 -0.14053384459E+02  0.15739959420E+02 -0.52654854480E+02  0.56725556865E+02  0.10566000000E+00 0.  1.
         13    1    4    4    0    0  0.96060741624E+00 -0.68668451862E+00 -0.37198881799E+02  0.37217768248E+02  0.10566000000E+00 0. -1.
        -13    1    4    4    0    0  0.10723476227E+02 -0.11792751020E+02 -0.54957976080E+03  0.54981086436E+03  0.10566000000E+00 0.  1.
         14    1    4    4    0    0  0.23693008159E+01 -0.32605238809E+01 -0.11929349111E+03  0.11936155840E+03  0.00000000000E+00 0. -1.
<mgrwt>
<rscale>  0 0.81725162E+02</rscale>
<asrwt>0</asrwt>
<pdfrwt beam="1">  1        2 0.11706461E+00 0.81725162E+02</pdfrwt>
<pdfrwt beam="2">  1       -1 0.33759751E-03 0.81725162E+02</pdfrwt>
<totfact> 0.32212140E+05</totfact>
</mgrwt>
</event>
<event>
 8    1  0.2433467E-020  0.8158557E+02  0.7818608E-02  0.1324611E+00
          2   -1    0    0  501    0  0.00000000000E+00  0.00000000000E+00  0.22082498755E+03  0.22082498757E+03  0.25500000000E-02 0. -1.
         -1   -1    0    0    0  501 -0.00000000000E+00 -0.00000000000E+00 -0.75356099225E+01  0.75356116079E+01  0.50400000000E-02 0.  1.
         24    2    1    2    0    0  0.17763568394E-14  0.00000000000E+00  0.21328937763E+03  0.22836059918E+03  0.81585566407E+02 0.  0.
         66    2    3    3    0    0 -0.12181591541E+02 -0.35832194197E+02  0.14913114258E+03  0.15387148855E+03  0.19999967536E+01 0.  0.
        -13    1    3    3    0    0  0.12181591541E+02  0.35832194197E+02  0.64158235051E+02  0.74489110629E+02  0.10566000000E+00 0.  1.
         13    1    4    4    0    0 -0.23380683819E+01 -0.87454858029E+01  0.37627468317E+02  0.38701261241E+02  0.10566000000E+00 0. -1.
        -13    1    4    4    0    0 -0.25994833479E+01 -0.76064483661E+01  0.30024210623E+02  0.31081823595E+02  0.10566000000E+00 0.  1.
         14    1    4    4    0    0 -0.72440398117E+01 -0.19480260028E+02  0.81479463641E+02  0.84088403711E+02  0.00000000000E+00 0. -1.
<mgrwt>
<rscale>  0 0.81585566E+02</rscale>
<asrwt>0</asrwt>
<pdfrwt beam="1">  1        2 0.33973068E-01 0.81585566E+02</pdfrwt>
<pdfrwt beam="2">  1       -1 0.11593250E-02 0.81585566E+02</pdfrwt>
<totfact> 0.21685585E+05</totfact>
</mgrwt>
</event>
<event>
 8    1  0.2433467E-020  0.8222915E+02  0.7818608E-02  0.1322842E+00
          2   -1    0    0  501    0  0.00000000000E+00  0.00000000000E+00  0.88069928974E+01  0.88069932665E+01  0.25500000000E-02 0. -1.
         -1   -1    0    0    0  501 -0.00000000000E+00 -0.00000000000E+00 -0.19193931919E+03  0.19193931926E+03  0.50400000000E-02 0.  1.
         24    2    1    2    0    0  0.00000000000E+00  0.00000000000E+00 -0.18313232630E+03  0.20074631253E+03  0.82229149687E+02 0.  0.
         66    2    3    3    0    0 -0.70572703902E+01 -0.39949401622E+02 -0.10756238080E+03  0.11497576058E+03  0.20000004038E+01 0.  0.
        -13    1    3    3    0    0  0.70572703902E+01  0.39949401622E+02 -0.75569945492E+02  0.85770551945E+02  0.10566000000E+00 0.  1.
         13    1    4    4    0    0 -0.53780182596E+01 -0.29704567966E+02 -0.81305845011E+02  0.86729095668E+02  0.10566000000E+00 0. -1.
        -13    1    4    4    0    0 -0.26713360570E+00 -0.38381830253E+01 -0.10153896870E+02  0.10858903949E+02  0.10566000000E+00 0.  1.
         14    1    4    4    0    0 -0.14121185249E+01 -0.64066506302E+01 -0.16102638923E+02  0.17387760963E+02  0.00000000000E+00 0. -1.
<mgrwt>
<rscale>  0 0.82229150E+02</rscale>
<asrwt>0</asrwt>
<pdfrwt beam="1">  1        2 0.13549222E-02 0.82229150E+02</pdfrwt>
<pdfrwt beam="2">  1       -1 0.29529123E-01 0.82229150E+02</pdfrwt>
<totfact> 0.94025264E+04</totfact>
</mgrwt>
</event>
<event>
 8    1  0.2433467E-020  0.7982705E+02  0.7818608E-02  0.1329543E+00
         -1   -1    0    0    0  501 -0.00000000000E+00  0.00000000000E+00  0.15608554320E+02  0.15608555134E+02  0.50400000000E-02 0.  1.
          2   -1    0    0  501    0  0.00000000000E+00 -0.00000000000E+00 -0.10206514786E+03  0.10206514789E+03  0.25500000000E-02 0. -1.
         24    2    1    2    0    0 -0.55511151231E-16  0.00000000000E+00 -0.86456593540E+02  0.11767370303E+03  0.79827049408E+02 0.  0.
         66    2    3    3    0    0  0.36778478483E+00  0.37757900800E+02 -0.62207260171E+02  0.72797922572E+02  0.19999935757E+01 0.  0.
        -13    1    3    3    0    0 -0.36778478483E+00 -0.37757900800E+02 -0.24249333369E+02  0.44875780454E+02  0.10566000000E+00 0.  1.
         13    1    4    4    0    0  0.19351462571E+00  0.19173157937E+02 -0.32554280837E+02  0.37781474270E+02  0.10566000000E+00 0. -1.
        -13    1    4    4    0    0 -0.88340456263E-01  0.40242655263E+00 -0.49213701773E+00  0.65047217180E+00  0.10566000000E+00 0.  1.
         14    1    4    4    0    0  0.26261061538E+00  0.18182316311E+02 -0.29160842316E+02  0.34365976130E+02  0.00000000000E+00 0. -1.
<mgrwt>
<rscale>  0 0.79827049E+02</rscale>
<asrwt>0</asrwt>
<pdfrwt beam="1">  1        2 0.15702330E-01 0.79827049E+02</pdfrwt>
<pdfrwt beam="2">  1       -1 0.24013162E-02 0.79827049E+02</pdfrwt>
<totfact> 0.17931541E+05</totfact>
</mgrwt>
</event>
<event>
 8    1  0.2433467E-020  0.7718967E+02  0.7818608E-02  0.1337221E+00
          2   -1    0    0  501    0  0.00000000000E+00  0.00000000000E+00  0.41645842166E+03  0.41645842167E+03  0.25500000000E-02 0. -1.
         -1   -1    0    0    0  501 -0.00000000000E+00 -0.00000000000E+00 -0.35767326510E+01  0.35767362019E+01  0.50400000000E-02 0.  1.
         24    2    1    2    0    0  0.00000000000E+00  0.00000000000E+00  0.41288168901E+03  0.42003515787E+03  0.77189667235E+02 0.  0.
         66    2    3    3    0    0 -0.20888134321E+02  0.30275112353E+02  0.26972496543E+03  0.27222867881E+03  0.20000011788E+01 0.  0.
        -13    1    3    3    0    0  0.20888134321E+02 -0.30275112353E+02  0.14315672358E+03  0.14780647906E+03  0.10566000000E+00 0.  1.
         13    1    4    4    0    0 -0.29322573824E+01  0.50154878148E+01  0.44985406068E+02  0.45359135514E+02  0.10566000000E+00 0.  1.
        -13    1    4    4    0    0 -0.50561080425E+01  0.62195034646E+01  0.57674008838E+02  0.58228420135E+02  0.10566000000E+00 0. -1.
        -14    1    4    4    0    0 -0.12899768896E+02  0.19040121073E+02  0.16706555053E+03  0.16864112316E+03  0.00000000000E+00 0.  1.
<mgrwt>
<rscale>  0 0.77189667E+02</rscale>
<asrwt>0</asrwt>
<pdfrwt beam="1">  1        2 0.64070501E-01 0.77189667E+02</pdfrwt>
<pdfrwt beam="2">  1       -1 0.55026706E-03 0.77189667E+02</pdfrwt>
<totfact> 0.31451359E+05</totfact>
</mgrwt>
</event>
<event>
 8    1  0.2433467E-020  0.8052858E+02  0.7818608E-02  0.1327558E+00
          2   -1    0    0  501    0  0.00000000000E+00  0.00000000000E+00  0.32124159814E+03  0.32124159815E+03  0.25500000000E-02 0. -1.
         -1   -1    0    0    0  501 -0.00000000000E+00 -0.00000000000E+00 -0.50467082311E+01  0.50467107478E+01  0.50400000000E-02 0.  1.
         24    2    1    2    0    0  0.00000000000E+00  0.00000000000E+00  0.31619488991E+03  0.32628830890E+03  0.80528579517E+02 0.  0.
         66    2    3    3    0    0  0.20759424757E+02 -0.32343064891E+02  0.20650852334E+03  0.21006379454E+03  0.20000003545E+01 0.  0.
        -13    1    3    3    0    0 -0.20759424757E+02  0.32343064891E+02  0.10968636657E+03  0.11622451436E+03  0.10566000000E+00 0.  1.
         13    1    4    4    0    0  0.64747465599E+01 -0.91913951856E+01  0.62220199793E+02  0.63227909303E+02  0.10566000000E+00 0. -1.
        -13    1    4    4    0    0  0.89886462133E+01 -0.15066350048E+02  0.95927813339E+02  0.97518958159E+02  0.10566000000E+00 0.  1.
        -14    1    4    4    0    0  0.52960319843E+01 -0.80853196569E+01  0.48360510208E+02  0.49316927077E+02  0.00000000000E+00 0.  1.
<mgrwt>
<rscale>  0 0.80528580E+02</rscale>
<asrwt>0</asrwt>
<pdfrwt beam="1">  1        2 0.49421801E-01 0.80528580E+02</pdfrwt>
<pdfrwt beam="2">  1       -1 0.77641658E-03 0.80528580E+02</pdfrwt>
<totfact> 0.25685651E+05</totfact>
</mgrwt>
</event>
<event>
 8    1  0.2433467E-020  0.8000295E+02  0.7818608E-02  0.1329043E+00
         -1   -1    0    0    0  501 -0.00000000000E+00  0.00000000000E+00  0.15670769928E+01  0.15670850975E+01  0.50400000000E-02 0.  1.
          2   -1    0    0  501    0  0.00000000000E+00 -0.00000000000E+00 -0.10210819359E+04  0.10210819359E+04  0.25500000000E-02 0. -1.
         24    2    1    2    0    0  0.88817841970E-15  0.00000000000E+00 -0.10195148589E+04  0.10226490210E+04  0.80002953827E+02 0.  0.
         66    2    3    3    0    0 -0.71195700985E+01 -0.83353313959E+01 -0.10014919604E+04  0.10015539490E+04  0.20000005359E+01 0.  0.
        -13    1    3    3    0    0  0.71195700985E+01  0.83353313959E+01 -0.18022898536E+02  0.21095072020E+02  0.10566000000E+00 0.  1.
         13    1    4    4    0    0 -0.80117332361E+00 -0.63383693155E+00 -0.97883275202E+02  0.97888663063E+02  0.10566000000E+00 0. -1.
        -13    1    4    4    0    0 -0.55182241120E+01 -0.62818788101E+01 -0.80120155967E+03  0.80124519542E+03  0.10566000000E+00 0.  1.
        -14    1    4    4    0    0 -0.80017266291E+00 -0.14196156543E+01 -0.10240712548E+03  0.10242009048E+03  0.00000000000E+00 0.  1.
<mgrwt>
<rscale>  0 0.80002954E+02</rscale>
<asrwt>0</asrwt>
<pdfrwt beam="1">  1        2 0.15708900E+00 0.80002954E+02</pdfrwt>
<pdfrwt beam="2">  1       -1 0.24109021E-03 0.80002954E+02</pdfrwt>
<totfact> 0.35253095E+05</totfact>
</mgrwt>
</event>
<event>
 8    1  0.2433467E-020  0.7648565E+02  0.7818608E-02  0.1339331E+00
         -1   -1    0    0    0  501 -0.00000000000E+00  0.00000000000E+00  0.40760556412E+01  0.40760587572E+01  0.50400000000E-02 0.  1.
          2   -1    0    0  501    0  0.00000000000E+00 -0.00000000000E+00 -0.35880599332E+03  0.35880599332E+03  0.25500000000E-02 0. -1.
         24    2    1    2    0    0  0.35527136788E-14  0.00000000000E+00 -0.35472993767E+03  0.36288205208E+03  0.76485652515E+02 0.  0.
         66    2    3    3    0    0  0.28843744562E+02 -0.19937733188E+02 -0.24960055667E+03  0.25205934358E+03  0.19999978857E+01 0.  0.
        -13    1    3    3    0    0 -0.28843744562E+02  0.19937733188E+02 -0.10512938100E+03  0.11082270850E+03  0.10566000000E+00 0.  1.
         13    1    4    4    0    0  0.26848581201E+02 -0.19057975437E+02 -0.23540253502E+03  0.23769395743E+03  0.10566000000E+00 0. -1.
        -13    1    4    4    0    0  0.91718476189E+00 -0.39259244663E+00 -0.64114275734E+01  0.64894471476E+01  0.10566000000E+00 0.  1.
         14    1    4    4    0    0  0.10779785989E+01 -0.48716530505E+00 -0.77865940768E+01  0.78759390050E+01  0.00000000000E+00 0. -1.
<mgrwt>
<rscale>  0 0.76485653E+02</rscale>
<asrwt>0</asrwt>
<pdfrwt beam="1">  1        2 0.55200897E-01 0.76485653E+02</pdfrwt>
<pdfrwt beam="2">  1       -1 0.62708601E-03 0.76485653E+02</pdfrwt>
<totfact> 0.30571389E+05</totfact>
</mgrwt>
</event>
<event>
 8    1  0.2433467E-020  0.8272664E+02  0.7818608E-02  0.1321487E+00
         -1   -1    0    0    0  501 -0.00000000000E+00  0.00000000000E+00  0.43326945720E+01  0.43326975034E+01  0.50400000000E-02 0.  1.
          2   -1    0    0  501    0  0.00000000000E+00 -0.00000000000E+00 -0.39488677974E+03  0.39488677975E+03  0.25500000000E-02 0. -1.
         24    2    1    2    0    0  0.00000000000E+00  0.00000000000E+00 -0.39055408517E+03  0.39921947725E+03  0.82726643686E+02 0.  0.
         66    2    3    3    0    0 -0.29840693684E+02 -0.10822484376E+02 -0.32318953457E+03  0.32475077907E+03  0.20000207638E+01 0.  0.
        -13    1    3    3    0    0  0.29840693684E+02  0.10822484376E+02 -0.67364550598E+02  0.74468698182E+02  0.10566000000E+00 0.  1.
         13    1    4    4    0    0 -0.20586985502E+02 -0.81488665067E+01 -0.22576357282E+03  0.22684671030E+03  0.10566000000E+00 0. -1.
        -13    1    4    4    0    0 -0.45801941012E+00 -0.28159454032E+00 -0.52599671512E+01  0.52884303656E+01  0.10566000000E+00 0.  1.
         14    1    4    4    0    0 -0.87956887724E+01 -0.23920233288E+01 -0.92165994593E+02  0.92615638399E+02  0.00000000000E+00 0. -1.
<mgrwt>
<rscale>  0 0.82726644E+02</rscale>
<asrwt>0</asrwt>
<pdfrwt beam="1">  1        2 0.60751784E-01 0.82726644E+02</pdfrwt>
<pdfrwt beam="2">  1       -1 0.66656894E-03 0.82726644E+02</pdfrwt>
<totfact> 0.25764835E+05</totfact>
</mgrwt>
</event>
<event>
 8    1  0.2433467E-020  0.8115065E+02  0.7818608E-02  0.1325817E+00
         -1   -1    0    0    0  501 -0.00000000000E+00  0.00000000000E+00  0.82520614366E+01  0.82520629758E+01  0.50400000000E-02 0.  1.
          2   -1    0    0  501    0  0.00000000000E+00 -0.00000000000E+00 -0.19950855572E+03  0.19950855574E+03  0.25500000000E-02 0. -1.
         24    2    1    2    0    0  0.00000000000E+00  0.00000000000E+00 -0.19125649429E+03  0.20776061871E+03  0.81150650534E+02 0.  0.
         66    2    3    3    0    0  0.13749159620E+02 -0.10015583580E+02 -0.18992740942E+03  0.19069811786E+03  0.20000007868E+01 0.  0.
        -13    1    3    3    0    0 -0.13749159620E+02  0.10015583580E+02 -0.13290848670E+01  0.17062500852E+02  0.10566000000E+00 0.  1.
         13    1    4    4    0    0  0.10108231712E+02 -0.83009226581E+01 -0.14687016668E+03  0.14745147910E+03  0.10566000000E+00 0. -1.
        -13    1    4    4    0    0  0.36243978195E+01 -0.17259898329E+01 -0.42964046579E+02  0.43151312413E+02  0.10566000000E+00 0.  1.
         14    1    4    4    0    0  0.16530088438E-01  0.11328911420E-01 -0.93196164208E-01  0.95326350401E-01  0.00000000000E+00 0. -1.
<mgrwt>
<rscale>  0 0.81150651E+02</rscale>
<asrwt>0</asrwt>
<pdfrwt beam="1">  1        2 0.30693620E-01 0.81150651E+02</pdfrwt>
<pdfrwt beam="2">  1       -1 0.12695482E-02 0.81150651E+02</pdfrwt>
<totfact> 0.21224051E+05</totfact>
</mgrwt>
</event>
<event>
 8    1  0.2600593E-020  0.7772891E+02  0.7818608E-02  0.1335623E+00
         -1   -1    0    0    0  501 -0.00000000000E+00  0.00000000000E+00  0.12226955577E+01  0.12227059452E+01  0.50400000000E-02 0.  1.
          2   -1    0    0  501    0  0.00000000000E+00 -0.00000000000E+00 -0.12353355699E+04  0.12353355699E+04  0.25500000000E-02 0. -1.
         24    2    1    2    0    0  0.35527136788E-14  0.17763568394E-14 -0.12341128743E+04  0.12365582758E+04  0.77728906785E+02 0.  0.
         66    2    3    3    0    0  0.16541453226E+02  0.10673458866E+02 -0.11500809853E+04  0.11502511966E+04  0.19999963304E+01 0.  0.
        -13    1    3    3    0    0 -0.16541453226E+02 -0.10673458866E+02 -0.84031888987E+02  0.86307079256E+02  0.10566000000E+00 0.  1.
         13    1    4    4    0    0  0.96279826613E+01  0.60232254880E+01 -0.64798111174E+03  0.64808063513E+03  0.10566000000E+00 0. -1.
        -13    1    4    4    0    0  0.47336808443E+01  0.34140595684E+01 -0.38149524666E+03  0.38153990345E+03  0.10566000000E+00 0.  1.
        -14    1    4    4    0    0  0.21797897200E+01  0.12361738100E+01 -0.12060462694E+03  0.12063065800E+03  0.00000000000E+00 0.  1.
<mgrwt>
<rscale>  0 0.77728907E+02</rscale>
<asrwt>0</asrwt>
<pdfrwt beam="1">  1        2 0.19005063E+00 0.77728907E+02</pdfrwt>
<pdfrwt beam="2">  1       -1 0.18810880E-03 0.77728907E+02</pdfrwt>
<totfact> 0.37618027E+05</totfact>
</mgrwt>
</event>
<event>
 8    1  0.2433467E-020  0.7958196E+02  0.7818608E-02  0.1330242E+00
         -1   -1    0    0    0  501 -0.00000000000E+00  0.00000000000E+00  0.47462969515E+01  0.47462996274E+01  0.50400000000E-02 0.  1.
          2   -1    0    0  501    0  0.00000000000E+00 -0.00000000000E+00 -0.33359092559E+03  0.33359092560E+03  0.25500000000E-02 0. -1.
         24    2    1    2    0    0  0.00000000000E+00 -0.71054273576E-14 -0.32884462864E+03  0.33833722522E+03  0.79581958948E+02 0.  0.
         66    2    3    3    0    0  0.22595175081E+01  0.39490518740E+02 -0.14714661468E+03  0.15238350536E+03  0.20000015034E+01 0.  0.
        -13    1    3    3    0    0 -0.22595175081E+01 -0.39490518740E+02 -0.18169801396E+03  0.18595371986E+03  0.10566000000E+00 0.  1.
         13    1    4    4    0    0 -0.25868199984E+00  0.26058083428E+01 -0.91782031352E+01  0.95450369472E+01  0.10566000000E+00 0. -1.
        -13    1    4    4    0    0  0.89949190152E+00  0.12015447182E+02 -0.43507083522E+02  0.45144850618E+02  0.10566000000E+00 0.  1.
         14    1    4    4    0    0  0.16187076065E+01  0.24869263216E+02 -0.94461328018E+02  0.97693617797E+02  0.00000000000E+00 0. -1.
<mgrwt>
<rscale>  0 0.79581959E+02</rscale>
<asrwt>0</asrwt>
<pdfrwt beam="1">  1        2 0.51321663E-01 0.79581959E+02</pdfrwt>
<pdfrwt beam="2">  1       -1 0.73020000E-03 0.79581959E+02</pdfrwt>
<totfact> 0.26855752E+05</totfact>
</mgrwt>
</event>
<event>
 8    1  0.2433467E-020  0.8135327E+02  0.7818608E-02  0.1325254E+00
          2   -1    0    0  501    0  0.00000000000E+00  0.00000000000E+00  0.22073847542E+03  0.22073847543E+03  0.25500000000E-02 0. -1.
         -1   -1    0    0    0  501 -0.00000000000E+00 -0.00000000000E+00 -0.74956959882E+01  0.74956976826E+01  0.50400000000E-02 0.  1.
         24    2    1    2    0    0  0.00000000000E+00  0.00000000000E+00  0.21324277943E+03  0.22823417311E+03  0.81353271592E+02 0.  0.
         66    2    3    3    0    0 -0.39619347829E+02  0.83308518542E+01  0.11698898639E+03  0.12381243374E+03  0.19999994213E+01 0.  0.
        -13    1    3    3    0    0  0.39619347829E+02 -0.83308518542E+01  0.96253793039E+02  0.10442173937E+03  0.10566000000E+00 0.  1.
         13    1    4    4    0    0 -0.16021135922E+02  0.31301594649E+01  0.48606985130E+02  0.51274992560E+02  0.10566000000E+00 0. -1.
        -13    1    4    4    0    0 -0.16779958762E+02  0.39668230007E+01  0.50297274751E+02  0.53170759936E+02  0.10566000000E+00 0.  1.
        -14    1    4    4    0    0 -0.68182531450E+01  0.12338693887E+01  0.18084726510E+02  0.19366681248E+02  0.00000000000E+00 0.  1.
<mgrwt>
<rscale>  0 0.81353272E+02</rscale>
<asrwt>0</asrwt>
<pdfrwt beam="1">  1        2 0.33959769E-01 0.81353272E+02</pdfrwt>
<pdfrwt beam="2">  1       -1 0.11531840E-02 0.81353272E+02</pdfrwt>
<totfact> 0.21846358E+05</totfact>
</mgrwt>
</event>
<event>
 8    1  0.2433467E-020  0.8080871E+02  0.7818608E-02  0.1326772E+00
          2   -1    0    0  501    0  0.00000000000E+00  0.00000000000E+00  0.34304904234E+03  0.34304904235E+03  0.25500000000E-02 0. -1.
         -1   -1    0    0    0  501 -0.00000000000E+00 -0.00000000000E+00 -0.47588282835E+01  0.47588309524E+01  0.50400000000E-02 0.  1.
         24    2    1    2    0    0  0.00000000000E+00 -0.88817841970E-15  0.33829021406E+03  0.34780787330E+03  0.80808711191E+02 0.  0.
         66    2    3    3    0    0  0.39763816322E+02 -0.66176732485E+01  0.15910657121E+03  0.16414583663E+03  0.19999980160E+01 0.  0.
        -13    1    3    3    0    0 -0.39763816322E+02  0.66176732485E+01  0.17918364284E+03  0.18366203667E+03  0.10566000000E+00 0.  1.
         13    1    4    4    0    0  0.18058763964E+02 -0.24123499895E+01  0.72464710395E+02  0.74720036168E+02  0.10566000000E+00 0. -1.
        -13    1    4    4    0    0  0.14342216339E+02 -0.23815443250E+01  0.55341886251E+02  0.57219808290E+02  0.10566000000E+00 0.  1.
        -14    1    4    4    0    0  0.73628360195E+01 -0.18237789341E+01  0.31299974565E+02  0.32205992169E+02  0.00000000000E+00 0.  1.
<mgrwt>
<rscale>  0 0.80808711E+02</rscale>
<asrwt>0</asrwt>
<pdfrwt beam="1">  1        2 0.52776761E-01 0.80808711E+02</pdfrwt>
<pdfrwt beam="2">  1       -1 0.73212784E-03 0.80808711E+02</pdfrwt>
<totfact> 0.26061479E+05</totfact>
</mgrwt>
</event>
<event>
 8    1  0.2433467E-020  0.7625408E+02  0.7818608E-02  0.1340031E+00
         -1   -1    0    0    0  501 -0.00000000000E+00  0.00000000000E+00  0.12125626526E+03  0.12125626536E+03  0.50400000000E-02 0.  1.
          2   -1    0    0  501    0  0.00000000000E+00 -0.00000000000E+00 -0.11988421563E+02  0.11988421834E+02  0.25500000000E-02 0. -1.
         24    2    1    2    0    0  0.00000000000E+00  0.00000000000E+00  0.10926784370E+03  0.13324468720E+03  0.76254081860E+02 0.  0.
         66    2    3    3    0    0  0.31402575059E+02 -0.20991820834E+02  0.45954088399E+02  0.59519379222E+02  0.20000000326E+01 0.  0.
        -13    1    3    3    0    0 -0.31402575059E+02  0.20991820834E+02  0.63313755298E+02  0.73725307977E+02  0.10566000000E+00 0.  1.
         13    1    4    4    0    0  0.67757152983E+01 -0.41182540572E+01  0.87242527682E+01  0.11789575255E+02  0.10566000000E+00 0.  1.
        -13    1    4    4    0    0  0.12204919190E+02 -0.85580810970E+01  0.19279860656E+02  0.24370576428E+02  0.10566000000E+00 0. -1.
         14    1    4    4    0    0  0.12421940571E+02 -0.83154856794E+01  0.17949974975E+02  0.23359227539E+02  0.00000000000E+00 0. -1.
<mgrwt>
<rscale>  0 0.76254082E+02</rscale>
<asrwt>0</asrwt>
<pdfrwt beam="1">  1        2 0.18443726E-02 0.76254082E+02</pdfrwt>
<pdfrwt beam="2">  1       -1 0.18654809E-01 0.76254082E+02</pdfrwt>
<totfact> 0.12809968E+05</totfact>
</mgrwt>
</event>
<event>
 8    1  0.2433467E-020  0.8010946E+02  0.7818608E-02  0.1328741E+00
          2   -1    0    0  501    0  0.00000000000E+00  0.00000000000E+00  0.69092075583E+02  0.69092075630E+02  0.25500000000E-02 0. -1.
         -1   -1    0    0    0  501 -0.00000000000E+00 -0.00000000000E+00 -0.23220914539E+02  0.23220915086E+02  0.50400000000E-02 0.  1.
         24    2    1    2    0    0 -0.88817841970E-15 -0.35527136788E-14  0.45871161043E+02  0.92312990716E+02  0.80109455368E+02 0.  0.
         66    2    3    3    0    0 -0.64618225814E+01 -0.26734502676E+02  0.56464536211E+02  0.62838942030E+02  0.20000003836E+01 0.  0.
        -13    1    3    3    0    0  0.64618225814E+01  0.26734502676E+02 -0.10593375168E+02  0.29474048685E+02  0.10566000000E+00 0.  1.
         13    1    4    4    0    0 -0.25603773053E+01 -0.12009794529E+02  0.25077269308E+02  0.27922594732E+02  0.10566000000E+00 0. -1.
        -13    1    4    4    0    0 -0.26248822261E+01 -0.81492055690E+01  0.16408007075E+02  0.18507658369E+02  0.10566000000E+00 0.  1.
        -14    1    4    4    0    0 -0.12765630500E+01 -0.65755025783E+01  0.14979259828E+02  0.16408688930E+02  0.00000000000E+00 0.  1.
<mgrwt>
<rscale>  0 0.80109455E+02</rscale>
<asrwt>0</asrwt>
<pdfrwt beam="1">  1        2 0.10629550E-01 0.80109455E+02</pdfrwt>
<pdfrwt beam="2">  1       -1 0.35724484E-02 0.80109455E+02</pdfrwt>
<totfact> 0.16035745E+05</totfact>
</mgrwt>
</event>
<event>
 8    1  0.2433467E-020  0.7997202E+02  0.7818608E-02  0.1329131E+00
          2   -1    0    0  501    0  0.00000000000E+00  0.00000000000E+00  0.51023089736E+03  0.51023089737E+03  0.25500000000E-02 0. -1.
         -1   -1    0    0    0  501 -0.00000000000E+00 -0.00000000000E+00 -0.31336398792E+01  0.31336439322E+01  0.50400000000E-02 0.  1.
         24    2    1    2    0    0  0.00000000000E+00 -0.17763568394E-14  0.50709725748E+03  0.51336454130E+03  0.79972018345E+02 0.  0.
         66    2    3    3    0    0 -0.10668664393E+02  0.14930813887E+02  0.48158080939E+03  0.48193446191E+03  0.19999999144E+01 0.  0.
        -13    1    3    3    0    0  0.10668664393E+02 -0.14930813887E+02  0.25516448095E+02  0.31430079394E+02  0.10566000000E+00 0.  1.
         13    1    4    4    0    0 -0.14626801558E+01  0.17066424606E+01  0.63126483272E+02  0.63166574357E+02  0.10566000000E+00 0.  1.
        -13    1    4    4    0    0 -0.15628776016E+01  0.34198701378E+01  0.91289168089E+02  0.91366632162E+02  0.10566000000E+00 0.  1.
         14    1    4    4    0    0 -0.76431066358E+01  0.98043012890E+01  0.32716515803E+03  0.32740125539E+03  0.00000000000E+00 0. -1.
<mgrwt>
<rscale>  0 0.79972018E+02</rscale>
<asrwt>0</asrwt>
<pdfrwt beam="1">  1        2 0.78497135E-01 0.79972018E+02</pdfrwt>
<pdfrwt beam="2">  1       -1 0.48209830E-03 0.79972018E+02</pdfrwt>
<totfact> 0.30675312E+05</totfact>
</mgrwt>
</event>
<event>
 8    1  0.2433467E-020  0.7986452E+02  0.7818608E-02  0.1329436E+00
         -1   -1    0    0    0  501 -0.00000000000E+00  0.00000000000E+00  0.83004330302E+02  0.83004330455E+02  0.50400000000E-02 0.  1.
          2   -1    0    0  501    0  0.00000000000E+00 -0.00000000000E+00 -0.19210870927E+02  0.19210871096E+02  0.25500000000E-02 0. -1.
         24    2    1    2    0    0  0.00000000000E+00  0.00000000000E+00  0.63793459375E+02  0.10221520155E+03  0.79864522594E+02 0.  0.
         66    2    3    3    0    0  0.15382926547E+02 -0.36726557087E+02  0.28504923122E+02  0.49010254606E+02  0.19999974376E+01 0.  0.
        -13    1    3    3    0    0 -0.15382926547E+02  0.36726557087E+02  0.35288536253E+02  0.53204946946E+02  0.10566000000E+00 0.  1.
         13    1    4    4    0    0  0.10345755208E+02 -0.24002933623E+02  0.18785010694E+02  0.32187936624E+02  0.10566000000E+00 0. -1.
        -13    1    4    4    0    0  0.86703592535E+00 -0.31352212892E+01  0.26954202079E+01  0.42258511522E+01  0.10566000000E+00 0.  1.
        -14    1    4    4    0    0  0.41701354136E+01 -0.95884021744E+01  0.70244922208E+01  0.12596466829E+02  0.00000000000E+00 0.  1.
<mgrwt>
<rscale>  0 0.79864523E+02</rscale>
<asrwt>0</asrwt>
<pdfrwt beam="1">  1        2 0.29555186E-02 0.79864523E+02</pdfrwt>
<pdfrwt beam="2">  1       -1 0.12769897E-01 0.79864523E+02</pdfrwt>
<totfact> 0.12374885E+05</totfact>
</mgrwt>
</event>
<event>
 8    1  0.2433467E-020  0.8041997E+02  0.7818608E-02  0.1327864E+00
         -1   -1    0    0    0  501 -0.00000000000E+00  0.00000000000E+00  0.22701136873E+01  0.22701192821E+01  0.50400000000E-02 0.  1.
          2   -1    0    0  501    0  0.00000000000E+00 -0.00000000000E+00 -0.71222904047E+03  0.71222904048E+03  0.25500000000E-02 0. -1.
         24    2    1    2    0    0  0.00000000000E+00  0.00000000000E+00 -0.70995892678E+03  0.71449915976E+03  0.80419969998E+02 0.  0.
         66    2    3    3    0    0 -0.12932438371E+02  0.75566247497E+01 -0.68649833038E+03  0.68666462568E+03  0.20000002307E+01 0.  0.
        -13    1    3    3    0    0  0.12932438371E+02 -0.75566247497E+01 -0.23460596400E+02  0.27834534078E+02  0.10566000000E+00 0.  1.
         13    1    4    4    0    0 -0.16830291453E+01  0.54369272918E+00 -0.86735313590E+02  0.86753409020E+02  0.10566000000E+00 0. -1.
        -13    1    4    4    0    0 -0.93977542079E+01  0.64402911968E+01 -0.51651345956E+03  0.51663910054E+03  0.10566000000E+00 0.  1.
        -14    1    4    4    0    0 -0.18516550182E+01  0.57264082370E+00 -0.83249557229E+02  0.83272116117E+02  0.00000000000E+00 0.  1.
<mgrwt>
<rscale>  0 0.80419970E+02</rscale>
<asrwt>0</asrwt>
<pdfrwt beam="1">  1        2 0.10957352E+00 0.80419970E+02</pdfrwt>
<pdfrwt beam="2">  1       -1 0.34924926E-03 0.80419970E+02</pdfrwt>
<totfact> 0.33128584E+05</totfact>
</mgrwt>
</event>
<event>
 8    1  0.2433467E-020  0.7967637E+02  0.7818608E-02  0.1329972E+00
          2   -1    0    0  501    0  0.00000000000E+00  0.00000000000E+00  0.32298016670E+03  0.32298016671E+03  0.25500000000E-02 0. -1.
         -1   -1    0    0    0  501 -0.00000000000E+00 -0.00000000000E+00 -0.49138633524E+01  0.49138659371E+01  0.50400000000E-02 0.  1.
         24    2    1    2    0    0  0.35527136788E-14  0.00000000000E+00  0.31806630335E+03  0.32789403265E+03  0.79676366134E+02 0.  0.
         66    2    3    3    0    0 -0.26917500512E+02  0.29334687649E+02  0.15908394760E+03  0.16400237229E+03  0.19999994330E+01 0.  0.
        -13    1    3    3    0    0  0.26917500512E+02 -0.29334687649E+02  0.15898235574E+03  0.16389166036E+03  0.10566000000E+00 0.  1.
         13    1    4    4    0    0 -0.46041113400E+01  0.52620982541E+01  0.27649324496E+02  0.28519884790E+02  0.10566000000E+00 0. -1.
        -13    1    4    4    0    0 -0.60432584550E+01  0.60054956453E+01  0.36970739029E+02  0.37939868992E+02  0.10566000000E+00 0.  1.
        -14    1    4    4    0    0 -0.16270130717E+02  0.18067093749E+02  0.94463884077E+02  0.97542618506E+02  0.00000000000E+00 0.  1.
<mgrwt>
<rscale>  0 0.79676366E+02</rscale>
<asrwt>0</asrwt>
<pdfrwt beam="1">  1        2 0.49689243E-01 0.79676366E+02</pdfrwt>
<pdfrwt beam="2">  1       -1 0.75597938E-03 0.79676366E+02</pdfrwt>
<totfact> 0.26463036E+05</totfact>
</mgrwt>
</event>
<event>
 8    1  0.2433467E-020  0.8027992E+02  0.7818608E-02  0.1328259E+00
         -1   -1    0    0    0  501 -0.00000000000E+00  0.00000000000E+00  0.12334832659E+02  0.12334833689E+02  0.50400000000E-02 0.  1.
          2   -1    0    0  501    0  0.00000000000E+00 -0.00000000000E+00 -0.13062326992E+03  0.13062326994E+03  0.25500000000E-02 0. -1.
         24    2    1    2    0    0  0.00000000000E+00  0.00000000000E+00 -0.11828843726E+03  0.14295810363E+03  0.80279916573E+02 0.  0.
         66    2    3    3    0    0 -0.38573844616E+02  0.43796291761E+01 -0.77173285583E+02  0.86410871149E+02  0.20000011953E+01 0.  0.
        -13    1    3    3    0    0  0.38573844616E+02 -0.43796291761E+01 -0.41115151677E+02  0.56547232484E+02  0.10566000000E+00 0.  1.
         13    1    4    4    0    0 -0.14629591130E+02  0.20318826368E+01 -0.28491967481E+02  0.32092940948E+02  0.10566000000E+00 0. -1.
        -13    1    4    4    0    0 -0.17528418958E+02  0.12162837777E+01 -0.34837322156E+02  0.39017624177E+02  0.10566000000E+00 0.  1.
        -14    1    4    4    0    0 -0.64158345287E+01  0.11314627616E+01 -0.13843995946E+02  0.15300306024E+02  0.00000000000E+00 0.  1.
<mgrwt>
<rscale>  0 0.80279917E+02</rscale>
<asrwt>0</asrwt>
<pdfrwt beam="1">  1        2 0.20095887E-01 0.80279917E+02</pdfrwt>
<pdfrwt beam="2">  1       -1 0.18976667E-02 0.80279917E+02</pdfrwt>
<totfact> 0.18997340E+05</totfact>
</mgrwt>
</event>
<event>
 8    1  0.2433467E-020  0.7954765E+02  0.7818608E-02  0.1330340E+00
          2   -1    0    0  501    0  0.00000000000E+00  0.00000000000E+00  0.34899285792E+03  0.34899285793E+03  0.25500000000E-02 0. -1.
         -1   -1    0    0    0  501 -0.00000000000E+00 -0.00000000000E+00 -0.45329200512E+01  0.45329228531E+01  0.50400000000E-02 0.  1.
         24    2    1    2    0    0  0.35527136788E-14  0.00000000000E+00  0.34445993787E+03  0.35352578078E+03  0.79547651638E+02 0.  0.
         66    2    3    3    0    0  0.17543865186E+02  0.85643930568E+01  0.32621423396E+03  0.32680401233E+03  0.20000007851E+01 0.  0.
        -13    1    3    3    0    0 -0.17543865186E+02 -0.85643930568E+01  0.18245703913E+02  0.26721768456E+02  0.10566000000E+00 0.  1.
         13    1    4    4    0    0  0.93222151234E+01  0.42532529190E+01  0.16140404481E+03  0.16172900390E+03  0.10566000000E+00 0. -1.
        -13    1    4    4    0    0  0.62507123967E+01  0.35535527413E+01  0.12025101025E+03  0.12046582823E+03  0.10566000000E+00 0.  1.
         14    1    4    4    0    0  0.19709376658E+01  0.75758739652E+00  0.44559178896E+02  0.44609180197E+02  0.00000000000E+00 0. -1.
<mgrwt>
<rscale>  0 0.79547652E+02</rscale>
<asrwt>0</asrwt>
<pdfrwt beam="1">  1        2 0.53691227E-01 0.79547652E+02</pdfrwt>
<pdfrwt beam="2">  1       -1 0.69737231E-03 0.79547652E+02</pdfrwt>
<totfact> 0.27324177E+05</totfact>
</mgrwt>
</event>
<event>
 8    1  0.2433467E-020  0.7300372E+02  0.7818608E-02  0.1350167E+00
          2   -1    0    0  501    0  0.00000000000E+00  0.00000000000E+00  0.11277480477E+04  0.11277480477E+04  0.25500000000E-02 0. -1.
         -1   -1    0    0    0  501 -0.00000000000E+00 -0.00000000000E+00 -0.11814517294E+01  0.11814624796E+01  0.50400000000E-02 0.  1.
         24    2    1    2    0    0  0.17763568394E-14 -0.17763568394E-14  0.11265665959E+04  0.11289295102E+04  0.73003724590E+02 0.  0.
         66    2    3    3    0    0 -0.91240943793E+01  0.10166761074E+02  0.10866919677E+04  0.10867796671E+04  0.20000005715E+01 0.  0.
        -13    1    3    3    0    0  0.91240943793E+01 -0.10166761074E+02  0.39874628228E+02  0.42149843052E+02  0.10566000000E+00 0.  1.
         13    1    4    4    0    0 -0.15594287974E+01  0.24664820285E+01  0.20930800305E+03  0.20932837040E+03  0.10566000000E+00 0. -1.
        -13    1    4    4    0    0 -0.66930725425E+01  0.65635306090E+01  0.72526685044E+03  0.72532743824E+03  0.10566000000E+00 0.  1.
        -14    1    4    4    0    0 -0.87159303949E+00  0.11367484365E+01  0.15211711423E+03  0.15212385846E+03  0.00000000000E+00 0.  1.
<mgrwt>
<rscale>  0 0.73003725E+02</rscale>
<asrwt>0</asrwt>
<pdfrwt beam="1">  1        2 0.17349948E+00 0.73003725E+02</pdfrwt>
<pdfrwt beam="2">  1       -1 0.18176286E-03 0.73003725E+02</pdfrwt>
<totfact> 0.44609573E+05</totfact>
</mgrwt>
</event>
<event>
 8    1  0.2433467E-020  0.7918053E+02  0.7818608E-02  0.1331393E+00
          2   -1    0    0  501    0  0.00000000000E+00  0.00000000000E+00  0.53134983441E+03  0.53134983441E+03  0.25500000000E-02 0. -1.
         -1   -1    0    0    0  501 -0.00000000000E+00 -0.00000000000E+00 -0.29498226110E+01  0.29498269166E+01  0.50400000000E-02 0.  1.
         24    2    1    2    0    0  0.00000000000E+00 -0.35527136788E-14  0.52840001180E+03  0.53429966133E+03  0.79180525579E+02 0.  0.
         66    2    3    3    0    0 -0.55178804627E+01  0.24973219459E+02  0.46806822788E+03  0.46877070583E+03  0.19999985068E+01 0.  0.
        -13    1    3    3    0    0  0.55178804627E+01 -0.24973219459E+02  0.60331783912E+02  0.65528955501E+02  0.10566000000E+00 0.  1.
         13    1    4    4    0    0 -0.35142079388E+01  0.15676982277E+02  0.28781413780E+03  0.28826221833E+03  0.10566000000E+00 0. -1.
        -13    1    4    4    0    0 -0.14367474360E+01  0.61285020903E+01  0.12892576700E+03  0.12907938387E+03  0.10566000000E+00 0.  1.
         14    1    4    4    0    0 -0.56692508799E+00  0.31677350921E+01  0.51328323081E+02  0.51429103628E+02  0.00000000000E+00 0. -1.
<mgrwt>
<rscale>  0 0.79180526E+02</rscale>
<asrwt>0</asrwt>
<pdfrwt beam="1">  1        2 0.81746138E-01 0.79180526E+02</pdfrwt>
<pdfrwt beam="2">  1       -1 0.45381914E-03 0.79180526E+02</pdfrwt>
<totfact> 0.31879434E+05</totfact>
</mgrwt>
</event>
<event>
 8    1  0.2433467E-020  0.7806943E+02  0.7818608E-02  0.1334621E+00
          2   -1    0    0  501    0  0.00000000000E+00  0.00000000000E+00  0.79080082892E+03  0.79080082892E+03  0.25500000000E-02 0. -1.
         -1   -1    0    0    0  501 -0.00000000000E+00 -0.00000000000E+00 -0.19267888125E+01  0.19267954042E+01  0.50400000000E-02 0.  1.
         24    2    1    2    0    0 -0.35527136788E-14 -0.35527136788E-14  0.78887404011E+03  0.79272762433E+03  0.78069425627E+02 0.  0.
         66    2    3    3    0    0  0.14344269672E+02  0.27416555612E+02  0.63590203470E+03  0.63665754008E+03  0.20000035999E+01 0.  0.
        -13    1    3    3    0    0 -0.14344269672E+02 -0.27416555612E+02  0.15297200541E+03  0.15607008425E+03  0.10566000000E+00 0.  1.
         13    1    4    4    0    0  0.10052525605E+02  0.20360902885E+02  0.45202399048E+03  0.45259398888E+03  0.10566000000E+00 0. -1.
        -13    1    4    4    0    0  0.19971796242E+01  0.31906507146E+01  0.82234237057E+02  0.82320409904E+02  0.10566000000E+00 0.  1.
         14    1    4    4    0    0  0.22945644425E+01  0.38650020128E+01  0.10164380716E+03  0.10174314129E+03  0.00000000000E+00 0. -1.
<mgrwt>
<rscale>  0 0.78069426E+02</rscale>
<asrwt>0</asrwt>
<pdfrwt beam="1">  1        2 0.12166200E+00 0.78069426E+02</pdfrwt>
<pdfrwt beam="2">  1       -1 0.29642875E-03 0.78069426E+02</pdfrwt>
<totfact> 0.36540183E+05</totfact>
</mgrwt>
</event>
<event>
 8    1  0.2433467E-020  0.8094739E+02  0.7818608E-02  0.1326384E+00
          2   -1    0    0  501    0  0.00000000000E+00  0.00000000000E+00  0.29816551662E+02  0.29816551771E+02  0.25500000000E-02 0. -1.
         -1   -1    0    0    0  501 -0.00000000000E+00 -0.00000000000E+00 -0.54939952387E+02  0.54939952618E+02  0.50400000000E-02 0.  1.
         24    2    1    2    0    0  0.00000000000E+00  0.00000000000E+00 -0.25123400725E+02  0.84756504390E+02  0.80947388917E+02 0.  0.
         66    2    3    3    0    0  0.26480752081E+02 -0.28608938894E+02 -0.23866567413E+02  0.45752755732E+02  0.20000003926E+01 0.  0.
        -13    1    3    3    0    0 -0.26480752081E+02  0.28608938894E+02 -0.12568333118E+01  0.39003748658E+02  0.10566000000E+00 0.  1.
         13    1    4    4    0    0  0.13604543275E+02 -0.14610256983E+02 -0.13258134943E+02  0.23965235509E+02  0.10566000000E+00 0. -1.
        -13    1    4    4    0    0  0.11738156430E+02 -0.12705535550E+02 -0.94438303907E+01  0.19708172073E+02  0.10566000000E+00 0.  1.
        -14    1    4    4    0    0  0.11380523758E+01 -0.12931463614E+01 -0.11646020793E+01  0.20793481491E+01  0.00000000000E+00 0.  1.
<mgrwt>
<rscale>  0 0.80947389E+02</rscale>
<asrwt>0</asrwt>
<pdfrwt beam="1">  1        2 0.45871618E-02 0.80947389E+02</pdfrwt>
<pdfrwt beam="2">  1       -1 0.84523004E-02 0.80947389E+02</pdfrwt>
<totfact> 0.13002161E+05</totfact>
</mgrwt>
</event>
<event>
 8    1  0.2433467E-020  0.7987695E+02  0.7818608E-02  0.1329401E+00
         -1   -1    0    0    0  501 -0.00000000000E+00  0.00000000000E+00  0.49472150864E+01  0.49472176537E+01  0.50400000000E-02 0.  1.
          2   -1    0    0  501    0  0.00000000000E+00 -0.00000000000E+00 -0.32242004722E+03  0.32242004723E+03  0.25500000000E-02 0. -1.
         24    2    1    2    0    0  0.00000000000E+00  0.00000000000E+00 -0.31747283213E+03  0.32736726488E+03  0.79876948956E+02 0.  0.
         66    2    3    3    0    0  0.44876331055E+01 -0.23393746839E+02 -0.29009121890E+03  0.29107442607E+03  0.19999961822E+01 0.  0.
        -13    1    3    3    0    0 -0.44876331055E+01  0.23393746839E+02 -0.27381613230E+02  0.36292838814E+02  0.10566000000E+00 0.  1.
         13    1    4    4    0    0  0.16600879416E+01 -0.61521208001E+01 -0.70226266488E+02  0.70514850572E+02  0.10566000000E+00 0.  1.
        -13    1    4    4    0    0  0.23933804139E+01 -0.14185294255E+02 -0.17709826421E+03  0.17768161749E+03  0.10566000000E+00 0. -1.
        -14    1    4    4    0    0  0.43416475003E+00 -0.30563317838E+01 -0.42766688205E+02  0.42877958009E+02  0.00000000000E+00 0.  1.
<mgrwt>
<rscale>  0 0.79876949E+02</rscale>
<asrwt>0</asrwt>
<pdfrwt beam="1">  1        2 0.49603068E-01 0.79876949E+02</pdfrwt>
<pdfrwt beam="2">  1       -1 0.76111047E-03 0.79876949E+02</pdfrwt>
<totfact> 0.26272944E+05</totfact>
</mgrwt>
</event>
<event>
 8    1  0.2433467E-020  0.7584636E+02  0.7818608E-02  0.1341270E+00
         -1   -1    0    0    0  501 -0.00000000000E+00  0.00000000000E+00  0.74819435385E+02  0.74819435554E+02  0.50400000000E-02 0.  1.
          2   -1    0    0  501    0  0.00000000000E+00 -0.00000000000E+00 -0.19221844245E+02  0.19221844414E+02  0.25500000000E-02 0. -1.
         24    2    1    2    0    0  0.17763568394E-14  0.00000000000E+00  0.55597591140E+02  0.94041279968E+02  0.75846359158E+02 0.  0.
         66    2    3    3    0    0 -0.14212570658E+02 -0.33309968169E+02  0.13977217149E+02  0.38870473926E+02  0.19999999816E+01 0.  0.
        -13    1    3    3    0    0  0.14212570658E+02  0.33309968169E+02  0.41620373991E+02  0.55170806042E+02  0.10566000000E+00 0.  1.
         13    1    4    4    0    0 -0.29141404915E+01 -0.75886213898E+01  0.30883971586E+01  0.86964791983E+01  0.10566000000E+00 0. -1.
        -13    1    4    4    0    0 -0.20978895947E+01 -0.62882218816E+01  0.29083318097E+01  0.72396431635E+01  0.10566000000E+00 0.  1.
        -14    1    4    4    0    0 -0.92005405717E+01 -0.19433124897E+02  0.79804881807E+01  0.22934351565E+02  0.00000000000E+00 0.  1.
<mgrwt>
<rscale>  0 0.75846359E+02</rscale>
<asrwt>0</asrwt>
<pdfrwt beam="1">  1        2 0.29572069E-02 0.75846359E+02</pdfrwt>
<pdfrwt beam="2">  1       -1 0.11510682E-01 0.75846359E+02</pdfrwt>
<totfact> 0.14348293E+05</totfact>
</mgrwt>
</event>
<event>
 8    1  0.2433467E-020  0.7880603E+02  0.7818608E-02  0.1332474E+00
         -1   -1    0    0    0  501 -0.00000000000E+00  0.00000000000E+00  0.59051024578E+01  0.59051046086E+01  0.50400000000E-02 0.  1.
          2   -1    0    0  501    0  0.00000000000E+00 -0.00000000000E+00 -0.26292471740E+03  0.26292471741E+03  0.25500000000E-02 0. -1.
         24    2    1    2    0    0  0.71054273576E-14 -0.17763568394E-14 -0.25701961494E+03  0.26882982202E+03  0.78806032400E+02 0.  0.
         66    2    3    3    0    0 -0.38392125611E+02  0.84865423065E+01 -0.13592147480E+03  0.14150838856E+03  0.20000027491E+01 0.  0.
        -13    1    3    3    0    0  0.38392125611E+02 -0.84865423065E+01 -0.12109814014E+03  0.12732143346E+03  0.10566000000E+00 0.  1.
         13    1    4    4    0    0 -0.12176253913E+02  0.30674029459E+01 -0.42261956269E+02  0.44088028215E+02  0.10566000000E+00 0.  1.
        -13    1    4    4    0    0 -0.20187310810E+02  0.35677829967E+01 -0.71802734455E+02  0.74671952113E+02  0.10566000000E+00 0. -1.
         14    1    4    4    0    0 -0.60285608879E+01  0.18513563639E+01 -0.21856784075E+02  0.22748408227E+02  0.00000000000E+00 0. -1.
<mgrwt>
<rscale>  0 0.78806032E+02</rscale>
<asrwt>0</asrwt>
<pdfrwt beam="1">  1        2 0.40449948E-01 0.78806032E+02</pdfrwt>
<pdfrwt beam="2">  1       -1 0.90847767E-03 0.78806032E+02</pdfrwt>
<totfact> 0.25283776E+05</totfact>
</mgrwt>
</event>
<event>
 8    1  0.2433467E-020  0.7816165E+02  0.7818608E-02  0.1334351E+00
          2   -1    0    0  501    0  0.00000000000E+00  0.00000000000E+00  0.14013668040E+02  0.14013668272E+02  0.25500000000E-02 0. -1.
         -1   -1    0    0    0  501 -0.00000000000E+00 -0.00000000000E+00 -0.10898722021E+03  0.10898722033E+03  0.50400000000E-02 0.  1.
         24    2    1    2    0    0  0.71054273576E-14  0.00000000000E+00 -0.94973552170E+02  0.12300088860E+03  0.78161646504E+02 0.  0.
         66    2    3    3    0    0  0.35701023929E+02 -0.15791665656E+02 -0.45678534646E+02  0.60120448631E+02  0.20000005949E+01 0.  0.
        -13    1    3    3    0    0 -0.35701023929E+02  0.15791665656E+02 -0.49295017524E+02  0.62880439968E+02  0.10566000000E+00 0.  1.
         13    1    4    4    0    0  0.13207684670E+02 -0.58112954002E+01 -0.18169515933E+02  0.23202511972E+02  0.10566000000E+00 0.  1.
        -13    1    4    4    0    0  0.16289346010E+02 -0.73697626735E+01 -0.19493409173E+02  0.26451093749E+02  0.10566000000E+00 0. -1.
         14    1    4    4    0    0  0.62039932500E+01 -0.26106075827E+01 -0.80156095413E+01  0.10466842911E+02  0.00000000000E+00 0. -1.
<mgrwt>
<rscale>  0 0.78161647E+02</rscale>
<asrwt>0</asrwt>
<pdfrwt beam="1">  1        2 0.21559490E-02 0.78161647E+02</pdfrwt>
<pdfrwt beam="2">  1       -1 0.16767264E-01 0.78161647E+02</pdfrwt>
<totfact> 0.12329816E+05</totfact>
</mgrwt>
</event>
<event>
 8    1  0.2433467E-020  0.7963795E+02  0.7818608E-02  0.1330082E+00
          2   -1    0    0  501    0  0.00000000000E+00  0.00000000000E+00  0.36168684715E+03  0.36168684716E+03  0.25500000000E-02 0. -1.
         -1   -1    0    0    0  501 -0.00000000000E+00 -0.00000000000E+00 -0.43837651332E+01  0.43837680304E+01  0.50400000000E-02 0.  1.
         24    2    1    2    0    0  0.88817841970E-15  0.00000000000E+00  0.35730308202E+03  0.36607061519E+03  0.79637948784E+02 0.  0.
         66    2    3    3    0    0  0.77228565386E+01 -0.38398396970E+02  0.21109346169E+03  0.21470567987E+03  0.19999997052E+01 0.  0.
        -13    1    3    3    0    0 -0.77228565386E+01  0.38398396970E+02  0.14620962033E+03  0.15136493532E+03  0.10566000000E+00 0.  1.
         13    1    4    4    0    0  0.27052036078E+01 -0.15255656908E+02  0.85185990359E+02  0.86583585695E+02  0.10566000000E+00 0. -1.
        -13    1    4    4    0    0  0.13814130123E+01 -0.85684991757E+01  0.48538107867E+02  0.49308078034E+02  0.10566000000E+00 0.  1.
         14    1    4    4    0    0  0.36362399185E+01 -0.14574240886E+02  0.77369363462E+02  0.78814016144E+02  0.00000000000E+00 0. -1.
<mgrwt>
<rscale>  0 0.79637949E+02</rscale>
<asrwt>0</asrwt>
<pdfrwt beam="1">  1        2 0.55644143E-01 0.79637949E+02</pdfrwt>
<pdfrwt beam="2">  1       -1 0.67442547E-03 0.79637949E+02</pdfrwt>
<totfact> 0.27592019E+05</totfact>
</mgrwt>
</event>
<event>
 8    1  0.2433467E-020  0.8012724E+02  0.7818608E-02  0.1328691E+00
         -1   -1    0    0    0  501 -0.00000000000E+00  0.00000000000E+00  0.15143571368E+02  0.15143572207E+02  0.50400000000E-02 0.  1.
          2   -1    0    0  501    0  0.00000000000E+00 -0.00000000000E+00 -0.10599174452E+03  0.10599174455E+03  0.25500000000E-02 0. -1.
         24    2    1    2    0    0  0.00000000000E+00  0.00000000000E+00 -0.90848173155E+02  0.12113531676E+03  0.80127238822E+02 0.  0.
         66    2    3    3    0    0  0.17783681448E+01  0.21993189279E+02 -0.95961055731E+02  0.98485466868E+02  0.19999998351E+01 0.  0.
        -13    1    3    3    0    0 -0.17783681448E+01 -0.21993189279E+02  0.51128825757E+01  0.22649849893E+02  0.10566000000E+00 0.  1.
         13    1    4    4    0    0  0.11328306492E+01  0.14213836247E+02 -0.64991476910E+02  0.66537355531E+02  0.10566000000E+00 0. -1.
        -13    1    4    4    0    0  0.11144863086E+00  0.23531761422E+00 -0.12704586560E+01  0.13011627143E+01  0.10566000000E+00 0.  1.
        -14    1    4    4    0    0  0.53408886479E+00  0.75440354178E+01 -0.29699120165E+02  0.30646948623E+02  0.00000000000E+00 0.  1.
<mgrwt>
<rscale>  0 0.80127239E+02</rscale>
<asrwt>0</asrwt>
<pdfrwt beam="1">  1        2 0.16306422E-01 0.80127239E+02</pdfrwt>
<pdfrwt beam="2">  1       -1 0.23297804E-02 0.80127239E+02</pdfrwt>
<totfact> 0.17943678E+05</totfact>
</mgrwt>
</event>
<event>
 8    1  0.2433467E-020  0.8041044E+02  0.7818608E-02  0.1327891E+00
         -1   -1    0    0    0  501 -0.00000000000E+00  0.00000000000E+00  0.17652664348E+02  0.17652665068E+02  0.50400000000E-02 0.  1.
          2   -1    0    0  501    0  0.00000000000E+00 -0.00000000000E+00 -0.91570291748E+02  0.91570291784E+02  0.25500000000E-02 0. -1.
         24    2    1    2    0    0  0.00000000000E+00  0.00000000000E+00 -0.73917627400E+02  0.10922295685E+03  0.80410438769E+02 0.  0.
         66    2    3    3    0    0  0.10469368804E+01  0.17580600236E+02 -0.86037045503E+02  0.87843877342E+02  0.20000015365E+01 0.  0.
        -13    1    3    3    0    0 -0.10469368804E+01 -0.17580600236E+02  0.12119418103E+02  0.21379079510E+02  0.10566000000E+00 0.  1.
         13    1    4    4    0    0  0.39851549213E+00  0.67761791874E+01 -0.34716701922E+02  0.35374227558E+02  0.10566000000E+00 0. -1.
        -13    1    4    4    0    0 -0.30354710566E+00  0.65600863697E+01 -0.30166236400E+02  0.30872963198E+02  0.10566000000E+00 0.  1.
        -14    1    4    4    0    0  0.95196849394E+00  0.42443346788E+01 -0.21154107180E+02  0.21596686586E+02  0.00000000000E+00 0.  1.
<mgrwt>
<rscale>  0 0.80410439E+02</rscale>
<asrwt>0</asrwt>
<pdfrwt beam="1">  1        2 0.14087737E-01 0.80410439E+02</pdfrwt>
<pdfrwt beam="2">  1       -1 0.27157946E-02 0.80410439E+02</pdfrwt>
<totfact> 0.17065096E+05</totfact>
</mgrwt>
</event>
<event>
 8    1  0.3270794E-020  0.8096720E+02  0.7818608E-02  0.1326329E+00
          2   -1    0    0  501    0  0.00000000000E+00  0.00000000000E+00  0.37223937436E+03  0.37223937436E+03  0.25500000000E-02 0. -1.
         -1   -1    0    0    0  501 -0.00000000000E+00 -0.00000000000E+00 -0.44028688742E+01  0.44028717589E+01  0.50400000000E-02 0.  1.
         24    2    1    2    0    0 -0.17763568394E-14  0.00000000000E+00  0.36783650548E+03  0.37664224612E+03  0.80967195827E+02 0.  0.
         66    2    3    3    0    0  0.10031257292E+02 -0.58430763996E+01  0.36432215505E+03  0.36451255166E+03  0.19999995014E+01 0.  0.
        -13    1    3    3    0    0 -0.10031257292E+02  0.58430763996E+01  0.35143504351E+01  0.12129694460E+02  0.10566000000E+00 0.  1.
         13    1    4    4    0    0  0.21178511901E+01 -0.10876811619E+01  0.79334442714E+02  0.79370229360E+02  0.10566000000E+00 0. -1.
        -13    1    4    4    0    0  0.61570905301E+01 -0.41908624098E+01  0.24292558914E+03  0.24303976241E+03  0.10566000000E+00 0.  1.
        -14    1    4    4    0    0  0.17563155717E+01 -0.56453282797E+00  0.42062123196E+02  0.42102559892E+02  0.00000000000E+00 0.  1.
<mgrwt>
<rscale>  0 0.80967196E+02</rscale>
<asrwt>0</asrwt>
<pdfrwt beam="1">  1        2 0.57267606E-01 0.80967196E+02</pdfrwt>
<pdfrwt beam="2">  1       -1 0.67736455E-03 0.80967196E+02</pdfrwt>
<totfact> 0.26693417E+05</totfact>
</mgrwt>
</event>
<event>
 8    1  0.2433467E-020  0.8117186E+02  0.7818608E-02  0.1325758E+00
          2   -1    0    0  501    0  0.00000000000E+00  0.00000000000E+00  0.17515842362E+03  0.17515842364E+03  0.25500000000E-02 0. -1.
         -1   -1    0    0    0  501 -0.00000000000E+00 -0.00000000000E+00 -0.94041583157E+01  0.94041596663E+01  0.50400000000E-02 0.  1.
         24    2    1    2    0    0  0.00000000000E+00  0.00000000000E+00  0.16575426531E+03  0.18456258331E+03  0.81171858976E+02 0.  0.
         66    2    3    3    0    0 -0.16995255672E+02  0.20059566467E+02  0.15315518787E+03  0.15540828965E+03  0.19999998572E+01 0.  0.
        -13    1    3    3    0    0  0.16995255672E+02 -0.20059566467E+02  0.12599077438E+02  0.29154293655E+02  0.10566000000E+00 0.  1.
         13    1    4    4    0    0 -0.72093428872E+00  0.89653647131E+00  0.58982948995E+01  0.60103719228E+01  0.10566000000E+00 0. -1.
        -13    1    4    4    0    0 -0.61304872377E+00  0.11345338446E+01  0.92498462235E+01  0.93399044415E+01  0.10566000000E+00 0.  1.
         14    1    4    4    0    0 -0.15661272659E+02  0.18028496151E+02  0.13800704675E+03  0.14005801329E+03  0.00000000000E+00 0. -1.
<mgrwt>
<rscale>  0 0.81171859E+02</rscale>
<asrwt>0</asrwt>
<pdfrwt beam="1">  1        2 0.26947450E-01 0.81171859E+02</pdfrwt>
<pdfrwt beam="2">  1       -1 0.14467937E-02 0.81171859E+02</pdfrwt>
<totfact> 0.20283151E+05</totfact>
</mgrwt>
</event>
<event>
 8    1  0.2433467E-020  0.8393987E+02  0.7818608E-02  0.1318228E+00
         -1   -1    0    0    0  501 -0.00000000000E+00  0.00000000000E+00  0.17369225370E+02  0.17369226101E+02  0.50400000000E-02 0.  1.
          2   -1    0    0  501    0  0.00000000000E+00 -0.00000000000E+00 -0.10141357701E+03  0.10141357704E+03  0.25500000000E-02 0. -1.
         24    2    1    2    0    0  0.00000000000E+00  0.00000000000E+00 -0.84044351640E+02  0.11878280314E+03  0.83939867048E+02 0.  0.
         66    2    3    3    0    0  0.36316144303E+02 -0.99641553451E+01 -0.68189748783E+02  0.77922965594E+02  0.19999997643E+01 0.  0.
        -13    1    3    3    0    0 -0.36316144303E+02  0.99641553451E+01 -0.15854602857E+02  0.40859837550E+02  0.10566000000E+00 0.  1.
         13    1    4    4    0    0  0.25120372007E+01 -0.81656407707E+00 -0.46892994143E+01  0.53831032706E+01  0.10566000000E+00 0. -1.
        -13    1    4    4    0    0  0.18527033792E+02 -0.59385603540E+01 -0.35522864011E+02  0.40501882818E+02  0.10566000000E+00 0.  1.
         14    1    4    4    0    0  0.15277073310E+02 -0.32090309141E+01 -0.27977585358E+02  0.32037979506E+02  0.00000000000E+00 0. -1.
<mgrwt>
<rscale>  0 0.83939867E+02</rscale>
<asrwt>0</asrwt>
<pdfrwt beam="1">  1        2 0.15602088E-01 0.83939867E+02</pdfrwt>
<pdfrwt beam="2">  1       -1 0.26721886E-02 0.83939867E+02</pdfrwt>
<totfact> 0.15640428E+05</totfact>
</mgrwt>
</event>
<event>
 8    1  0.2433467E-020  0.7907829E+02  0.7818608E-02  0.1331688E+00
          2   -1    0    0  501    0  0.00000000000E+00  0.00000000000E+00  0.71094462692E+01  0.71094467265E+01  0.25500000000E-02 0. -1.
         -1   -1    0    0    0  501 -0.00000000000E+00 -0.00000000000E+00 -0.21989671891E+03  0.21989671896E+03  0.50400000000E-02 0.  1.
         24    2    1    2    0    0  0.00000000000E+00  0.00000000000E+00 -0.21278727264E+03  0.22700616569E+03  0.79078289468E+02 0.  0.
         66    2    3    3    0    0  0.32008046947E+02 -0.83667844127E+01 -0.44438108890E+02  0.55437024383E+02  0.19999999830E+01 0.  0.
        -13    1    3    3    0    0 -0.32008046947E+02  0.83667844127E+01 -0.16834916375E+03  0.17156914131E+03  0.10566000000E+00 0.  1.
         13    1    4    4    0    0  0.91542592638E+01 -0.17716096088E+01 -0.11584261711E+02  0.14870956482E+02  0.10566000000E+00 0. -1.
        -13    1    4    4    0    0  0.76659868062E+01 -0.23327262219E+01 -0.11544633409E+02  0.14053422712E+02  0.10566000000E+00 0.  1.
         14    1    4    4    0    0  0.15187800877E+02 -0.42624485820E+01 -0.21309213770E+02  0.26512645188E+02  0.00000000000E+00 0. -1.
<mgrwt>
<rscale>  0 0.79078289E+02</rscale>
<asrwt>0</asrwt>
<pdfrwt beam="1">  1        2 0.10937612E-02 0.79078289E+02</pdfrwt>
<pdfrwt beam="2">  1       -1 0.33830259E-01 0.79078289E+02</pdfrwt>
<totfact> 0.99597954E+04</totfact>
</mgrwt>
</event>
<event>
 8    1  0.2433467E-020  0.7792002E+02  0.7818608E-02  0.1335060E+00
         -1   -1    0    0    0  501 -0.00000000000E+00  0.00000000000E+00  0.24413629652E+03  0.24413629657E+03  0.50400000000E-02 0.  1.
          2   -1    0    0  501    0  0.00000000000E+00 -0.00000000000E+00 -0.62173559348E+01  0.62173564577E+01  0.25500000000E-02 0. -1.
         24    2    1    2    0    0  0.00000000000E+00  0.00000000000E+00  0.23791894059E+03  0.25035365303E+03  0.77920018584E+02 0.  0.
         66    2    3    3    0    0 -0.61701533145E+01 -0.36792593762E+02  0.83243547087E+02  0.91242829182E+02  0.19999994572E+01 0.  0.
        -13    1    3    3    0    0  0.61701533145E+01  0.36792593762E+02  0.15467539350E+03  0.15911082385E+03  0.10566000000E+00 0.  1.
         13    1    4    4    0    0 -0.17877454855E+01 -0.12749843974E+02  0.27386769843E+02  0.30262202196E+02  0.10566000000E+00 0. -1.
        -13    1    4    4    0    0 -0.43702592727E+01 -0.24055647027E+02  0.55821293959E+02  0.60940966051E+02  0.10566000000E+00 0.  1.
        -14    1    4    4    0    0 -0.12148556279E-01  0.12897239160E-01  0.35483285378E-01  0.39660934669E-01  0.00000000000E+00 0.  1.
<mgrwt>
<rscale>  0 0.77920019E+02</rscale>
<asrwt>0</asrwt>
<pdfrwt beam="1">  1        2 0.95651642E-03 0.77920019E+02</pdfrwt>
<pdfrwt beam="2">  1       -1 0.37559427E-01 0.77920019E+02</pdfrwt>
<totfact> 0.99877315E+04</totfact>
</mgrwt>
</event>
<event>
 8    1  0.2433467E-020  0.7810795E+02  0.7818608E-02  0.1334508E+00
          2   -1    0    0  501    0  0.00000000000E+00  0.00000000000E+00  0.84231678848E+03  0.84231678849E+03  0.25500000000E-02 0. -1.
         -1   -1    0    0    0  501 -0.00000000000E+00 -0.00000000000E+00 -0.18107319906E+01  0.18107390047E+01  0.50400000000E-02 0.  1.
         24    2    1    2    0    0 -0.17763568394E-14  0.00000000000E+00  0.84050605649E+03  0.84412752749E+03  0.78107948818E+02 0.  0.
         66    2    3    3    0    0 -0.13566969834E+02  0.30502722246E+02  0.63901735573E+03  0.63989191249E+03  0.20000037431E+01 0.  0.
        -13    1    3    3    0    0  0.13566969834E+02 -0.30502722246E+02  0.20148870076E+03  0.20423561500E+03  0.10566000000E+00 0.  1.
         13    1    4    4    0    0 -0.30205029025E+01  0.80119289602E+01  0.16946180323E+03  0.16967801379E+03  0.10566000000E+00 0.  1.
        -13    1    4    4    0    0 -0.19305179514E+01  0.40525063202E+01  0.94351185361E+02  0.94457964461E+02  0.10566000000E+00 0. -1.
         14    1    4    4    0    0 -0.86159489797E+01  0.18438286965E+02  0.37520436714E+03  0.37575593425E+03  0.00000000000E+00 0. -1.
<mgrwt>
<rscale>  0 0.78107949E+02</rscale>
<asrwt>0</asrwt>
<pdfrwt beam="1">  1        2 0.12958749E+00 0.78107949E+02</pdfrwt>
<pdfrwt beam="2">  1       -1 0.27857406E-03 0.78107949E+02</pdfrwt>
<totfact> 0.36869338E+05</totfact>
</mgrwt>
</event>
<event>
 8    1  0.2433467E-020  0.7889455E+02  0.7818608E-02  0.1332218E+00
         -1   -1    0    0    0  501 -0.00000000000E+00  0.00000000000E+00  0.20090537749E+01  0.20090600967E+01  0.50400000000E-02 0.  1.
          2   -1    0    0  501    0  0.00000000000E+00 -0.00000000000E+00 -0.77453633543E+03  0.77453633544E+03  0.25500000000E-02 0. -1.
         24    2    1    2    0    0  0.00000000000E+00  0.00000000000E+00 -0.77252728166E+03  0.77654539554E+03  0.78894552530E+02 0.  0.
         66    2    3    3    0    0  0.30352832254E+02  0.48636458404E+01 -0.62943827343E+03  0.63019162921E+03  0.19999985741E+01 0.  0.
        -13    1    3    3    0    0 -0.30352832254E+02 -0.48636458404E+01 -0.14308900823E+03  0.14635376632E+03  0.10566000000E+00 0.  1.
         13    1    4    4    0    0  0.13525119266E+02  0.20614325990E+01 -0.28370926275E+03  0.28403896790E+03  0.10566000000E+00 0. -1.
        -13    1    4    4    0    0  0.10998354615E+02  0.23083028837E+01 -0.21714051235E+03  0.21743115079E+03  0.10566000000E+00 0.  1.
        -14    1    4    4    0    0  0.58293583733E+01  0.49391035773E+00 -0.12858849834E+03  0.12872151052E+03  0.00000000000E+00 0.  1.
<mgrwt>
<rscale>  0 0.78894553E+02</rscale>
<asrwt>0</asrwt>
<pdfrwt beam="1">  1        2 0.11915920E+00 0.78894553E+02</pdfrwt>
<pdfrwt beam="2">  1       -1 0.30908630E-03 0.78894553E+02</pdfrwt>
<totfact> 0.35422955E+05</totfact>
</mgrwt>
</event>
<event>
 8    1  0.2433467E-020  0.8097020E+02  0.7818608E-02  0.1326320E+00
          2   -1    0    0  501    0  0.00000000000E+00  0.00000000000E+00  0.70532049453E+03  0.70532049453E+03  0.25500000000E-02 0. -1.
         -1   -1    0    0    0  501 -0.00000000000E+00 -0.00000000000E+00 -0.23238247697E+01  0.23238302351E+01  0.50400000000E-02 0.  1.
         24    2    1    2    0    0  0.00000000000E+00  0.00000000000E+00  0.70299666976E+03  0.70764432477E+03  0.80970196274E+02 0.  0.
         66    2    3    3    0    0 -0.24767942634E+01 -0.23465540864E+02  0.63895979153E+03  0.63939845270E+03  0.19999993003E+01 0.  0.
        -13    1    3    3    0    0  0.24767942634E+01  0.23465540864E+02  0.64036878226E+02  0.68245872072E+02  0.10566000000E+00 0.  1.
         13    1    4    4    0    0 -0.65428766431E+00 -0.11927667338E+02  0.33601125907E+03  0.33622354873E+03  0.10566000000E+00 0. -1.
        -13    1    4    4    0    0 -0.16021658617E+01 -0.10869960990E+02  0.27972963238E+03  0.27994535428E+03  0.10566000000E+00 0.  1.
        -14    1    4    4    0    0 -0.22034073737E+00 -0.66791253598E+00  0.23218900081E+02  0.23229549676E+02  0.00000000000E+00 0.  1.
<mgrwt>
<rscale>  0 0.80970196E+02</rscale>
<asrwt>0</asrwt>
<pdfrwt beam="1">  1        2 0.10851081E+00 0.80970196E+02</pdfrwt>
<pdfrwt beam="2">  1       -1 0.35751204E-03 0.80970196E+02</pdfrwt>
<totfact> 0.32475028E+05</totfact>
</mgrwt>
</event>
<event>
 8    1  0.2433467E-020  0.8186738E+02  0.7818608E-02  0.1323834E+00
          2   -1    0    0  501    0  0.00000000000E+00  0.00000000000E+00  0.29403532039E+03  0.29403532040E+03  0.25500000000E-02 0. -1.
         -1   -1    0    0    0  501 -0.00000000000E+00 -0.00000000000E+00 -0.56985217448E+01  0.56985239736E+01  0.50400000000E-02 0.  1.
         24    2    1    2    0    0  0.35527136788E-14  0.00000000000E+00  0.28833679865E+03  0.29973384438E+03  0.81867380627E+02 0.  0.
         66    2    3    3    0    0  0.27835448591E+02 -0.30265257484E+01  0.25345349329E+03  0.25500322608E+03  0.19999986519E+01 0.  0.
        -13    1    3    3    0    0 -0.27835448591E+02  0.30265257484E+01  0.34883305353E+02  0.44730618292E+02  0.10566000000E+00 0.  1.
         13    1    4    4    0    0  0.11560143250E+02 -0.18815509621E+01  0.10472196725E+03  0.10537494358E+03  0.10566000000E+00 0. -1.
        -13    1    4    4    0    0  0.77837612473E+01 -0.91766245996E+00  0.75449566104E+02  0.75855634154E+02  0.10566000000E+00 0.  1.
         14    1    4    4    0    0  0.84915440930E+01 -0.22731232636E+00  0.73281959939E+02  0.73772648349E+02  0.00000000000E+00 0. -1.
<mgrwt>
<rscale>  0 0.81867381E+02</rscale>
<asrwt>0</asrwt>
<pdfrwt beam="1">  1        2 0.45236203E-01 0.81867381E+02</pdfrwt>
<pdfrwt beam="2">  1       -1 0.87669584E-03 0.81867381E+02</pdfrwt>
<totfact> 0.23821960E+05</totfact>
</mgrwt>
</event>
<event>
 8    1  0.2433467E-020  0.8064037E+02  0.7818608E-02  0.1327244E+00
         -1   -1    0    0    0  501 -0.00000000000E+00  0.00000000000E+00  0.14452837341E+02  0.14452838220E+02  0.50400000000E-02 0.  1.
          2   -1    0    0  501    0  0.00000000000E+00 -0.00000000000E+00 -0.11248429229E+03  0.11248429232E+03  0.25500000000E-02 0. -1.
         24    2    1    2    0    0  0.17763568394E-14  0.35527136788E-14 -0.98031454946E+02  0.12693713054E+03  0.80640367991E+02 0.  0.
         66    2    3    3    0    0 -0.84595605496E+01 -0.20830729550E+02 -0.10168405215E+03  0.10415915677E+03  0.20000049840E+01 0.  0.
        -13    1    3    3    0    0  0.84595605496E+01  0.20830729550E+02  0.36525972040E+01  0.22777973761E+02  0.10566000000E+00 0.  1.
         13    1    4    4    0    0 -0.29738482011E+01 -0.70793968978E+01 -0.33512428379E+02  0.34381036248E+02  0.10566000000E+00 0. -1.
        -13    1    4    4    0    0 -0.15718746905E+01 -0.29588026036E+01 -0.18039518259E+02  0.18348315616E+02  0.10566000000E+00 0.  1.
        -14    1    4    4    0    0 -0.39138376580E+01 -0.10792530049E+02 -0.50132105511E+02  0.51429804910E+02  0.00000000000E+00 0.  1.
<mgrwt>
<rscale>  0 0.80640368E+02</rscale>
<asrwt>0</asrwt>
<pdfrwt beam="1">  1        2 0.17305275E-01 0.80640368E+02</pdfrwt>
<pdfrwt beam="2">  1       -1 0.22235136E-02 0.80640368E+02</pdfrwt>
<totfact> 0.17946133E+05</totfact>
</mgrwt>
</event>
<event>
 8    1  0.2433467E-020  0.8119864E+02  0.7818608E-02  0.1325684E+00
          2   -1    0    0  501    0  0.00000000000E+00  0.00000000000E+00  0.10229256805E+03  0.10229256808E+03  0.25500000000E-02 0. -1.
         -1   -1    0    0    0  501 -0.00000000000E+00 -0.00000000000E+00 -0.16113630231E+02  0.16113631020E+02  0.50400000000E-02 0.  1.
         24    2    1    2    0    0  0.00000000000E+00 -0.35527136788E-14  0.86178937818E+02  0.11840619910E+03  0.81198637070E+02 0.  0.
         66    2    3    3    0    0  0.26133250932E+02  0.29406792371E+02  0.57594909743E+02  0.69777359234E+02  0.19999978641E+01 0.  0.
        -13    1    3    3    0    0 -0.26133250932E+02 -0.29406792371E+02  0.28584028074E+02  0.48628839867E+02  0.10566000000E+00 0.  1.
         13    1    4    4    0    0  0.13634041750E+02  0.15710122815E+02  0.30733529070E+02  0.37111400221E+02  0.10566000000E+00 0. -1.
        -13    1    4    4    0    0  0.36303481938E+01  0.48766992120E+01  0.87926978002E+01  0.10690384551E+02  0.10566000000E+00 0.  1.
         14    1    4    4    0    0  0.88688609881E+01  0.88199703442E+01  0.18068682874E+02  0.21975574461E+02  0.00000000000E+00 0. -1.
<mgrwt>
<rscale>  0 0.81198637E+02</rscale>
<asrwt>0</asrwt>
<pdfrwt beam="1">  1        2 0.15737318E-01 0.81198637E+02</pdfrwt>
<pdfrwt beam="2">  1       -1 0.24790201E-02 0.81198637E+02</pdfrwt>
<totfact> 0.17142213E+05</totfact>
</mgrwt>
</event>
<event>
 8    1  0.2433467E-020  0.7971994E+02  0.7818608E-02  0.1329848E+00
          2   -1    0    0  501    0  0.00000000000E+00  0.00000000000E+00  0.52020997375E+02  0.52020997437E+02  0.25500000000E-02 0. -1.
         -1   -1    0    0    0  501 -0.00000000000E+00 -0.00000000000E+00 -0.30541847028E+02  0.30541847444E+02  0.50400000000E-02 0.  1.
         24    2    1    2    0    0  0.00000000000E+00 -0.35527136788E-14  0.21479150347E+02  0.82562844881E+02  0.79719943899E+02 0.  0.
         66    2    3    3    0    0 -0.14497805677E+02 -0.29661674086E+02  0.33830435751E+02  0.47312785389E+02  0.19999997873E+01 0.  0.
        -13    1    3    3    0    0  0.14497805677E+02  0.29661674086E+02 -0.12351285403E+02  0.35250059492E+02  0.10566000000E+00 0.  1.
         13    1    4    4    0    0 -0.65476628407E+01 -0.11992451987E+02  0.13607742263E+02  0.19283998726E+02  0.10566000000E+00 0. -1.
        -13    1    4    4    0    0 -0.24427283966E+01 -0.59624804640E+01  0.60524485681E+01  0.88408932246E+01  0.10566000000E+00 0.  1.
         14    1    4    4    0    0 -0.55074144399E+01 -0.11706741636E+02  0.14170244920E+02  0.19187893439E+02  0.00000000000E+00 0. -1.
<mgrwt>
<rscale>  0 0.79719944E+02</rscale>
<asrwt>0</asrwt>
<pdfrwt beam="1">  1        2 0.80032303E-02 0.79719944E+02</pdfrwt>
<pdfrwt beam="2">  1       -1 0.46987458E-02 0.79719944E+02</pdfrwt>
<totfact> 0.15218467E+05</totfact>
</mgrwt>
</event>
<event>
 8    1  0.2433467E-020  0.7594940E+02  0.7818608E-02  0.1340956E+00
          2   -1    0    0  501    0  0.00000000000E+00  0.00000000000E+00  0.18580203478E+02  0.18580203653E+02  0.25500000000E-02 0. -1.
         -1   -1    0    0    0  501 -0.00000000000E+00 -0.00000000000E+00 -0.77613673884E+02  0.77613674048E+02  0.50400000000E-02 0.  1.
         24    2    1    2    0    0  0.00000000000E+00  0.00000000000E+00 -0.59033470406E+02  0.96193877701E+02  0.75949400781E+02 0.  0.
         66    2    3    3    0    0 -0.82988038193E+00  0.16421173499E+02  0.13780591798E+02  0.21546423229E+02  0.20000007779E+01 0.  0.
        -13    1    3    3    0    0  0.82988038193E+00 -0.16421173499E+02 -0.72814062204E+02  0.74647454473E+02  0.10566000000E+00 0.  1.
         13    1    4    4    0    0 -0.86581007623E+00  0.59021542463E+01  0.44033203149E+01  0.74152171692E+01  0.10566000000E+00 0. -1.
        -13    1    4    4    0    0  0.46317916707E-01  0.10478523703E+02  0.94052580107E+01  0.14080896514E+02  0.10566000000E+00 0.  1.
        -14    1    4    4    0    0 -0.10388222413E-01  0.40495549508E-01 -0.27986527297E-01  0.50309545864E-01  0.00000000000E+00 0.  1.
<mgrwt>
<rscale>  0 0.75949401E+02</rscale>
<asrwt>0</asrwt>
<pdfrwt beam="1">  1        2 0.28584929E-02 0.75949401E+02</pdfrwt>
<pdfrwt beam="2">  1       -1 0.11940565E-01 0.75949401E+02</pdfrwt>
<totfact> 0.14198860E+05</totfact>
</mgrwt>
</event>
<event>
 8    1  0.2433467E-020  0.8676705E+02  0.7818608E-02  0.1310875E+00
         -1   -1    0    0    0  501 -0.00000000000E+00  0.00000000000E+00  0.18583430232E+02  0.18583430915E+02  0.50400000000E-02 0.  1.
          2   -1    0    0  501    0  0.00000000000E+00 -0.00000000000E+00 -0.10128003202E+03  0.10128003205E+03  0.25500000000E-02 0. -1.
         24    2    1    2    0    0  0.00000000000E+00 -0.35527136788E-14 -0.82696601784E+02  0.11986346296E+03  0.86767054847E+02 0.  0.
         66    2    3    3    0    0  0.39981403935E+02  0.16420903137E+02 -0.46149010142E+02  0.63260491845E+02  0.19999927395E+01 0.  0.
        -13    1    3    3    0    0 -0.39981403935E+02 -0.16420903137E+02 -0.36547591642E+02  0.56602971118E+02  0.10566000000E+00 0.  1.
         13    1    4    4    0    0  0.16415113059E+02  0.64706066074E+01 -0.18557960466E+02  0.25607298711E+02  0.10566000000E+00 0. -1.
        -13    1    4    4    0    0  0.25768471430E+00  0.20164346214E+00 -0.24385174181E+00  0.42153197434E+00  0.10566000000E+00 0. -1.
         14    1    4    4    0    0  0.23308606162E+02  0.97486530671E+01 -0.27347197934E+02  0.37231661160E+02  0.00000000000E+00 0. -1.
<mgrwt>
<rscale>  0 0.86767055E+02</rscale>
<asrwt>0</asrwt>
<pdfrwt beam="1">  1        2 0.15581543E-01 0.86767055E+02</pdfrwt>
<pdfrwt beam="2">  1       -1 0.28589894E-02 0.86767055E+02</pdfrwt>
<totfact> 0.14297539E+05</totfact>
</mgrwt>
</event>
<event>
 8    1  0.2433467E-020  0.7653152E+02  0.7818608E-02  0.1339193E+00
          2   -1    0    0  501    0  0.00000000000E+00  0.00000000000E+00  0.15358667866E+04  0.15358667866E+04  0.25500000000E-02 0. -1.
         -1   -1    0    0    0  501 -0.00000000000E+00 -0.00000000000E+00 -0.95337572202E+00  0.95338904385E+00  0.50400000000E-02 0.  1.
         24    2    1    2    0    0  0.00000000000E+00  0.00000000000E+00  0.15349134109E+04  0.15368201756E+04  0.76531518863E+02 0.  0.
         66    2    3    3    0    0 -0.20558190951E+02 -0.10277537672E+01  0.14151222477E+04  0.14152733557E+04  0.20000001031E+01 0.  0.
        -13    1    3    3    0    0  0.20558190951E+02  0.10277537672E+01  0.11979116317E+03  0.12154681991E+03  0.10566000000E+00 0.  1.
         13    1    4    4    0    0 -0.31267315402E+01 -0.29173231951E+00  0.24620922163E+03  0.24622927027E+03  0.10566000000E+00 0. -1.
        -13    1    4    4    0    0 -0.59883688727E+01  0.30001614995E+00  0.42632947720E+03  0.42637165111E+03  0.10566000000E+00 0.  1.
         14    1    4    4    0    0 -0.11443090538E+02 -0.10360375977E+01  0.74258354887E+03  0.74267243435E+03  0.00000000000E+00 0. -1.
<mgrwt>
<rscale>  0 0.76531519E+02</rscale>
<asrwt>0</asrwt>
<pdfrwt beam="1">  1        2 0.23628775E+00 0.76531519E+02</pdfrwt>
<pdfrwt beam="2">  1       -1 0.14667387E-03 0.76531519E+02</pdfrwt>
<totfact> 0.36957153E+05</totfact>
</mgrwt>
</event>
<event>
 8    1  0.2433467E-020  0.7951064E+02  0.7818608E-02  0.1330446E+00
         -1   -1    0    0    0  501 -0.00000000000E+00  0.00000000000E+00  0.18631798643E+01  0.18631866810E+01  0.50400000000E-02 0.  1.
          2   -1    0    0  501    0  0.00000000000E+00 -0.00000000000E+00 -0.84827154691E+03  0.84827154692E+03  0.25500000000E-02 0. -1.
         24    2    1    2    0    0  0.00000000000E+00  0.00000000000E+00 -0.84640836705E+03  0.85013473360E+03  0.79510637397E+02 0.  0.
         66    2    3    3    0    0 -0.13806898513E+02 -0.99799146644E+01 -0.80723395219E+03  0.80741617690E+03  0.19999998776E+01 0.  0.
        -13    1    3    3    0    0  0.13806898513E+02  0.99799146644E+01 -0.39174414858E+02  0.42718556702E+02  0.10566000000E+00 0.  1.
         13    1    4    4    0    0 -0.66895308534E+00 -0.14584147830E+00 -0.39996876395E+02  0.40002875564E+02  0.10566000000E+00 0. -1.
        -13    1    4    4    0    0 -0.10751350623E+02 -0.78892570017E+01 -0.64077487964E+03  0.64091363650E+03  0.10566000000E+00 0.  1.
        -14    1    4    4    0    0 -0.23865948037E+01 -0.19448161844E+01 -0.12646219616E+03  0.12649966483E+03  0.00000000000E+00 0.  1.
<mgrwt>
<rscale>  0 0.79510637E+02</rscale>
<asrwt>0</asrwt>
<pdfrwt beam="1">  1        2 0.13050301E+00 0.79510637E+02</pdfrwt>
<pdfrwt beam="2">  1       -1 0.28664426E-03 0.79510637E+02</pdfrwt>
<totfact> 0.35242190E+05</totfact>
</mgrwt>
</event>
<event>
 8    1  0.2433467E-020  0.8049959E+02  0.7818608E-02  0.1327640E+00
         -1   -1    0    0    0  501 -0.00000000000E+00  0.00000000000E+00  0.43076347166E+01  0.43076376651E+01  0.50400000000E-02 0.  1.
          2   -1    0    0  501    0  0.00000000000E+00 -0.00000000000E+00 -0.37608701665E+03  0.37608701666E+03  0.25500000000E-02 0. -1.
         24    2    1    2    0    0  0.00000000000E+00  0.00000000000E+00 -0.37177938193E+03  0.38039465432E+03  0.80499591349E+02 0.  0.
         66    2    3    3    0    0  0.35769480651E+02 -0.11480688035E+02 -0.25395484049E+03  0.25672616329E+03  0.19999915538E+01 0.  0.
        -13    1    3    3    0    0 -0.35769480651E+02  0.11480688035E+02 -0.11782454144E+03  0.12366849103E+03  0.10566000000E+00 0.  1.
         13    1    4    4    0    0  0.17495788685E+02 -0.64371231158E+01 -0.12692942155E+03  0.12829118596E+03  0.10566000000E+00 0. -1.
        -13    1    4    4    0    0  0.57725675420E+01 -0.13871509767E+01 -0.37585003323E+02  0.38051154551E+02  0.10566000000E+00 0.  1.
        -14    1    4    4    0    0  0.12501124424E+02 -0.36564139423E+01 -0.89440415618E+02  0.90383822782E+02  0.00000000000E+00 0.  1.
<mgrwt>
<rscale>  0 0.80499591E+02</rscale>
<asrwt>0</asrwt>
<pdfrwt beam="1">  1        2 0.57859515E-01 0.80499591E+02</pdfrwt>
<pdfrwt beam="2">  1       -1 0.66271356E-03 0.80499591E+02</pdfrwt>
<totfact> 0.27200299E+05</totfact>
</mgrwt>
</event>
<event>
 8    1  0.2433467E-020  0.7936339E+02  0.7818608E-02  0.1330868E+00
         -1   -1    0    0    0  501 -0.00000000000E+00  0.00000000000E+00  0.30595084565E+01  0.30595126078E+01  0.50400000000E-02 0.  1.
          2   -1    0    0  501    0  0.00000000000E+00 -0.00000000000E+00 -0.51466961060E+03  0.51466961061E+03  0.25500000000E-02 0. -1.
         24    2    1    2    0    0  0.00000000000E+00  0.00000000000E+00 -0.51161010215E+03  0.51772912322E+03  0.79363394640E+02 0.  0.
         66    2    3    3    0    0  0.69217749996E+00 -0.21081976898E+02 -0.47503547512E+03  0.47550776173E+03  0.19999960573E+01 0.  0.
        -13    1    3    3    0    0 -0.69217749996E+00  0.21081976898E+02 -0.36574627028E+02  0.42221361488E+02  0.10566000000E+00 0.  1.
         13    1    4    4    0    0  0.46524764310E+00 -0.12759673462E+02 -0.27923688466E+03  0.27952866515E+03  0.10566000000E+00 0. -1.
        -13    1    4    4    0    0  0.17139233779E+00 -0.57743699276E+01 -0.12244282988E+03  0.12257907846E+03  0.10566000000E+00 0.  1.
        -14    1    4    4    0    0  0.55537519069E-01 -0.25479335085E+01 -0.73355760580E+02  0.73400018119E+02  0.00000000000E+00 0.  1.
<mgrwt>
<rscale>  0 0.79363395E+02</rscale>
<asrwt>0</asrwt>
<pdfrwt beam="1">  1        2 0.79179871E-01 0.79363395E+02</pdfrwt>
<pdfrwt beam="2">  1       -1 0.47069434E-03 0.79363395E+02</pdfrwt>
<totfact> 0.31376982E+05</totfact>
</mgrwt>
</event>
<event>
 8    1  0.2433467E-020  0.7934026E+02  0.7818608E-02  0.1330934E+00
         -1   -1    0    0    0  501 -0.00000000000E+00  0.00000000000E+00  0.62942362176E+01  0.62942382354E+01  0.50400000000E-02 0.  1.
          2   -1    0    0  501    0  0.00000000000E+00 -0.00000000000E+00 -0.25002539991E+03  0.25002539992E+03  0.25500000000E-02 0. -1.
         24    2    1    2    0    0  0.17763568394E-14  0.35527136788E-14 -0.24373116369E+03  0.25631963816E+03  0.79340259332E+02 0.  0.
         66    2    3    3    0    0 -0.13325281809E+02 -0.30803095685E+02 -0.19011771151E+03  0.19306770334E+03  0.20000012095E+01 0.  0.
        -13    1    3    3    0    0  0.13325281809E+02  0.30803095685E+02 -0.53613452179E+02  0.63251934813E+02  0.10566000000E+00 0.  1.
         13    1    4    4    0    0 -0.16562612314E+01 -0.26487895799E+01 -0.19104239872E+02  0.19358265228E+02  0.10566000000E+00 0. -1.
        -13    1    4    4    0    0 -0.29017386926E+01 -0.75384389077E+01 -0.46644343371E+02  0.47338716514E+02  0.10566000000E+00 0. -1.
         14    1    4    4    0    0 -0.87672818847E+01 -0.20615867197E+02 -0.12436912827E+03  0.12637072160E+03  0.00000000000E+00 0. -1.
<mgrwt>
<rscale>  0 0.79340259E+02</rscale>
<asrwt>0</asrwt>
<pdfrwt beam="1">  1        2 0.38465438E-01 0.79340259E+02</pdfrwt>
<pdfrwt beam="2">  1       -1 0.96834439E-03 0.79340259E+02</pdfrwt>
<totfact> 0.24394354E+05</totfact>
</mgrwt>
</event>
<event>
 8    1  0.2784205E-020  0.7964785E+02  0.7818608E-02  0.1330054E+00
         -1   -1    0    0    0  501 -0.00000000000E+00  0.00000000000E+00  0.61392958008E+01  0.61392978696E+01  0.50400000000E-02 0.  1.
          2   -1    0    0  501    0  0.00000000000E+00 -0.00000000000E+00 -0.25832682686E+03  0.25832682687E+03  0.25500000000E-02 0. -1.
         24    2    1    2    0    0 -0.71054273576E-14  0.00000000000E+00 -0.25218753106E+03  0.26446612474E+03  0.79647851914E+02 0.  0.
         66    2    3    3    0    0  0.27457951395E+02 -0.91794640289E+01 -0.21684840414E+03  0.21878169950E+03  0.20000004462E+01 0.  0.
        -13    1    3    3    0    0 -0.27457951395E+02  0.91794640289E+01 -0.35339126922E+02  0.45684425248E+02  0.10566000000E+00 0.  1.
         13    1    4    4    0    0  0.79062391216E+01 -0.23281480808E+01 -0.63630140615E+02  0.64161786518E+02  0.10566000000E+00 0. -1.
        -13    1    4    4    0    0  0.87640621333E+00 -0.51724710474E+00 -0.95202839214E+01  0.95751032578E+01  0.10566000000E+00 0. -1.
        -14    1    4    4    0    0  0.18675306060E+02 -0.63340688434E+01 -0.14369797960E+03  0.14504480972E+03  0.00000000000E+00 0.  1.
<mgrwt>
<rscale>  0 0.79647852E+02</rscale>
<asrwt>0</asrwt>
<pdfrwt beam="1">  1        2 0.39742580E-01 0.79647852E+02</pdfrwt>
<pdfrwt beam="2">  1       -1 0.94450741E-03 0.79647852E+02</pdfrwt>
<totfact> 0.24432386E+05</totfact>
</mgrwt>
</event>
<event>
 8    1  0.2433467E-020  0.7755895E+02  0.7818608E-02  0.1336125E+00
         -1   -1    0    0    0  501 -0.00000000000E+00  0.00000000000E+00  0.33781037199E+01  0.33781074796E+01  0.50400000000E-02 0.  1.
          2   -1    0    0  501    0  0.00000000000E+00 -0.00000000000E+00 -0.44517483194E+03  0.44517483195E+03  0.25500000000E-02 0. -1.
         24    2    1    2    0    0  0.71054273576E-14  0.17763568394E-14 -0.44179672822E+03  0.44855293943E+03  0.77558947921E+02 0.  0.
         66    2    3    3    0    0 -0.33662496718E+02 -0.15469039661E+02 -0.28683008582E+03  0.28921955845E+03  0.19999960628E+01 0.  0.
        -13    1    3    3    0    0  0.33662496718E+02  0.15469039661E+02 -0.15496664240E+03  0.15933338098E+03  0.10566000000E+00 0.  1.
         13    1    4    4    0    0 -0.11485165086E+02 -0.52429202294E+01 -0.10181102939E+03  0.10259090651E+03  0.10566000000E+00 0. -1.
        -13    1    4    4    0    0 -0.55281706198E+01 -0.30968752532E+01 -0.45720014776E+02  0.46157147029E+02  0.10566000000E+00 0.  1.
        -14    1    4    4    0    0 -0.16649161012E+02 -0.71292441781E+01 -0.13929904165E+03  0.14047150490E+03  0.00000000000E+00 0.  1.
<mgrwt>
<rscale>  0 0.77558948E+02</rscale>
<asrwt>0</asrwt>
<pdfrwt beam="1">  1        2 0.68488389E-01 0.77558948E+02</pdfrwt>
<pdfrwt beam="2">  1       -1 0.51970891E-03 0.77558948E+02</pdfrwt>
<totfact> 0.31776542E+05</totfact>
</mgrwt>
</event>
<event>
 8    1  0.2433467E-020  0.7913270E+02  0.7818608E-02  0.1331531E+00
          2   -1    0    0  501    0  0.00000000000E+00  0.00000000000E+00  0.29839392153E+03  0.29839392154E+03  0.25500000000E-02 0. -1.
         -1   -1    0    0    0  501 -0.00000000000E+00 -0.00000000000E+00 -0.52464057446E+01  0.52464081654E+01  0.50400000000E-02 0.  1.
         24    2    1    2    0    0  0.00000000000E+00  0.00000000000E+00  0.29314751578E+03  0.30364032970E+03  0.79132697496E+02 0.  0.
         66    2    3    3    0    0  0.22956211503E+02  0.18331115801E+02  0.24822166713E+03  0.24996202408E+03  0.19999994086E+01 0.  0.
        -13    1    3    3    0    0 -0.22956211503E+02 -0.18331115801E+02  0.44925848651E+02  0.53678305619E+02  0.10566000000E+00 0.  1.
         13    1    4    4    0    0  0.11146474754E+02  0.96972369474E+01  0.12958706669E+03  0.13042660511E+03  0.10566000000E+00 0. -1.
        -13    1    4    4    0    0  0.14323332312E+01  0.10616450758E+01  0.12795318729E+02  0.12919365857E+02  0.10566000000E+00 0.  1.
         14    1    4    4    0    0  0.10377403518E+02  0.75722337776E+01  0.10583928171E+03  0.10661605311E+03  0.00000000000E+00 0. -1.
<mgrwt>
<rscale>  0 0.79132697E+02</rscale>
<asrwt>0</asrwt>
<pdfrwt beam="1">  1        2 0.45906761E-01 0.79132697E+02</pdfrwt>
<pdfrwt beam="2">  1       -1 0.80713946E-03 0.79132697E+02</pdfrwt>
<totfact> 0.26182313E+05</totfact>
</mgrwt>
</event>
<event>
 8    1  0.2433467E-020  0.7965820E+02  0.7818608E-02  0.1330024E+00
         -1   -1    0    0    0  501 -0.00000000000E+00  0.00000000000E+00  0.38466754747E+02  0.38466755078E+02  0.50400000000E-02 0.  1.
          2   -1    0    0  501    0  0.00000000000E+00 -0.00000000000E+00 -0.41239690297E+02  0.41239690376E+02  0.25500000000E-02 0. -1.
         24    2    1    2    0    0  0.00000000000E+00  0.00000000000E+00 -0.27729355499E+01  0.79706445454E+02  0.79658196536E+02 0.  0.
         66    2    3    3    0    0 -0.21331200137E+02 -0.20256483190E+02  0.25443206137E+02  0.38944857822E+02  0.20000004130E+01 0.  0.
        -13    1    3    3    0    0  0.21331200137E+02  0.20256483190E+02 -0.28216141687E+02  0.40761587632E+02  0.10566000000E+00 0.  1.
         13    1    4    4    0    0 -0.10883281790E+02 -0.96393713346E+01  0.12678304756E+02  0.19290253440E+02  0.10566000000E+00 0. -1.
        -13    1    4    4    0    0 -0.69499001772E+01 -0.67190046537E+01  0.89590256080E+01  0.13180342935E+02  0.10566000000E+00 0.  1.
        -14    1    4    4    0    0 -0.34980181705E+01 -0.38981072019E+01  0.38058757735E+01  0.64742614468E+01  0.00000000000E+00 0.  1.
<mgrwt>
<rscale>  0 0.79658197E+02</rscale>
<asrwt>0</asrwt>
<pdfrwt beam="1">  1        2 0.63445678E-02 0.79658197E+02</pdfrwt>
<pdfrwt beam="2">  1       -1 0.59179623E-02 0.79658197E+02</pdfrwt>
<totfact> 0.14515738E+05</totfact>
</mgrwt>
</event>
<event>
 8    1  0.2433467E-020  0.8076486E+02  0.7818608E-02  0.1326895E+00
         -1   -1    0    0    0  501 -0.00000000000E+00  0.00000000000E+00  0.38877657766E+01  0.38877690434E+01  0.50400000000E-02 0.  1.
          2   -1    0    0  501    0  0.00000000000E+00 -0.00000000000E+00 -0.41945426338E+03  0.41945426338E+03  0.25500000000E-02 0. -1.
         24    2    1    2    0    0  0.83266726847E-16  0.00000000000E+00 -0.41556649760E+03  0.42334203243E+03  0.80764859268E+02 0.  0.
         66    2    3    3    0    0  0.22172898645E+00  0.39746283473E+02 -0.24457176421E+03  0.24778854706E+03  0.19999978896E+01 0.  0.
        -13    1    3    3    0    0 -0.22172898645E+00 -0.39746283473E+02 -0.17099473339E+03  0.17555348537E+03  0.10566000000E+00 0.  1.
         13    1    4    4    0    0 -0.20795829929E+00  0.54345186291E+01 -0.32852148185E+02  0.33299430082E+02  0.10566000000E+00 0. -1.
        -13    1    4    4    0    0 -0.34157343653E+00  0.27297974322E+02 -0.16862931382E+03  0.17082491831E+03  0.10566000000E+00 0.  1.
        -14    1    4    4    0    0  0.77126072227E+00  0.70137905222E+01 -0.43090302207E+02  0.43664198663E+02  0.00000000000E+00 0.  1.
<mgrwt>
<rscale>  0 0.80764859E+02</rscale>
<asrwt>0</asrwt>
<pdfrwt beam="1">  1        2 0.64531389E-01 0.80764859E+02</pdfrwt>
<pdfrwt beam="2">  1       -1 0.59811840E-03 0.80764859E+02</pdfrwt>
<totfact> 0.28018114E+05</totfact>
</mgrwt>
</event>
<event>
 8    1  0.2433467E-020  0.8275639E+02  0.7818608E-02  0.1321406E+00
          2   -1    0    0  501    0  0.00000000000E+00  0.00000000000E+00  0.18022955265E+02  0.18022955445E+02  0.25500000000E-02 0. -1.
         -1   -1    0    0    0  501 -0.00000000000E+00 -0.00000000000E+00 -0.94998567425E+02  0.94998567558E+02  0.50400000000E-02 0.  1.
         24    2    1    2    0    0 -0.71054273576E-14  0.00000000000E+00 -0.76975612160E+02  0.11302152300E+03  0.82756388240E+02 0.  0.
         66    2    3    3    0    0 -0.38238182233E+02  0.12707097731E+02 -0.51213636844E+02  0.65195594372E+02  0.20000033635E+01 0.  0.
        -13    1    3    3    0    0  0.38238182233E+02 -0.12707097731E+02 -0.25761975316E+02  0.47825928632E+02  0.10566000000E+00 0.  1.
         13    1    4    4    0    0 -0.19244044316E+02  0.69323312094E+01 -0.26289605536E+02  0.33309833096E+02  0.10566000000E+00 0. -1.
        -13    1    4    4    0    0 -0.49008634037E+01  0.19586945792E+01 -0.70074957477E+01  0.87733179154E+01  0.10566000000E+00 0.  1.
        -14    1    4    4    0    0 -0.14093274513E+02  0.38160719421E+01 -0.17916535560E+02  0.23112443360E+02  0.00000000000E+00 0.  1.
<mgrwt>
<rscale>  0 0.82756388E+02</rscale>
<asrwt>0</asrwt>
<pdfrwt beam="1">  1        2 0.27727624E-02 0.82756388E+02</pdfrwt>
<pdfrwt beam="2">  1       -1 0.14615164E-01 0.82756388E+02</pdfrwt>
<totfact> 0.11014982E+05</totfact>
</mgrwt>
</event>
<event>
 8    1  0.2433467E-020  0.8001156E+02  0.7818608E-02  0.1329019E+00
         -1   -1    0    0    0  501 -0.00000000000E+00  0.00000000000E+00  0.10657816444E+02  0.10657817636E+02  0.50400000000E-02 0.  1.
          2   -1    0    0  501    0  0.00000000000E+00 -0.00000000000E+00 -0.15016794764E+03  0.15016794766E+03  0.25500000000E-02 0. -1.
         24    2    1    2    0    0  0.00000000000E+00  0.88817841970E-15 -0.13951013120E+03  0.16082576530E+03  0.80011562148E+02 0.  0.
         66    2    3    3    0    0 -0.36414420419E+02  0.53451494091E+01 -0.38408751568E+02  0.53233568725E+02  0.20000013927E+01 0.  0.
        -13    1    3    3    0    0  0.36414420419E+02 -0.53451494091E+01 -0.10110137963E+03  0.10759219657E+03  0.10566000000E+00 0.  1.
         13    1    4    4    0    0 -0.30708996245E+01  0.26693192454E+00 -0.32589692953E+01  0.44870616287E+01  0.10566000000E+00 0. -1.
        -13    1    4    4    0    0 -0.10709115721E+02  0.13740074076E+01 -0.12394276437E+02  0.16437831618E+02  0.10566000000E+00 0.  1.
         14    1    4    4    0    0 -0.22634405074E+02  0.37042100769E+01 -0.22755505836E+02  0.32308675479E+02  0.00000000000E+00 0. -1.
<mgrwt>
<rscale>  0 0.80011562E+02</rscale>
<asrwt>0</asrwt>
<pdfrwt beam="1">  1        2 0.23102760E-01 0.80011562E+02</pdfrwt>
<pdfrwt beam="2">  1       -1 0.16396643E-02 0.80011562E+02</pdfrwt>
<totfact> 0.20029554E+05</totfact>
</mgrwt>
</event>
<event>
 8    1  0.2433467E-020  0.8003518E+02  0.7818608E-02  0.1328952E+00
         -1   -1    0    0    0  501 -0.00000000000E+00  0.00000000000E+00  0.75307792648E+02  0.75307792817E+02  0.50400000000E-02 0.  1.
          2   -1    0    0  501    0  0.00000000000E+00 -0.00000000000E+00 -0.21264833175E+02  0.21264833328E+02  0.25500000000E-02 0. -1.
         24    2    1    2    0    0  0.35527136788E-14  0.00000000000E+00  0.54042959473E+02  0.96572626145E+02  0.80035183837E+02 0.  0.
         66    2    3    3    0    0 -0.31426512192E+02  0.13116790208E+02  0.17357389130E+01  0.34156824134E+02  0.19999978609E+01 0.  0.
        -13    1    3    3    0    0  0.31426512192E+02 -0.13116790208E+02  0.52307220560E+02  0.62415802011E+02  0.10566000000E+00 0.  1.
         13    1    4    4    0    0 -0.21781814791E+02  0.94033683300E+01  0.10478154928E+01  0.23748260418E+02  0.10566000000E+00 0. -1.
        -13    1    4    4    0    0 -0.44939644401E+00  0.24985701509E+00 -0.15271630154E+00  0.54669186590E+00  0.10566000000E+00 0.  1.
         14    1    4    4    0    0 -0.91953009564E+01  0.34635648625E+01  0.84063972171E+00  0.98618718496E+01  0.00000000000E+00 0. -1.
<mgrwt>
<rscale>  0 0.80035184E+02</rscale>
<asrwt>0</asrwt>
<pdfrwt beam="1">  1        2 0.32715127E-02 0.80035184E+02</pdfrwt>
<pdfrwt beam="2">  1       -1 0.11585815E-01 0.80035184E+02</pdfrwt>
<totfact> 0.12554124E+05</totfact>
</mgrwt>
</event>
<event>
 8    1  0.2433467E-020  0.8032955E+02  0.7818608E-02  0.1328119E+00
         -1   -1    0    0    0  501 -0.00000000000E+00  0.00000000000E+00  0.75330303934E+02  0.75330304103E+02  0.50400000000E-02 0.  1.
          2   -1    0    0  501    0  0.00000000000E+00 -0.00000000000E+00 -0.21415139354E+02  0.21415139506E+02  0.25500000000E-02 0. -1.
         24    2    1    2    0    0  0.00000000000E+00  0.71054273576E-14  0.53915164580E+02  0.96745443609E+02  0.80329545544E+02 0.  0.
         66    2    3    3    0    0  0.10128434122E+02 -0.35011412135E+02  0.67202765601E+01  0.37115310482E+02  0.19999994177E+01 0.  0.
        -13    1    3    3    0    0 -0.10128434122E+02  0.35011412135E+02  0.47194888020E+02  0.59630133127E+02  0.10566000000E+00 0.  1.
         13    1    4    4    0    0  0.54010453499E+01 -0.15888627927E+02  0.36577619372E+01  0.17175860232E+02  0.10566000000E+00 0. -1.
        -13    1    4    4    0    0  0.83994276071E+00 -0.36550520773E+01  0.46409241066E+00  0.37804041226E+01  0.10566000000E+00 0.  1.
         14    1    4    4    0    0  0.38874460109E+01 -0.15467732131E+02  0.25984222122E+01  0.16159046128E+02  0.00000000000E+00 0. -1.
<mgrwt>
<rscale>  0 0.80329546E+02</rscale>
<asrwt>0</asrwt>
<pdfrwt beam="1">  1        2 0.32946368E-02 0.80329546E+02</pdfrwt>
<pdfrwt beam="2">  1       -1 0.11589278E-01 0.80329546E+02</pdfrwt>
<totfact> 0.12440525E+05</totfact>
</mgrwt>
</event>
<event>
 8    1  0.2433467E-020  0.7973351E+02  0.7818608E-02  0.1329809E+00
          2   -1    0    0  501    0  0.00000000000E+00  0.00000000000E+00  0.11010474179E+03  0.11010474182E+03  0.25500000000E-02 0. -1.
         -1   -1    0    0    0  501 -0.00000000000E+00 -0.00000000000E+00 -0.14434964363E+02  0.14434965242E+02  0.50400000000E-02 0.  1.
         24    2    1    2    0    0  0.00000000000E+00 -0.35527136788E-14  0.95669777428E+02  0.12453970706E+03  0.79733508151E+02 0.  0.
         66    2    3    3    0    0 -0.22505520521E+02 -0.26201755894E+02  0.78881404896E+02  0.86135396338E+02  0.19999995252E+01 0.  0.
        -13    1    3    3    0    0  0.22505520521E+02  0.26201755894E+02  0.16788372532E+02  0.38404310724E+02  0.10566000000E+00 0.  1.
         13    1    4    4    0    0 -0.63975434333E+01 -0.69269023821E+01  0.20786780110E+02  0.22825685750E+02  0.10566000000E+00 0. -1.
        -13    1    4    4    0    0 -0.18773981791E+01 -0.18195016154E+01  0.52370606374E+01  0.58543298683E+01  0.10566000000E+00 0.  1.
         14    1    4    4    0    0 -0.14230578909E+02 -0.17455351897E+02  0.52857564149E+02  0.57455380720E+02  0.00000000000E+00 0. -1.
<mgrwt>
<rscale>  0 0.79733508E+02</rscale>
<asrwt>0</asrwt>
<pdfrwt beam="1">  1        2 0.16939192E-01 0.79733508E+02</pdfrwt>
<pdfrwt beam="2">  1       -1 0.22207638E-02 0.79733508E+02</pdfrwt>
<totfact> 0.18381957E+05</totfact>
</mgrwt>
</event>
<event>
 8    1  0.2433467E-020  0.7511288E+02  0.7818608E-02  0.1343522E+00
          2   -1    0    0  501    0  0.00000000000E+00  0.00000000000E+00  0.85963557830E+01  0.85963561612E+01  0.25500000000E-02 0. -1.
         -1   -1    0    0    0  501 -0.00000000000E+00 -0.00000000000E+00 -0.16407952492E+03  0.16407952499E+03  0.50400000000E-02 0.  1.
         24    2    1    2    0    0  0.00000000000E+00  0.00000000000E+00 -0.15548316913E+03  0.17267588115E+03  0.75112875387E+02 0.  0.
         66    2    3    3    0    0  0.34801714831E+02 -0.12990375248E+02 -0.65508380457E+02  0.75334302343E+02  0.19999987693E+01 0.  0.
        -13    1    3    3    0    0 -0.34801714831E+02  0.12990375248E+02 -0.89974788676E+02  0.97341578811E+02  0.10566000000E+00 0.  1.
         13    1    4    4    0    0  0.10915106805E+02 -0.45780031724E+01 -0.19476008439E+02  0.22790869627E+02  0.10566000000E+00 0. -1.
        -13    1    4    4    0    0  0.88193274121E+01 -0.31645433041E+01 -0.17709309946E+02  0.20035610625E+02  0.10566000000E+00 0.  1.
        -14    1    4    4    0    0  0.15067280615E+02 -0.52478287713E+01 -0.28323062073E+02  0.32507822091E+02  0.00000000000E+00 0.  1.
<mgrwt>
<rscale>  0 0.75112875E+02</rscale>
<asrwt>0</asrwt>
<pdfrwt beam="1">  1        2 0.13225164E-02 0.75112875E+02</pdfrwt>
<pdfrwt beam="2">  1       -1 0.25243001E-01 0.75112875E+02</pdfrwt>
<totfact> 0.12360032E+05</totfact>
</mgrwt>
</event>
<event>
 8    1  0.2433467E-020  0.8215385E+02  0.7818608E-02  0.1323048E+00
          2   -1    0    0  501    0  0.00000000000E+00  0.00000000000E+00  0.38719122881E+02  0.38719122965E+02  0.25500000000E-02 0. -1.
         -1   -1    0    0    0  501 -0.00000000000E+00 -0.00000000000E+00 -0.43578305598E+02  0.43578305889E+02  0.50400000000E-02 0.  1.
         24    2    1    2    0    0  0.00000000000E+00  0.44408920985E-15 -0.48591827165E+01  0.82297428855E+02  0.82153850423E+02 0.  0.
         66    2    3    3    0    0 -0.38815340290E+02 -0.37505514465E+01 -0.15283552114E+02  0.41931900005E+02  0.19999986996E+01 0.  0.
        -13    1    3    3    0    0  0.38815340290E+02  0.37505514465E+01  0.10424369397E+02  0.40365528850E+02  0.10566000000E+00 0.  1.
         13    1    4    4    0    0 -0.16206917602E+02 -0.18743525252E+01 -0.62863857322E+01  0.17484484126E+02  0.10566000000E+00 0. -1.
        -13    1    4    4    0    0 -0.26600909027E+01  0.18743664573E+00 -0.84935508420E+00  0.28006756687E+01  0.10566000000E+00 0.  1.
        -14    1    4    4    0    0 -0.19948331785E+02 -0.20636355670E+01 -0.81478112974E+01  0.21646740210E+02  0.00000000000E+00 0.  1.
<mgrwt>
<rscale>  0 0.82153850E+02</rscale>
<asrwt>0</asrwt>
<pdfrwt beam="1">  1        2 0.59567882E-02 0.82153850E+02</pdfrwt>
<pdfrwt beam="2">  1       -1 0.67043547E-02 0.82153850E+02</pdfrwt>
<totfact> 0.13154288E+05</totfact>
</mgrwt>
</event>
<event>
 8    1  0.2433467E-020  0.7981159E+02  0.7818608E-02  0.1329587E+00
         -1   -1    0    0    0  501 -0.00000000000E+00  0.00000000000E+00  0.12267154374E+03  0.12267154385E+03  0.50400000000E-02 0.  1.
          2   -1    0    0  501    0  0.00000000000E+00 -0.00000000000E+00 -0.12981596744E+02  0.12981596995E+02  0.25500000000E-02 0. -1.
         24    2    1    2    0    0  0.00000000000E+00  0.35527136788E-14  0.10968994700E+03  0.13565314084E+03  0.79811591562E+02 0.  0.
         66    2    3    3    0    0 -0.46246676355E+01 -0.28245719953E+02  0.76769156332E+01  0.29700896982E+02  0.20000003794E+01 0.  0.
        -13    1    3    3    0    0  0.46246676355E+01  0.28245719953E+02  0.10201303137E+03  0.10595224386E+03  0.10566000000E+00 0.  1.
         13    1    4    4    0    0 -0.91850616285E+00 -0.58978200072E+01  0.14431745529E+01  0.61418117225E+01  0.10566000000E+00 0. -1.
        -13    1    4    4    0    0 -0.35162653642E+01 -0.16616515754E+02  0.46380072858E+01  0.17606674687E+02  0.10566000000E+00 0.  1.
        -14    1    4    4    0    0 -0.18989610844E+00 -0.57313841920E+01  0.15957337945E+01  0.59524105731E+01  0.00000000000E+00 0.  1.
<mgrwt>
<rscale>  0 0.79811592E+02</rscale>
<asrwt>0</asrwt>
<pdfrwt beam="1">  1        2 0.19971687E-02 0.79811592E+02</pdfrwt>
<pdfrwt beam="2">  1       -1 0.18872545E-01 0.79811592E+02</pdfrwt>
<totfact> 0.11394184E+05</totfact>
</mgrwt>
</event>
<event>
 8    1  0.2433467E-020  0.8133500E+02  0.7818608E-02  0.1325305E+00
         -1   -1    0    0    0  501 -0.00000000000E+00  0.00000000000E+00  0.42296801180E+01  0.42296831208E+01  0.50400000000E-02 0.  1.
          2   -1    0    0  501    0  0.00000000000E+00 -0.00000000000E+00 -0.39100950184E+03  0.39100950185E+03  0.25500000000E-02 0. -1.
         24    2    1    2    0    0 -0.44408920985E-15 -0.35527136788E-14 -0.38677982173E+03  0.39523918497E+03  0.81335003804E+02 0.  0.
         66    2    3    3    0    0  0.33111892942E+01  0.21774602937E+02 -0.35949203075E+03  0.36017165001E+03  0.19999987403E+01 0.  0.
        -13    1    3    3    0    0 -0.33111892942E+01 -0.21774602937E+02 -0.27287790978E+02  0.35067534959E+02  0.10566000000E+00 0.  1.
         13    1    4    4    0    0  0.14138782341E-01  0.12012215127E+01 -0.23709365861E+02  0.23740015303E+02  0.10566000000E+00 0. -1.
        -13    1    4    4    0    0  0.41411664431E+00  0.50001219326E+01 -0.73298553350E+02  0.73470142229E+02  0.10566000000E+00 0.  1.
         14    1    4    4    0    0  0.28829338675E+01  0.15573259492E+02 -0.26248411154E+03  0.26296149248E+03  0.00000000000E+00 0. -1.
<mgrwt>
<rscale>  0 0.81335004E+02</rscale>
<asrwt>0</asrwt>
<pdfrwt beam="1">  1        2 0.60155280E-01 0.81335004E+02</pdfrwt>
<pdfrwt beam="2">  1       -1 0.65072056E-03 0.81335004E+02</pdfrwt>
<totfact> 0.26842153E+05</totfact>
</mgrwt>
</event>
<event>
 8    1  0.2433467E-020  0.8424186E+02  0.7818608E-02  0.1317427E+00
         -1   -1    0    0    0  501 -0.00000000000E+00  0.00000000000E+00  0.13200926426E+01  0.13201022637E+01  0.50400000000E-02 0.  1.
          2   -1    0    0  501    0  0.00000000000E+00 -0.00000000000E+00 -0.13439708892E+04  0.13439708892E+04  0.25500000000E-02 0. -1.
         24    2    1    2    0    0  0.88817841970E-15  0.00000000000E+00 -0.13426507965E+04  0.13452909914E+04  0.84241855531E+02 0.  0.
         66    2    3    3    0    0  0.50182009863E+01  0.23550879493E+02 -0.12231304547E+04  0.12233690921E+04  0.19999991470E+01 0.  0.
        -13    1    3    3    0    0 -0.50182009863E+01 -0.23550879493E+02 -0.11952034184E+03  0.12192189936E+03  0.10566000000E+00 0.  1.
         13    1    4    4    0    0  0.15173277658E+01  0.57302327440E+01 -0.28636184863E+03  0.28642321374E+03  0.10566000000E+00 0. -1.
        -13    1    4    4    0    0  0.41346676206E-01  0.95428988817E-01 -0.12266917738E+02  0.12267813622E+02  0.10566000000E+00 0. -1.
        -14    1    4    4    0    0  0.34595265444E+01  0.17725217760E+02 -0.92450168831E+03  0.92467806471E+03  0.00000000000E+00 0.  1.
<mgrwt>
<rscale>  0 0.84241856E+02</rscale>
<asrwt>0</asrwt>
<pdfrwt beam="1">  1        2 0.20676366E+00 0.84241856E+02</pdfrwt>
<pdfrwt beam="2">  1       -1 0.20309299E-03 0.84241856E+02</pdfrwt>
<totfact> 0.30045367E+05</totfact>
</mgrwt>
</event>
<event>
 8    1  0.2433467E-020  0.7826023E+02  0.7818608E-02  0.1334062E+00
         -1   -1    0    0    0  501 -0.00000000000E+00  0.00000000000E+00  0.21897238837E+02  0.21897239417E+02  0.50400000000E-02 0.  1.
          2   -1    0    0  501    0  0.00000000000E+00 -0.00000000000E+00 -0.69925069595E+02  0.69925069642E+02  0.25500000000E-02 0. -1.
         24    2    1    2    0    0 -0.17763568394E-14  0.00000000000E+00 -0.48027830758E+02  0.91822309059E+02  0.78260232006E+02 0.  0.
         66    2    3    3    0    0 -0.15654626044E+02 -0.32266675345E+02 -0.42317729232E+02  0.55506719048E+02  0.19999994452E+01 0.  0.
        -13    1    3    3    0    0  0.15654626044E+02  0.32266675345E+02 -0.57101015263E+01  0.36315590011E+02  0.10566000000E+00 0.  1.
         13    1    4    4    0    0 -0.80599480414E+00 -0.27460403640E+01 -0.36182763553E+01  0.46144829747E+01  0.10566000000E+00 0. -1.
        -13    1    4    4    0    0 -0.43186529147E+01 -0.92145743124E+01 -0.11992796376E+02  0.15728873822E+02  0.10566000000E+00 0.  1.
        -14    1    4    4    0    0 -0.10529978325E+02 -0.20306060668E+02 -0.26706656501E+02  0.35163362252E+02  0.00000000000E+00 0.  1.
<mgrwt>
<rscale>  0 0.78260232E+02</rscale>
<asrwt>0</asrwt>
<pdfrwt beam="1">  1        2 0.10757703E-01 0.78260232E+02</pdfrwt>
<pdfrwt beam="2">  1       -1 0.33688061E-02 0.78260232E+02</pdfrwt>
<totfact> 0.17130762E+05</totfact>
</mgrwt>
</event>
<event>
 8    1  0.2433467E-020  0.7820550E+02  0.7818608E-02  0.1334222E+00
         -1   -1    0    0    0  501 -0.00000000000E+00  0.00000000000E+00  0.48977825281E+01  0.48977851213E+01  0.50400000000E-02 0.  1.
          2   -1    0    0  501    0  0.00000000000E+00 -0.00000000000E+00 -0.31218715134E+03  0.31218715135E+03  0.25500000000E-02 0. -1.
         24    2    1    2    0    0  0.22204460493E-15  0.35527136788E-14 -0.30728936882E+03  0.31708493648E+03  0.78205503339E+02 0.  0.
         66    2    3    3    0    0 -0.15394332868E+01 -0.17577085521E+02 -0.29511281073E+03  0.29564657084E+03  0.20000008594E+01 0.  0.
        -13    1    3    3    0    0  0.15394332868E+01  0.17577085521E+02 -0.12176558089E+02  0.21438365637E+02  0.10566000000E+00 0.  1.
         13    1    4    4    0    0  0.26710714359E+00 -0.33849467516E+01 -0.61560533525E+02  0.61654194202E+02  0.10566000000E+00 0. -1.
        -13    1    4    4    0    0 -0.85491749175E+00 -0.46105280939E+01 -0.70099425195E+02  0.70256162932E+02  0.10566000000E+00 0.  1.
         14    1    4    4    0    0 -0.95162293865E+00 -0.95816106750E+01 -0.16345285201E+03  0.16373621371E+03  0.00000000000E+00 0. -1.
<mgrwt>
<rscale>  0 0.78205503E+02</rscale>
<asrwt>0</asrwt>
<pdfrwt beam="1">  1        2 0.48028777E-01 0.78205503E+02</pdfrwt>
<pdfrwt beam="2">  1       -1 0.75350545E-03 0.78205503E+02</pdfrwt>
<totfact> 0.27446734E+05</totfact>
</mgrwt>
</event>
<event>
 8    1  0.2433467E-020  0.8592211E+02  0.7818608E-02  0.1313039E+00
         -1   -1    0    0    0  501 -0.00000000000E+00  0.00000000000E+00  0.35453985956E+03  0.35453985960E+03  0.50400000000E-02 0.  1.
          2   -1    0    0  501    0  0.00000000000E+00 -0.00000000000E+00 -0.52057678686E+01  0.52057684932E+01  0.25500000000E-02 0. -1.
         24    2    1    2    0    0  0.35527136788E-14 -0.71054273576E-14  0.34933409169E+03  0.35974562809E+03  0.85922111889E+02 0.  0.
         66    2    3    3    0    0  0.19691345537E+02 -0.34767742358E+02  0.10894580055E+03  0.11605917652E+03  0.19999996698E+01 0.  0.
        -13    1    3    3    0    0 -0.19691345537E+02  0.34767742358E+02  0.24038829115E+03  0.24368645158E+03  0.10566000000E+00 0.  1.
         13    1    4    4    0    0  0.68607370528E+01 -0.13295902152E+02  0.42083613262E+02  0.44664218298E+02  0.10566000000E+00 0. -1.
        -13    1    4    4    0    0  0.96975808143E+00 -0.19293635617E+01  0.51915136873E+01  0.56236867703E+01  0.10566000000E+00 0.  1.
         14    1    4    4    0    0  0.11860850402E+02 -0.19542476644E+02  0.61670673598E+02  0.65771271447E+02  0.00000000000E+00 0. -1.
<mgrwt>
<rscale>  0 0.85922112E+02</rscale>
<asrwt>0</asrwt>
<pdfrwt beam="1">  1        2 0.80088721E-03 0.85922112E+02</pdfrwt>
<pdfrwt beam="2">  1       -1 0.54544608E-01 0.85922112E+02</pdfrwt>
<totfact> 0.66892979E+04</totfact>
</mgrwt>
</event>
<event>
 8    1  0.2433467E-020  0.7956516E+02  0.7818608E-02  0.1330290E+00
         -1   -1    0    0    0  501 -0.00000000000E+00  0.00000000000E+00  0.36720492378E+02  0.36720492724E+02  0.50400000000E-02 0.  1.
          2   -1    0    0  501    0  0.00000000000E+00 -0.00000000000E+00 -0.43100008953E+02  0.43100009029E+02  0.25500000000E-02 0. -1.
         24    2    1    2    0    0  0.00000000000E+00  0.00000000000E+00 -0.63795165749E+01  0.79820501753E+02  0.79565157377E+02 0.  0.
         66    2    3    3    0    0 -0.35177082929E+02 -0.16086816747E+02 -0.12410151628E+02  0.40672161307E+02  0.20000013767E+01 0.  0.
        -13    1    3    3    0    0  0.35177082929E+02  0.16086816747E+02  0.60306350528E+01  0.39148340446E+02  0.10566000000E+00 0.  1.
         13    1    4    4    0    0 -0.10632019565E+02 -0.55097964989E+01 -0.35239659191E+01  0.12483076436E+02  0.10566000000E+00 0. -1.
        -13    1    4    4    0    0 -0.20675847292E+02 -0.84470166071E+01 -0.74031869818E+01  0.23530004087E+02  0.10566000000E+00 0.  1.
        -14    1    4    4    0    0 -0.38692160730E+01 -0.21300036414E+01 -0.14829987268E+01  0.46590807844E+01  0.00000000000E+00 0.  1.
<mgrwt>
<rscale>  0 0.79565157E+02</rscale>
<asrwt>0</asrwt>
<pdfrwt beam="1">  1        2 0.66307706E-02 0.79565157E+02</pdfrwt>
<pdfrwt beam="2">  1       -1 0.56493066E-02 0.79565157E+02</pdfrwt>
<totfact> 0.14696388E+05</totfact>
</mgrwt>
</event>
<event>
 8    1  0.2433467E-020  0.7959976E+02  0.7818608E-02  0.1330191E+00
          2   -1    0    0  501    0  0.00000000000E+00  0.00000000000E+00  0.10020105770E+04  0.10020105770E+04  0.25500000000E-02 0. -1.
         -1   -1    0    0    0  501 -0.00000000000E+00 -0.00000000000E+00 -0.15808479601E+01  0.15808559943E+01  0.50400000000E-02 0.  1.
         24    2    1    2    0    0  0.00000000000E+00  0.00000000000E+00  0.10004297290E+04  0.10035914330E+04  0.79599759040E+02 0.  0.
         66    2    3    3    0    0  0.17744952228E+02 -0.11847599522E+02  0.92374772467E+03  0.92399627044E+03  0.20000032570E+01 0.  0.
        -13    1    3    3    0    0 -0.17744952228E+02  0.11847599522E+02  0.76682004355E+02  0.79595162541E+02  0.10566000000E+00 0.  1.
         13    1    4    4    0    0  0.10079997512E+02 -0.65097691302E+01  0.51902483186E+03  0.51916352982E+03  0.10566000000E+00 0. -1.
        -13    1    4    4    0    0  0.32190567097E+01 -0.21699037372E+01  0.19599052886E+03  0.19602900136E+03  0.10566000000E+00 0.  1.
        -14    1    4    4    0    0  0.44458980062E+01 -0.31679266546E+01  0.20873236394E+03  0.20880373925E+03  0.00000000000E+00 0.  1.
<mgrwt>
<rscale>  0 0.79599759E+02</rscale>
<asrwt>0</asrwt>
<pdfrwt beam="1">  1        2 0.15415536E+00 0.79599759E+02</pdfrwt>
<pdfrwt beam="2">  1       -1 0.24320818E-03 0.79599759E+02</pdfrwt>
<totfact> 0.35695764E+05</totfact>
</mgrwt>
</event>
<event>
 8    1  0.2433467E-020  0.7797234E+02  0.7818608E-02  0.1334906E+00
          2   -1    0    0  501    0  0.00000000000E+00  0.00000000000E+00  0.67495479194E+03  0.67495479194E+03  0.25500000000E-02 0. -1.
         -1   -1    0    0    0  501 -0.00000000000E+00 -0.00000000000E+00 -0.22518834505E+01  0.22518890906E+01  0.50400000000E-02 0.  1.
         24    2    1    2    0    0  0.00000000000E+00  0.00000000000E+00  0.67270290849E+03  0.67720668103E+03  0.77972339639E+02 0.  0.
         66    2    3    3    0    0  0.16910104387E+02 -0.59017262098E+00  0.64137456588E+03  0.64160083673E+03  0.19999994733E+01 0.  0.
        -13    1    3    3    0    0 -0.16910104387E+02  0.59017262098E+00  0.31328342603E+02  0.35605844302E+02  0.10566000000E+00 0.  1.
         13    1    4    4    0    0  0.36829805513E+01 -0.47445325563E+00  0.12883424812E+03  0.12888779657E+03  0.10566000000E+00 0. -1.
        -13    1    4    4    0    0  0.19805312080E+01 -0.99052572135E-01  0.98432220405E+02  0.98452249812E+02  0.10566000000E+00 0.  1.
         14    1    4    4    0    0  0.11246592628E+02 -0.16666793217E-01  0.41410809736E+03  0.41426079036E+03  0.00000000000E+00 0. -1.
<mgrwt>
<rscale>  0 0.77972340E+02</rscale>
<asrwt>0</asrwt>
<pdfrwt beam="1">  1        2 0.10383924E+00 0.77972340E+02</pdfrwt>
<pdfrwt beam="2">  1       -1 0.34644391E-03 0.77972340E+02</pdfrwt>
<totfact> 0.35452379E+05</totfact>
</mgrwt>
</event>
<event>
 8    1  0.2433467E-020  0.7951230E+02  0.7818608E-02  0.1330441E+00
          2   -1    0    0  501    0  0.00000000000E+00  0.00000000000E+00  0.32556759181E+02  0.32556759281E+02  0.25500000000E-02 0. -1.
         -1   -1    0    0    0  501 -0.00000000000E+00 -0.00000000000E+00 -0.48547563369E+02  0.48547563631E+02  0.50400000000E-02 0.  1.
         24    2    1    2    0    0 -0.35527136788E-14 -0.17763568394E-14 -0.15990804188E+02  0.81104322912E+02  0.79512297014E+02 0.  0.
         66    2    3    3    0    0  0.31236848847E+02  0.88965357502E+01  0.15341296807E+02  0.35975609313E+02  0.20000008699E+01 0.  0.
        -13    1    3    3    0    0 -0.31236848847E+02 -0.88965357502E+01 -0.31332100996E+02  0.45128713599E+02  0.10566000000E+00 0.  1.
         13    1    4    4    0    0  0.28590415190E+02  0.81738828509E+01  0.14342506860E+02  0.33014282798E+02  0.10566000000E+00 0. -1.
        -13    1    4    4    0    0  0.24315198884E+01  0.61233509945E+00  0.10393558018E+01  0.27163703282E+01  0.10566000000E+00 0.  1.
         14    1    4    4    0    0  0.21491376913E+00  0.11031779984E+00 -0.40565854883E-01  0.24495618732E+00  0.00000000000E+00 0. -1.
<mgrwt>
<rscale>  0 0.79512297E+02</rscale>
<asrwt>0</asrwt>
<pdfrwt beam="1">  1        2 0.50087322E-02 0.79512297E+02</pdfrwt>
<pdfrwt beam="2">  1       -1 0.74688560E-02 0.79512297E+02</pdfrwt>
<totfact> 0.13910232E+05</totfact>
</mgrwt>
</event>
<event>
 8    1  0.2433467E-020  0.7949460E+02  0.7818608E-02  0.1330492E+00
          2   -1    0    0  501    0  0.00000000000E+00  0.00000000000E+00  0.10440359099E+04  0.10440359099E+04  0.25500000000E-02 0. -1.
         -1   -1    0    0    0  501 -0.00000000000E+00 -0.00000000000E+00 -0.15132079648E+01  0.15132163581E+01  0.50400000000E-02 0.  1.
         24    2    1    2    0    0  0.00000000000E+00  0.00000000000E+00  0.10425227020E+04  0.10455491263E+04  0.79494599662E+02 0.  0.
         66    2    3    3    0    0  0.22816015737E+02 -0.11526255798E+02  0.92148075127E+03  0.92183740437E+03  0.20000002531E+01 0.  0.
        -13    1    3    3    0    0 -0.22816015737E+02  0.11526255798E+02  0.12104195070E+03  0.12371172192E+03  0.10566000000E+00 0.  1.
         13    1    4    4    0    0  0.74181271639E+01 -0.38592415996E+01  0.29117037379E+03  0.29129043941E+03  0.10566000000E+00 0. -1.
        -13    1    4    4    0    0  0.14615725857E+02 -0.70508895978E+01  0.58127722766E+03  0.58150370682E+03  0.10566000000E+00 0.  1.
        -14    1    4    4    0    0  0.78216271609E+00 -0.61612460010E+00  0.49033149820E+02  0.49043258143E+02  0.00000000000E+00 0.  1.
<mgrwt>
<rscale>  0 0.79494600E+02</rscale>
<asrwt>0</asrwt>
<pdfrwt beam="1">  1        2 0.16062091E+00 0.79494600E+02</pdfrwt>
<pdfrwt beam="2">  1       -1 0.23280187E-03 0.79494600E+02</pdfrwt>
<totfact> 0.35855966E+05</totfact>
</mgrwt>
</event>
<event>
 8    1  0.2433467E-020  0.7925883E+02  0.7818608E-02  0.1331168E+00
         -1   -1    0    0    0  501 -0.00000000000E+00  0.00000000000E+00  0.32363532038E+01  0.32363571282E+01  0.50400000000E-02 0.  1.
          2   -1    0    0  501    0  0.00000000000E+00 -0.00000000000E+00 -0.48526520053E+03  0.48526520053E+03  0.25500000000E-02 0. -1.
         24    2    1    2    0    0  0.00000000000E+00  0.00000000000E+00 -0.48202884732E+03  0.48850155766E+03  0.79258830336E+02 0.  0.
         66    2    3    3    0    0  0.14438969591E+02 -0.35573809955E+02 -0.30108410912E+03  0.30352861574E+03  0.20000019531E+01 0.  0.
        -13    1    3    3    0    0 -0.14438969591E+02  0.35573809955E+02 -0.18094473820E+03  0.18497294192E+03  0.10566000000E+00 0.  1.
         13    1    4    4    0    0  0.65806918079E+01 -0.16914418828E+02 -0.14626992341E+03  0.14739167116E+03  0.10566000000E+00 0. -1.
        -13    1    4    4    0    0  0.41148216067E+01 -0.10326953360E+02 -0.80802124786E+02  0.81563302144E+02  0.10566000000E+00 0.  1.
         14    1    4    4    0    0  0.37434561767E+01 -0.83324377665E+01 -0.74012060923E+02  0.74573642431E+02  0.00000000000E+00 0. -1.
<mgrwt>
<rscale>  0 0.79258830E+02</rscale>
<asrwt>0</asrwt>
<pdfrwt beam="1">  1        2 0.74656127E-01 0.79258830E+02</pdfrwt>
<pdfrwt beam="2">  1       -1 0.49790118E-03 0.79258830E+02</pdfrwt>
<totfact> 0.30900502E+05</totfact>
</mgrwt>
</event>
<event>
 8    1  0.2433467E-020  0.7723805E+02  0.7818608E-02  0.1337077E+00
          2   -1    0    0  501    0  0.00000000000E+00  0.00000000000E+00  0.71628516901E+03  0.71628516902E+03  0.25500000000E-02 0. -1.
         -1   -1    0    0    0  501 -0.00000000000E+00 -0.00000000000E+00 -0.20821693561E+01  0.20821754559E+01  0.50400000000E-02 0.  1.
         24    2    1    2    0    0  0.00000000000E+00 -0.17763568394E-14  0.71420299966E+03  0.71836734447E+03  0.77238053361E+02 0.  0.
         66    2    3    3    0    0  0.26778862305E+02 -0.10887436794E+02  0.59515089723E+03  0.59585588377E+03  0.20000022493E+01 0.  0.
        -13    1    3    3    0    0 -0.26778862305E+02  0.10887436794E+02  0.11905210243E+03  0.12251146070E+03  0.10566000000E+00 0.  1.
         13    1    4    4    0    0  0.14707709122E+02 -0.61820525619E+01  0.31247706705E+03  0.31288410487E+03  0.10566000000E+00 0. -1.
        -13    1    4    4    0    0  0.15599297397E+01 -0.89452007721E+00  0.39359387255E+02  0.39400584718E+02  0.10566000000E+00 0.  1.
         14    1    4    4    0    0  0.10511223443E+02 -0.38108641547E+01  0.24331444292E+03  0.24357119418E+03  0.00000000000E+00 0. -1.
<mgrwt>
<rscale>  0 0.77238053E+02</rscale>
<asrwt>0</asrwt>
<pdfrwt beam="1">  1        2 0.11019774E+00 0.77238053E+02</pdfrwt>
<pdfrwt beam="2">  1       -1 0.32033414E-03 0.77238053E+02</pdfrwt>
<totfact> 0.36834143E+05</totfact>
</mgrwt>
</event>
<event>
 8    1  0.2433467E-020  0.8190178E+02  0.7818608E-02  0.1323739E+00
         -1   -1    0    0    0  501 -0.00000000000E+00  0.00000000000E+00  0.18765815824E+03  0.18765815831E+03  0.50400000000E-02 0.  1.
          2   -1    0    0  501    0  0.00000000000E+00 -0.00000000000E+00 -0.89363296559E+01  0.89363300197E+01  0.25500000000E-02 0. -1.
         24    2    1    2    0    0  0.00000000000E+00 -0.71054273576E-14  0.17872182858E+03  0.19659448833E+03  0.81901775489E+02 0.  0.
         66    2    3    3    0    0 -0.12499486339E+02 -0.34712426034E+02  0.46894271249E+02  0.59701443519E+02  0.20000005955E+01 0.  0.
        -13    1    3    3    0    0  0.12499486339E+02  0.34712426034E+02  0.13182755733E+03  0.13689304481E+03  0.10566000000E+00 0.  1.
         13    1    4    4    0    0 -0.45913671597E+01 -0.10630584861E+02  0.15008098633E+02  0.18956375589E+02  0.10566000000E+00 0. -1.
        -13    1    4    4    0    0 -0.19745691960E+00 -0.88634145365E+00  0.96498338848E+00  0.13292657308E+01  0.10566000000E+00 0. -1.
        -14    1    4    4    0    0 -0.77106622600E+01 -0.23195499720E+02  0.30921189227E+02  0.39415802199E+02  0.00000000000E+00 0.  1.
<mgrwt>
<rscale>  0 0.81901775E+02</rscale>
<asrwt>0</asrwt>
<pdfrwt beam="1">  1        2 0.13748201E-02 0.81901775E+02</pdfrwt>
<pdfrwt beam="2">  1       -1 0.28870483E-01 0.81901775E+02</pdfrwt>
<totfact> 0.95617015E+04</totfact>
</mgrwt>
</event>
<event>
 8    1  0.2433467E-020  0.7981572E+02  0.7818608E-02  0.1329575E+00
         -1   -1    0    0    0  501 -0.00000000000E+00  0.00000000000E+00  0.59044186286E+02  0.59044186501E+02  0.50400000000E-02 0.  1.
          2   -1    0    0  501    0  0.00000000000E+00 -0.00000000000E+00 -0.26973650367E+02  0.26973650487E+02  0.25500000000E-02 0. -1.
         24    2    1    2    0    0  0.00000000000E+00  0.00000000000E+00  0.32070535920E+02  0.86017836989E+02  0.79815719041E+02 0.  0.
         66    2    3    3    0    0  0.20681521272E+02 -0.45439208364E+01 -0.20378262990E+02  0.29455833755E+02  0.20000002571E+01 0.  0.
        -13    1    3    3    0    0 -0.20681521272E+02  0.45439208364E+01  0.52448798910E+02  0.56562003233E+02  0.10566000000E+00 0.  1.
         13    1    4    4    0    0  0.12965701697E+02 -0.30239306763E+01 -0.11939371642E+02  0.17883325655E+02  0.10566000000E+00 0. -1.
        -13    1    4    4    0    0  0.34824323956E+01 -0.39969969537E+00 -0.42798611305E+01  0.55331248466E+01  0.10566000000E+00 0.  1.
        -14    1    4    4    0    0  0.42333871790E+01 -0.11202904646E+01 -0.41590302176E+01  0.60393832536E+01  0.00000000000E+00 0.  1.
<mgrwt>
<rscale>  0 0.79815719E+02</rscale>
<asrwt>0</asrwt>
<pdfrwt beam="1">  1        2 0.41497925E-02 0.79815719E+02</pdfrwt>
<pdfrwt beam="2">  1       -1 0.90837209E-02 0.79815719E+02</pdfrwt>
<totfact> 0.13262211E+05</totfact>
</mgrwt>
</event>
<event>
 8    1  0.2433467E-020  0.7965727E+02  0.7818608E-02  0.1330027E+00
          2   -1    0    0  501    0  0.00000000000E+00  0.00000000000E+00  0.19900738882E+03  0.19900738883E+03  0.25500000000E-02 0. -1.
         -1   -1    0    0    0  501 -0.00000000000E+00 -0.00000000000E+00 -0.79711616195E+01  0.79711632128E+01  0.50400000000E-02 0.  1.
         24    2    1    2    0    0  0.00000000000E+00  0.00000000000E+00  0.19103622720E+03  0.20697855205E+03  0.79657271516E+02 0.  0.
         66    2    3    3    0    0  0.58127412132E+01  0.30263138777E+02  0.16103782966E+03  0.16397203454E+03  0.20000002754E+01 0.  0.
        -13    1    3    3    0    0 -0.58127412132E+01 -0.30263138777E+02  0.29998397538E+02  0.43006517505E+02  0.10566000000E+00 0.  1.
         13    1    4    4    0    0  0.82943078291E+00  0.43631254510E+01  0.21915181386E+02  0.22360929282E+02  0.10566000000E+00 0. -1.
        -13    1    4    4    0    0  0.48525005312E+01  0.22047510828E+02  0.11845034498E+03  0.12058248166E+03  0.10566000000E+00 0.  1.
        -14    1    4    4    0    0  0.13080989907E+00  0.38525024972E+01  0.20672303299E+02  0.21028623598E+02  0.00000000000E+00 0.  1.
<mgrwt>
<rscale>  0 0.79657272E+02</rscale>
<asrwt>0</asrwt>
<pdfrwt beam="1">  1        2 0.30616521E-01 0.79657272E+02</pdfrwt>
<pdfrwt beam="2">  1       -1 0.12263327E-02 0.79657272E+02</pdfrwt>
<totfact> 0.22271344E+05</totfact>
</mgrwt>
</event>
<event>
 8    1  0.2433467E-020  0.8106789E+02  0.7818608E-02  0.1326048E+00
          2   -1    0    0  501    0  0.00000000000E+00  0.00000000000E+00  0.27606618407E+03  0.27606618408E+03  0.25500000000E-02 0. -1.
         -1   -1    0    0    0  501 -0.00000000000E+00 -0.00000000000E+00 -0.59514723342E+01  0.59514744682E+01  0.50400000000E-02 0.  1.
         24    2    1    2    0    0  0.00000000000E+00 -0.44408920985E-15  0.27011471174E+03  0.28201765855E+03  0.81067886601E+02 0.  0.
         66    2    3    3    0    0  0.33010273596E+02 -0.33142997323E+01  0.21600387007E+03  0.21854595545E+03  0.20000022415E+01 0.  0.
        -13    1    3    3    0    0 -0.33010273596E+02  0.33142997323E+01  0.54110841661E+02  0.63471703103E+02  0.10566000000E+00 0.  1.
         13    1    4    4    0    0  0.96509668323E+01 -0.10231388978E+01  0.59773190146E+02  0.60556035193E+02  0.10566000000E+00 0. -1.
        -13    1    4    4    0    0  0.20170888489E+01 -0.29050823576E-01  0.11372853306E+02  0.11550863506E+02  0.10566000000E+00 0.  1.
        -14    1    4    4    0    0  0.21342217915E+02 -0.22621100110E+01  0.14485782662E+03  0.14643905675E+03  0.00000000000E+00 0.  1.
<mgrwt>
<rscale>  0 0.81067887E+02</rscale>
<asrwt>0</asrwt>
<pdfrwt beam="1">  1        2 0.42471704E-01 0.81067887E+02</pdfrwt>
<pdfrwt beam="2">  1       -1 0.91561165E-03 0.81067887E+02</pdfrwt>
<totfact> 0.23891279E+05</totfact>
</mgrwt>
</event>
<event>
 8    1  0.2433467E-020  0.8470205E+02  0.7818608E-02  0.1316214E+00
         -1   -1    0    0    0  501 -0.00000000000E+00  0.00000000000E+00  0.56546658732E+01  0.56546681193E+01  0.50400000000E-02 0.  1.
          2   -1    0    0  501    0  0.00000000000E+00 -0.00000000000E+00 -0.31719093978E+03  0.31719093979E+03  0.25500000000E-02 0. -1.
         24    2    1    2    0    0 -0.22204460493E-15 -0.71054273576E-14 -0.31153627391E+03  0.32284560791E+03  0.84702045942E+02 0.  0.
         66    2    3    3    0    0  0.18198258037E+01  0.34936381802E+02 -0.24667366069E+03  0.24915007008E+03  0.20000001649E+01 0.  0.
        -13    1    3    3    0    0 -0.18198258037E+01 -0.34936381802E+02 -0.64862613214E+02  0.73695537832E+02  0.10566000000E+00 0.  1.
         13    1    4    4    0    0 -0.11273209846E+00  0.80820514927E+01 -0.59820451499E+02  0.60364143715E+02  0.10566000000E+00 0. -1.
        -13    1    4    4    0    0  0.34577361402E+00  0.22114148590E+01 -0.17003959068E+02  0.17150967993E+02  0.10566000000E+00 0.  1.
         14    1    4    4    0    0  0.15867842882E+01  0.24642915450E+02 -0.16984925013E+03  0.17163495837E+03  0.00000000000E+00 0. -1.
<mgrwt>
<rscale>  0 0.84702046E+02</rscale>
<asrwt>0</asrwt>
<pdfrwt beam="1">  1        2 0.48798592E-01 0.84702046E+02</pdfrwt>
<pdfrwt beam="2">  1       -1 0.86994902E-03 0.84702046E+02</pdfrwt>
<totfact> 0.22388800E+05</totfact>
</mgrwt>
</event>
<event>
 8    1  0.2433467E-020  0.7816849E+02  0.7818608E-02  0.1334331E+00
         -1   -1    0    0    0  501 -0.00000000000E+00  0.00000000000E+00  0.10420572359E+02  0.10420573578E+02  0.50400000000E-02 0.  1.
          2   -1    0    0  501    0  0.00000000000E+00 -0.00000000000E+00 -0.14659254552E+03  0.14659254554E+03  0.25500000000E-02 0. -1.
         24    2    1    2    0    0  0.00000000000E+00 -0.35527136788E-14 -0.13617197316E+03  0.15701311912E+03  0.78168493021E+02 0.  0.
         66    2    3    3    0    0 -0.14690866642E+02 -0.27502361013E+02 -0.11538162663E+03  0.11953711217E+03  0.19999994078E+01 0.  0.
        -13    1    3    3    0    0  0.14690866642E+02  0.27502361013E+02 -0.20790346525E+02  0.37476006947E+02  0.10566000000E+00 0.  1.
         13    1    4    4    0    0 -0.48982059952E+01 -0.98354353619E+01 -0.42418472955E+02  0.43818560252E+02  0.10566000000E+00 0. -1.
        -13    1    4    4    0    0 -0.76294065465E+01 -0.14277236681E+02 -0.60054822519E+02  0.62198393897E+02  0.10566000000E+00 0.  1.
        -14    1    4    4    0    0 -0.21632541001E+01 -0.33896889704E+01 -0.12908331160E+02  0.13520158022E+02  0.00000000000E+00 0.  1.
<mgrwt>
<rscale>  0 0.78168493E+02</rscale>
<asrwt>0</asrwt>
<pdfrwt beam="1">  1        2 0.22552698E-01 0.78168493E+02</pdfrwt>
<pdfrwt beam="2">  1       -1 0.16031652E-02 0.78168493E+02</pdfrwt>
<totfact> 0.21141949E+05</totfact>
</mgrwt>
</event>
<event>
 8    1  0.2433467E-020  0.8413542E+02  0.7818608E-02  0.1317709E+00
         -1   -1    0    0    0  501 -0.00000000000E+00  0.00000000000E+00  0.61335752388E+01  0.61335773095E+01  0.50400000000E-02 0.  1.
          2   -1    0    0  501    0  0.00000000000E+00 -0.00000000000E+00 -0.28852534638E+03  0.28852534639E+03  0.25500000000E-02 0. -1.
         24    2    1    2    0    0  0.71054273576E-14 -0.35527136788E-14 -0.28239177114E+03  0.29465892370E+03  0.84135420058E+02 0.  0.
         66    2    3    3    0    0  0.31750339729E+02 -0.21195933904E+02 -0.20297137261E+03  0.20653989878E+03  0.19999999497E+01 0.  0.
        -13    1    3    3    0    0 -0.31750339729E+02  0.21195933904E+02 -0.79420398531E+02  0.88119024926E+02  0.10566000000E+00 0.  1.
         13    1    4    4    0    0  0.11189466966E+02 -0.73903196986E+01 -0.74819763577E+02  0.76012033139E+02  0.10566000000E+00 0. -1.
        -13    1    4    4    0    0  0.68285194403E+01 -0.40052944095E+01 -0.42151623913E+02  0.42888712077E+02  0.10566000000E+00 0.  1.
         14    1    4    4    0    0  0.13732353323E+02 -0.98003197956E+01 -0.85999985124E+02  0.87639153563E+02  0.00000000000E+00 0. -1.
<mgrwt>
<rscale>  0 0.84135420E+02</rscale>
<asrwt>0</asrwt>
<pdfrwt beam="1">  1        2 0.44388504E-01 0.84135420E+02</pdfrwt>
<pdfrwt beam="2">  1       -1 0.94362735E-03 0.84135420E+02</pdfrwt>
<totfact> 0.22016475E+05</totfact>
</mgrwt>
</event>
<event>
 8    1  0.2433467E-020  0.7987777E+02  0.7818608E-02  0.1329399E+00
         -1   -1    0    0    0  501 -0.00000000000E+00  0.00000000000E+00  0.39368976699E+02  0.39368977022E+02  0.50400000000E-02 0.  1.
          2   -1    0    0  501    0  0.00000000000E+00 -0.00000000000E+00 -0.40517042908E+02  0.40517042988E+02  0.25500000000E-02 0. -1.
         24    2    1    2    0    0  0.00000000000E+00  0.00000000000E+00 -0.11480662083E+01  0.79886020010E+02  0.79877769980E+02 0.  0.
         66    2    3    3    0    0 -0.65494874278E+01  0.35978275165E+02 -0.16569088869E+02  0.40197845784E+02  0.20000075853E+01 0.  0.
        -13    1    3    3    0    0  0.65494874278E+01 -0.35978275165E+02  0.15421022660E+02  0.39688174225E+02  0.10566000000E+00 0.  1.
         13    1    4    4    0    0 -0.53122867451E+01  0.28079177258E+02 -0.12778315561E+02  0.31304266459E+02  0.10566000000E+00 0. -1.
        -13    1    4    4    0    0 -0.83602044488E+00  0.26965821564E+01 -0.14286247084E+01  0.31658518764E+01  0.10566000000E+00 0.  1.
         14    1    4    4    0    0 -0.40118023791E+00  0.52025157509E+01 -0.23621485992E+01  0.57277274487E+01  0.00000000000E+00 0. -1.
<mgrwt>
<rscale>  0 0.79877770E+02</rscale>
<asrwt>0</asrwt>
<pdfrwt beam="1">  1        2 0.62333912E-02 0.79877770E+02</pdfrwt>
<pdfrwt beam="2">  1       -1 0.60567657E-02 0.79877770E+02</pdfrwt>
<totfact> 0.14353473E+05</totfact>
</mgrwt>
</event>
<event>
 8    1  0.2433467E-020  0.8060858E+02  0.7818608E-02  0.1327333E+00
         -1   -1    0    0    0  501 -0.00000000000E+00  0.00000000000E+00  0.22549311087E+01  0.22549367411E+01  0.50400000000E-02 0.  1.
          2   -1    0    0  501    0  0.00000000000E+00 -0.00000000000E+00 -0.72039175192E+03  0.72039175193E+03  0.25500000000E-02 0. -1.
         24    2    1    2    0    0  0.00000000000E+00  0.00000000000E+00 -0.71813682081E+03  0.72264668867E+03  0.80608580403E+02 0.  0.
         66    2    3    3    0    0 -0.26789582799E+02  0.86479291810E+01 -0.61755883168E+03  0.61820334763E+03  0.20000012428E+01 0.  0.
        -13    1    3    3    0    0  0.26789582799E+02 -0.86479291810E+01 -0.10057798913E+03  0.10444334104E+03  0.10566000000E+00 0.  1.
         13    1    4    4    0    0 -0.62702804989E+01  0.18747387455E+01 -0.15606560861E+03  0.15620280541E+03  0.10566000000E+00 0. -1.
        -13    1    4    4    0    0 -0.62486238694E+01  0.26394546211E+01 -0.14076556886E+03  0.14092894863E+03  0.10566000000E+00 0. -1.
        -14    1    4    4    0    0 -0.14270678431E+02  0.41337358144E+01 -0.32072765421E+03  0.32107159359E+03  0.00000000000E+00 0.  1.
<mgrwt>
<rscale>  0 0.80608580E+02</rscale>
<asrwt>0</asrwt>
<pdfrwt beam="1">  1        2 0.11082932E+00 0.80608580E+02</pdfrwt>
<pdfrwt beam="2">  1       -1 0.34691349E-03 0.80608580E+02</pdfrwt>
<totfact> 0.33010092E+05</totfact>
</mgrwt>
</event>
<event>
 8    1  0.2433467E-020  0.7872804E+02  0.7818608E-02  0.1332700E+00
          2   -1    0    0  501    0  0.00000000000E+00  0.00000000000E+00  0.29092605308E+03  0.29092605309E+03  0.25500000000E-02 0. -1.
         -1   -1    0    0    0  501 -0.00000000000E+00 -0.00000000000E+00 -0.53261835858E+01  0.53261859704E+01  0.50400000000E-02 0.  1.
         24    2    1    2    0    0  0.35527136788E-14  0.00000000000E+00  0.28559986950E+03  0.29625223906E+03  0.78728036263E+02 0.  0.
         66    2    3    3    0    0 -0.30473027800E+02  0.11612786529E+02  0.22568247906E+03  0.22803518053E+03  0.19999925726E+01 0.  0.
        -13    1    3    3    0    0  0.30473027800E+02 -0.11612786529E+02  0.59917390434E+02  0.68217058532E+02  0.10566000000E+00 0.  1.
         13    1    4    4    0    0 -0.88222056242E+01  0.28978613026E+01  0.68659355697E+02  0.69284537965E+02  0.10566000000E+00 0. -1.
        -13    1    4    4    0    0 -0.18075029873E+02  0.69422105852E+01  0.13101929578E+03  0.13244231961E+03  0.10566000000E+00 0.  1.
        -14    1    4    4    0    0 -0.35757923027E+01  0.17727146414E+01  0.26003827584E+02  0.26308322957E+02  0.00000000000E+00 0.  1.
<mgrwt>
<rscale>  0 0.78728036E+02</rscale>
<asrwt>0</asrwt>
<pdfrwt beam="1">  1        2 0.44757859E-01 0.78728036E+02</pdfrwt>
<pdfrwt beam="2">  1       -1 0.81941295E-03 0.78728036E+02</pdfrwt>
<totfact> 0.26294050E+05</totfact>
</mgrwt>
</event>
<event>
 8    1  0.2433467E-020  0.7995604E+02  0.7818608E-02  0.1329176E+00
         -1   -1    0    0    0  501 -0.00000000000E+00  0.00000000000E+00  0.11236630613E+02  0.11236631744E+02  0.50400000000E-02 0.  1.
          2   -1    0    0  501    0  0.00000000000E+00 -0.00000000000E+00 -0.14223498602E+03  0.14223498604E+03  0.25500000000E-02 0. -1.
         24    2    1    2    0    0  0.35527136788E-14  0.00000000000E+00 -0.13099835540E+03  0.15347161778E+03  0.79956040088E+02 0.  0.
         66    2    3    3    0    0  0.22866076532E+02 -0.23622457124E+02 -0.10911448447E+03  0.11397740419E+03  0.20000019194E+01 0.  0.
        -13    1    3    3    0    0 -0.22866076532E+02  0.23622457124E+02 -0.21883870935E+02  0.39494213597E+02  0.10566000000E+00 0.  1.
         13    1    4    4    0    0  0.16005608916E+02 -0.16756620324E+02 -0.76113979634E+02  0.79563263515E+02  0.10566000000E+00 0. -1.
        -13    1    4    4    0    0  0.15592310881E+01 -0.18011209068E+01 -0.96129321670E+01  0.99042852842E+01  0.10566000000E+00 0.  1.
        -14    1    4    4    0    0  0.53012365274E+01 -0.50647158934E+01 -0.23387572667E+02  0.24509855386E+02  0.00000000000E+00 0.  1.
<mgrwt>
<rscale>  0 0.79956040E+02</rscale>
<asrwt>0</asrwt>
<pdfrwt beam="1">  1        2 0.21882304E-01 0.79956040E+02</pdfrwt>
<pdfrwt beam="2">  1       -1 0.17287126E-02 0.79956040E+02</pdfrwt>
<totfact> 0.19721317E+05</totfact>
</mgrwt>
</event>
<event>
 8    1  0.2433467E-020  0.7342595E+02  0.7818608E-02  0.1348816E+00
          2   -1    0    0  501    0  0.00000000000E+00  0.00000000000E+00  0.64677007608E+03  0.64677007609E+03  0.25500000000E-02 0. -1.
         -1   -1    0    0    0  501 -0.00000000000E+00 -0.00000000000E+00 -0.20839560968E+01  0.20839621914E+01  0.50400000000E-02 0.  1.
         24    2    1    2    0    0  0.00000000000E+00 -0.17763568394E-14  0.64468611998E+03  0.64885403828E+03  0.73425946971E+02 0.  0.
         66    2    3    3    0    0 -0.45964784613E+01  0.13328810656E+02  0.62186944438E+03  0.62203246753E+03  0.19999998575E+01 0.  0.
        -13    1    3    3    0    0  0.45964784613E+01 -0.13328810656E+02  0.22816675606E+02  0.26821570750E+02  0.10566000000E+00 0.  1.
         13    1    4    4    0    0 -0.23057507300E+01  0.83613692663E+01  0.39894496627E+03  0.39903925403E+03  0.10566000000E+00 0. -1.
        -13    1    4    4    0    0 -0.54186591601E+00  0.58721496725E+00  0.38507234381E+02  0.38515668290E+02  0.10566000000E+00 0.  1.
        -14    1    4    4    0    0 -0.17488618153E+01  0.43802264222E+01  0.18441724373E+03  0.18447754521E+03  0.00000000000E+00 0.  1.
<mgrwt>
<rscale>  0 0.73425947E+02</rscale>
<asrwt>0</asrwt>
<pdfrwt beam="1">  1        2 0.99503108E-01 0.73425947E+02</pdfrwt>
<pdfrwt beam="2">  1       -1 0.32060904E-03 0.73425947E+02</pdfrwt>
<totfact> 0.40973591E+05</totfact>
</mgrwt>
</event>
<event>
 8    1  0.2433467E-020  0.8096344E+02  0.7818608E-02  0.1326339E+00
          2   -1    0    0  501    0  0.00000000000E+00  0.00000000000E+00  0.57905914166E+03  0.57905914166E+03  0.25500000000E-02 0. -1.
         -1   -1    0    0    0  501 -0.00000000000E+00 -0.00000000000E+00 -0.28300532933E+01  0.28300577811E+01  0.50400000000E-02 0.  1.
         24    2    1    2    0    0  0.71054273576E-14  0.17763568394E-14  0.57622908836E+03  0.58188919944E+03  0.80963437136E+02 0.  0.
         66    2    3    3    0    0 -0.30031705711E+02 -0.11095537423E+02  0.46605166641E+03  0.46715433216E+03  0.19999980282E+01 0.  0.
        -13    1    3    3    0    0  0.30031705711E+02  0.11095537423E+02  0.11017742195E+03  0.11473486729E+03  0.10566000000E+00 0.  1.
         13    1    4    4    0    0 -0.15320232425E+02 -0.63464753499E+01  0.24423685034E+03  0.24479917790E+03  0.10566000000E+00 0. -1.
        -13    1    4    4    0    0 -0.48516801092E+01 -0.19589950652E+01  0.70949374915E+02  0.71142121324E+02  0.10566000000E+00 0.  1.
         14    1    4    4    0    0 -0.98597931764E+01 -0.27900670076E+01  0.15086544115E+03  0.15121303294E+03  0.00000000000E+00 0. -1.
<mgrwt>
<rscale>  0 0.80963437E+02</rscale>
<asrwt>0</asrwt>
<pdfrwt beam="1">  1        2 0.89086110E-01 0.80963437E+02</pdfrwt>
<pdfrwt beam="2">  1       -1 0.43539273E-03 0.80963437E+02</pdfrwt>
<totfact> 0.30864267E+05</totfact>
</mgrwt>
</event>
<event>
 8    1  0.2433467E-020  0.8115449E+02  0.7818608E-02  0.1325807E+00
          2   -1    0    0  501    0  0.00000000000E+00  0.00000000000E+00  0.13324174456E+03  0.13324174458E+03  0.25500000000E-02 0. -1.
         -1   -1    0    0    0  501 -0.00000000000E+00 -0.00000000000E+00 -0.12357332700E+02  0.12357333728E+02  0.50400000000E-02 0.  1.
         24    2    1    2    0    0  0.00000000000E+00 -0.35527136788E-14  0.12088441186E+03  0.14559907831E+03  0.81154485856E+02 0.  0.
         66    2    3    3    0    0 -0.55227354041E+01 -0.27431666857E+02  0.11313827697E+03  0.11656443138E+03  0.19999981791E+01 0.  0.
        -13    1    3    3    0    0  0.55227354041E+01  0.27431666857E+02  0.77461348837E+01  0.29034646933E+02  0.10566000000E+00 0.  1.
         13    1    4    4    0    0 -0.19261421120E+01 -0.10963859258E+02  0.45543347945E+02  0.46884154459E+02  0.10566000000E+00 0. -1.
        -13    1    4    4    0    0 -0.33887962089E+00 -0.45397899895E+01  0.18511070832E+02  0.19062933666E+02  0.10566000000E+00 0.  1.
         14    1    4    4    0    0 -0.32577136713E+01 -0.11928017609E+02  0.49083858196E+02  0.50617343251E+02  0.00000000000E+00 0. -1.
<mgrwt>
<rscale>  0 0.81154486E+02</rscale>
<asrwt>0</asrwt>
<pdfrwt beam="1">  1        2 0.20498730E-01 0.81154486E+02</pdfrwt>
<pdfrwt beam="2">  1       -1 0.19011282E-02 0.81154486E+02</pdfrwt>
<totfact> 0.18570896E+05</totfact>
</mgrwt>
</event>
<event>
 8    1  0.2433467E-020  0.7981771E+02  0.7818608E-02  0.1329570E+00
          2   -1    0    0  501    0  0.00000000000E+00  0.00000000000E+00  0.76922988731E+03  0.76922988732E+03  0.25500000000E-02 0. -1.
         -1   -1    0    0    0  501 -0.00000000000E+00 -0.00000000000E+00 -0.20705310633E+01  0.20705371974E+01  0.50400000000E-02 0.  1.
         24    2    1    2    0    0  0.88817841970E-15  0.00000000000E+00  0.76715935625E+03  0.77130042452E+03  0.79817710910E+02 0.  0.
         66    2    3    3    0    0  0.58040886399E+01 -0.18406327876E+02  0.72109876303E+03  0.72135976209E+03  0.19999951607E+01 0.  0.
        -13    1    3    3    0    0 -0.58040886399E+01  0.18406327876E+02  0.46060593225E+02  0.49940662421E+02  0.10566000000E+00 0.  1.
         13    1    4    4    0    0  0.36009478677E+01 -0.10110935112E+02  0.41661285113E+03  0.41675109685E+03  0.10566000000E+00 0. -1.
        -13    1    4    4    0    0  0.11336410844E+01 -0.57316253801E+01  0.21695996740E+03  0.21703864930E+03  0.10566000000E+00 0.  1.
        -14    1    4    4    0    0  0.10694996877E+01 -0.25637673842E+01  0.87525944494E+02  0.87570015944E+02  0.00000000000E+00 0.  1.
<mgrwt>
<rscale>  0 0.79817711E+02</rscale>
<asrwt>0</asrwt>
<pdfrwt beam="1">  1        2 0.11834319E+00 0.79817711E+02</pdfrwt>
<pdfrwt beam="2">  1       -1 0.31854336E-03 0.79817711E+02</pdfrwt>
<totfact> 0.34324601E+05</totfact>
</mgrwt>
</event>
<event>
 8    1  0.2433467E-020  0.7619528E+02  0.7818608E-02  0.1340209E+00
         -1   -1    0    0    0  501 -0.00000000000E+00  0.00000000000E+00  0.12117861337E+03  0.12117861348E+03  0.50400000000E-02 0.  1.
          2   -1    0    0  501    0  0.00000000000E+00 -0.00000000000E+00 -0.11977610371E+02  0.11977610643E+02  0.25500000000E-02 0. -1.
         24    2    1    2    0    0  0.00000000000E+00  0.00000000000E+00  0.10920100300E+03  0.13315622412E+03  0.76195281779E+02 0.  0.
         66    2    3    3    0    0  0.33744712301E+02 -0.12228587842E+02  0.32451411964E+02  0.48428691067E+02  0.20000027831E+01 0.  0.
        -13    1    3    3    0    0 -0.33744712301E+02  0.12228587842E+02  0.76749591038E+02  0.84727533054E+02  0.10566000000E+00 0.  1.
         13    1    4    4    0    0  0.15193533701E+02 -0.56174855024E+01  0.14818138089E+02  0.21954224882E+02  0.10566000000E+00 0. -1.
        -13    1    4    4    0    0  0.53326295617E+01 -0.13288594596E+01  0.53949910400E+01  0.77019411749E+01  0.10566000000E+00 0.  1.
        -14    1    4    4    0    0  0.13218549038E+02 -0.52822428797E+01  0.12238282835E+02  0.18772525010E+02  0.00000000000E+00 0.  1.
<mgrwt>
<rscale>  0 0.76195282E+02</rscale>
<asrwt>0</asrwt>
<pdfrwt beam="1">  1        2 0.18427094E-02 0.76195282E+02</pdfrwt>
<pdfrwt beam="2">  1       -1 0.18642863E-01 0.76195282E+02</pdfrwt>
<totfact> 0.12836645E+05</totfact>
</mgrwt>
</event>
<event>
 8    1  0.2433467E-020  0.7892677E+02  0.7818608E-02  0.1332125E+00
          2   -1    0    0  501    0  0.00000000000E+00  0.00000000000E+00  0.27733079426E+03  0.27733079427E+03  0.25500000000E-02 0. -1.
         -1   -1    0    0    0  501 -0.00000000000E+00 -0.00000000000E+00 -0.56155260427E+01  0.56155283044E+01  0.50400000000E-02 0.  1.
         24    2    1    2    0    0  0.00000000000E+00  0.00000000000E+00  0.27171526822E+03  0.28294632257E+03  0.78926766543E+02 0.  0.
         66    2    3    3    0    0  0.11600320772E+02  0.35822635228E+02  0.17798539395E+03  0.18193578287E+03  0.19999984290E+01 0.  0.
        -13    1    3    3    0    0 -0.11600320772E+02 -0.35822635228E+02  0.93729874268E+02  0.10101053970E+03  0.10566000000E+00 0.  1.
         13    1    4    4    0    0  0.72868778807E+01  0.22670015554E+02  0.11467889301E+03  0.11712509492E+03  0.10566000000E+00 0. -1.
        -13    1    4    4    0    0  0.37386740421E+01  0.10060770359E+02  0.48319867309E+02  0.49497651708E+02  0.10566000000E+00 0.  1.
         14    1    4    4    0    0  0.57476884962E+00  0.30918493152E+01  0.14986633627E+02  0.15313036240E+02  0.00000000000E+00 0. -1.
<mgrwt>
<rscale>  0 0.78926767E+02</rscale>
<asrwt>0</asrwt>
<pdfrwt beam="1">  1        2 0.42666282E-01 0.78926767E+02</pdfrwt>
<pdfrwt beam="2">  1       -1 0.86392714E-03 0.78926767E+02</pdfrwt>
<totfact> 0.25672603E+05</totfact>
</mgrwt>
</event>
<event>
 8    1  0.2433467E-020  0.7926093E+02  0.7818608E-02  0.1331162E+00
          2   -1    0    0  501    0  0.00000000000E+00  0.00000000000E+00  0.38168709077E+03  0.38168709077E+03  0.25500000000E-02 0. -1.
         -1   -1    0    0    0  501 -0.00000000000E+00 -0.00000000000E+00 -0.41148187835E+01  0.41148218701E+01  0.50400000000E-02 0.  1.
         24    2    1    2    0    0  0.44408920985E-15  0.17763568394E-14  0.37757227198E+03  0.38580191264E+03  0.79260931298E+02 0.  0.
         66    2    3    3    0    0  0.28096330954E+01  0.14362514830E+02  0.36803980872E+03  0.36833609202E+03  0.20000018373E+01 0.  0.
        -13    1    3    3    0    0 -0.28096330954E+01 -0.14362514830E+02  0.95324632601E+01  0.17465820628E+02  0.10566000000E+00 0.  1.
         13    1    4    4    0    0  0.12354905483E+01  0.79272245973E+01  0.19736531039E+03  0.19752833781E+03  0.10566000000E+00 0. -1.
        -13    1    4    4    0    0  0.31464854469E+00  0.21039882535E+00  0.90868806501E+01  0.90953743934E+01  0.10566000000E+00 0.  1.
        -14    1    4    4    0    0  0.12594940024E+01  0.62248914070E+01  0.16158761768E+03  0.16171237981E+03  0.00000000000E+00 0.  1.
<mgrwt>
<rscale>  0 0.79260931E+02</rscale>
<asrwt>0</asrwt>
<pdfrwt beam="1">  1        2 0.58721086E-01 0.79260931E+02</pdfrwt>
<pdfrwt beam="2">  1       -1 0.63304934E-03 0.79260931E+02</pdfrwt>
<totfact> 0.28473929E+05</totfact>
</mgrwt>
</event>
<event>
 8    1  0.2433467E-020  0.8483288E+02  0.7818608E-02  0.1315870E+00
         -1   -1    0    0    0  501 -0.00000000000E+00  0.00000000000E+00  0.19576101645E+02  0.19576102294E+02  0.50400000000E-02 0.  1.
          2   -1    0    0  501    0  0.00000000000E+00 -0.00000000000E+00 -0.91905653195E+02  0.91905653230E+02  0.25500000000E-02 0. -1.
         24    2    1    2    0    0  0.00000000000E+00  0.00000000000E+00 -0.72329551550E+02  0.11148175552E+03  0.84832881521E+02 0.  0.
         66    2    3    3    0    0  0.19056047410E+02  0.20460608164E+02 -0.78059730034E+02  0.82940285015E+02  0.19999989976E+01 0.  0.
        -13    1    3    3    0    0 -0.19056047410E+02 -0.20460608164E+02  0.57301784839E+01  0.28541470509E+02  0.10566000000E+00 0.  1.
         13    1    4    4    0    0  0.13235929570E+02  0.13742735872E+02 -0.55215530132E+02  0.58419333723E+02  0.10566000000E+00 0. -1.
        -13    1    4    4    0    0  0.47530706591E+01  0.52211428900E+01 -0.17587173710E+02  0.18951829909E+02  0.10566000000E+00 0.  1.
         14    1    4    4    0    0  0.10670471800E+01  0.14967294022E+01 -0.52570261925E+01  0.55691213828E+01  0.00000000000E+00 0. -1.
<mgrwt>
<rscale>  0 0.84832882E+02</rscale>
<asrwt>0</asrwt>
<pdfrwt beam="1">  1        2 0.14139331E-01 0.84832882E+02</pdfrwt>
<pdfrwt beam="2">  1       -1 0.30117080E-02 0.84832882E+02</pdfrwt>
<totfact> 0.14786523E+05</totfact>
</mgrwt>
</event>
<event>
 8    1  0.2433467E-020  0.8040189E+02  0.7818608E-02  0.1327915E+00
          2   -1    0    0  501    0  0.00000000000E+00  0.00000000000E+00  0.25190754547E+02  0.25190754676E+02  0.25500000000E-02 0. -1.
         -1   -1    0    0    0  501 -0.00000000000E+00 -0.00000000000E+00 -0.64155116304E+02  0.64155116502E+02  0.50400000000E-02 0.  1.
         24    2    1    2    0    0  0.00000000000E+00 -0.71054273576E-14 -0.38964361757E+02  0.89345871178E+02  0.80401885609E+02 0.  0.
         66    2    3    3    0    0  0.43327627061E+01  0.35734115092E+02 -0.39323270115E+02  0.53348096340E+02  0.19999991246E+01 0.  0.
        -13    1    3    3    0    0 -0.43327627061E+01 -0.35734115092E+02  0.35890835812E+00  0.35997774838E+02  0.10566000000E+00 0.  1.
         13    1    4    4    0    0  0.18252135018E+00  0.34296966856E+00 -0.38207169627E+00  0.55505409963E+00  0.10566000000E+00 0.  1.
        -13    1    4    4    0    0  0.36194001041E+01  0.27685816240E+02 -0.30703667756E+02  0.41500974154E+02  0.10566000000E+00 0. -1.
         14    1    4    4    0    0  0.53084125187E+00  0.77053291829E+01 -0.82375306627E+01  0.11292068087E+02  0.00000000000E+00 0. -1.
<mgrwt>
<rscale>  0 0.80401886E+02</rscale>
<asrwt>0</asrwt>
<pdfrwt beam="1">  1        2 0.38755007E-02 0.80401886E+02</pdfrwt>
<pdfrwt beam="2">  1       -1 0.98700179E-02 0.80401886E+02</pdfrwt>
<totfact> 0.12816702E+05</totfact>
</mgrwt>
</event>
<event>
 8    1  0.2433467E-020  0.7988083E+02  0.7818608E-02  0.1329390E+00
          2   -1    0    0  501    0  0.00000000000E+00  0.00000000000E+00  0.76027063841E+02  0.76027063884E+02  0.25500000000E-02 0. -1.
         -1   -1    0    0    0  501 -0.00000000000E+00 -0.00000000000E+00 -0.20982483000E+02  0.20982483606E+02  0.50400000000E-02 0.  1.
         24    2    1    2    0    0  0.00000000000E+00  0.00000000000E+00  0.55044580840E+02  0.97009547489E+02  0.79880826387E+02 0.  0.
         66    2    3    3    0    0  0.13796513697E+02 -0.14684779612E+02  0.69384355463E+02  0.72278456881E+02  0.20000009028E+01 0.  0.
        -13    1    3    3    0    0 -0.13796513697E+02  0.14684779612E+02 -0.14339774623E+02  0.24731090609E+02  0.10566000000E+00 0.  1.
         13    1    4    4    0    0  0.42702163781E+01 -0.41142364378E+01  0.21233010053E+02  0.22045715442E+02  0.10566000000E+00 0. -1.
        -13    1    4    4    0    0  0.67599806813E-01 -0.31940448587E+00  0.16130400578E+01  0.16491365084E+01  0.10566000000E+00 0.  1.
         14    1    4    4    0    0  0.94586975120E+01 -0.10251138688E+02  0.46538305352E+02  0.48583604930E+02  0.00000000000E+00 0. -1.
<mgrwt>
<rscale>  0 0.79880826E+02</rscale>
<asrwt>0</asrwt>
<pdfrwt beam="1">  1        2 0.11696471E-01 0.79880826E+02</pdfrwt>
<pdfrwt beam="2">  1       -1 0.32280744E-02 0.79880826E+02</pdfrwt>
<totfact> 0.16547167E+05</totfact>
</mgrwt>
</event>
<event>
 8    1  0.2433467E-020  0.7999624E+02  0.7818608E-02  0.1329062E+00
         -1   -1    0    0    0  501 -0.00000000000E+00  0.00000000000E+00  0.19988882061E+01  0.19988945600E+01  0.50400000000E-02 0.  1.
          2   -1    0    0  501    0  0.00000000000E+00 -0.00000000000E+00 -0.80036839048E+03  0.80036839048E+03  0.25500000000E-02 0. -1.
         24    2    1    2    0    0  0.35527136788E-14  0.17763568394E-14 -0.79836950227E+03  0.80236728504E+03  0.79996237086E+02 0.  0.
         66    2    3    3    0    0  0.22432008705E+02 -0.90475428156E+01 -0.71863415003E+03  0.71904387533E+03  0.20000021802E+01 0.  0.
        -13    1    3    3    0    0 -0.22432008705E+02  0.90475428156E+01 -0.79735352240E+02  0.83323409714E+02  0.10566000000E+00 0.  1.
         13    1    4    4    0    0  0.82223060646E+01 -0.35592590658E+01 -0.24814236738E+03  0.24830408836E+03  0.10566000000E+00 0. -1.
        -13    1    4    4    0    0  0.36865562183E+01 -0.12340708545E+01 -0.13527779555E+03  0.13533368672E+03  0.10566000000E+00 0.  1.
        -14    1    4    4    0    0  0.10523146422E+02 -0.42542128953E+01 -0.33521398710E+03  0.33540610025E+03  0.00000000000E+00 0.  1.
<mgrwt>
<rscale>  0 0.79996237E+02</rscale>
<asrwt>0</asrwt>
<pdfrwt beam="1">  1        2 0.12313334E+00 0.79996237E+02</pdfrwt>
<pdfrwt beam="2">  1       -1 0.30752239E-03 0.79996237E+02</pdfrwt>
<totfact> 0.34372565E+05</totfact>
</mgrwt>
</event>
<event>
 8    1  0.2433467E-020  0.7495343E+02  0.7818608E-02  0.1344015E+00
          2   -1    0    0  501    0  0.00000000000E+00  0.00000000000E+00  0.21821640639E+03  0.21821640640E+03  0.25500000000E-02 0. -1.
         -1   -1    0    0    0  501 -0.00000000000E+00 -0.00000000000E+00 -0.64362892049E+01  0.64362911782E+01  0.50400000000E-02 0.  1.
         24    2    1    2    0    0  0.35527136788E-14 -0.17763568394E-14  0.21178011718E+03  0.22465269758E+03  0.74953428850E+02 0.  0.
         66    2    3    3    0    0  0.25670471636E+02 -0.15885279625E+02  0.17239187561E+03  0.17502649522E+03  0.20000072167E+01 0.  0.
        -13    1    3    3    0    0 -0.25670471636E+02  0.15885279625E+02  0.39388241571E+02  0.49626202362E+02  0.10566000000E+00 0.  1.
         13    1    4    4    0    0  0.85319011618E+01 -0.57432414494E+01  0.60182923083E+02  0.61055495696E+02  0.10566000000E+00 0. -1.
        -13    1    4    4    0    0  0.19135305450E+01 -0.11981304086E+01  0.10480953234E+02  0.10721877651E+02  0.10566000000E+00 0. -1.
        -14    1    4    4    0    0  0.15225039929E+02 -0.89439077674E+01  0.10172799929E+03  0.10324912187E+03  0.00000000000E+00 0.  1.
<mgrwt>
<rscale>  0 0.74953429E+02</rscale>
<asrwt>0</asrwt>
<pdfrwt beam="1">  1        2 0.33571758E-01 0.74953429E+02</pdfrwt>
<pdfrwt beam="2">  1       -1 0.99019841E-03 0.74953429E+02</pdfrwt>
<totfact> 0.26985137E+05</totfact>
</mgrwt>
</event>
<event>
 8    1  0.2433467E-020  0.8048302E+02  0.7818608E-02  0.1327686E+00
         -1   -1    0    0    0  501 -0.00000000000E+00  0.00000000000E+00  0.35220583890E+02  0.35220584250E+02  0.50400000000E-02 0.  1.
          2   -1    0    0  501    0  0.00000000000E+00 -0.00000000000E+00 -0.45978204353E+02  0.45978204424E+02  0.25500000000E-02 0. -1.
         24    2    1    2    0    0  0.35527136788E-14  0.00000000000E+00 -0.10757620463E+02  0.81198788675E+02  0.80483022335E+02 0.  0.
         66    2    3    3    0    0  0.31503710699E+02 -0.54978342394E+01 -0.29984733647E+02  0.43883871891E+02  0.19999977880E+01 0.  0.
        -13    1    3    3    0    0 -0.31503710699E+02  0.54978342394E+01  0.19227113184E+02  0.37314916783E+02  0.10566000000E+00 0.  1.
         13    1    4    4    0    0  0.47240798246E+01 -0.43708211098E+00 -0.47436641520E+01  0.67098051077E+01  0.10566000000E+00 0. -1.
        -13    1    4    4    0    0  0.60564629630E+01 -0.74370472502E+00 -0.50642554407E+01  0.79304279547E+01  0.10566000000E+00 0.  1.
        -14    1    4    4    0    0  0.20723167911E+02 -0.43170474034E+01 -0.20176814055E+02  0.29243638829E+02  0.00000000000E+00 0.  1.
<mgrwt>
<rscale>  0 0.80483022E+02</rscale>
<asrwt>0</asrwt>
<pdfrwt beam="1">  1        2 0.70735699E-02 0.80483022E+02</pdfrwt>
<pdfrwt beam="2">  1       -1 0.54185514E-02 0.80483022E+02</pdfrwt>
<totfact> 0.14435058E+05</totfact>
</mgrwt>
</event>
<event>
 8    1  0.2433467E-020  0.8471563E+02  0.7818608E-02  0.1316178E+00
         -1   -1    0    0    0  501 -0.00000000000E+00  0.00000000000E+00  0.61267649801E+02  0.61267650008E+02  0.50400000000E-02 0.  1.
          2   -1    0    0  501    0  0.00000000000E+00 -0.00000000000E+00 -0.29284369392E+02  0.29284369503E+02  0.25500000000E-02 0. -1.
         24    2    1    2    0    0  0.00000000000E+00  0.27755575616E-16  0.31983280409E+02  0.90552019511E+02  0.84715630269E+02 0.  0.
         66    2    3    3    0    0  0.32483770279E+02  0.12829485826E+00 -0.13016893036E+02  0.35052122527E+02  0.19999995517E+01 0.  0.
        -13    1    3    3    0    0 -0.32483770279E+02 -0.12829485826E+00  0.45000173445E+02  0.55499896984E+02  0.10566000000E+00 0.  1.
         13    1    4    4    0    0  0.20584576505E+02  0.18728594185E+00 -0.91592563901E+01  0.22531378288E+02  0.10566000000E+00 0. -1.
        -13    1    4    4    0    0  0.36159418180E+01  0.18651591496E+00 -0.12912275278E+01  0.38455501534E+01  0.10566000000E+00 0.  1.
        -14    1    4    4    0    0  0.82832519560E+01 -0.24550699855E+00 -0.25664091184E+01  0.86751940852E+01  0.00000000000E+00 0.  1.
<mgrwt>
<rscale>  0 0.84715630E+02</rscale>
<asrwt>0</asrwt>
<pdfrwt beam="1">  1        2 0.45052877E-02 0.84715630E+02</pdfrwt>
<pdfrwt beam="2">  1       -1 0.94257922E-02 0.84715630E+02</pdfrwt>
<totfact> 0.11393639E+05</totfact>
</mgrwt>
</event>
<event>
 8    1  0.2433467E-020  0.8979074E+02  0.7818608E-02  0.1303359E+00
          2   -1    0    0  501    0  0.00000000000E+00  0.00000000000E+00  0.94737073903E+03  0.94737073904E+03  0.25500000000E-02 0. -1.
         -1   -1    0    0    0  501 -0.00000000000E+00 -0.00000000000E+00 -0.21275637361E+01  0.21275697057E+01  0.50400000000E-02 0.  1.
         24    2    1    2    0    0  0.00000000000E+00  0.00000000000E+00  0.94524317530E+03  0.94949830874E+03  0.89790744840E+02 0.  0.
         66    2    3    3    0    0  0.33950894146E+02 -0.10801779783E+02  0.76133918000E+03  0.76217497248E+03  0.20000013300E+01 0.  0.
        -13    1    3    3    0    0 -0.33950894146E+02  0.10801779783E+02  0.18390399530E+03  0.18732333627E+03  0.10566000000E+00 0.  1.
         13    1    4    4    0    0  0.11601967282E+02 -0.43428957755E+01  0.25199405675E+03  0.25229839910E+03  0.10566000000E+00 0. -1.
        -13    1    4    4    0    0  0.20871437517E+02 -0.62041257902E+01  0.47695952123E+03  0.47745628505E+03  0.10566000000E+00 0.  1.
         14    1    4    4    0    0  0.14774893471E+01 -0.25475821767E+00  0.32385602025E+02  0.32420288324E+02  0.00000000000E+00 0. -1.
<mgrwt>
<rscale>  0 0.89790745E+02</rscale>
<asrwt>0</asrwt>
<pdfrwt beam="1">  1        2 0.14574948E+00 0.89790745E+02</pdfrwt>
<pdfrwt beam="2">  1       -1 0.32731766E-03 0.89790745E+02</pdfrwt>
<totfact> 0.25975682E+05</totfact>
</mgrwt>
</event>
<event>
 8    1  0.2433467E-020  0.8410653E+02  0.7818608E-02  0.1317786E+00
         -1   -1    0    0    0  501 -0.00000000000E+00  0.00000000000E+00  0.87411091640E+02  0.87411091786E+02  0.50400000000E-02 0.  1.
          2   -1    0    0  501    0  0.00000000000E+00 -0.00000000000E+00 -0.20231722802E+02  0.20231722963E+02  0.25500000000E-02 0. -1.
         24    2    1    2    0    0  0.00000000000E+00  0.00000000000E+00  0.67179368838E+02  0.10764281475E+03  0.84106527509E+02 0.  0.
         66    2    3    3    0    0 -0.89166402091E+01 -0.19844906078E+02 -0.12414805901E+02  0.25128751788E+02  0.19999977429E+01 0.  0.
        -13    1    3    3    0    0  0.89166402091E+01  0.19844906078E+02  0.79594174739E+02  0.82514062961E+02  0.10566000000E+00 0.  1.
         13    1    4    4    0    0 -0.52512276757E+01 -0.10945005854E+02 -0.69268403840E+01  0.13977153752E+02  0.10566000000E+00 0. -1.
        -13    1    4    4    0    0 -0.19436228001E+01 -0.32767406206E+01 -0.24687445765E+01  0.45409869525E+01  0.10566000000E+00 0.  1.
        -14    1    4    4    0    0 -0.17217897333E+01 -0.56231596034E+01 -0.30192209407E+01  0.66106110837E+01  0.00000000000E+00 0.  1.
<mgrwt>
<rscale>  0 0.84106528E+02</rscale>
<asrwt>0</asrwt>
<pdfrwt beam="1">  1        2 0.31125727E-02 0.84106528E+02</pdfrwt>
<pdfrwt beam="2">  1       -1 0.13447860E-01 0.84106528E+02</pdfrwt>
<totfact> 0.10771210E+05</totfact>
</mgrwt>
</event>
<event>
 8    1  0.2433467E-020  0.7871666E+02  0.7818608E-02  0.1332733E+00
         -1   -1    0    0    0  501 -0.00000000000E+00  0.00000000000E+00  0.13572979862E+01  0.13573073435E+01  0.50400000000E-02 0.  1.
          2   -1    0    0  501    0  0.00000000000E+00 -0.00000000000E+00 -0.11412916833E+04  0.11412916833E+04  0.25500000000E-02 0. -1.
         24    2    1    2    0    0  0.17763568394E-14 -0.35527136788E-14 -0.11399343854E+04  0.11426489907E+04  0.78716662814E+02 0.  0.
         66    2    3    3    0    0  0.94697834910E+01 -0.19671872170E+02 -0.10452558428E+04  0.10454857418E+04  0.20000007277E+01 0.  0.
        -13    1    3    3    0    0 -0.94697834910E+01  0.19671872170E+02 -0.94678542567E+02  0.97163248920E+02  0.10566000000E+00 0.  1.
         13    1    4    4    0    0  0.18527447419E+01 -0.29703705679E+01 -0.15859703024E+03  0.15863569878E+03  0.10566000000E+00 0. -1.
        -13    1    4    4    0    0  0.30891652210E+01 -0.66427590605E+01 -0.31986393130E+03  0.31994783153E+03  0.10566000000E+00 0.  1.
         14    1    4    4    0    0  0.45278735281E+01 -0.10058742541E+02 -0.56679488125E+03  0.56690221145E+03  0.00000000000E+00 0. -1.
<mgrwt>
<rscale>  0 0.78716663E+02</rscale>
<asrwt>0</asrwt>
<pdfrwt beam="1">  1        2 0.17558257E+00 0.78716663E+02</pdfrwt>
<pdfrwt beam="2">  1       -1 0.20881671E-03 0.78716663E+02</pdfrwt>
<totfact> 0.36698010E+05</totfact>
</mgrwt>
</event>
<event>
 8    1  0.2433467E-020  0.7115859E+02  0.7818608E-02  0.1356197E+00
          2   -1    0    0  501    0  0.00000000000E+00  0.00000000000E+00  0.51164210237E+03  0.51164210237E+03  0.25500000000E-02 0. -1.
         -1   -1    0    0    0  501 -0.00000000000E+00 -0.00000000000E+00 -0.24741606522E+01  0.24741657855E+01  0.50400000000E-02 0.  1.
         24    2    1    2    0    0  0.00000000000E+00  0.00000000000E+00  0.50916794172E+03  0.51411626816E+03  0.71158585677E+02 0.  0.
         66    2    3    3    0    0  0.27349279437E+02 -0.10387734477E+02  0.40071986502E+03  0.40179136167E+03  0.19999958610E+01 0.  0.
        -13    1    3    3    0    0 -0.27349279437E+02  0.10387734477E+02  0.10844807670E+03  0.11232490649E+03  0.10566000000E+00 0.  1.
         13    1    4    4    0    0  0.74279753214E+01 -0.35213969484E+01  0.11597121317E+03  0.11626224023E+03  0.10566000000E+00 0. -1.
        -13    1    4    4    0    0  0.12179953201E+02 -0.39230049317E+01  0.16698561954E+03  0.16747522063E+03  0.10566000000E+00 0.  1.
         14    1    4    4    0    0  0.77413509145E+01 -0.29433325969E+01  0.11776303230E+03  0.11805390081E+03  0.00000000000E+00 0. -1.
<mgrwt>
<rscale>  0 0.71158586E+02</rscale>
<asrwt>0</asrwt>
<pdfrwt beam="1">  1        2 0.78714288E-01 0.71158586E+02</pdfrwt>
<pdfrwt beam="2">  1       -1 0.38063993E-03 0.71158586E+02</pdfrwt>
<totfact> 0.41541021E+05</totfact>
</mgrwt>
</event>
<event>
 8    1  0.2433467E-020  0.7289422E+02  0.7818608E-02  0.1350519E+00
          2   -1    0    0  501    0  0.00000000000E+00  0.00000000000E+00  0.33783441234E+03  0.33783441235E+03  0.25500000000E-02 0. -1.
         -1   -1    0    0    0  501 -0.00000000000E+00 -0.00000000000E+00 -0.39320776035E+01  0.39320808336E+01  0.50400000000E-02 0.  1.
         24    2    1    2    0    0  0.00000000000E+00 -0.44408920985E-15  0.33390233473E+03  0.34176649318E+03  0.72894215958E+02 0.  0.
         66    2    3    3    0    0 -0.24485656600E+02  0.29046013330E+01  0.29274325258E+03  0.29378665058E+03  0.20000102926E+01 0.  0.
        -13    1    3    3    0    0  0.24485656600E+02 -0.29046013330E+01  0.41159082156E+02  0.47979842601E+02  0.10566000000E+00 0.  1.
         13    1    4    4    0    0 -0.87375058926E+01  0.81072622005E+00  0.10978723767E+03  0.11013741419E+03  0.10566000000E+00 0. -1.
        -13    1    4    4    0    0 -0.15753976090E+02  0.21225281421E+01  0.18283370610E+03  0.18352348117E+03  0.10566000000E+00 0.  1.
        -14    1    4    4    0    0  0.58253831080E-02 -0.28653029137E-01  0.12230880658E+00  0.12575521991E+00  0.00000000000E+00 0.  1.
<mgrwt>
<rscale>  0 0.72894216E+02</rscale>
<asrwt>0</asrwt>
<pdfrwt beam="1">  1        2 0.51974541E-01 0.72894216E+02</pdfrwt>
<pdfrwt beam="2">  1       -1 0.60493508E-03 0.72894216E+02</pdfrwt>
<totfact> 0.33904789E+05</totfact>
</mgrwt>
</event>
<event>
 8    1  0.2433467E-020  0.7921959E+02  0.7818608E-02  0.1331281E+00
          2   -1    0    0  501    0  0.00000000000E+00  0.00000000000E+00  0.56922531857E+02  0.56922531914E+02  0.25500000000E-02 0. -1.
         -1   -1    0    0    0  501 -0.00000000000E+00 -0.00000000000E+00 -0.27562647262E+02  0.27562647723E+02  0.50400000000E-02 0.  1.
         24    2    1    2    0    0 -0.35527136788E-14  0.00000000000E+00  0.29359884595E+02  0.84485179637E+02  0.79219585677E+02 0.  0.
         66    2    3    3    0    0  0.16069716526E+02  0.36085273952E+02  0.17418255887E+02  0.43217802138E+02  0.19999995230E+01 0.  0.
        -13    1    3    3    0    0 -0.16069716526E+02 -0.36085273952E+02  0.11941628708E+02  0.41267377499E+02  0.10566000000E+00 0.  1.
         13    1    4    4    0    0  0.51716091876E+01  0.11004930369E+02  0.50192233483E+01  0.13155143522E+02  0.10566000000E+00 0.  1.
        -13    1    4    4    0    0  0.19199278758E+01  0.39600623111E+01  0.25657030201E+01  0.50953128048E+01  0.10566000000E+00 0. -1.
        -14    1    4    4    0    0  0.89781794625E+01  0.21120281271E+02  0.98333295188E+01  0.24967345811E+02  0.00000000000E+00 0.  1.
<mgrwt>
<rscale>  0 0.79219586E+02</rscale>
<asrwt>0</asrwt>
<pdfrwt beam="1">  1        2 0.87573125E-02 0.79219586E+02</pdfrwt>
<pdfrwt beam="2">  1       -1 0.42404074E-02 0.79219586E+02</pdfrwt>
<totfact> 0.15795985E+05</totfact>
</mgrwt>
</event>
<event>
 8    1  0.2433467E-020  0.8466418E+02  0.7818608E-02  0.1316313E+00
          2   -1    0    0  501    0  0.00000000000E+00  0.00000000000E+00  0.14136406014E+03  0.14136406016E+03  0.25500000000E-02 0. -1.
         -1   -1    0    0    0  501 -0.00000000000E+00 -0.00000000000E+00 -0.12676529717E+02  0.12676530719E+02  0.50400000000E-02 0.  1.
         24    2    1    2    0    0  0.00000000000E+00  0.00000000000E+00  0.12868753042E+03  0.15404059088E+03  0.84664178687E+02 0.  0.
         66    2    3    3    0    0 -0.17446150347E+02 -0.35995693583E+02  0.89454904365E+02  0.98011417856E+02  0.19999991898E+01 0.  0.
        -13    1    3    3    0    0  0.17446150347E+02  0.35995693583E+02  0.39232626057E+02  0.56029173024E+02  0.10566000000E+00 0.  1.
         13    1    4    4    0    0 -0.36602434243E+01 -0.71272333241E+01  0.17003971298E+02  0.18797367920E+02  0.10566000000E+00 0. -1.
        -13    1    4    4    0    0 -0.86753529206E+01 -0.17154112620E+02  0.42035596934E+02  0.46222590815E+02  0.10566000000E+00 0.  1.
         14    1    4    4    0    0 -0.51105540025E+01 -0.11714347638E+02  0.30415336133E+02  0.32991459120E+02  0.00000000000E+00 0. -1.
<mgrwt>
<rscale>  0 0.84664179E+02</rscale>
<asrwt>0</asrwt>
<pdfrwt beam="1">  1        2 0.21748317E-01 0.84664179E+02</pdfrwt>
<pdfrwt beam="2">  1       -1 0.19502355E-02 0.84664179E+02</pdfrwt>
<totfact> 0.16899365E+05</totfact>
</mgrwt>
</event>
<event>
 8    1  0.2433467E-020  0.8648897E+02  0.7818608E-02  0.1311584E+00
         -1   -1    0    0    0  501 -0.00000000000E+00  0.00000000000E+00  0.52060680031E+02  0.52060680275E+02  0.50400000000E-02 0.  1.
          2   -1    0    0  501    0  0.00000000000E+00 -0.00000000000E+00 -0.35921262172E+02  0.35921262262E+02  0.25500000000E-02 0. -1.
         24    2    1    2    0    0  0.00000000000E+00  0.00000000000E+00  0.16139417859E+02  0.87981942537E+02  0.86488966948E+02 0.  0.
         66    2    3    3    0    0  0.10354672213E+02 -0.36284296027E+02 -0.13368533147E+02  0.40081006101E+02  0.19999991997E+01 0.  0.
        -13    1    3    3    0    0 -0.10354672213E+02  0.36284296027E+02  0.29507951006E+02  0.47900936436E+02  0.10566000000E+00 0.  1.
         13    1    4    4    0    0  0.52812925578E+00 -0.26037257021E+01 -0.94902494082E+00  0.28231401695E+01  0.10566000000E+00 0. -1.
        -13    1    4    4    0    0  0.73236056794E+01 -0.25014314405E+02 -0.10014935448E+02  0.27922414318E+02  0.10566000000E+00 0.  1.
        -14    1    4    4    0    0  0.25029372775E+01 -0.86662559197E+01 -0.24045727590E+01  0.93354516138E+01  0.00000000000E+00 0.  1.
<mgrwt>
<rscale>  0 0.86488967E+02</rscale>
<asrwt>0</asrwt>
<pdfrwt beam="1">  1        2 0.55263480E-02 0.86488967E+02</pdfrwt>
<pdfrwt beam="2">  1       -1 0.80093354E-02 0.86488967E+02</pdfrwt>
<totfact> 0.11214434E+05</totfact>
</mgrwt>
</event>
<event>
 8    1  0.2433467E-020  0.8229393E+02  0.7818608E-02  0.1322665E+00
         -1   -1    0    0    0  501 -0.00000000000E+00  0.00000000000E+00  0.33674135311E+01  0.33674173028E+01  0.50400000000E-02 0.  1.
          2   -1    0    0  501    0  0.00000000000E+00 -0.00000000000E+00 -0.50278110739E+03  0.50278110740E+03  0.25500000000E-02 0. -1.
         24    2    1    2    0    0  0.00000000000E+00 -0.35527136788E-14 -0.49941369386E+03  0.50614852470E+03  0.82293933200E+02 0.  0.
         66    2    3    3    0    0 -0.11248994076E+01  0.31694579053E+02 -0.41085790526E+03  0.41208497916E+03  0.19999997685E+01 0.  0.
        -13    1    3    3    0    0  0.11248994076E+01 -0.31694579053E+02 -0.88555788598E+02  0.94063545533E+02  0.10566000000E+00 0.  1.
         13    1    4    4    0    0 -0.18507680555E+00  0.16918528091E+02 -0.21241443440E+03  0.21308724493E+03  0.10566000000E+00 0. -1.
        -13    1    4    4    0    0  0.19374598739E+00  0.21609423763E+01 -0.30712016366E+02  0.30788736947E+02  0.10566000000E+00 0.  1.
        -14    1    4    4    0    0 -0.11335685894E+01  0.12615108585E+02 -0.16773145449E+03  0.16820899729E+03  0.00000000000E+00 0.  1.
<mgrwt>
<rscale>  0 0.82293933E+02</rscale>
<asrwt>0</asrwt>
<pdfrwt beam="1">  1        2 0.77350880E-01 0.82293933E+02</pdfrwt>
<pdfrwt beam="2">  1       -1 0.51806431E-03 0.82293933E+02</pdfrwt>
<totfact> 0.28335518E+05</totfact>
</mgrwt>
</event>
<event>
 8    1  0.2433467E-020  0.8059606E+02  0.7818608E-02  0.1327368E+00
         -1   -1    0    0    0  501 -0.00000000000E+00  0.00000000000E+00  0.25371338951E+01  0.25371389010E+01  0.50400000000E-02 0.  1.
          2   -1    0    0  501    0  0.00000000000E+00 -0.00000000000E+00 -0.64006456349E+03  0.64006456350E+03  0.25500000000E-02 0. -1.
         24    2    1    2    0    0  0.00000000000E+00  0.71054273576E-14 -0.63752742960E+03  0.64260170240E+03  0.80596057202E+02 0.  0.
         66    2    3    3    0    0  0.87696395904E+01  0.36276014592E+02 -0.43963312082E+03  0.44121892154E+03  0.19999988870E+01 0.  0.
        -13    1    3    3    0    0 -0.87696395904E+01 -0.36276014592E+02 -0.19789430878E+03  0.20138278086E+03  0.10566000000E+00 0.  1.
         13    1    4    4    0    0  0.22627037945E+01  0.10604289084E+02 -0.12462751371E+03  0.12509835776E+03  0.10566000000E+00 0. -1.
        -13    1    4    4    0    0 -0.16776332127E-02  0.87776296150E+00 -0.91331240475E+01  0.91758154697E+01  0.10566000000E+00 0.  1.
         14    1    4    4    0    0  0.65086134292E+01  0.24793962546E+02 -0.30587248306E+03  0.30694474832E+03  0.00000000000E+00 0. -1.
<mgrwt>
<rscale>  0 0.80596057E+02</rscale>
<asrwt>0</asrwt>
<pdfrwt beam="1">  1        2 0.98471343E-01 0.80596057E+02</pdfrwt>
<pdfrwt beam="2">  1       -1 0.39032919E-03 0.80596057E+02</pdfrwt>
<totfact> 0.32101558E+05</totfact>
</mgrwt>
</event>
<event>
 8    1  0.2433467E-020  0.7893599E+02  0.7818608E-02  0.1332098E+00
          2   -1    0    0  501    0  0.00000000000E+00  0.00000000000E+00  0.91871795204E+03  0.91871795205E+03  0.25500000000E-02 0. -1.
         -1   -1    0    0    0  501 -0.00000000000E+00 -0.00000000000E+00 -0.16955357558E+01  0.16955432465E+01  0.50400000000E-02 0.  1.
         24    2    1    2    0    0 -0.17763568394E-14  0.35527136788E-14  0.91702241629E+03  0.92041349529E+03  0.78935988905E+02 0.  0.
         66    2    3    3    0    0  0.10122622140E+02 -0.22911956023E+02  0.81406802029E+03  0.81445574887E+03  0.20000003356E+01 0.  0.
        -13    1    3    3    0    0 -0.10122622140E+02  0.22911956023E+02  0.10295439599E+03  0.10595774642E+03  0.10566000000E+00 0.  1.
         13    1    4    4    0    0  0.35928869761E+01 -0.77603680799E+01  0.30375699962E+03  0.30387737351E+03  0.10566000000E+00 0. -1.
        -13    1    4    4    0    0  0.57030111651E+01 -0.12425435828E+02  0.42211236380E+03  0.42233372424E+03  0.10566000000E+00 0.  1.
         14    1    4    4    0    0  0.82672399864E+00 -0.27261521145E+01  0.88198656869E+02  0.88244651121E+02  0.00000000000E+00 0. -1.
<mgrwt>
<rscale>  0 0.78935989E+02</rscale>
<asrwt>0</asrwt>
<pdfrwt beam="1">  1        2 0.14134105E+00 0.78935989E+02</pdfrwt>
<pdfrwt beam="2">  1       -1 0.26085256E-03 0.78935989E+02</pdfrwt>
<totfact> 0.36259457E+05</totfact>
</mgrwt>
</event>
<event>
 8    1  0.2433467E-020  0.8050403E+02  0.7818608E-02  0.1327627E+00
         -1   -1    0    0    0  501 -0.00000000000E+00  0.00000000000E+00  0.35495821806E+02  0.35495822164E+02  0.50400000000E-02 0.  1.
          2   -1    0    0  501    0  0.00000000000E+00 -0.00000000000E+00 -0.45645503461E+02  0.45645503532E+02  0.25500000000E-02 0. -1.
         24    2    1    2    0    0  0.00000000000E+00 -0.35527136788E-14 -0.10149681654E+02  0.81141325696E+02  0.80504029080E+02 0.  0.
         66    2    3    3    0    0 -0.90828954364E+01  0.28688969424E+02 -0.31985059563E+02  0.43961346559E+02  0.19999999710E+01 0.  0.
        -13    1    3    3    0    0  0.90828954364E+01 -0.28688969424E+02  0.21835377909E+02  0.37179979137E+02  0.10566000000E+00 0.  1.
         13    1    4    4    0    0 -0.65622196359E+01  0.21963938371E+02 -0.24881244138E+02  0.33831417192E+02  0.10566000000E+00 0. -1.
        -13    1    4    4    0    0 -0.10579759472E+00  0.14622493871E+00 -0.15018000665E+00  0.25747414190E+00  0.10566000000E+00 0.  1.
         14    1    4    4    0    0 -0.24148782058E+01  0.65788061149E+01 -0.69536354189E+01  0.98724552258E+01  0.00000000000E+00 0. -1.
<mgrwt>
<rscale>  0 0.80504029E+02</rscale>
<asrwt>0</asrwt>
<pdfrwt beam="1">  1        2 0.70223852E-02 0.80504029E+02</pdfrwt>
<pdfrwt beam="2">  1       -1 0.54608957E-02 0.80504029E+02</pdfrwt>
<totfact> 0.14402403E+05</totfact>
</mgrwt>
</event>
<event>
 8    1  0.2433467E-020  0.7608036E+02  0.7818608E-02  0.1340558E+00
          2   -1    0    0  501    0  0.00000000000E+00  0.00000000000E+00  0.14397442555E+02  0.14397442780E+02  0.25500000000E-02 0. -1.
         -1   -1    0    0    0  501 -0.00000000000E+00 -0.00000000000E+00 -0.10050778696E+03  0.10050778708E+03  0.50400000000E-02 0.  1.
         24    2    1    2    0    0 -0.71054273576E-14  0.00000000000E+00 -0.86110344403E+02  0.11490522986E+03  0.76080355132E+02 0.  0.
         66    2    3    3    0    0  0.17587244283E+02  0.28094814351E+02 -0.14974313023E+02  0.36426086907E+02  0.20000004805E+01 0.  0.
        -13    1    3    3    0    0 -0.17587244283E+02 -0.28094814351E+02 -0.71136031380E+02  0.78479142958E+02  0.10566000000E+00 0.  1.
         13    1    4    4    0    0  0.77295284756E+00  0.16644367763E+01 -0.65748290733E+00  0.19522432471E+01  0.10566000000E+00 0. -1.
        -13    1    4    4    0    0  0.53043144523E+00  0.49150089190E+00 -0.26339915925E+00  0.77683575968E+00  0.10566000000E+00 0.  1.
         14    1    4    4    0    0  0.16283859990E+02  0.25938876683E+02 -0.14053430956E+02  0.33697007900E+02  0.00000000000E+00 0. -1.
<mgrwt>
<rscale>  0 0.76080355E+02</rscale>
<asrwt>0</asrwt>
<pdfrwt beam="1">  1        2 0.22149912E-02 0.76080355E+02</pdfrwt>
<pdfrwt beam="2">  1       -1 0.15462736E-01 0.76080355E+02</pdfrwt>
<totfact> 0.13419999E+05</totfact>
</mgrwt>
</event>
<event>
 8    1  0.2433467E-020  0.7734183E+02  0.7818608E-02  0.1336769E+00
         -1   -1    0    0    0  501 -0.00000000000E+00  0.00000000000E+00  0.62025356582E+01  0.62025377059E+01  0.50400000000E-02 0.  1.
          2   -1    0    0  501    0  0.00000000000E+00 -0.00000000000E+00 -0.24110130713E+03  0.24110130715E+03  0.25500000000E-02 0. -1.
         24    2    1    2    0    0  0.17763568394E-14  0.00000000000E+00 -0.23489877148E+03  0.24730384485E+03  0.77341831104E+02 0.  0.
         66    2    3    3    0    0 -0.13646571983E+02  0.27278155721E+02 -0.19340508033E+03  0.19580564803E+03  0.19999998741E+01 0.  0.
        -13    1    3    3    0    0  0.13646571983E+02 -0.27278155721E+02 -0.41493691150E+02  0.51498196820E+02  0.10566000000E+00 0.  1.
         13    1    4    4    0    0 -0.18393544086E+01  0.31052688498E+01 -0.20706686533E+02  0.21019132963E+02  0.10566000000E+00 0. -1.
        -13    1    4    4    0    0 -0.29436809884E+01  0.73515563432E+01 -0.49522566908E+02  0.50151833821E+02  0.10566000000E+00 0.  1.
        -14    1    4    4    0    0 -0.88635365860E+01  0.16821330528E+02 -0.12317582689E+03  0.12463468125E+03  0.00000000000E+00 0.  1.
<mgrwt>
<rscale>  0 0.77341831E+02</rscale>
<asrwt>0</asrwt>
<pdfrwt beam="1">  1        2 0.37092502E-01 0.77341831E+02</pdfrwt>
<pdfrwt beam="2">  1       -1 0.95423660E-03 0.77341831E+02</pdfrwt>
<totfact> 0.25747292E+05</totfact>
</mgrwt>
</event>
<event>
 8    1  0.2433467E-020  0.8025992E+02  0.7818608E-02  0.1328315E+00
         -1   -1    0    0    0  501 -0.00000000000E+00  0.00000000000E+00  0.32808353553E+01  0.32808392265E+01  0.50400000000E-02 0.  1.
          2   -1    0    0  501    0  0.00000000000E+00 -0.00000000000E+00 -0.49085446500E+03  0.49085446500E+03  0.25500000000E-02 0. -1.
         24    2    1    2    0    0  0.00000000000E+00  0.00000000000E+00 -0.48757362964E+03  0.49413530423E+03  0.80259918792E+02 0.  0.
         66    2    3    3    0    0  0.19332695925E+02 -0.20785802805E+02 -0.41835860599E+03  0.41932532232E+03  0.20000010444E+01 0.  0.
        -13    1    3    3    0    0 -0.19332695925E+02  0.20785802805E+02 -0.69215023648E+02  0.74809981904E+02  0.10566000000E+00 0.  1.
         13    1    4    4    0    0  0.10257191989E+02 -0.11146062656E+02 -0.20927898708E+03  0.20982647664E+03  0.10566000000E+00 0. -1.
        -13    1    4    4    0    0  0.27556940913E+01 -0.27822532244E+01 -0.59535440309E+02  0.59664181883E+02  0.10566000000E+00 0.  1.
         14    1    4    4    0    0  0.63198098447E+01 -0.68574869242E+01 -0.14954417860E+03  0.14983466380E+03  0.00000000000E+00 0. -1.
<mgrwt>
<rscale>  0 0.80259919E+02</rscale>
<asrwt>0</asrwt>
<pdfrwt beam="1">  1        2 0.75516013E-01 0.80259919E+02</pdfrwt>
<pdfrwt beam="2">  1       -1 0.50474459E-03 0.80259919E+02</pdfrwt>
<totfact> 0.30016887E+05</totfact>
</mgrwt>
</event>
<event>
 8    1  0.2433467E-020  0.7847645E+02  0.7818608E-02  0.1333431E+00
         -1   -1    0    0    0  501 -0.00000000000E+00  0.00000000000E+00  0.14686461111E+01  0.14686547590E+01  0.50400000000E-02 0.  1.
          2   -1    0    0  501    0  0.00000000000E+00 -0.00000000000E+00 -0.10483355503E+04  0.10483355503E+04  0.25500000000E-02 0. -1.
         24    2    1    2    0    0  0.00000000000E+00  0.00000000000E+00 -0.10468669042E+04  0.10498042050E+04  0.78476454302E+02 0.  0.
         66    2    3    3    0    0 -0.18615751245E+02 -0.62119426700E+01 -0.97791192969E+03  0.97811087135E+03  0.20000000972E+01 0.  0.
        -13    1    3    3    0    0  0.18615751245E+02  0.62119426700E+01 -0.68954974468E+02  0.71693333679E+02  0.10566000000E+00 0.  1.
         13    1    4    4    0    0 -0.13701794729E+01 -0.14963070961E+00 -0.63920137483E+02  0.63935083647E+02  0.10566000000E+00 0. -1.
        -13    1    4    4    0    0 -0.13276419589E+02 -0.42757979894E+01 -0.67003640100E+03  0.67018156913E+03  0.10566000000E+00 0.  1.
        -14    1    4    4    0    0 -0.39691521834E+01 -0.17865139710E+01 -0.24395539120E+03  0.24399421857E+03  0.00000000000E+00 0.  1.
<mgrwt>
<rscale>  0 0.78476454E+02</rscale>
<asrwt>0</asrwt>
<pdfrwt beam="1">  1        2 0.16128179E+00 0.78476454E+02</pdfrwt>
<pdfrwt beam="2">  1       -1 0.22594706E-03 0.78476454E+02</pdfrwt>
<totfact> 0.37075872E+05</totfact>
</mgrwt>
</event>
<event>
 8    1  0.2433467E-020  0.7963124E+02  0.7818608E-02  0.1330101E+00
          2   -1    0    0  501    0  0.00000000000E+00  0.00000000000E+00  0.11639524625E+04  0.11639524625E+04  0.25500000000E-02 0. -1.
         -1   -1    0    0    0  501 -0.00000000000E+00 -0.00000000000E+00 -0.13619785380E+01  0.13619878633E+01  0.50400000000E-02 0.  1.
         24    2    1    2    0    0  0.00000000000E+00  0.88817841970E-15  0.11625904840E+04  0.11653144504E+04  0.79631242820E+02 0.  0.
         66    2    3    3    0    0 -0.25432470756E+02  0.56961785018E+01  0.10216572511E+04  0.10219915830E+04  0.19999997540E+01 0.  0.
        -13    1    3    3    0    0  0.25432470756E+02 -0.56961785018E+01  0.14093323286E+03  0.14332286735E+03  0.10566000000E+00 0.  1.
         13    1    4    4    0    0 -0.96670030861E+01  0.18362984063E+01  0.39774857350E+03  0.39787028266E+03  0.10566000000E+00 0. -1.
        -13    1    4    4    0    0 -0.42859115517E+01  0.70253344150E+00  0.14823555979E+03  0.14829920749E+03  0.10566000000E+00 0.  1.
         14    1    4    4    0    0 -0.11479556119E+02  0.31573466540E+01  0.47567311782E+03  0.47582209287E+03  0.00000000000E+00 0. -1.
<mgrwt>
<rscale>  0 0.79631243E+02</rscale>
<asrwt>0</asrwt>
<pdfrwt beam="1">  1        2 0.17906936E+00 0.79631243E+02</pdfrwt>
<pdfrwt beam="2">  1       -1 0.20953617E-03 0.79631243E+02</pdfrwt>
<totfact> 0.35564382E+05</totfact>
</mgrwt>
</event>
<event>
 8    1  0.2433467E-020  0.8046030E+02  0.7818608E-02  0.1327750E+00
          2   -1    0    0  501    0  0.00000000000E+00  0.00000000000E+00  0.53253947738E+01  0.53253953844E+01  0.25500000000E-02 0. -1.
         -1   -1    0    0    0  501 -0.00000000000E+00 -0.00000000000E+00 -0.30391450148E+03  0.30391450152E+03  0.50400000000E-02 0.  1.
         24    2    1    2    0    0  0.35527136788E-14 -0.71054273576E-14 -0.29858910670E+03  0.30923989690E+03  0.80460295767E+02 0.  0.
         66    2    3    3    0    0  0.16738280442E+02 -0.33282284242E+02 -0.91279012462E+02  0.98609018790E+02  0.19999985416E+01 0.  0.
        -13    1    3    3    0    0 -0.16738280442E+02  0.33282284242E+02 -0.20731009424E+03  0.21063087811E+03  0.10566000000E+00 0.  1.
         13    1    4    4    0    0  0.75874490456E+01 -0.15943589432E+02 -0.43465564332E+02  0.46915177434E+02  0.10566000000E+00 0. -1.
        -13    1    4    4    0    0  0.46581192305E-01 -0.34159028278E+00 -0.70037344423E+00  0.78774407377E+00  0.10566000000E+00 0.  1.
         14    1    4    4    0    0  0.91042502042E+01 -0.16997104527E+02 -0.47113074686E+02  0.50906097282E+02  0.00000000000E+00 0. -1.
<mgrwt>
<rscale>  0 0.80460296E+02</rscale>
<asrwt>0</asrwt>
<pdfrwt beam="1">  1        2 0.81929179E-03 0.80460296E+02</pdfrwt>
<pdfrwt beam="2">  1       -1 0.46756064E-01 0.80460296E+02</pdfrwt>
<totfact> 0.84721309E+04</totfact>
</mgrwt>
</event>
<event>
 8    1  0.2433467E-020  0.7808733E+02  0.7818608E-02  0.1334569E+00
          2   -1    0    0  501    0  0.00000000000E+00  0.00000000000E+00  0.11637564370E+03  0.11637564373E+03  0.25500000000E-02 0. -1.
         -1   -1    0    0    0  501 -0.00000000000E+00 -0.00000000000E+00 -0.13099028242E+02  0.13099029211E+02  0.50400000000E-02 0.  1.
         24    2    1    2    0    0 -0.17763568394E-14  0.71054273576E-14  0.10327661546E+03  0.12947467294E+03  0.78087333367E+02 0.  0.
         66    2    3    3    0    0  0.86365144213E+01 -0.36828063292E+02  0.67533148163E+02  0.77431400123E+02  0.19999992469E+01 0.  0.
        -13    1    3    3    0    0 -0.86365144213E+01  0.36828063292E+02  0.35743467297E+02  0.52043272819E+02  0.10566000000E+00 0.  1.
         13    1    4    4    0    0  0.41376737274E+01 -0.15390664968E+02  0.29103631241E+02  0.33181703203E+02  0.10566000000E+00 0. -1.
        -13    1    4    4    0    0  0.99315003969E+00 -0.42856107769E+01  0.86719281396E+01  0.97245209870E+01  0.10566000000E+00 0.  1.
        -14    1    4    4    0    0  0.35056906543E+01 -0.17151787547E+02  0.29757588783E+02  0.34525175933E+02  0.00000000000E+00 0.  1.
<mgrwt>
<rscale>  0 0.78087333E+02</rscale>
<asrwt>0</asrwt>
<pdfrwt beam="1">  1        2 0.17903945E-01 0.78087333E+02</pdfrwt>
<pdfrwt beam="2">  1       -1 0.20152352E-02 0.78087333E+02</pdfrwt>
<totfact> 0.19750392E+05</totfact>
</mgrwt>
</event>
<event>
 8    1  0.2433467E-020  0.7940078E+02  0.7818608E-02  0.1330761E+00
         -1   -1    0    0    0  501 -0.00000000000E+00  0.00000000000E+00  0.23731177903E+02  0.23731178438E+02  0.50400000000E-02 0.  1.
          2   -1    0    0  501    0  0.00000000000E+00 -0.00000000000E+00 -0.66415619105E+02  0.66415619154E+02  0.25500000000E-02 0. -1.
         24    2    1    2    0    0  0.00000000000E+00  0.00000000000E+00 -0.42684441202E+02  0.90146797593E+02  0.79400778305E+02 0.  0.
         66    2    3    3    0    0  0.45101845195E+01  0.39008183302E+02 -0.27791785887E+02  0.48149387252E+02  0.20000002460E+01 0.  0.
        -13    1    3    3    0    0 -0.45101845195E+01 -0.39008183302E+02 -0.14892655315E+02  0.41997410341E+02  0.10566000000E+00 0.  1.
         13    1    4    4    0    0  0.27572541967E+01  0.18147031746E+02 -0.12492753038E+02  0.22203541483E+02  0.10566000000E+00 0. -1.
        -13    1    4    4    0    0  0.15381848151E+01  0.13076979133E+02 -0.95144291322E+01  0.16245273821E+02  0.10566000000E+00 0.  1.
        -14    1    4    4    0    0  0.21474550767E+00  0.77841724234E+01 -0.57846037166E+01  0.97005719475E+01  0.00000000000E+00 0.  1.
<mgrwt>
<rscale>  0 0.79400778E+02</rscale>
<asrwt>0</asrwt>
<pdfrwt beam="1">  1        2 0.10217787E-01 0.79400778E+02</pdfrwt>
<pdfrwt beam="2">  1       -1 0.36509505E-02 0.79400778E+02</pdfrwt>
<totfact> 0.16270722E+05</totfact>
</mgrwt>
</event>
<event>
 8    1  0.2433467E-020  0.8555181E+02  0.7818608E-02  0.1313996E+00
          2   -1    0    0  501    0  0.00000000000E+00  0.00000000000E+00  0.62714844442E+02  0.62714844494E+02  0.25500000000E-02 0. -1.
         -1   -1    0    0    0  501 -0.00000000000E+00 -0.00000000000E+00 -0.29176158294E+02  0.29176158729E+02  0.50400000000E-02 0.  1.
         24    2    1    2    0    0 -0.17763568394E-14  0.00000000000E+00  0.33538686149E+02  0.91891003223E+02  0.85551814737E+02 0.  0.
         66    2    3    3    0    0 -0.12772610826E+02  0.36615736545E+02  0.36109896530E+02  0.53026185754E+02  0.19999995222E+01 0.  0.
        -13    1    3    3    0    0  0.12772610826E+02 -0.36615736545E+02 -0.25712103817E+01  0.38864817469E+02  0.10566000000E+00 0.  1.
         13    1    4    4    0    0 -0.78593625758E+01  0.20354274723E+02  0.20754822076E+02  0.30113782277E+02  0.10566000000E+00 0. -1.
        -13    1    4    4    0    0 -0.79079472291E+00  0.21288381203E+01  0.23399392927E+01  0.32624818720E+01  0.10566000000E+00 0.  1.
        -14    1    4    4    0    0 -0.41224535277E+01  0.14132623702E+02  0.13015135162E+02  0.19649921604E+02  0.00000000000E+00 0.  1.
<mgrwt>
<rscale>  0 0.85551815E+02</rscale>
<asrwt>0</asrwt>
<pdfrwt beam="1">  1        2 0.96484375E-02 0.85551815E+02</pdfrwt>
<pdfrwt beam="2">  1       -1 0.44886398E-02 0.85551815E+02</pdfrwt>
<totfact> 0.13095774E+05</totfact>
</mgrwt>
</event>
<event>
 8    1  0.2433467E-020  0.8023350E+02  0.7818608E-02  0.1328390E+00
          2   -1    0    0  501    0  0.00000000000E+00  0.00000000000E+00  0.47956847836E+01  0.47956854616E+01  0.25500000000E-02 0. -1.
         -1   -1    0    0    0  501 -0.00000000000E+00 -0.00000000000E+00 -0.33558364139E+03  0.33558364142E+03  0.50400000000E-02 0.  1.
         24    2    1    2    0    0  0.71054273576E-14  0.00000000000E+00 -0.33078795660E+03  0.34037932688E+03  0.80233496358E+02 0.  0.
         66    2    3    3    0    0  0.33170744502E+02  0.20613932452E+02 -0.20393982686E+03  0.20765520819E+03  0.20000010588E+01 0.  0.
        -13    1    3    3    0    0 -0.33170744502E+02 -0.20613932452E+02 -0.12684812974E+03  0.13272411870E+03  0.10566000000E+00 0.  1.
         13    1    4    4    0    0  0.40983875444E+01  0.26035316707E+01 -0.22644446231E+02  0.23159388307E+02  0.10566000000E+00 0.  1.
        -13    1    4    4    0    0  0.18646382779E+01  0.93605462737E+00 -0.11830966029E+02  0.12013991650E+02  0.10566000000E+00 0. -1.
         14    1    4    4    0    0  0.27207718679E+02  0.17074346154E+02 -0.16946441460E+03  0.17248182823E+03  0.00000000000E+00 0. -1.
<mgrwt>
<rscale>  0 0.80233496E+02</rscale>
<asrwt>0</asrwt>
<pdfrwt beam="1">  1        2 0.73779798E-03 0.80233496E+02</pdfrwt>
<pdfrwt beam="2">  1       -1 0.51628234E-01 0.80233496E+02</pdfrwt>
<totfact> 0.81808480E+04</totfact>
</mgrwt>
</event>
<event>
 8    1  0.2433467E-020  0.8002056E+02  0.7818608E-02  0.1328993E+00
          2   -1    0    0  501    0  0.00000000000E+00  0.00000000000E+00  0.34845242895E+02  0.34845242988E+02  0.25500000000E-02 0. -1.
         -1   -1    0    0    0  501 -0.00000000000E+00 -0.00000000000E+00 -0.45940924661E+02  0.45940924938E+02  0.50400000000E-02 0.  1.
         24    2    1    2    0    0  0.00000000000E+00  0.00000000000E+00 -0.11095681767E+02  0.80786167926E+02  0.80020564696E+02 0.  0.
         66    2    3    3    0    0 -0.48215573338E+01 -0.25315299613E+02  0.25314172952E+02  0.36178988075E+02  0.20000040647E+01 0.  0.
        -13    1    3    3    0    0  0.48215573338E+01  0.25315299613E+02 -0.36409854719E+02  0.44607179851E+02  0.10566000000E+00 0.  1.
         13    1    4    4    0    0 -0.23131553186E+00 -0.36172865444E+01  0.33027331153E+01  0.49048423916E+01  0.10566000000E+00 0. -1.
        -13    1    4    4    0    0 -0.38039042790E+01 -0.15497829695E+02  0.16199475759E+02  0.22739538077E+02  0.10566000000E+00 0.  1.
        -14    1    4    4    0    0 -0.78633752291E+00 -0.62001833730E+01  0.58119640774E+01  0.85346076064E+01  0.00000000000E+00 0.  1.
<mgrwt>
<rscale>  0 0.80020565E+02</rscale>
<asrwt>0</asrwt>
<pdfrwt beam="1">  1        2 0.53608066E-02 0.80020565E+02</pdfrwt>
<pdfrwt beam="2">  1       -1 0.70678346E-02 0.80020565E+02</pdfrwt>
<totfact> 0.13851767E+05</totfact>
</mgrwt>
</event>
<event>
 8    1  0.2433467E-020  0.7287356E+02  0.7818608E-02  0.1350585E+00
          2   -1    0    0  501    0  0.00000000000E+00  0.00000000000E+00  0.19341609715E+02  0.19341609883E+02  0.25500000000E-02 0. -1.
         -1   -1    0    0    0  501 -0.00000000000E+00 -0.00000000000E+00 -0.68641587087E+02  0.68641587272E+02  0.50400000000E-02 0.  1.
         24    2    1    2    0    0  0.00000000000E+00  0.00000000000E+00 -0.49299977372E+02  0.87983197156E+02  0.72873556334E+02 0.  0.
         66    2    3    3    0    0 -0.21496558194E+02 -0.29329072495E+02 -0.22462859298E+02  0.42788744198E+02  0.20000186473E+01 0.  0.
        -13    1    3    3    0    0  0.21496558194E+02  0.29329072495E+02 -0.26837118074E+02  0.45194452958E+02  0.10566000000E+00 0.  1.
         13    1    4    4    0    0 -0.99833887651E+01 -0.12629181901E+02 -0.10041866322E+02  0.18974048856E+02  0.10566000000E+00 0. -1.
        -13    1    4    4    0    0 -0.39572628969E+01 -0.58491478407E+01 -0.36772557811E+01  0.79627780463E+01  0.10566000000E+00 0.  1.
         14    1    4    4    0    0 -0.75559065315E+01 -0.10850742753E+02 -0.87437371955E+01  0.15851917296E+02  0.00000000000E+00 0. -1.
<mgrwt>
<rscale>  0 0.72873556E+02</rscale>
<asrwt>0</asrwt>
<pdfrwt beam="1">  1        2 0.29756323E-02 0.72873556E+02</pdfrwt>
<pdfrwt beam="2">  1       -1 0.10560244E-01 0.72873556E+02</pdfrwt>
<totfact> 0.16087583E+05</totfact>
</mgrwt>
</event>
<event>
 8    1  0.2433467E-020  0.8433464E+02  0.7818608E-02  0.1317182E+00
         -1   -1    0    0    0  501 -0.00000000000E+00  0.00000000000E+00  0.18769854339E+01  0.18769922005E+01  0.50400000000E-02 0.  1.
          2   -1    0    0  501    0  0.00000000000E+00 -0.00000000000E+00 -0.94730606626E+03  0.94730606626E+03  0.25500000000E-02 0. -1.
         24    2    1    2    0    0  0.00000000000E+00  0.00000000000E+00 -0.94542908083E+03  0.94918305846E+03  0.84334640589E+02 0.  0.
         66    2    3    3    0    0 -0.18834823503E+02 -0.98036875892E+00 -0.89715374867E+03  0.89735420011E+03  0.20000016679E+01 0.  0.
        -13    1    3    3    0    0  0.18834823503E+02  0.98036875892E+00 -0.48275332160E+02  0.51828858355E+02  0.10566000000E+00 0.  1.
         13    1    4    4    0    0 -0.12168635240E+02 -0.11087726621E+01 -0.58056901098E+03  0.58069759147E+03  0.10566000000E+00 0. -1.
        -13    1    4    4    0    0 -0.12568463571E+01 -0.23895144514E-01 -0.43631372501E+02  0.43649605543E+02  0.10566000000E+00 0.  1.
        -14    1    4    4    0    0 -0.54093419056E+01  0.15229904768E+00 -0.27295336518E+03  0.27300700310E+03  0.00000000000E+00 0.  1.
<mgrwt>
<rscale>  0 0.84334641E+02</rscale>
<asrwt>0</asrwt>
<pdfrwt beam="1">  1        2 0.14573901E+00 0.84334641E+02</pdfrwt>
<pdfrwt beam="2">  1       -1 0.28876827E-03 0.84334641E+02</pdfrwt>
<totfact> 0.30608988E+05</totfact>
</mgrwt>
</event>
<event>
 8    1  0.2433467E-020  0.8449719E+02  0.7818608E-02  0.1316753E+00
         -1   -1    0    0    0  501 -0.00000000000E+00  0.00000000000E+00  0.42100339932E+01  0.42100370100E+01  0.50400000000E-02 0.  1.
          2   -1    0    0  501    0  0.00000000000E+00 -0.00000000000E+00 -0.42397361439E+03  0.42397361440E+03  0.25500000000E-02 0. -1.
         24    2    1    2    0    0 -0.88817841970E-15  0.00000000000E+00 -0.41976358040E+03  0.42818365141E+03  0.84497194659E+02 0.  0.
         66    2    3    3    0    0  0.57784925682E+01  0.11447828920E+02 -0.41386443414E+03  0.41406788526E+03  0.19999992592E+01 0.  0.
        -13    1    3    3    0    0 -0.57784925682E+01 -0.11447828920E+02 -0.58991462619E+01  0.14115766149E+02  0.10566000000E+00 0.  1.
         13    1    4    4    0    0  0.46103021006E-01  0.15481646560E-01 -0.33765738768E+01  0.33785766753E+01  0.10566000000E+00 0.  1.
        -13    1    4    4    0    0  0.52642572165E+00  0.20017313650E+01 -0.58796231897E+02  0.58832746849E+02  0.10566000000E+00 0.  1.
         14    1    4    4    0    0  0.52059638256E+01  0.94306159080E+01 -0.35169162836E+03  0.35185656173E+03  0.00000000000E+00 0. -1.
<mgrwt>
<rscale>  0 0.84497195E+02</rscale>
<asrwt>0</asrwt>
<pdfrwt beam="1">  1        2 0.65226676E-01 0.84497195E+02</pdfrwt>
<pdfrwt beam="2">  1       -1 0.64769811E-03 0.84497195E+02</pdfrwt>
<totfact> 0.24983986E+05</totfact>
</mgrwt>
</event>
<event>
 8    1  0.2433467E-020  0.7818234E+02  0.7818608E-02  0.1334290E+00
          2   -1    0    0  501    0  0.00000000000E+00  0.00000000000E+00  0.53789583363E+03  0.53789583364E+03  0.25500000000E-02 0. -1.
         -1   -1    0    0    0  501 -0.00000000000E+00 -0.00000000000E+00 -0.28409184740E+01  0.28409229447E+01  0.50400000000E-02 0.  1.
         24    2    1    2    0    0  0.00000000000E+00  0.00000000000E+00  0.53505491516E+03  0.54073675658E+03  0.78182336143E+02 0.  0.
         66    2    3    3    0    0  0.13166406533E+02 -0.35845632340E+02  0.32467318500E+03  0.32691733004E+03  0.20000008390E+01 0.  0.
        -13    1    3    3    0    0 -0.13166406533E+02  0.35845632340E+02  0.21038173016E+03  0.21381942654E+03  0.10566000000E+00 0.  1.
         13    1    4    4    0    0  0.45407261891E+01 -0.13077295583E+02  0.11398173474E+03  0.11481934015E+03  0.10566000000E+00 0. -1.
        -13    1    4    4    0    0  0.32095004840E+01 -0.96170867991E+01  0.83091193529E+02  0.83707507775E+02  0.10566000000E+00 0.  1.
        -14    1    4    4    0    0  0.54161798603E+01 -0.13151249958E+02  0.12760025673E+03  0.12839048211E+03  0.00000000000E+00 0.  1.
<mgrwt>
<rscale>  0 0.78182336E+02</rscale>
<asrwt>0</asrwt>
<pdfrwt beam="1">  1        2 0.82753161E-01 0.78182336E+02</pdfrwt>
<pdfrwt beam="2">  1       -1 0.43706496E-03 0.78182336E+02</pdfrwt>
<totfact> 0.33071943E+05</totfact>
</mgrwt>
</event>
<event>
 8    1  0.2433467E-020  0.8003947E+02  0.7818608E-02  0.1328939E+00
         -1   -1    0    0    0  501 -0.00000000000E+00  0.00000000000E+00  0.43959101070E+01  0.43959129962E+01  0.50400000000E-02 0.  1.
          2   -1    0    0  501    0  0.00000000000E+00 -0.00000000000E+00 -0.36433382154E+03  0.36433382155E+03  0.25500000000E-02 0. -1.
         24    2    1    2    0    0  0.35527136788E-14  0.35527136788E-14 -0.35993791144E+03  0.36872973455E+03  0.80039471831E+02 0.  0.
         66    2    3    3    0    0  0.22828984191E+02 -0.30270643673E+02 -0.23873470171E+03  0.24173483859E+03  0.19999999480E+01 0.  0.
        -13    1    3    3    0    0 -0.22828984191E+02  0.30270643673E+02 -0.12120320972E+03  0.12699489595E+03  0.10566000000E+00 0.  1.
         13    1    4    4    0    0  0.84186328994E+01 -0.11024636482E+02 -0.91350763917E+02  0.92397993602E+02  0.10566000000E+00 0. -1.
        -13    1    4    4    0    0  0.53854213036E+01 -0.72083244080E+01 -0.58718995361E+02  0.59404497167E+02  0.10566000000E+00 0.  1.
        -14    1    4    4    0    0  0.90249299879E+01 -0.12037682782E+02 -0.88664942437E+02  0.89932347825E+02  0.00000000000E+00 0.  1.
<mgrwt>
<rscale>  0 0.80039472E+02</rscale>
<asrwt>0</asrwt>
<pdfrwt beam="1">  1        2 0.56051333E-01 0.80039472E+02</pdfrwt>
<pdfrwt beam="2">  1       -1 0.67629437E-03 0.80039472E+02</pdfrwt>
<totfact> 0.27302105E+05</totfact>
</mgrwt>
</event>
<event>
 8    1  0.2433467E-020  0.8246250E+02  0.7818608E-02  0.1322205E+00
         -1   -1    0    0    0  501 -0.00000000000E+00  0.00000000000E+00  0.92057687540E+02  0.92057687678E+02  0.50400000000E-02 0.  1.
          2   -1    0    0  501    0  0.00000000000E+00 -0.00000000000E+00 -0.18466854612E+02  0.18466854789E+02  0.25500000000E-02 0. -1.
         24    2    1    2    0    0  0.88817841970E-15  0.00000000000E+00  0.73590832927E+02  0.11052454247E+03  0.82462499334E+02 0.  0.
         66    2    3    3    0    0  0.50691303652E+01 -0.18153277039E+02 -0.12296806557E+02  0.22593118447E+02  0.19999999366E+01 0.  0.
        -13    1    3    3    0    0 -0.50691303652E+01  0.18153277039E+02  0.85887639484E+02  0.87931424019E+02  0.10566000000E+00 0.  1.
         13    1    4    4    0    0  0.29491781578E+01 -0.10793232652E+02 -0.66520067634E+01  0.13017368432E+02  0.10566000000E+00 0. -1.
        -13    1    4    4    0    0  0.16503875251E-01 -0.40264246176E+00 -0.86139247376E-01  0.42541431035E+00  0.10566000000E+00 0. -1.
         14    1    4    4    0    0  0.21034483322E+01 -0.69574019258E+01 -0.55586605458E+01  0.91503357046E+01  0.00000000000E+00 0. -1.
<mgrwt>
<rscale>  0 0.82462499E+02</rscale>
<asrwt>0</asrwt>
<pdfrwt beam="1">  1        2 0.28410546E-02 0.82462499E+02</pdfrwt>
<pdfrwt beam="2">  1       -1 0.14162721E-01 0.82462499E+02</pdfrwt>
<totfact> 0.11187710E+05</totfact>
</mgrwt>
</event>
<event>
 8    1  0.2433467E-020  0.8151115E+02  0.7818608E-02  0.1324817E+00
         -1   -1    0    0    0  501 -0.00000000000E+00  0.00000000000E+00  0.11729407241E+01  0.11729515523E+01  0.50400000000E-02 0.  1.
          2   -1    0    0  501    0  0.00000000000E+00 -0.00000000000E+00 -0.14161067069E+04  0.14161067069E+04  0.25500000000E-02 0. -1.
         24    2    1    2    0    0  0.00000000000E+00  0.00000000000E+00 -0.14149337661E+04  0.14172796584E+04  0.81511150184E+02 0.  0.
         66    2    3    3    0    0  0.22392953297E+01 -0.23354224005E+02 -0.12868156802E+04  0.12870310909E+04  0.20000013862E+01 0.  0.
        -13    1    3    3    0    0 -0.22392953297E+01  0.23354224005E+02 -0.12811808598E+03  0.13024856753E+03  0.10566000000E+00 0.  1.
         13    1    4    4    0    0  0.11371407501E+01 -0.12101492024E+02 -0.65499236000E+03  0.65510513815E+03  0.10566000000E+00 0. -1.
        -13    1    4    4    0    0 -0.18164819299E+00 -0.21021647141E+01 -0.13835895486E+03  0.13837508319E+03  0.10566000000E+00 0. -1.
         14    1    4    4    0    0  0.12838027726E+01 -0.91505672670E+01 -0.49346436529E+03  0.49355086956E+03  0.00000000000E+00 0. -1.
<mgrwt>
<rscale>  0 0.81511150E+02</rscale>
<asrwt>0</asrwt>
<pdfrwt beam="1">  1        2 0.21786120E+00 0.81511150E+02</pdfrwt>
<pdfrwt beam="2">  1       -1 0.18045439E-03 0.81511150E+02</pdfrwt>
<totfact> 0.32290847E+05</totfact>
</mgrwt>
</event>
<event>
 8    1  0.2433467E-020  0.8152491E+02  0.7818608E-02  0.1324779E+00
          2   -1    0    0  501    0  0.00000000000E+00  0.00000000000E+00  0.59379105153E+03  0.59379105154E+03  0.25500000000E-02 0. -1.
         -1   -1    0    0    0  501 -0.00000000000E+00 -0.00000000000E+00 -0.27982508939E+01  0.27982554327E+01  0.50400000000E-02 0.  1.
         24    2    1    2    0    0  0.00000000000E+00  0.00000000000E+00  0.59099280064E+03  0.59658930697E+03  0.81524908986E+02 0.  0.
         66    2    3    3    0    0 -0.91290605367E+01  0.77497856254E+01  0.58061782227E+03  0.58074474122E+03  0.19999997665E+01 0.  0.
        -13    1    3    3    0    0  0.91290605367E+01 -0.77497856254E+01  0.10374978371E+02  0.15844565748E+02  0.10566000000E+00 0.  1.
         13    1    4    4    0    0 -0.42947051424E+01  0.27305052713E+01  0.25872668742E+03  0.25877675727E+03  0.10566000000E+00 0. -1.
        -13    1    4    4    0    0 -0.44635197476E+01  0.43954173226E+01  0.27594191057E+03  0.27601302846E+03  0.10566000000E+00 0.  1.
        -14    1    4    4    0    0 -0.37083564674E+00  0.62386303144E+00  0.45949224270E+02  0.45954955502E+02  0.00000000000E+00 0.  1.
<mgrwt>
<rscale>  0 0.81524909E+02</rscale>
<asrwt>0</asrwt>
<pdfrwt beam="1">  1        2 0.91352546E-01 0.81524909E+02</pdfrwt>
<pdfrwt beam="2">  1       -1 0.43050013E-03 0.81524909E+02</pdfrwt>
<totfact> 0.30530923E+05</totfact>
</mgrwt>
</event>
<event>
 8    1  0.2433467E-020  0.8046716E+02  0.7818608E-02  0.1327731E+00
         -1   -1    0    0    0  501 -0.00000000000E+00  0.00000000000E+00  0.12358234199E+02  0.12358235227E+02  0.50400000000E-02 0.  1.
          2   -1    0    0  501    0  0.00000000000E+00 -0.00000000000E+00 -0.13098481829E+03  0.13098481831E+03  0.25500000000E-02 0. -1.
         24    2    1    2    0    0 -0.35527136788E-14  0.00000000000E+00 -0.11862658409E+03  0.14334305354E+03  0.80467164392E+02 0.  0.
         66    2    3    3    0    0  0.17659616123E+02  0.32880011122E+02 -0.85998015169E+02  0.93768948940E+02  0.19999998491E+01 0.  0.
        -13    1    3    3    0    0 -0.17659616123E+02 -0.32880011122E+02 -0.32628568919E+02  0.49574104598E+02  0.10566000000E+00 0.  1.
         13    1    4    4    0    0  0.79936395566E+01  0.14049568604E+02 -0.37345544712E+02  0.40693851196E+02  0.10566000000E+00 0. -1.
        -13    1    4    4    0    0  0.67225879380E+01  0.12192545687E+02 -0.30704348205E+02  0.33713788302E+02  0.10566000000E+00 0.  1.
         14    1    4    4    0    0  0.29433886283E+01  0.66378968310E+01 -0.17948122252E+02  0.19361309442E+02  0.00000000000E+00 0. -1.
<mgrwt>
<rscale>  0 0.80467164E+02</rscale>
<asrwt>0</asrwt>
<pdfrwt beam="1">  1        2 0.20151510E-01 0.80467164E+02</pdfrwt>
<pdfrwt beam="2">  1       -1 0.19012670E-02 0.80467164E+02</pdfrwt>
<totfact> 0.18895991E+05</totfact>
</mgrwt>
</event>
<event>
 8    1  0.2433467E-020  0.7954667E+02  0.7818608E-02  0.1330343E+00
         -1   -1    0    0    0  501 -0.00000000000E+00  0.00000000000E+00  0.11731613503E+02  0.11731614586E+02  0.50400000000E-02 0.  1.
          2   -1    0    0  501    0  0.00000000000E+00 -0.00000000000E+00 -0.13484231830E+03  0.13484231833E+03  0.25500000000E-02 0. -1.
         24    2    1    2    0    0  0.00000000000E+00  0.00000000000E+00 -0.12311070480E+03  0.14657393291E+03  0.79546666638E+02 0.  0.
         66    2    3    3    0    0  0.11501765996E+02  0.17044101603E+02 -0.12427345833E+03  0.12597890486E+03  0.20000010670E+01 0.  0.
        -13    1    3    3    0    0 -0.11501765996E+02 -0.17044101603E+02  0.11627535336E+01  0.20595028048E+02  0.10566000000E+00 0.  1.
         13    1    4    4    0    0  0.62951646521E+01  0.99496422164E+01 -0.68609125180E+02  0.69612123227E+02  0.10566000000E+00 0. -1.
        -13    1    4    4    0    0  0.31841679736E+01  0.35027818034E+01 -0.31343112130E+02  0.31698742058E+02  0.10566000000E+00 0.  1.
        -14    1    4    4    0    0  0.20224333705E+01  0.35916775835E+01 -0.24321221023E+02  0.24668039578E+02  0.00000000000E+00 0.  1.
<mgrwt>
<rscale>  0 0.79546667E+02</rscale>
<asrwt>0</asrwt>
<pdfrwt beam="1">  1        2 0.20744971E-01 0.79546667E+02</pdfrwt>
<pdfrwt beam="2">  1       -1 0.18048638E-02 0.79546667E+02</pdfrwt>
<totfact> 0.19659583E+05</totfact>
</mgrwt>
</event>
<event>
 8    1  0.2433467E-020  0.8153574E+02  0.7818608E-02  0.1324749E+00
         -1   -1    0    0    0  501 -0.00000000000E+00  0.00000000000E+00  0.61090873208E+01  0.61090893998E+01  0.50400000000E-02 0.  1.
          2   -1    0    0  501    0  0.00000000000E+00 -0.00000000000E+00 -0.27205682851E+03  0.27205682852E+03  0.25500000000E-02 0. -1.
         24    2    1    2    0    0 -0.35527136788E-14  0.00000000000E+00 -0.26594774119E+03  0.27816591792E+03  0.81535739707E+02 0.  0.
         66    2    3    3    0    0 -0.21767862658E+02  0.19972288337E+02 -0.22877770928E+03  0.23068587388E+03  0.19999994959E+01 0.  0.
        -13    1    3    3    0    0  0.21767862658E+02 -0.19972288337E+02 -0.37170031910E+02  0.47480044043E+02  0.10566000000E+00 0.  1.
         13    1    4    4    0    0 -0.15531167491E+02  0.14743386790E+02 -0.16746566956E+03  0.16882934064E+03  0.10566000000E+00 0. -1.
        -13    1    4    4    0    0 -0.15110856974E+01  0.12697822648E+01 -0.12201410224E+02  0.12360473392E+02  0.10566000000E+00 0.  1.
        -14    1    4    4    0    0 -0.47256094695E+01  0.39591192820E+01 -0.49110629497E+02  0.49496059843E+02  0.00000000000E+00 0.  1.
<mgrwt>
<rscale>  0 0.81535740E+02</rscale>
<asrwt>0</asrwt>
<pdfrwt beam="1">  1        2 0.41854887E-01 0.81535740E+02</pdfrwt>
<pdfrwt beam="2">  1       -1 0.93985996E-03 0.81535740E+02</pdfrwt>
<totfact> 0.23407958E+05</totfact>
</mgrwt>
</event>
<event>
 8    1  0.2433467E-020  0.7846174E+02  0.7818608E-02  0.1333474E+00
         -1   -1    0    0    0  501 -0.00000000000E+00  0.00000000000E+00  0.11543386638E+02  0.11543387738E+02  0.50400000000E-02 0.  1.
          2   -1    0    0  501    0  0.00000000000E+00 -0.00000000000E+00 -0.13332838377E+03  0.13332838380E+03  0.25500000000E-02 0. -1.
         24    2    1    2    0    0  0.00000000000E+00  0.00000000000E+00 -0.12178499714E+03  0.14487177154E+03  0.78461740107E+02 0.  0.
         66    2    3    3    0    0 -0.27777208378E+02  0.80844986355E+01 -0.10978742983E+03  0.11355268456E+03  0.19999998031E+01 0.  0.
        -13    1    3    3    0    0  0.27777208378E+02 -0.80844986355E+01 -0.11997567304E+02  0.31319086972E+02  0.10566000000E+00 0.  1.
         13    1    4    4    0    0 -0.25608168896E+02  0.69121885442E+01 -0.10006110571E+03  0.10351711310E+03  0.10566000000E+00 0. -1.
        -13    1    4    4    0    0 -0.90229867717E+00  0.44840557976E+00 -0.39723310955E+01  0.40994864111E+01  0.10566000000E+00 0. -1.
         14    1    4    4    0    0 -0.12667408056E+01  0.72390451150E+00 -0.57539930263E+01  0.59360850531E+01  0.00000000000E+00 0. -1.
<mgrwt>
<rscale>  0 0.78461740E+02</rscale>
<asrwt>0</asrwt>
<pdfrwt beam="1">  1        2 0.20512058E-01 0.78461740E+02</pdfrwt>
<pdfrwt beam="2">  1       -1 0.17759058E-02 0.78461740E+02</pdfrwt>
<totfact> 0.20318560E+05</totfact>
</mgrwt>
</event>
<event>
 8    1  0.2433467E-020  0.8060071E+02  0.7818608E-02  0.1327355E+00
         -1   -1    0    0    0  501 -0.00000000000E+00  0.00000000000E+00  0.12571756344E+02  0.12571757354E+02  0.50400000000E-02 0.  1.
          2   -1    0    0  501    0  0.00000000000E+00 -0.00000000000E+00 -0.12918788307E+03  0.12918788310E+03  0.25500000000E-02 0. -1.
         24    2    1    2    0    0 -0.71054273576E-14  0.17763568394E-14 -0.11661612673E+03  0.14175964045E+03  0.80600711211E+02 0.  0.
         66    2    3    3    0    0  0.34112645097E+02 -0.14465728885E+02 -0.86107328743E+02  0.93762476094E+02  0.19999981134E+01 0.  0.
        -13    1    3    3    0    0 -0.34112645097E+02  0.14465728885E+02 -0.30508797984E+02  0.47997164355E+02  0.10566000000E+00 0.  1.
         13    1    4    4    0    0  0.81979233747E+01 -0.29824121797E+01 -0.19732333099E+02  0.21574912830E+02  0.10566000000E+00 0. -1.
        -13    1    4    4    0    0  0.45601506243E+01 -0.15606932987E+01 -0.12064127599E+02  0.12991731064E+02  0.10566000000E+00 0.  1.
        -14    1    4    4    0    0  0.21354571098E+02 -0.99226234067E+01 -0.54310868045E+02  0.59195832200E+02  0.00000000000E+00 0.  1.
<mgrwt>
<rscale>  0 0.80600711E+02</rscale>
<asrwt>0</asrwt>
<pdfrwt beam="1">  1        2 0.19875058E-01 0.80600711E+02</pdfrwt>
<pdfrwt beam="2">  1       -1 0.19341165E-02 0.80600711E+02</pdfrwt>
<totfact> 0.18732706E+05</totfact>
</mgrwt>
</event>
<event>
 8    1  0.2433467E-020  0.7888406E+02  0.7818608E-02  0.1332248E+00
         -1   -1    0    0    0  501 -0.00000000000E+00  0.00000000000E+00  0.22387261817E+02  0.22387262385E+02  0.50400000000E-02 0.  1.
          2   -1    0    0  501    0  0.00000000000E+00 -0.00000000000E+00 -0.69489229424E+02  0.69489229471E+02  0.25500000000E-02 0. -1.
         24    2    1    2    0    0  0.35527136788E-14  0.00000000000E+00 -0.47101967607E+02  0.91876491855E+02  0.78884056711E+02 0.  0.
         66    2    3    3    0    0  0.22469616023E+02  0.86093020269E+01 -0.59927667990E+02  0.64609048265E+02  0.20000003358E+01 0.  0.
        -13    1    3    3    0    0 -0.22469616023E+02 -0.86093020269E+01  0.12825700384E+02  0.27267443590E+02  0.10566000000E+00 0.  1.
         13    1    4    4    0    0  0.34377114437E+01  0.81796348177E+00 -0.78535093320E+01  0.86125313985E+01  0.10566000000E+00 0. -1.
        -13    1    4    4    0    0  0.76948028145E+00  0.17390594984E+00 -0.22712740549E+01  0.24066975404E+01  0.10566000000E+00 0. -1.
         14    1    4    4    0    0  0.18262424297E+02  0.76174325953E+01 -0.49802884603E+02  0.53589819326E+02  0.00000000000E+00 0. -1.
<mgrwt>
<rscale>  0 0.78884057E+02</rscale>
<asrwt>0</asrwt>
<pdfrwt beam="1">  1        2 0.10690651E-01 0.78884057E+02</pdfrwt>
<pdfrwt beam="2">  1       -1 0.34441942E-02 0.78884057E+02</pdfrwt>
<totfact> 0.16741934E+05</totfact>
</mgrwt>
</event>
<event>
 8    1  0.2433467E-020  0.7959349E+02  0.7818608E-02  0.1330209E+00
         -1   -1    0    0    0  501 -0.00000000000E+00  0.00000000000E+00  0.11526218556E+02  0.11526219658E+02  0.50400000000E-02 0.  1.
          2   -1    0    0  501    0  0.00000000000E+00 -0.00000000000E+00 -0.13740678614E+03  0.13740678617E+03  0.25500000000E-02 0. -1.
         24    2    1    2    0    0  0.00000000000E+00 -0.17763568394E-14 -0.12588056759E+03  0.14893300583E+03  0.79593485462E+02 0.  0.
         66    2    3    3    0    0  0.11439587099E+02  0.10742888628E+02 -0.13136095281E+03  0.13231014219E+03  0.19999986840E+01 0.  0.
        -13    1    3    3    0    0 -0.11439587099E+02 -0.10742888628E+02  0.54803852238E+01  0.16622863631E+02  0.10566000000E+00 0.  1.
         13    1    4    4    0    0  0.44582129033E+01  0.43437206620E+01 -0.50205530816E+02  0.50590019372E+02  0.10566000000E+00 0. -1.
        -13    1    4    4    0    0  0.15609672151E+00  0.66037994789E-01 -0.70660353359E+00  0.73428863024E+00  0.10566000000E+00 0. -1.
         14    1    4    4    0    0  0.68252774741E+01  0.63331299714E+01 -0.80448818462E+02  0.80985834192E+02  0.00000000000E+00 0. -1.
<mgrwt>
<rscale>  0 0.79593485E+02</rscale>
<asrwt>0</asrwt>
<pdfrwt beam="1">  1        2 0.21139504E-01 0.79593485E+02</pdfrwt>
<pdfrwt beam="2">  1       -1 0.17732646E-02 0.79593485E+02</pdfrwt>
<totfact> 0.19744742E+05</totfact>
</mgrwt>
</event>
<event>
 8    1  0.2433467E-020  0.7918398E+02  0.7818608E-02  0.1331383E+00
          2   -1    0    0  501    0  0.00000000000E+00  0.00000000000E+00  0.12218087593E+02  0.12218087859E+02  0.25500000000E-02 0. -1.
         -1   -1    0    0    0  501 -0.00000000000E+00 -0.00000000000E+00 -0.12829550367E+03  0.12829550377E+03  0.50400000000E-02 0.  1.
         24    2    1    2    0    0 -0.22204460493E-15  0.00000000000E+00 -0.11607741608E+03  0.14051359163E+03  0.79183981394E+02 0.  0.
         66    2    3    3    0    0 -0.61455752814E+00 -0.39494564515E+02 -0.53981725746E+02  0.66919541402E+02  0.19999999300E+01 0.  0.
        -13    1    3    3    0    0  0.61455752814E+00  0.39494564515E+02 -0.62095690334E+02  0.73594050230E+02  0.10566000000E+00 0.  1.
         13    1    4    4    0    0  0.49694479008E+00 -0.15147595515E+02 -0.21684428354E+02  0.26456042808E+02  0.10566000000E+00 0. -1.
        -13    1    4    4    0    0 -0.21380036769E+00 -0.85452738619E+01 -0.11303084507E+02  0.14171742990E+02  0.10566000000E+00 0.  1.
         14    1    4    4    0    0 -0.89770195054E+00 -0.15801695138E+02 -0.20994212885E+02  0.26291755603E+02  0.00000000000E+00 0. -1.
<mgrwt>
<rscale>  0 0.79183981E+02</rscale>
<asrwt>0</asrwt>
<pdfrwt beam="1">  1        2 0.18797059E-02 0.79183981E+02</pdfrwt>
<pdfrwt beam="2">  1       -1 0.19737769E-01 0.79183981E+02</pdfrwt>
<totfact> 0.11501557E+05</totfact>
</mgrwt>
</event>
<event>
 8    1  0.2433467E-020  0.7272212E+02  0.7818608E-02  0.1351074E+00
          2   -1    0    0  501    0  0.00000000000E+00  0.00000000000E+00  0.11763856230E+03  0.11763856233E+03  0.25500000000E-02 0. -1.
         -1   -1    0    0    0  501 -0.00000000000E+00 -0.00000000000E+00 -0.11238886661E+02  0.11238887791E+02  0.50400000000E-02 0.  1.
         24    2    1    2    0    0  0.35527136788E-14  0.00000000000E+00  0.10639967564E+03  0.12887745012E+03  0.72722116120E+02 0.  0.
         66    2    3    3    0    0 -0.18769645031E+02  0.57446865606E+01  0.10742440380E+03  0.10922135106E+03  0.19999994399E+01 0.  0.
        -13    1    3    3    0    0  0.18769645031E+02 -0.57446865606E+01 -0.10247281608E+01  0.19656099056E+02  0.10566000000E+00 0.  1.
         13    1    4    4    0    0 -0.70095382360E+01  0.21755568853E+01  0.35816151404E+02  0.36560559890E+02  0.10566000000E+00 0. -1.
        -13    1    4    4    0    0 -0.47054772460E+01  0.12151025460E+01  0.30582295441E+02  0.30966206561E+02  0.10566000000E+00 0.  1.
        -14    1    4    4    0    0 -0.70546295490E+01  0.23540271293E+01  0.41025956957E+02  0.41694584613E+02  0.00000000000E+00 0.  1.
<mgrwt>
<rscale>  0 0.72722116E+02</rscale>
<asrwt>0</asrwt>
<pdfrwt beam="1">  1        2 0.18098241E-01 0.72722116E+02</pdfrwt>
<pdfrwt beam="2">  1       -1 0.17290595E-02 0.72722116E+02</pdfrwt>
<totfact> 0.23921504E+05</totfact>
</mgrwt>
</event>
<event>
 8    1  0.2433467E-020  0.8012441E+02  0.7818608E-02  0.1328699E+00
          2   -1    0    0  501    0  0.00000000000E+00  0.00000000000E+00  0.33608498047E+02  0.33608498144E+02  0.25500000000E-02 0. -1.
         -1   -1    0    0    0  501 -0.00000000000E+00 -0.00000000000E+00 -0.47755186874E+02  0.47755187140E+02  0.50400000000E-02 0.  1.
         24    2    1    2    0    0  0.00000000000E+00  0.17763568394E-14 -0.14146688827E+02  0.81363685284E+02  0.80124406258E+02 0.  0.
         66    2    3    3    0    0  0.16392771210E+02 -0.11329196970E+02  0.28185459572E+02  0.34575913335E+02  0.19999999461E+01 0.  0.
        -13    1    3    3    0    0 -0.16392771210E+02  0.11329196970E+02 -0.42332148398E+02  0.46787771949E+02  0.10566000000E+00 0.  1.
         13    1    4    4    0    0  0.60621785565E+01 -0.42712159481E+01  0.11197638554E+02  0.13430992805E+02  0.10566000000E+00 0. -1.
        -13    1    4    4    0    0  0.28392898805E+01 -0.25089775199E+01  0.58794202921E+01  0.69953757746E+01  0.10566000000E+00 0.  1.
        -14    1    4    4    0    0  0.74913027726E+01 -0.45490035019E+01  0.11108400726E+02  0.14149544755E+02  0.00000000000E+00 0.  1.
<mgrwt>
<rscale>  0 0.80124406E+02</rscale>
<asrwt>0</asrwt>
<pdfrwt beam="1">  1        2 0.51705382E-02 0.80124406E+02</pdfrwt>
<pdfrwt beam="2">  1       -1 0.73469519E-02 0.80124406E+02</pdfrwt>
<totfact> 0.13702345E+05</totfact>
</mgrwt>
</event>
<event>
 8    1  0.2433467E-020  0.8347571E+02  0.7818608E-02  0.1319468E+00
         -1   -1    0    0    0  501 -0.00000000000E+00  0.00000000000E+00  0.26439165950E+02  0.26439166430E+02  0.50400000000E-02 0.  1.
          2   -1    0    0  501    0  0.00000000000E+00 -0.00000000000E+00 -0.65888941671E+02  0.65888941720E+02  0.25500000000E-02 0. -1.
         24    2    1    2    0    0  0.00000000000E+00 -0.17763568394E-14 -0.39449775720E+02  0.92328108150E+02  0.83475713535E+02 0.  0.
         66    2    3    3    0    0  0.14939531380E+02  0.15152824959E+02 -0.59419185726E+02  0.63146158214E+02  0.19999906675E+01 0.  0.
        -13    1    3    3    0    0 -0.14939531380E+02 -0.15152824959E+02  0.19969410006E+02  0.29181949937E+02  0.10566000000E+00 0.  1.
         13    1    4    4    0    0  0.64368586393E+01  0.55092609448E+01 -0.22318727466E+02  0.23873036360E+02  0.10566000000E+00 0. -1.
        -13    1    4    4    0    0  0.78088266350E+01  0.90353683520E+01 -0.34909841213E+02  0.36896122184E+02  0.10566000000E+00 0.  1.
        -14    1    4    4    0    0  0.69384610524E+00  0.60819566266E+00 -0.21906170478E+01  0.23769996701E+01  0.00000000000E+00 0.  1.
<mgrwt>
<rscale>  0 0.83475714E+02</rscale>
<asrwt>0</asrwt>
<pdfrwt beam="1">  1        2 0.10136760E-01 0.83475714E+02</pdfrwt>
<pdfrwt beam="2">  1       -1 0.40675641E-02 0.83475714E+02</pdfrwt>
<totfact> 0.14174111E+05</totfact>
</mgrwt>
</event>
<event>
 8    1  0.2433467E-020  0.8152112E+02  0.7818608E-02  0.1324789E+00
         -1   -1    0    0    0  501 -0.00000000000E+00  0.00000000000E+00  0.25036170981E+02  0.25036171488E+02  0.50400000000E-02 0.  1.
          2   -1    0    0  501    0  0.00000000000E+00 -0.00000000000E+00 -0.66360910771E+02  0.66360910820E+02  0.25500000000E-02 0. -1.
         24    2    1    2    0    0  0.17763568394E-14  0.00000000000E+00 -0.41324739790E+02  0.91397082309E+02  0.81521117116E+02 0.  0.
         66    2    3    3    0    0  0.13224274576E+02 -0.60383157389E+01 -0.63338401810E+02  0.65016119958E+02  0.20000038797E+01 0.  0.
        -13    1    3    3    0    0 -0.13224274576E+02  0.60383157389E+01  0.22013662019E+02  0.26380962351E+02  0.10566000000E+00 0.  1.
         13    1    4    4    0    0  0.11513976255E+02 -0.54817039288E+01 -0.57413728999E+02  0.58812993197E+02  0.10566000000E+00 0. -1.
        -13    1    4    4    0    0  0.11050137466E+01 -0.52723594420E+00 -0.38047080914E+01  0.39982497192E+01  0.10566000000E+00 0. -1.
         14    1    4    4    0    0  0.60528457448E+00 -0.29375865897E-01 -0.21199647195E+01  0.22048770418E+01  0.00000000000E+00 0. -1.
<mgrwt>
<rscale>  0 0.81521117E+02</rscale>
<asrwt>0</asrwt>
<pdfrwt beam="1">  1        2 0.10209371E-01 0.81521117E+02</pdfrwt>
<pdfrwt beam="2">  1       -1 0.38517187E-02 0.81521117E+02</pdfrwt>
<totfact> 0.15144816E+05</totfact>
</mgrwt>
</event>
<event>
 8    1  0.2433467E-020  0.7996896E+02  0.7818608E-02  0.1329140E+00
         -1   -1    0    0    0  501 -0.00000000000E+00  0.00000000000E+00  0.89170625167E+02  0.89170625310E+02  0.50400000000E-02 0.  1.
          2   -1    0    0  501    0  0.00000000000E+00 -0.00000000000E+00 -0.17929206235E+02  0.17929206416E+02  0.25500000000E-02 0. -1.
         24    2    1    2    0    0  0.00000000000E+00 -0.17763568394E-14  0.71241418933E+02  0.10709983173E+03  0.79968957628E+02 0.  0.
         66    2    3    3    0    0 -0.35491550469E+02  0.85703045860E+01  0.13896698438E+02  0.39118007625E+02  0.20000044166E+01 0.  0.
        -13    1    3    3    0    0  0.35491550469E+02 -0.85703045860E+01  0.57344720495E+02  0.67981824101E+02  0.10566000000E+00 0.  1.
         13    1    4    4    0    0 -0.19778103646E+02  0.43741025078E+01  0.83635274359E+01  0.21914970038E+02  0.10566000000E+00 0. -1.
        -13    1    4    4    0    0 -0.11073706118E+02  0.33030980465E+01  0.36867231442E+01  0.12130149029E+02  0.10566000000E+00 0.  1.
        -14    1    4    4    0    0 -0.46397407058E+01  0.89310403165E+00  0.18464478579E+01  0.50728885579E+01  0.00000000000E+00 0.  1.
<mgrwt>
<rscale>  0 0.79968958E+02</rscale>
<asrwt>0</asrwt>
<pdfrwt beam="1">  1        2 0.27583395E-02 0.79968958E+02</pdfrwt>
<pdfrwt beam="2">  1       -1 0.13718558E-01 0.79968958E+02</pdfrwt>
<totfact> 0.12154506E+05</totfact>
</mgrwt>
</event>
<event>
 8    1  0.2433467E-020  0.7980434E+02  0.7818608E-02  0.1329608E+00
         -1   -1    0    0    0  501 -0.00000000000E+00  0.00000000000E+00  0.72415837508E+01  0.72415855046E+01  0.50400000000E-02 0.  1.
          2   -1    0    0  501    0  0.00000000000E+00 -0.00000000000E+00 -0.21986667685E+03  0.21986667686E+03  0.25500000000E-02 0. -1.
         24    2    1    2    0    0  0.00000000000E+00  0.00000000000E+00 -0.21262509310E+03  0.22710826237E+03  0.79804339612E+02 0.  0.
         66    2    3    3    0    0 -0.55572683837E+01  0.35808013360E+02 -0.15374984387E+03  0.15797503455E+03  0.19999997208E+01 0.  0.
        -13    1    3    3    0    0  0.55572683837E+01 -0.35808013360E+02 -0.58875249231E+02  0.69133227820E+02  0.10566000000E+00 0.  1.
         13    1    4    4    0    0 -0.24642391078E+01  0.21511625447E+02 -0.92799768295E+02  0.95292343152E+02  0.10566000000E+00 0. -1.
        -13    1    4    4    0    0 -0.82267879012E+00  0.36221182327E+01 -0.14656130043E+02  0.15119849628E+02  0.10566000000E+00 0.  1.
         14    1    4    4    0    0 -0.22703504858E+01  0.10674269681E+02 -0.46293945529E+02  0.47562841769E+02  0.00000000000E+00 0. -1.
<mgrwt>
<rscale>  0 0.79804340E+02</rscale>
<asrwt>0</asrwt>
<pdfrwt beam="1">  1        2 0.33825638E-01 0.79804340E+02</pdfrwt>
<pdfrwt beam="2">  1       -1 0.11140901E-02 0.79804340E+02</pdfrwt>
<totfact> 0.22949896E+05</totfact>
</mgrwt>
</event>
<event>
 8    1  0.2433467E-020  0.7965626E+02  0.7818608E-02  0.1330030E+00
         -1   -1    0    0    0  501 -0.00000000000E+00  0.00000000000E+00  0.12828960463E+01  0.12829059464E+01  0.50400000000E-02 0.  1.
          2   -1    0    0  501    0  0.00000000000E+00 -0.00000000000E+00 -0.12364788921E+04  0.12364788921E+04  0.25500000000E-02 0. -1.
         24    2    1    2    0    0  0.00000000000E+00 -0.17763568394E-14 -0.12351959960E+04  0.12377617980E+04  0.79656261788E+02 0.  0.
         66    2    3    3    0    0 -0.59223348090E+01  0.15333089280E+02 -0.11812748043E+04  0.11813908502E+04  0.20000003162E+01 0.  0.
        -13    1    3    3    0    0  0.59223348090E+01 -0.15333089280E+02 -0.53921191750E+02  0.56370947839E+02  0.10566000000E+00 0.  1.
         13    1    4    4    0    0 -0.48876352989E+01  0.13267363053E+02 -0.10139857452E+04  0.10140843232E+04  0.10566000000E+00 0. -1.
        -13    1    4    4    0    0 -0.16525070889E+00  0.10231418340E+01 -0.62626901306E+02  0.62635565442E+02  0.10566000000E+00 0.  1.
        -14    1    4    4    0    0 -0.86944880128E+00  0.10425843931E+01 -0.10466215770E+03  0.10467096148E+03  0.00000000000E+00 0.  1.
<mgrwt>
<rscale>  0 0.79656262E+02</rscale>
<asrwt>0</asrwt>
<pdfrwt beam="1">  1        2 0.19022657E+00 0.79656262E+02</pdfrwt>
<pdfrwt beam="2">  1       -1 0.19737037E-03 0.79656262E+02</pdfrwt>
<totfact> 0.35299441E+05</totfact>
</mgrwt>
</event>
<event>
 8    1  0.2433467E-020  0.8154811E+02  0.7818608E-02  0.1324715E+00
          2   -1    0    0  501    0  0.00000000000E+00  0.00000000000E+00  0.82584159889E+03  0.82584159890E+03  0.25500000000E-02 0. -1.
         -1   -1    0    0    0  501 -0.00000000000E+00 -0.00000000000E+00 -0.20131230687E+01  0.20131293777E+01  0.50400000000E-02 0.  1.
         24    2    1    2    0    0  0.00000000000E+00  0.00000000000E+00  0.82382847582E+03  0.82785472827E+03  0.81548105728E+02 0.  0.
         66    2    3    3    0    0  0.27930028771E+02  0.89028186672E+01  0.69950592559E+03  0.70012276537E+03  0.19999906716E+01 0.  0.
        -13    1    3    3    0    0 -0.27930028771E+02 -0.89028186672E+01  0.12432255023E+03  0.12773196290E+03  0.10566000000E+00 0.  1.
         13    1    4    4    0    0  0.39823764155E+00  0.25951788440E+00  0.83235363160E+01  0.83377673025E+01  0.10566000000E+00 0. -1.
        -13    1    4    4    0    0  0.32399616992E+01  0.10013529853E+01  0.75540280597E+02  0.75616434830E+02  0.10566000000E+00 0.  1.
         14    1    4    4    0    0  0.24291829430E+02  0.76419477975E+01  0.61564210868E+03  0.61616856324E+03  0.00000000000E+00 0. -1.
<mgrwt>
<rscale>  0 0.81548106E+02</rscale>
<asrwt>0</asrwt>
<pdfrwt beam="1">  1        2 0.12705233E+00 0.81548106E+02</pdfrwt>
<pdfrwt beam="2">  1       -1 0.30971227E-03 0.81548106E+02</pdfrwt>
<totfact> 0.32866848E+05</totfact>
</mgrwt>
</event>
<event>
 8    1  0.2433467E-020  0.7972366E+02  0.7818608E-02  0.1329837E+00
         -1   -1    0    0    0  501 -0.00000000000E+00  0.00000000000E+00  0.27486615608E+01  0.27486661815E+01  0.50400000000E-02 0.  1.
          2   -1    0    0  501    0  0.00000000000E+00 -0.00000000000E+00 -0.57808650482E+03  0.57808650483E+03  0.25500000000E-02 0. -1.
         24    2    1    2    0    0 -0.17763568394E-14 -0.35527136788E-14 -0.57533784326E+03  0.58083517101E+03  0.79723660181E+02 0.  0.
         66    2    3    3    0    0  0.12311256851E+02  0.28780187904E+02 -0.46736156573E+03  0.46841295819E+03  0.20000050430E+01 0.  0.
        -13    1    3    3    0    0 -0.12311256851E+02 -0.28780187904E+02 -0.10797627753E+03  0.11242221282E+03  0.10566000000E+00 0.  1.
         13    1    4    4    0    0  0.75390001714E+01  0.17947888859E+02 -0.28682919015E+03  0.28748905844E+03  0.10566000000E+00 0. -1.
        -13    1    4    4    0    0  0.18175572103E+01  0.28787393957E+01 -0.49290617561E+02  0.49408165300E+02  0.10566000000E+00 0. -1.
        -14    1    4    4    0    0  0.29546994689E+01  0.79535596491E+01 -0.13124175802E+03  0.13151573445E+03  0.00000000000E+00 0.  1.
<mgrwt>
<rscale>  0 0.79723660E+02</rscale>
<asrwt>0</asrwt>
<pdfrwt beam="1">  1        2 0.88936289E-01 0.79723660E+02</pdfrwt>
<pdfrwt beam="2">  1       -1 0.42287183E-03 0.79723660E+02</pdfrwt>
<totfact> 0.32114149E+05</totfact>
</mgrwt>
</event>
<event>
 8    1  0.2433467E-020  0.8067391E+02  0.7818608E-02  0.1327150E+00
         -1   -1    0    0    0  501 -0.00000000000E+00  0.00000000000E+00  0.45462953648E+02  0.45462953927E+02  0.50400000000E-02 0.  1.
          2   -1    0    0  501    0  0.00000000000E+00 -0.00000000000E+00 -0.35788920251E+02  0.35788920342E+02  0.25500000000E-02 0. -1.
         24    2    1    2    0    0 -0.35527136788E-14  0.88817841970E-15  0.96740333974E+01  0.81251874269E+02  0.80673912450E+02 0.  0.
         66    2    3    3    0    0  0.19064176549E+02 -0.76466242479E+01 -0.30094991184E+02  0.36491398734E+02  0.19999993355E+01 0.  0.
        -13    1    3    3    0    0 -0.19064176549E+02  0.76466242479E+01  0.39769024582E+02  0.44760475535E+02  0.10566000000E+00 0.  1.
         13    1    4    4    0    0  0.67575152125E+01 -0.19595656328E+01 -0.11317914280E+02  0.13327049823E+02  0.10566000000E+00 0. -1.
        -13    1    4    4    0    0  0.11781818698E+02 -0.53411759871E+01 -0.17905552656E+02  0.22089802912E+02  0.10566000000E+00 0.  1.
        -14    1    4    4    0    0  0.52484263850E+00 -0.34588262808E+00 -0.87152424855E+00  0.10745459987E+01  0.00000000000E+00 0.  1.
<mgrwt>
<rscale>  0 0.80673912E+02</rscale>
<asrwt>0</asrwt>
<pdfrwt beam="1">  1        2 0.55059878E-02 0.80673912E+02</pdfrwt>
<pdfrwt beam="2">  1       -1 0.69943006E-02 0.80673912E+02</pdfrwt>
<totfact> 0.13615027E+05</totfact>
</mgrwt>
</event>
<event>
 8    1  0.2433467E-020  0.7910098E+02  0.7818608E-02  0.1331622E+00
         -1   -1    0    0    0  501 -0.00000000000E+00  0.00000000000E+00  0.23454409564E+01  0.23454463715E+01  0.50400000000E-02 0.  1.
          2   -1    0    0  501    0  0.00000000000E+00 -0.00000000000E+00 -0.66692760981E+03  0.66692760982E+03  0.25500000000E-02 0. -1.
         24    2    1    2    0    0  0.00000000000E+00 -0.35527136788E-14 -0.66458216886E+03  0.66927305619E+03  0.79100977104E+02 0.  0.
         66    2    3    3    0    0 -0.14486435837E+02  0.30196514875E+02 -0.51009313534E+03  0.51119535702E+03  0.19999958998E+01 0.  0.
        -13    1    3    3    0    0  0.14486435837E+02 -0.30196514875E+02 -0.15448903352E+03  0.15807769918E+03  0.10566000000E+00 0.  1.
         13    1    4    4    0    0 -0.86004470682E+01  0.17545349310E+02 -0.30848218298E+03  0.30910042923E+03  0.10566000000E+00 0. -1.
        -13    1    4    4    0    0 -0.19545299561E+01  0.43837098726E+01 -0.64013572776E+02  0.64193346721E+02  0.10566000000E+00 0.  1.
        -14    1    4    4    0    0 -0.39314588126E+01  0.82674556933E+01 -0.13759737958E+03  0.13790158106E+03  0.00000000000E+00 0.  1.
<mgrwt>
<rscale>  0 0.79100977E+02</rscale>
<asrwt>0</asrwt>
<pdfrwt beam="1">  1        2 0.10260410E+00 0.79100977E+02</pdfrwt>
<pdfrwt beam="2">  1       -1 0.36083802E-03 0.79100977E+02</pdfrwt>
<totfact> 0.34055010E+05</totfact>
</mgrwt>
</event>
<event>
 8    1  0.2433467E-020  0.8006217E+02  0.7818608E-02  0.1328875E+00
          2   -1    0    0  501    0  0.00000000000E+00  0.00000000000E+00  0.16901601109E+02  0.16901601301E+02  0.25500000000E-02 0. -1.
         -1   -1    0    0    0  501 -0.00000000000E+00 -0.00000000000E+00 -0.94812768800E+02  0.94812768934E+02  0.50400000000E-02 0.  1.
         24    2    1    2    0    0  0.00000000000E+00  0.00000000000E+00 -0.77911167691E+02  0.11171437024E+03  0.80062166259E+02 0.  0.
         66    2    3    3    0    0 -0.19150070493E+02  0.19236894838E+02  0.20276467917E+01  0.27292758383E+02  0.19999964325E+01 0.  0.
        -13    1    3    3    0    0  0.19150070493E+02 -0.19236894838E+02 -0.79938814482E+02  0.84421611853E+02  0.10566000000E+00 0.  1.
         13    1    4    4    0    0 -0.12349575214E+02  0.11652653778E+02  0.13659893260E+01  0.17034477946E+02  0.10566000000E+00 0. -1.
        -13    1    4    4    0    0 -0.59136379348E+00  0.63742267680E+00 -0.20880095088E+00  0.90043360545E+00  0.10566000000E+00 0.  1.
         14    1    4    4    0    0 -0.62091314863E+01  0.69468183826E+01  0.87045841657E+00  0.93578468308E+01  0.00000000000E+00 0. -1.
<mgrwt>
<rscale>  0 0.80062166E+02</rscale>
<asrwt>0</asrwt>
<pdfrwt beam="1">  1        2 0.26002464E-02 0.80062166E+02</pdfrwt>
<pdfrwt beam="2">  1       -1 0.14586580E-01 0.80062166E+02</pdfrwt>
<totfact> 0.11964834E+05</totfact>
</mgrwt>
</event>
<event>
 8    1  0.2433467E-020  0.7868457E+02  0.7818608E-02  0.1332826E+00
         -1   -1    0    0    0  501 -0.00000000000E+00  0.00000000000E+00  0.66814367265E+01  0.66814386274E+01  0.50400000000E-02 0.  1.
          2   -1    0    0  501    0  0.00000000000E+00 -0.00000000000E+00 -0.23165901854E+03  0.23165901855E+03  0.25500000000E-02 0. -1.
         24    2    1    2    0    0  0.00000000000E+00  0.35527136788E-14 -0.22497758181E+03  0.23834045718E+03  0.78684567806E+02 0.  0.
         66    2    3    3    0    0 -0.12726733041E+02  0.18857333895E+02 -0.20969180031E+03  0.21093178965E+03  0.19999982952E+01 0.  0.
        -13    1    3    3    0    0  0.12726733041E+02 -0.18857333895E+02 -0.15285781504E+02  0.27408667529E+02  0.10566000000E+00 0.  1.
         13    1    4    4    0    0 -0.59703842669E+01  0.78361554240E+01 -0.90689504701E+02  0.91223068613E+02  0.10566000000E+00 0. -1.
        -13    1    4    4    0    0 -0.11153761842E+01  0.27212432135E+01 -0.28731777705E+02  0.28882095540E+02  0.10566000000E+00 0.  1.
        -14    1    4    4    0    0 -0.56409725899E+01  0.82999352574E+01 -0.90270517904E+02  0.90826625500E+02  0.00000000000E+00 0.  1.
<mgrwt>
<rscale>  0 0.78684568E+02</rscale>
<asrwt>0</asrwt>
<pdfrwt beam="1">  1        2 0.35639843E-01 0.78684568E+02</pdfrwt>
<pdfrwt beam="2">  1       -1 0.10279137E-02 0.78684568E+02</pdfrwt>
<totfact> 0.24263374E+05</totfact>
</mgrwt>
</event>
<event>
 8    1  0.2433467E-020  0.7941447E+02  0.7818608E-02  0.1330721E+00
         -1   -1    0    0    0  501 -0.00000000000E+00  0.00000000000E+00  0.44707429554E+02  0.44707429838E+02  0.50400000000E-02 0.  1.
          2   -1    0    0  501    0  0.00000000000E+00 -0.00000000000E+00 -0.35266276658E+02  0.35266276750E+02  0.25500000000E-02 0. -1.
         24    2    1    2    0    0  0.00000000000E+00  0.00000000000E+00  0.94411528959E+01  0.79973706588E+02  0.79414472090E+02 0.  0.
         66    2    3    3    0    0  0.13303374214E+02 -0.22181511942E+02 -0.25582552508E+02  0.36434410064E+02  0.20000015962E+01 0.  0.
        -13    1    3    3    0    0 -0.13303374214E+02  0.22181511942E+02  0.35023705404E+02  0.43539296524E+02  0.10566000000E+00 0.  1.
         13    1    4    4    0    0  0.78200266863E+01 -0.12072014152E+02 -0.14189178378E+02  0.20204709603E+02  0.10566000000E+00 0. -1.
        -13    1    4    4    0    0  0.35387427400E-01 -0.87991419271E-01 -0.74948294866E-01  0.16054918993E+00  0.10566000000E+00 0. -1.
         14    1    4    4    0    0  0.54479601001E+01 -0.10021506371E+02 -0.11318425835E+02  0.16069151271E+02  0.00000000000E+00 0. -1.
<mgrwt>
<rscale>  0 0.79414472E+02</rscale>
<asrwt>0</asrwt>
<pdfrwt beam="1">  1        2 0.54255810E-02 0.79414472E+02</pdfrwt>
<pdfrwt beam="2">  1       -1 0.68780661E-02 0.79414472E+02</pdfrwt>
<totfact> 0.14181704E+05</totfact>
</mgrwt>
</event>
<event>
 8    1  0.2433467E-020  0.7693250E+02  0.7818608E-02  0.1337989E+00
         -1   -1    0    0    0  501 -0.00000000000E+00  0.00000000000E+00  0.59295815998E+01  0.59295837418E+01  0.50400000000E-02 0.  1.
          2   -1    0    0  501    0  0.00000000000E+00 -0.00000000000E+00 -0.24953735853E+03  0.24953735854E+03  0.25500000000E-02 0. -1.
         24    2    1    2    0    0  0.00000000000E+00  0.71054273576E-14 -0.24360777693E+03  0.25546694228E+03  0.76932500411E+02 0.  0.
         66    2    3    3    0    0  0.24541302538E+02 -0.29330929039E+02 -0.10899574023E+03  0.11552770362E+03  0.19999969046E+01 0.  0.
        -13    1    3    3    0    0 -0.24541302538E+02  0.29330929039E+02 -0.13461203670E+03  0.13993923866E+03  0.10566000000E+00 0.  1.
         13    1    4    4    0    0  0.36992122200E+01 -0.44820701686E+01 -0.18181427045E+02  0.19087917055E+02  0.10566000000E+00 0. -1.
        -13    1    4    4    0    0  0.67356577967E+01 -0.83297368912E+01 -0.28399870169E+02  0.30353210577E+02  0.10566000000E+00 0.  1.
        -14    1    4    4    0    0  0.14106432521E+02 -0.16519121979E+02 -0.62414443016E+02  0.66086575993E+02  0.00000000000E+00 0.  1.
<mgrwt>
<rscale>  0 0.76932500E+02</rscale>
<asrwt>0</asrwt>
<pdfrwt beam="1">  1        2 0.38390355E-01 0.76932500E+02</pdfrwt>
<pdfrwt beam="2">  1       -1 0.91224369E-03 0.76932500E+02</pdfrwt>
<totfact> 0.26429323E+05</totfact>
</mgrwt>
</event>
<event>
 8    1  0.2433467E-020  0.8092861E+02  0.7818608E-02  0.1326437E+00
         -1   -1    0    0    0  501 -0.00000000000E+00  0.00000000000E+00  0.38994999641E+01  0.38995032212E+01  0.50400000000E-02 0.  1.
          2   -1    0    0  501    0  0.00000000000E+00 -0.00000000000E+00 -0.41988952559E+03  0.41988952560E+03  0.25500000000E-02 0. -1.
         24    2    1    2    0    0  0.17763568394E-14  0.00000000000E+00 -0.41599002563E+03  0.42378902882E+03  0.80928607594E+02 0.  0.
         66    2    3    3    0    0  0.10010964472E+02  0.23535946796E+02 -0.37215242741E+03  0.37303564092E+03  0.19999932734E+01 0.  0.
        -13    1    3    3    0    0 -0.10010964472E+02 -0.23535946796E+02 -0.43837598219E+02  0.50753387895E+02  0.10566000000E+00 0.  1.
         13    1    4    4    0    0  0.29336316317E+01  0.84868345335E+01 -0.12648396987E+03  0.12680235942E+03  0.10566000000E+00 0. -1.
        -13    1    4    4    0    0  0.49540253647E+01  0.10846738977E+02 -0.18310736504E+03  0.18349526536E+03  0.10566000000E+00 0.  1.
        -14    1    4    4    0    0  0.21233074752E+01  0.42023732857E+01 -0.62561092493E+02  0.62738016145E+02  0.00000000000E+00 0.  1.
<mgrwt>
<rscale>  0 0.80928608E+02</rscale>
<asrwt>0</asrwt>
<pdfrwt beam="1">  1        2 0.64598353E-01 0.80928608E+02</pdfrwt>
<pdfrwt beam="2">  1       -1 0.59992366E-03 0.80928608E+02</pdfrwt>
<totfact> 0.27880162E+05</totfact>
</mgrwt>
</event>
<event>
 8    1  0.2433467E-020  0.8074342E+02  0.7818608E-02  0.1326955E+00
          2   -1    0    0  501    0  0.00000000000E+00  0.00000000000E+00  0.15818068875E+03  0.15818068877E+03  0.25500000000E-02 0. -1.
         -1   -1    0    0    0  501 -0.00000000000E+00 -0.00000000000E+00 -0.10303879187E+02  0.10303880420E+02  0.50400000000E-02 0.  1.
         24    2    1    2    0    0  0.00000000000E+00  0.00000000000E+00  0.14787680956E+03  0.16848456919E+03  0.80743416133E+02 0.  0.
         66    2    3    3    0    0  0.53582835381E+01  0.39971964682E+02  0.76453218410E+02  0.86461342601E+02  0.19999990160E+01 0.  0.
        -13    1    3    3    0    0 -0.53582835381E+01 -0.39971964682E+02  0.71423591154E+02  0.82023226591E+02  0.10566000000E+00 0.  1.
         13    1    4    4    0    0  0.11239236553E+01  0.72977012792E+01  0.14912512621E+02  0.16640728501E+02  0.10566000000E+00 0. -1.
        -13    1    4    4    0    0  0.90214131554E+00  0.40657540378E+01  0.71724974873E+01  0.82945825145E+01  0.10566000000E+00 0.  1.
         14    1    4    4    0    0  0.33322185673E+01  0.28608509365E+02  0.54368208302E+02  0.61526031585E+02  0.00000000000E+00 0. -1.
<mgrwt>
<rscale>  0 0.80743416E+02</rscale>
<asrwt>0</asrwt>
<pdfrwt beam="1">  1        2 0.24335490E-01 0.80743416E+02</pdfrwt>
<pdfrwt beam="2">  1       -1 0.15852123E-02 0.80743416E+02</pdfrwt>
<totfact> 0.19884569E+05</totfact>
</mgrwt>
</event>
<event>
 8    1  0.2433467E-020  0.7975721E+02  0.7818608E-02  0.1329742E+00
          2   -1    0    0  501    0  0.00000000000E+00  0.00000000000E+00  0.61689931750E+03  0.61689931750E+03  0.25500000000E-02 0. -1.
         -1   -1    0    0    0  501 -0.00000000000E+00 -0.00000000000E+00 -0.25778947965E+01  0.25778997233E+01  0.50400000000E-02 0.  1.
         24    2    1    2    0    0  0.00000000000E+00  0.00000000000E+00  0.61432142270E+03  0.61947721723E+03  0.79757208281E+02 0.  0.
         66    2    3    3    0    0 -0.22690896927E+00  0.22205219247E+02  0.56439119681E+03  0.56483143175E+03  0.19999996055E+01 0.  0.
        -13    1    3    3    0    0  0.22690896927E+00 -0.22205219247E+02  0.49930225889E+02  0.54645785481E+02  0.10566000000E+00 0.  1.
         13    1    4    4    0    0 -0.20627786562E+00  0.20777903285E+02  0.52651398500E+03  0.52692385729E+03  0.10566000000E+00 0. -1.
        -13    1    4    4    0    0 -0.24841921007E+00  0.58772770811E+00  0.16466160359E+02  0.16478857272E+02  0.10566000000E+00 0. -1.
         14    1    4    4    0    0  0.22778810643E+00  0.83958825477E+00  0.21411051452E+02  0.21428717183E+02  0.00000000000E+00 0. -1.
<mgrwt>
<rscale>  0 0.79757208E+02</rscale>
<asrwt>0</asrwt>
<pdfrwt beam="1">  1        2 0.94907590E-01 0.79757208E+02</pdfrwt>
<pdfrwt beam="2">  1       -1 0.39659957E-03 0.79757208E+02</pdfrwt>
<totfact> 0.32666859E+05</totfact>
</mgrwt>
</event>
<event>
 8    1  0.2433467E-020  0.8094375E+02  0.7818608E-02  0.1326394E+00
          2   -1    0    0  501    0  0.00000000000E+00  0.00000000000E+00  0.37204553700E+03  0.37204553701E+03  0.25500000000E-02 0. -1.
         -1   -1    0    0    0  501 -0.00000000000E+00 -0.00000000000E+00 -0.44026115343E+01  0.44026144191E+01  0.50400000000E-02 0.  1.
         24    2    1    2    0    0  0.00000000000E+00  0.00000000000E+00  0.36764292546E+03  0.37644815143E+03  0.80943746321E+02 0.  0.
         66    2    3    3    0    0  0.34222585047E+02 -0.18614216044E+02  0.23451603975E+03  0.23773819061E+03  0.20000017855E+01 0.  0.
        -13    1    3    3    0    0 -0.34222585047E+02  0.18614216044E+02  0.13312688571E+03  0.13870996081E+03  0.10566000000E+00 0.  1.
         13    1    4    4    0    0  0.48041603773E+01 -0.26064289003E+01  0.33760379968E+02  0.34200114739E+02  0.10566000000E+00 0. -1.
        -13    1    4    4    0    0  0.14431391241E+02 -0.68558290417E+01  0.94577086996E+02  0.95917172569E+02  0.10566000000E+00 0.  1.
        -14    1    4    4    0    0  0.14987033429E+02 -0.91519581025E+01  0.10617857279E+03  0.10762090330E+03  0.00000000000E+00 0.  1.
<mgrwt>
<rscale>  0 0.80943746E+02</rscale>
<asrwt>0</asrwt>
<pdfrwt beam="1">  1        2 0.57237777E-01 0.80943746E+02</pdfrwt>
<pdfrwt beam="2">  1       -1 0.67732505E-03 0.80943746E+02</pdfrwt>
<totfact> 0.26708711E+05</totfact>
</mgrwt>
</event>
<event>
 8    1  0.2433467E-020  0.7963935E+02  0.7818608E-02  0.1330078E+00
         -1   -1    0    0    0  501 -0.00000000000E+00  0.00000000000E+00  0.56834412656E+01  0.56834435003E+01  0.50400000000E-02 0.  1.
          2   -1    0    0  501    0  0.00000000000E+00 -0.00000000000E+00 -0.27898702478E+03  0.27898702479E+03  0.25500000000E-02 0. -1.
         24    2    1    2    0    0  0.00000000000E+00  0.35527136788E-14 -0.27330358352E+03  0.28467046830E+03  0.79639354315E+02 0.  0.
         66    2    3    3    0    0  0.17150776391E+02 -0.15179623368E+02 -0.25306168696E+03  0.25410389118E+03  0.20000018483E+01 0.  0.
        -13    1    3    3    0    0 -0.17150776391E+02  0.15179623368E+02 -0.20241896555E+02  0.30566577117E+02  0.10566000000E+00 0.  1.
         13    1    4    4    0    0  0.21185564681E+00 -0.28405440512E+00 -0.35521602582E+01  0.35713549607E+01  0.10566000000E+00 0.  1.
        -13    1    4    4    0    0  0.82225394899E+01 -0.67944334040E+01 -0.10960425807E+03  0.11012210964E+03  0.10566000000E+00 0.  1.
         14    1    4    4    0    0  0.87163812547E+01 -0.81011355593E+01 -0.13990526863E+03  0.14041042658E+03  0.00000000000E+00 0. -1.
<mgrwt>
<rscale>  0 0.79639354E+02</rscale>
<asrwt>0</asrwt>
<pdfrwt beam="1">  1        2 0.42921070E-01 0.79639354E+02</pdfrwt>
<pdfrwt beam="2">  1       -1 0.87437597E-03 0.79639354E+02</pdfrwt>
<totfact> 0.25128703E+05</totfact>
</mgrwt>
</event>
<event>
 8    1  0.2433467E-020  0.8015766E+02  0.7818608E-02  0.1328605E+00
          2   -1    0    0  501    0  0.00000000000E+00  0.00000000000E+00  0.15856130062E+03  0.15856130064E+03  0.25500000000E-02 0. -1.
         -1   -1    0    0    0  501 -0.00000000000E+00 -0.00000000000E+00 -0.10130545251E+02  0.10130546504E+02  0.50400000000E-02 0.  1.
         24    2    1    2    0    0  0.00000000000E+00  0.00000000000E+00  0.14843075537E+03  0.16869184714E+03  0.80157658109E+02 0.  0.
         66    2    3    3    0    0  0.16178266878E+02 -0.98831433278E+00  0.15134464592E+03  0.15222324045E+03  0.19999999833E+01 0.  0.
        -13    1    3    3    0    0 -0.16178266878E+02  0.98831433278E+00 -0.29138905482E+01  0.16468606698E+02  0.10566000000E+00 0.  1.
         13    1    4    4    0    0  0.27479042944E+01 -0.52271390053E+00  0.26058510192E+02  0.26208420885E+02  0.10566000000E+00 0. -1.
        -13    1    4    4    0    0  0.11995028595E+02 -0.57842924654E+00  0.11562194288E+03  0.11624396815E+03  0.10566000000E+00 0.  1.
        -14    1    4    4    0    0  0.14353339887E+01  0.11282881428E+00  0.96641928462E+01  0.97708514147E+01  0.00000000000E+00 0.  1.
<mgrwt>
<rscale>  0 0.80157658E+02</rscale>
<asrwt>0</asrwt>
<pdfrwt beam="1">  1        2 0.24394047E-01 0.80157658E+02</pdfrwt>
<pdfrwt beam="2">  1       -1 0.15585455E-02 0.80157658E+02</pdfrwt>
<totfact> 0.20288243E+05</totfact>
</mgrwt>
</event>
<event>
 8    1  0.2433467E-020  0.7952423E+02  0.7818608E-02  0.1330407E+00
         -1   -1    0    0    0  501 -0.00000000000E+00  0.00000000000E+00  0.18757778450E+02  0.18757779127E+02  0.50400000000E-02 0.  1.
          2   -1    0    0  501    0  0.00000000000E+00 -0.00000000000E+00 -0.84286399648E+02  0.84286399686E+02  0.25500000000E-02 0. -1.
         24    2    1    2    0    0 -0.44408920985E-15  0.00000000000E+00 -0.65528621198E+02  0.10304417881E+03  0.79524226442E+02 0.  0.
         66    2    3    3    0    0 -0.22622809546E+01  0.39598922441E+02 -0.35913132749E+02  0.53543866756E+02  0.19999974212E+01 0.  0.
        -13    1    3    3    0    0  0.22622809546E+01 -0.39598922441E+02 -0.29615488449E+02  0.49500312057E+02  0.10566000000E+00 0.  1.
         13    1    4    4    0    0 -0.88510116472E+00  0.15844736938E+02 -0.15174161279E+02  0.21956899309E+02  0.10566000000E+00 0. -1.
        -13    1    4    4    0    0  0.14879498265E+00  0.54385821712E+01 -0.44872998670E+01  0.70531794329E+01  0.10566000000E+00 0.  1.
         14    1    4    4    0    0 -0.15259747725E+01  0.18315603332E+02 -0.16251671603E+02  0.24533788014E+02  0.00000000000E+00 0. -1.
<mgrwt>
<rscale>  0 0.79524226E+02</rscale>
<asrwt>0</asrwt>
<pdfrwt beam="1">  1        2 0.12967138E-01 0.79524226E+02</pdfrwt>
<pdfrwt beam="2">  1       -1 0.28858122E-02 0.79524226E+02</pdfrwt>
<totfact> 0.17197094E+05</totfact>
</mgrwt>
</event>
<event>
 8    1  0.2433467E-020  0.7085154E+02  0.7818608E-02  0.1357221E+00
          2   -1    0    0  501    0  0.00000000000E+00  0.00000000000E+00  0.69470073855E+03  0.69470073856E+03  0.25500000000E-02 0. -1.
         -1   -1    0    0    0  501 -0.00000000000E+00 -0.00000000000E+00 -0.18065084294E+01  0.18065154599E+01  0.50400000000E-02 0.  1.
         24    2    1    2    0    0 -0.88817841970E-15  0.00000000000E+00  0.69289423013E+03  0.69650725402E+03  0.70851540284E+02 0.  0.
         66    2    3    3    0    0  0.51033508152E+01 -0.24032526434E+02  0.59723164581E+03  0.59774011516E+03  0.19999998419E+01 0.  0.
        -13    1    3    3    0    0 -0.51033508152E+01  0.24032526434E+02  0.95662584318E+02  0.98767138861E+02  0.10566000000E+00 0.  1.
         13    1    4    4    0    0  0.12036307887E+01 -0.71889950324E+01  0.19188622606E+03  0.19202464762E+03  0.10566000000E+00 0. -1.
        -13    1    4    4    0    0  0.30888914295E+01 -0.14910260496E+02  0.35743194020E+03  0.35775614622E+03  0.10566000000E+00 0.  1.
        -14    1    4    4    0    0  0.81082859695E+00 -0.19332709060E+01  0.47913479551E+02  0.47959321327E+02  0.00000000000E+00 0.  1.
<mgrwt>
<rscale>  0 0.70851540E+02</rscale>
<asrwt>0</asrwt>
<pdfrwt beam="1">  1        2 0.10687708E+00 0.70851540E+02</pdfrwt>
<pdfrwt beam="2">  1       -1 0.27792479E-03 0.70851540E+02</pdfrwt>
<totfact> 0.45697800E+05</totfact>
</mgrwt>
</event>
<event>
 8    1  0.2433467E-020  0.7872911E+02  0.7818608E-02  0.1332697E+00
         -1   -1    0    0    0  501 -0.00000000000E+00  0.00000000000E+00  0.66716269115E+00  0.66718172792E+00  0.50400000000E-02 0.  1.
          2   -1    0    0  501    0  0.00000000000E+00 -0.00000000000E+00 -0.23225908170E+04  0.23225908170E+04  0.25500000000E-02 0. -1.
         24    2    1    2    0    0  0.00000000000E+00  0.00000000000E+00 -0.23219236543E+04  0.23232579987E+04  0.78729106567E+02 0.  0.
         66    2    3    3    0    0  0.11765018413E+02  0.80393652520E+01 -0.22437534369E+04  0.22437995750E+04  0.19999993441E+01 0.  0.
        -13    1    3    3    0    0 -0.11765018413E+02 -0.80393652520E+01 -0.78170217367E+02  0.79458423714E+02  0.10566000000E+00 0.  1.
         13    1    4    4    0    0  0.11271056931E+01  0.11175867210E+01 -0.25387289191E+03  0.25387787572E+03  0.10566000000E+00 0. -1.
        -13    1    4    4    0    0  0.21697792937E+01  0.18534740257E+01 -0.36388337264E+03  0.36389457726E+03  0.10566000000E+00 0.  1.
        -14    1    4    4    0    0  0.84681334264E+01  0.50683045053E+01 -0.16259971724E+04  0.16260271220E+04  0.00000000000E+00 0.  1.
<mgrwt>
<rscale>  0 0.78729107E+02</rscale>
<asrwt>0</asrwt>
<pdfrwt beam="1">  1        2 0.35731519E+00 0.78729107E+02</pdfrwt>
<pdfrwt beam="2">  1       -1 0.10264374E-03 0.78729107E+02</pdfrwt>
<totfact> 0.24431849E+05</totfact>
</mgrwt>
</event>
<event>
 8    1  0.2433467E-020  0.7750061E+02  0.7818608E-02  0.1336298E+00
         -1   -1    0    0    0  501 -0.00000000000E+00  0.00000000000E+00  0.61323778227E+02  0.61323778434E+02  0.50400000000E-02 0.  1.
          2   -1    0    0  501    0  0.00000000000E+00 -0.00000000000E+00 -0.24486197260E+02  0.24486197393E+02  0.25500000000E-02 0. -1.
         24    2    1    2    0    0  0.00000000000E+00  0.17763568394E-14  0.36837580967E+02  0.85809975827E+02  0.77500610191E+02 0.  0.
         66    2    3    3    0    0  0.30873649560E+02 -0.72712596701E+01 -0.61663352184E+01  0.32374019528E+02  0.19999990012E+01 0.  0.
        -13    1    3    3    0    0 -0.30873649560E+02  0.72712596701E+01  0.43003916185E+02  0.53435956299E+02  0.10566000000E+00 0.  1.
         13    1    4    4    0    0  0.11982365727E+01 -0.16816192843E+00 -0.48026321884E+00  0.13060880955E+01  0.10566000000E+00 0. -1.
        -13    1    4    4    0    0  0.64495578861E+01 -0.20661141386E+01 -0.14745898734E+01  0.69318975677E+01  0.10566000000E+00 0.  1.
        -14    1    4    4    0    0  0.23225855101E+02 -0.50369836031E+01 -0.42114821262E+01  0.24136033864E+02  0.00000000000E+00 0.  1.
<mgrwt>
<rscale>  0 0.77500610E+02</rscale>
<asrwt>0</asrwt>
<pdfrwt beam="1">  1        2 0.37671073E-02 0.77500610E+02</pdfrwt>
<pdfrwt beam="2">  1       -1 0.94344274E-02 0.77500610E+02</pdfrwt>
<totfact> 0.14140836E+05</totfact>
</mgrwt>
</event>
<event>
 8    1  0.2433467E-020  0.7256992E+02  0.7818608E-02  0.1351566E+00
         -1   -1    0    0    0  501 -0.00000000000E+00  0.00000000000E+00  0.12426443156E+02  0.12426444178E+02  0.50400000000E-02 0.  1.
          2   -1    0    0  501    0  0.00000000000E+00 -0.00000000000E+00 -0.10595134977E+03  0.10595134980E+03  0.25500000000E-02 0. -1.
         24    2    1    2    0    0  0.00000000000E+00  0.00000000000E+00 -0.93524906616E+02  0.11837779398E+03  0.72569924558E+02 0.  0.
         66    2    3    3    0    0 -0.33780669052E+01  0.95878225483E+01 -0.10356952459E+03  0.10408642625E+03  0.20000073681E+01 0.  0.
        -13    1    3    3    0    0  0.33780669052E+01 -0.95878225483E+01  0.10044617974E+02  0.14291367727E+02  0.10566000000E+00 0.  1.
         13    1    4    4    0    0 -0.20025301656E+01  0.40632273508E+01 -0.47051071819E+02  0.47268747254E+02  0.10566000000E+00 0. -1.
        -13    1    4    4    0    0 -0.49052657653E-01  0.19336481117E+01 -0.15384602011E+02  0.15506080880E+02  0.10566000000E+00 0.  1.
        -14    1    4    4    0    0 -0.13264840820E+01  0.35909470858E+01 -0.41133850759E+02  0.41311598121E+02  0.00000000000E+00 0.  1.
<mgrwt>
<rscale>  0 0.72569925E+02</rscale>
<asrwt>0</asrwt>
<pdfrwt beam="1">  1        2 0.16300207E-01 0.72569925E+02</pdfrwt>
<pdfrwt beam="2">  1       -1 0.19117606E-02 0.72569925E+02</pdfrwt>
<totfact> 0.23346244E+05</totfact>
</mgrwt>
</event>
<event>
 8    1  0.2433467E-020  0.7812388E+02  0.7818608E-02  0.1334462E+00
         -1   -1    0    0    0  501 -0.00000000000E+00  0.00000000000E+00  0.17625821380E+02  0.17625822101E+02  0.50400000000E-02 0.  1.
          2   -1    0    0  501    0  0.00000000000E+00 -0.00000000000E+00 -0.86568159945E+02  0.86568159982E+02  0.25500000000E-02 0. -1.
         24    2    1    2    0    0  0.71054273576E-14  0.17763568394E-14 -0.68942338564E+02  0.10419398208E+03  0.78123875068E+02 0.  0.
         66    2    3    3    0    0  0.35612897245E+02  0.15215839502E+02 -0.41031533735E+02  0.56456948114E+02  0.20000019412E+01 0.  0.
        -13    1    3    3    0    0 -0.35612897245E+02 -0.15215839502E+02 -0.27910804829E+02  0.47737033969E+02  0.10566000000E+00 0.  1.
         13    1    4    4    0    0  0.35339644505E+01  0.20129745506E+01 -0.46321820411E+01  0.61651638888E+01  0.10566000000E+00 0. -1.
        -13    1    4    4    0    0  0.13700828903E+02  0.53985196077E+01 -0.14832729337E+02  0.20901620756E+02  0.10566000000E+00 0.  1.
         14    1    4    4    0    0  0.18378103891E+02  0.78043453439E+01 -0.21566622357E+02  0.29390163469E+02  0.00000000000E+00 0. -1.
<mgrwt>
<rscale>  0 0.78123875E+02</rscale>
<asrwt>0</asrwt>
<pdfrwt beam="1">  1        2 0.13318178E-01 0.78123875E+02</pdfrwt>
<pdfrwt beam="2">  1       -1 0.27116650E-02 0.78123875E+02</pdfrwt>
<totfact> 0.18164352E+05</totfact>
</mgrwt>
</event>
<event>
 8    1  0.2433467E-020  0.7932437E+02  0.7818608E-02  0.1330980E+00
         -1   -1    0    0    0  501 -0.00000000000E+00  0.00000000000E+00  0.11500052625E+02  0.11500053729E+02  0.50400000000E-02 0.  1.
          2   -1    0    0  501    0  0.00000000000E+00 -0.00000000000E+00 -0.13678970434E+03  0.13678970436E+03  0.25500000000E-02 0. -1.
         24    2    1    2    0    0 -0.44408920985E-15  0.00000000000E+00 -0.12528965171E+03  0.14828975809E+03  0.79324369069E+02 0.  0.
         66    2    3    3    0    0 -0.32813991694E+01  0.10238358178E+02 -0.13400423582E+03  0.13444971839E+03  0.19999994951E+01 0.  0.
        -13    1    3    3    0    0  0.32813991694E+01 -0.10238358178E+02  0.87145841094E+01  0.13840039701E+02  0.10566000000E+00 0.  1.
         13    1    4    4    0    0 -0.20856988440E+01  0.56184409953E+01 -0.65164231166E+02  0.65439324618E+02  0.10566000000E+00 0. -1.
        -13    1    4    4    0    0 -0.70412807281E+00  0.12924125147E+01 -0.19289796324E+02  0.19346150334E+02  0.10566000000E+00 0.  1.
        -14    1    4    4    0    0 -0.49157225252E+00  0.33275046683E+01 -0.49550208329E+02  0.49664243436E+02  0.00000000000E+00 0.  1.
<mgrwt>
<rscale>  0 0.79324369E+02</rscale>
<asrwt>0</asrwt>
<pdfrwt beam="1">  1        2 0.21044569E-01 0.79324369E+02</pdfrwt>
<pdfrwt beam="2">  1       -1 0.17692391E-02 0.79324369E+02</pdfrwt>
<totfact> 0.19895139E+05</totfact>
</mgrwt>
</event>
<event>
 8    1  0.2433467E-020  0.7999793E+02  0.7818608E-02  0.1329057E+00
         -1   -1    0    0    0  501 -0.00000000000E+00  0.00000000000E+00  0.15248659244E+02  0.15248660077E+02  0.50400000000E-02 0.  1.
          2   -1    0    0  501    0  0.00000000000E+00 -0.00000000000E+00 -0.10492181212E+03  0.10492181215E+03  0.25500000000E-02 0. -1.
         24    2    1    2    0    0 -0.71054273576E-14  0.00000000000E+00 -0.89673152875E+02  0.12017047223E+03  0.79997925278E+02 0.  0.
         66    2    3    3    0    0  0.37350708796E+02  0.87424835284E+01 -0.27975590521E+02  0.47519891842E+02  0.19999974662E+01 0.  0.
        -13    1    3    3    0    0 -0.37350708796E+02 -0.87424835284E+01 -0.61697562354E+02  0.72650580385E+02  0.10566000000E+00 0.  1.
         13    1    4    4    0    0  0.19353463222E+02  0.54823270189E+01 -0.14322628331E+02  0.24693345147E+02  0.10566000000E+00 0.  1.
        -13    1    4    4    0    0  0.60022820557E+01  0.97771939806E+00 -0.46457267528E+01  0.76535786528E+01  0.10566000000E+00 0. -1.
        -14    1    4    4    0    0  0.11994963519E+02  0.22824371115E+01 -0.90072354375E+01  0.15172968043E+02  0.00000000000E+00 0.  1.
<mgrwt>
<rscale>  0 0.79997925E+02</rscale>
<asrwt>0</asrwt>
<pdfrwt beam="1">  1        2 0.16141817E-01 0.79997925E+02</pdfrwt>
<pdfrwt beam="2">  1       -1 0.23459477E-02 0.79997925E+02</pdfrwt>
<totfact> 0.17969255E+05</totfact>
</mgrwt>
</event>
<event>
 8    1  0.2433467E-020  0.7940107E+02  0.7818608E-02  0.1330760E+00
         -1   -1    0    0    0  501 -0.00000000000E+00  0.00000000000E+00  0.16734237988E+01  0.16734313885E+01  0.50400000000E-02 0.  1.
          2   -1    0    0  501    0  0.00000000000E+00 -0.00000000000E+00 -0.94185873813E+03  0.94185873813E+03  0.25500000000E-02 0. -1.
         24    2    1    2    0    0  0.00000000000E+00  0.00000000000E+00 -0.94018531433E+03  0.94353216952E+03  0.79401068246E+02 0.  0.
         66    2    3    3    0    0 -0.34470991677E+01  0.26072489307E+02 -0.82339471646E+03  0.82381704054E+03  0.20000007401E+01 0.  0.
        -13    1    3    3    0    0  0.34470991677E+01 -0.26072489307E+02 -0.11679059787E+03  0.11971512898E+03  0.10566000000E+00 0.  1.
         13    1    4    4    0    0 -0.10149992973E+01  0.10090072322E+02 -0.28955172486E+03  0.28972927418E+03  0.10566000000E+00 0. -1.
        -13    1    4    4    0    0 -0.10443472791E+01  0.64981328281E+01 -0.21895638020E+03  0.21905529892E+03  0.10566000000E+00 0.  1.
         14    1    4    4    0    0 -0.13877525913E+01  0.94842841567E+01 -0.31488661140E+03  0.31503246744E+03  0.00000000000E+00 0. -1.
<mgrwt>
<rscale>  0 0.79401068E+02</rscale>
<asrwt>0</asrwt>
<pdfrwt beam="1">  1        2 0.14490092E+00 0.79401068E+02</pdfrwt>
<pdfrwt beam="2">  1       -1 0.25745115E-03 0.79401068E+02</pdfrwt>
<totfact> 0.35791130E+05</totfact>
</mgrwt>
</event>
<event>
 8    1  0.2776211E-020  0.8125806E+02  0.7818608E-02  0.1325519E+00
         -1   -1    0    0    0  501 -0.00000000000E+00  0.00000000000E+00  0.95631500379E+01  0.95631513660E+01  0.50400000000E-02 0.  1.
          2   -1    0    0  501    0  0.00000000000E+00 -0.00000000000E+00 -0.17261237007E+03  0.17261237009E+03  0.25500000000E-02 0. -1.
         24    2    1    2    0    0 -0.35527136788E-14 -0.88817841970E-15 -0.16304922004E+03  0.18217552146E+03  0.81258060920E+02 0.  0.
         66    2    3    3    0    0 -0.14738047426E+02  0.77786678776E+01 -0.16458599172E+03  0.16543961553E+03  0.20000004973E+01 0.  0.
        -13    1    3    3    0    0  0.14738047426E+02 -0.77786678776E+01  0.15367716834E+01  0.16735905924E+02  0.10566000000E+00 0.  1.
         13    1    4    4    0    0 -0.67077242826E+01  0.39614527252E+01 -0.72265038671E+02  0.72683792216E+02  0.10566000000E+00 0. -1.
        -13    1    4    4    0    0 -0.45836370346E+01  0.26458139663E+01 -0.50467966751E+02  0.50744821332E+02  0.10566000000E+00 0.  1.
        -14    1    4    4    0    0 -0.34466861085E+01  0.11714011862E+01 -0.41852986298E+02  0.42011001987E+02  0.00000000000E+00 0.  1.
<mgrwt>
<rscale>  0 0.81258061E+02</rscale>
<asrwt>0</asrwt>
<pdfrwt beam="1">  1        2 0.26555747E-01 0.81258061E+02</pdfrwt>
<pdfrwt beam="2">  1       -1 0.14712541E-02 0.81258061E+02</pdfrwt>
<totfact> 0.20126851E+05</totfact>
</mgrwt>
</event>
<event>
 8    1  0.2433467E-020  0.7909778E+02  0.7818608E-02  0.1331631E+00
          2   -1    0    0  501    0  0.00000000000E+00  0.00000000000E+00  0.70265682224E+03  0.70265682224E+03  0.25500000000E-02 0. -1.
         -1   -1    0    0    0  501 -0.00000000000E+00 -0.00000000000E+00 -0.22259980183E+01  0.22260037240E+01  0.50400000000E-02 0.  1.
         24    2    1    2    0    0 -0.17763568394E-14  0.00000000000E+00  0.70043082422E+03  0.70488282597E+03  0.79097780156E+02 0.  0.
         66    2    3    3    0    0  0.11891403466E+02  0.27399245049E+02  0.58110565045E+03  0.58187619051E+03  0.19999998029E+01 0.  0.
        -13    1    3    3    0    0 -0.11891403466E+02 -0.27399245049E+02  0.11932517377E+03  0.12300663545E+03  0.10566000000E+00 0.  1.
         13    1    4    4    0    0  0.72849636526E+00  0.12734491666E+01  0.31761666583E+02  0.31795707382E+02  0.10566000000E+00 0. -1.
        -13    1    4    4    0    0  0.51579492947E+01  0.11649806557E+02  0.23146092965E+03  0.23181133612E+03  0.10566000000E+00 0.  1.
         14    1    4    4    0    0  0.60049578064E+01  0.14475989325E+02  0.31788305421E+03  0.31826914701E+03  0.00000000000E+00 0. -1.
<mgrwt>
<rscale>  0 0.79097780E+02</rscale>
<asrwt>0</asrwt>
<pdfrwt beam="1">  1        2 0.10810125E+00 0.79097780E+02</pdfrwt>
<pdfrwt beam="2">  1       -1 0.34246105E-03 0.79097780E+02</pdfrwt>
<totfact> 0.34481854E+05</totfact>
</mgrwt>
</event>
<event>
 8    1  0.2433467E-020  0.8098890E+02  0.7818608E-02  0.1326268E+00
         -1   -1    0    0    0  501 -0.00000000000E+00  0.00000000000E+00  0.18308098430E+03  0.18308098437E+03  0.50400000000E-02 0.  1.
          2   -1    0    0  501    0  0.00000000000E+00 -0.00000000000E+00 -0.89566948011E+01  0.89566951641E+01  0.25500000000E-02 0. -1.
         24    2    1    2    0    0  0.00000000000E+00  0.71054273576E-14  0.17412428950E+03  0.19203767953E+03  0.80988901505E+02 0.  0.
         66    2    3    3    0    0  0.20913102586E+02  0.34555982826E+02  0.93076925241E+02  0.10148294346E+03  0.19999978354E+01 0.  0.
        -13    1    3    3    0    0 -0.20913102586E+02 -0.34555982826E+02  0.81047364255E+02  0.90554736075E+02  0.10566000000E+00 0.  1.
         13    1    4    4    0    0  0.18571774481E+01  0.37223413031E+01  0.10070986756E+02  0.10896828489E+02  0.10566000000E+00 0.  1.
        -13    1    4    4    0    0  0.15862666840E+02  0.26030146238E+02  0.68558924718E+02  0.75030194156E+02  0.10566000000E+00 0. -1.
         14    1    4    4    0    0  0.31932582982E+01  0.48034952843E+01  0.14447013767E+02  0.15555920811E+02  0.00000000000E+00 0. -1.
<mgrwt>
<rscale>  0 0.80988902E+02</rscale>
<asrwt>0</asrwt>
<pdfrwt beam="1">  1        2 0.13779530E-02 0.80988902E+02</pdfrwt>
<pdfrwt beam="2">  1       -1 0.28166306E-01 0.80988902E+02</pdfrwt>
<totfact> 0.99086888E+04</totfact>
</mgrwt>
</event>
<event>
 8    1  0.2433467E-020  0.7932905E+02  0.7818608E-02  0.1330966E+00
          2   -1    0    0  501    0  0.00000000000E+00  0.00000000000E+00  0.27284807139E+02  0.27284807258E+02  0.25500000000E-02 0. -1.
         -1   -1    0    0    0  501 -0.00000000000E+00 -0.00000000000E+00 -0.57661192879E+02  0.57661193100E+02  0.50400000000E-02 0.  1.
         24    2    1    2    0    0  0.00000000000E+00  0.00000000000E+00 -0.30376385740E+02  0.84946000358E+02  0.79329049951E+02 0.  0.
         66    2    3    3    0    0  0.18387821884E+02  0.32103997625E+02  0.39671839807E-01  0.37051048851E+02  0.19999975006E+01 0.  0.
        -13    1    3    3    0    0 -0.18387821884E+02 -0.32103997625E+02 -0.30416057580E+02  0.47894951507E+02  0.10566000000E+00 0.  1.
         13    1    4    4    0    0  0.50603758317E+00  0.82368049911E+00 -0.97480806127E-01  0.97733829524E+00  0.10566000000E+00 0.  1.
        -13    1    4    4    0    0  0.42256293642E+01  0.69030678787E+01 -0.65386932206E+00  0.81207757503E+01  0.10566000000E+00 0.  1.
         14    1    4    4    0    0  0.13656154936E+02  0.24377249247E+02  0.79102196800E+00  0.27952934806E+02  0.00000000000E+00 0. -1.
<mgrwt>
<rscale>  0 0.79329050E+02</rscale>
<asrwt>0</asrwt>
<pdfrwt beam="1">  1        2 0.41976627E-02 0.79329050E+02</pdfrwt>
<pdfrwt beam="2">  1       -1 0.88709528E-02 0.79329050E+02</pdfrwt>
<totfact> 0.13522970E+05</totfact>
</mgrwt>
</event>
<event>
 8    1  0.2433467E-020  0.7943465E+02  0.7818608E-02  0.1330664E+00
         -1   -1    0    0    0  501 -0.00000000000E+00  0.00000000000E+00  0.41237762021E+02  0.41237762329E+02  0.50400000000E-02 0.  1.
          2   -1    0    0  501    0  0.00000000000E+00 -0.00000000000E+00 -0.38252942407E+02  0.38252942492E+02  0.25500000000E-02 0. -1.
         24    2    1    2    0    0  0.44408920985E-15  0.00000000000E+00  0.29848196140E+01  0.79490704821E+02  0.79434646123E+02 0.  0.
         66    2    3    3    0    0  0.23981065932E+01  0.19909565098E+02 -0.32784566090E+02  0.38483366266E+02  0.20000019489E+01 0.  0.
        -13    1    3    3    0    0 -0.23981065932E+01 -0.19909565098E+02  0.35769385704E+02  0.41007338555E+02  0.10566000000E+00 0.  1.
         13    1    4    4    0    0  0.87119826024E+00  0.52475890934E+01 -0.73143838363E+01  0.90447527685E+01  0.10566000000E+00 0. -1.
        -13    1    4    4    0    0  0.20665224346E+00  0.32033956698E+01 -0.61160515825E+01  0.69080894582E+01  0.10566000000E+00 0.  1.
         14    1    4    4    0    0  0.13202560895E+01  0.11458580335E+02 -0.19354130671E+02  0.22530524039E+02  0.00000000000E+00 0. -1.
<mgrwt>
<rscale>  0 0.79434646E+02</rscale>
<asrwt>0</asrwt>
<pdfrwt beam="1">  1        2 0.58850680E-02 0.79434646E+02</pdfrwt>
<pdfrwt beam="2">  1       -1 0.63442712E-02 0.79434646E+02</pdfrwt>
<totfact> 0.14405637E+05</totfact>
</mgrwt>
</event>
<event>
 8    1  0.2433467E-020  0.7888091E+02  0.7818608E-02  0.1332258E+00
         -1   -1    0    0    0  501 -0.00000000000E+00  0.00000000000E+00  0.34714665102E+03  0.34714665106E+03  0.50400000000E-02 0.  1.
          2   -1    0    0  501    0  0.00000000000E+00 -0.00000000000E+00 -0.44809577980E+01  0.44809585235E+01  0.25500000000E-02 0. -1.
         24    2    1    2    0    0  0.00000000000E+00  0.35527136788E-14  0.34266569322E+03  0.35162760958E+03  0.78880913456E+02 0.  0.
         66    2    3    3    0    0  0.35710616607E+02 -0.16450043704E+02  0.18380636486E+03  0.18797508302E+03  0.19999996900E+01 0.  0.
        -13    1    3    3    0    0 -0.35710616607E+02  0.16450043704E+02  0.15885932837E+03  0.16365252656E+03  0.10566000000E+00 0.  1.
         13    1    4    4    0    0  0.69198823848E+01 -0.37094500808E+01  0.37595548080E+02  0.38406785749E+02  0.10566000000E+00 0. -1.
        -13    1    4    4    0    0  0.54611401685E+01 -0.18917813286E+01  0.27739475608E+02  0.28335358822E+02  0.10566000000E+00 0.  1.
         14    1    4    4    0    0  0.23329594054E+02 -0.10848812295E+02  0.11847134117E+03  0.12123293845E+03  0.00000000000E+00 0. -1.
<mgrwt>
<rscale>  0 0.78880913E+02</rscale>
<asrwt>0</asrwt>
<pdfrwt beam="1">  1        2 0.68937814E-03 0.78880913E+02</pdfrwt>
<pdfrwt beam="2">  1       -1 0.53407180E-01 0.78880913E+02</pdfrwt>
<totfact> 0.84169371E+04</totfact>
</mgrwt>
</event>
<event>
 8    1  0.2433467E-020  0.7716719E+02  0.7818608E-02  0.1337288E+00
          2   -1    0    0  501    0  0.00000000000E+00  0.00000000000E+00  0.19165034210E+03  0.19165034211E+03  0.25500000000E-02 0. -1.
         -1   -1    0    0    0  501 -0.00000000000E+00 -0.00000000000E+00 -0.77677587931E+01  0.77677604282E+01  0.50400000000E-02 0.  1.
         24    2    1    2    0    0 -0.88817841970E-15  0.17763568394E-14  0.18388258330E+03  0.19941810254E+03  0.77167189782E+02 0.  0.
         66    2    3    3    0    0 -0.71113676928E+01  0.11056869625E+02  0.18567426154E+03  0.18614982491E+03  0.19999999288E+01 0.  0.
        -13    1    3    3    0    0  0.71113676928E+01 -0.11056869625E+02 -0.17916782359E+01  0.13268277631E+02  0.10566000000E+00 0.  1.
         13    1    4    4    0    0 -0.36652269421E+01  0.55516888998E+01  0.95924976427E+02  0.96155433568E+02  0.10566000000E+00 0. -1.
        -13    1    4    4    0    0 -0.17707261850E+00  0.11812470606E+01  0.18948228748E+02  0.18986132730E+02  0.10566000000E+00 0.  1.
         14    1    4    4    0    0 -0.32690681321E+01  0.43239336642E+01  0.70801056363E+02  0.71008258611E+02  0.00000000000E+00 0. -1.
<mgrwt>
<rscale>  0 0.77167190E+02</rscale>
<asrwt>0</asrwt>
<pdfrwt beam="1">  1        2 0.29484665E-01 0.77167190E+02</pdfrwt>
<pdfrwt beam="2">  1       -1 0.11950401E-02 0.77167190E+02</pdfrwt>
<totfact> 0.23902346E+05</totfact>
</mgrwt>
</event>
<event>
 8    1  0.2433467E-020  0.8047520E+02  0.7818608E-02  0.1327708E+00
          2   -1    0    0  501    0  0.00000000000E+00  0.00000000000E+00  0.15352447376E+04  0.15352447376E+04  0.25500000000E-02 0. -1.
         -1   -1    0    0    0  501 -0.00000000000E+00 -0.00000000000E+00 -0.10545909058E+01  0.10546029490E+01  0.50400000000E-02 0.  1.
         24    2    1    2    0    0  0.00000000000E+00  0.00000000000E+00  0.15341901467E+04  0.15362993406E+04  0.80475198442E+02 0.  0.
         66    2    3    3    0    0 -0.58975309870E+01  0.12041574331E+02  0.14913104694E+04  0.14913720852E+04  0.20000014474E+01 0.  0.
        -13    1    3    3    0    0  0.58975309870E+01 -0.12041574331E+02  0.42879677335E+02  0.44927255386E+02  0.10566000000E+00 0.  1.
         13    1    4    4    0    0 -0.14467302025E+01  0.30861655245E+01  0.33010958878E+03  0.33012720157E+03  0.10566000000E+00 0.  1.
        -13    1    4    4    0    0 -0.28279181349E+01  0.59305924576E+01  0.67952305842E+03  0.67955483012E+03  0.10566000000E+00 0. -1.
         14    1    4    4    0    0 -0.16228826496E+01  0.30248163490E+01  0.48167782218E+03  0.48169005351E+03  0.00000000000E+00 0. -1.
<mgrwt>
<rscale>  0 0.80475198E+02</rscale>
<asrwt>0</asrwt>
<pdfrwt beam="1">  1        2 0.23618946E+00 0.80475198E+02</pdfrwt>
<pdfrwt beam="2">  1       -1 0.16224708E-03 0.80475198E+02</pdfrwt>
<totfact> 0.32445697E+05</totfact>
</mgrwt>
</event>
<event>
 8    1  0.2433467E-020  0.7874226E+02  0.7818608E-02  0.1332659E+00
         -1   -1    0    0    0  501 -0.00000000000E+00  0.00000000000E+00  0.79217450908E+01  0.79217466941E+01  0.50400000000E-02 0.  1.
          2   -1    0    0  501    0  0.00000000000E+00 -0.00000000000E+00 -0.19567476432E+03  0.19567476433E+03  0.25500000000E-02 0. -1.
         24    2    1    2    0    0  0.35527136788E-14  0.00000000000E+00 -0.18775301923E+03  0.20359651103E+03  0.78742257233E+02 0.  0.
         66    2    3    3    0    0 -0.30132351775E+02 -0.10446841448E+02 -0.15351736757E+03  0.15680777170E+03  0.19999998901E+01 0.  0.
        -13    1    3    3    0    0  0.30132351775E+02  0.10446841448E+02 -0.34235651659E+02  0.46788739333E+02  0.10566000000E+00 0.  1.
         13    1    4    4    0    0 -0.47626649303E+01 -0.11817736555E+01 -0.21368950032E+02  0.21925390663E+02  0.10566000000E+00 0.  1.
        -13    1    4    4    0    0 -0.16832446416E+02 -0.58332051828E+01 -0.88154668512E+02  0.89936723754E+02  0.10566000000E+00 0. -1.
        -14    1    4    4    0    0 -0.85372404292E+01 -0.34318626098E+01 -0.43993749024E+02  0.44945657280E+02  0.00000000000E+00 0.  1.
<mgrwt>
<rscale>  0 0.78742257E+02</rscale>
<asrwt>0</asrwt>
<pdfrwt beam="1">  1        2 0.30103806E-01 0.78742257E+02</pdfrwt>
<pdfrwt beam="2">  1       -1 0.12187303E-02 0.78742257E+02</pdfrwt>
<totfact> 0.22826452E+05</totfact>
</mgrwt>
</event>
<event>
 8    1  0.2433467E-020  0.8129049E+02  0.7818608E-02  0.1325429E+00
         -1   -1    0    0    0  501 -0.00000000000E+00  0.00000000000E+00  0.25753536222E+01  0.25753585538E+01  0.50400000000E-02 0.  1.
          2   -1    0    0  501    0  0.00000000000E+00 -0.00000000000E+00 -0.64147862145E+03  0.64147862145E+03  0.25500000000E-02 0. -1.
         24    2    1    2    0    0 -0.71054273576E-14 -0.88817841970E-15 -0.63890326783E+03  0.64405398001E+03  0.81290488522E+02 0.  0.
         66    2    3    3    0    0 -0.38014670647E+02 -0.54393266740E+01 -0.42455278973E+03  0.42629071386E+03  0.19999991291E+01 0.  0.
        -13    1    3    3    0    0  0.38014670647E+02  0.54393266740E+01 -0.21435047809E+03  0.21776326614E+03  0.10566000000E+00 0.  1.
         13    1    4    4    0    0 -0.10482508590E+02 -0.19513569774E+01 -0.11644122190E+03  0.11692844009E+03  0.10566000000E+00 0. -1.
        -13    1    4    4    0    0 -0.86689393426E+01 -0.71960767914E+00 -0.10275594776E+03  0.10312353906E+03  0.10566000000E+00 0.  1.
        -14    1    4    4    0    0 -0.18863222714E+02 -0.27683620174E+01 -0.20535562007E+03  0.20623873471E+03  0.00000000000E+00 0.  1.
<mgrwt>
<rscale>  0 0.81290489E+02</rscale>
<asrwt>0</asrwt>
<pdfrwt beam="1">  1        2 0.98688891E-01 0.81290489E+02</pdfrwt>
<pdfrwt beam="2">  1       -1 0.39620914E-03 0.81290489E+02</pdfrwt>
<totfact> 0.31410310E+05</totfact>
</mgrwt>
</event>
<event>
 8    1  0.2433467E-020  0.7802128E+02  0.7818608E-02  0.1334762E+00
          2   -1    0    0  501    0  0.00000000000E+00  0.00000000000E+00  0.32378320548E+02  0.32378320648E+02  0.25500000000E-02 0. -1.
         -1   -1    0    0    0  501 -0.00000000000E+00 -0.00000000000E+00 -0.47001510664E+02  0.47001510934E+02  0.50400000000E-02 0.  1.
         24    2    1    2    0    0  0.00000000000E+00  0.35527136788E-14 -0.14623190116E+02  0.79379831582E+02  0.78021278974E+02 0.  0.
         66    2    3    3    0    0  0.22121898772E+02 -0.24817771621E+02  0.13398016012E+02  0.35899958648E+02  0.20000010874E+01 0.  0.
        -13    1    3    3    0    0 -0.22121898772E+02  0.24817771621E+02 -0.28021206127E+02  0.43479872934E+02  0.10566000000E+00 0.  1.
         13    1    4    4    0    0  0.66671133407E+01 -0.70031504646E+01  0.38522539786E+01  0.10408916441E+02  0.10566000000E+00 0. -1.
        -13    1    4    4    0    0  0.44359916313E+01 -0.61579773829E+01  0.28027843450E+01  0.80910735581E+01  0.10566000000E+00 0.  1.
        -14    1    4    4    0    0  0.11018793800E+02 -0.11656643773E+02  0.67429776881E+01  0.17399968648E+02  0.00000000000E+00 0.  1.
<mgrwt>
<rscale>  0 0.78021279E+02</rscale>
<asrwt>0</asrwt>
<pdfrwt beam="1">  1        2 0.49812801E-02 0.78021279E+02</pdfrwt>
<pdfrwt beam="2">  1       -1 0.72310017E-02 0.78021279E+02</pdfrwt>
<totfact> 0.14647275E+05</totfact>
</mgrwt>
</event>
<event>
 8    1  0.2433467E-020  0.7858664E+02  0.7818608E-02  0.1333111E+00
         -1   -1    0    0    0  501 -0.00000000000E+00  0.00000000000E+00  0.14898381601E+01  0.14898466850E+01  0.50400000000E-02 0.  1.
          2   -1    0    0  501    0  0.00000000000E+00 -0.00000000000E+00 -0.10363276665E+04  0.10363276665E+04  0.25500000000E-02 0. -1.
         24    2    1    2    0    0 -0.35527136788E-14  0.35527136788E-14 -0.10348378284E+04  0.10378175132E+04  0.78586638284E+02 0.  0.
         66    2    3    3    0    0  0.11676067064E+02 -0.18414753787E+02 -0.94903185908E+03  0.94928441641E+03  0.20000015688E+01 0.  0.
        -13    1    3    3    0    0 -0.11676067064E+02  0.18414753787E+02 -0.85805969279E+02  0.88533096790E+02  0.10566000000E+00 0.  1.
         13    1    4    4    0    0  0.55123430235E+01 -0.87614690617E+01 -0.47031652030E+03  0.47043043024E+03  0.10566000000E+00 0. -1.
        -13    1    4    4    0    0  0.30903172811E+01 -0.52566076539E+01 -0.23031176463E+03  0.23039249570E+03  0.10566000000E+00 0.  1.
        -14    1    4    4    0    0  0.30734067599E+01 -0.43966770714E+01 -0.24840357415E+03  0.24846149047E+03  0.00000000000E+00 0.  1.
<mgrwt>
<rscale>  0 0.78586638E+02</rscale>
<asrwt>0</asrwt>
<pdfrwt beam="1">  1        2 0.15943445E+00 0.78586638E+02</pdfrwt>
<pdfrwt beam="2">  1       -1 0.22920736E-03 0.78586638E+02</pdfrwt>
<totfact> 0.36936461E+05</totfact>
</mgrwt>
</event>
<event>
 8    1  0.2433467E-020  0.7875767E+02  0.7818608E-02  0.1332614E+00
          2   -1    0    0  501    0  0.00000000000E+00  0.00000000000E+00  0.71911991790E+02  0.71911991835E+02  0.25500000000E-02 0. -1.
         -1   -1    0    0    0  501 -0.00000000000E+00 -0.00000000000E+00 -0.21563756830E+02  0.21563757419E+02  0.50400000000E-02 0.  1.
         24    2    1    2    0    0 -0.17763568394E-14  0.88817841970E-15  0.50348234960E+02  0.93475749254E+02  0.78757672229E+02 0.  0.
         66    2    3    3    0    0  0.11096427445E+02 -0.73487838616E+01  0.69145712325E+02  0.70443345002E+02  0.19999989439E+01 0.  0.
        -13    1    3    3    0    0 -0.11096427445E+02  0.73487838616E+01 -0.18797477365E+02  0.23032404252E+02  0.10566000000E+00 0.  1.
         13    1    4    4    0    0  0.42073107227E+01 -0.24467611137E+01  0.25763195018E+02  0.26219105344E+02  0.10566000000E+00 0. -1.
        -13    1    4    4    0    0  0.35929174203E+01 -0.34437496769E+01  0.25899638595E+02  0.26373678371E+02  0.10566000000E+00 0.  1.
        -14    1    4    4    0    0  0.32961993019E+01 -0.14582730710E+01  0.17482878713E+02  0.17850561287E+02  0.00000000000E+00 0.  1.
<mgrwt>
<rscale>  0 0.78757672E+02</rscale>
<asrwt>0</asrwt>
<pdfrwt beam="1">  1        2 0.11063383E-01 0.78757672E+02</pdfrwt>
<pdfrwt beam="2">  1       -1 0.33175011E-02 0.78757672E+02</pdfrwt>
<totfact> 0.16955711E+05</totfact>
</mgrwt>
</event>
<event>
 8    1  0.2433467E-020  0.7991829E+02  0.7818608E-02  0.1329283E+00
         -1   -1    0    0    0  501 -0.00000000000E+00  0.00000000000E+00  0.48265112128E+01  0.48265138443E+01  0.50400000000E-02 0.  1.
          2   -1    0    0  501    0  0.00000000000E+00 -0.00000000000E+00 -0.33082543683E+03  0.33082543684E+03  0.25500000000E-02 0. -1.
         24    2    1    2    0    0  0.00000000000E+00  0.00000000000E+00 -0.32599892562E+03  0.33565195068E+03  0.79918286358E+02 0.  0.
         66    2    3    3    0    0 -0.18183518369E+02 -0.24592805910E+02 -0.27094092609E+03  0.27266908858E+03  0.19999985115E+01 0.  0.
        -13    1    3    3    0    0  0.18183518369E+02  0.24592805910E+02 -0.55057999529E+02  0.62982862106E+02  0.10566000000E+00 0.  1.
         13    1    4    4    0    0 -0.16748763390E+02 -0.22867042545E+02 -0.24784211660E+03  0.24945770912E+03  0.10566000000E+00 0. -1.
        -13    1    4    4    0    0 -0.68518242291E+00 -0.10460203234E+01 -0.14152003891E+02  0.14207533623E+02  0.10566000000E+00 0.  1.
        -14    1    4    4    0    0 -0.74957255637E+00 -0.67974304145E+00 -0.89468055911E+01  0.90038458396E+01  0.00000000000E+00 0.  1.
<mgrwt>
<rscale>  0 0.79918286E+02</rscale>
<asrwt>0</asrwt>
<pdfrwt beam="1">  1        2 0.50896203E-01 0.79918286E+02</pdfrwt>
<pdfrwt beam="2">  1       -1 0.74254065E-03 0.79918286E+02</pdfrwt>
<totfact> 0.26481603E+05</totfact>
</mgrwt>
</event>
<event>
 8    1  0.2433467E-020  0.8125532E+02  0.7818608E-02  0.1325526E+00
          2   -1    0    0  501    0  0.00000000000E+00  0.00000000000E+00  0.85751923828E+01  0.85751927620E+01  0.25500000000E-02 0. -1.
         -1   -1    0    0    0  501 -0.00000000000E+00 -0.00000000000E+00 -0.19248626945E+03  0.19248626952E+03  0.50400000000E-02 0.  1.
         24    2    1    2    0    0  0.00000000000E+00  0.00000000000E+00 -0.18391107707E+03  0.20106146228E+03  0.81255321951E+02 0.  0.
         66    2    3    3    0    0 -0.27706160514E+02 -0.22551018456E+02 -0.44258744447E+02  0.56912355676E+02  0.20000011817E+01 0.  0.
        -13    1    3    3    0    0  0.27706160514E+02  0.22551018456E+02 -0.13965233262E+03  0.14414910660E+03  0.10566000000E+00 0.  1.
         13    1    4    4    0    0 -0.12801214980E+02 -0.10075671286E+02 -0.21348297442E+02  0.26854258964E+02  0.10566000000E+00 0. -1.
        -13    1    4    4    0    0 -0.11175392759E+02 -0.92150821968E+01 -0.17638239632E+02  0.22823799083E+02  0.10566000000E+00 0.  1.
        -14    1    4    4    0    0 -0.37295527753E+01 -0.32602649733E+01 -0.52722073726E+01  0.72342976286E+01  0.00000000000E+00 0.  1.
<mgrwt>
<rscale>  0 0.81255322E+02</rscale>
<asrwt>0</asrwt>
<pdfrwt beam="1">  1        2 0.13192605E-02 0.81255322E+02</pdfrwt>
<pdfrwt beam="2">  1       -1 0.29613269E-01 0.81255322E+02</pdfrwt>
<totfact> 0.96838023E+04</totfact>
</mgrwt>
</event>
<event>
 8    1  0.2433467E-020  0.7949159E+02  0.7818608E-02  0.1330500E+00
          2   -1    0    0  501    0  0.00000000000E+00  0.00000000000E+00  0.57927727774E+03  0.57927727774E+03  0.25500000000E-02 0. -1.
         -1   -1    0    0    0  501 -0.00000000000E+00 -0.00000000000E+00 -0.27270654023E+01  0.27270700596E+01  0.50400000000E-02 0.  1.
         24    2    1    2    0    0  0.00000000000E+00  0.00000000000E+00  0.57655021234E+03  0.58200434780E+03  0.79491594005E+02 0.  0.
         66    2    3    3    0    0  0.11309646980E+02  0.93618774085E+01  0.55867912108E+03  0.55887557935E+03  0.19999997760E+01 0.  0.
        -13    1    3    3    0    0 -0.11309646980E+02 -0.93618774085E+01  0.17871091251E+02  0.23128768449E+02  0.10566000000E+00 0.  1.
         13    1    4    4    0    0  0.27922256603E+01  0.28025371051E+01  0.15672170916E+03  0.15677166844E+03  0.10566000000E+00 0. -1.
        -13    1    4    4    0    0  0.21723341881E+00  0.36020401723E-01  0.47910305177E+01  0.47972518471E+01  0.10566000000E+00 0. -1.
         14    1    4    4    0    0  0.83001879011E+01  0.65233199017E+01  0.39716638141E+03  0.39730665907E+03  0.00000000000E+00 0. -1.
<mgrwt>
<rscale>  0 0.79491594E+02</rscale>
<asrwt>0</asrwt>
<pdfrwt beam="1">  1        2 0.89119635E-01 0.79491594E+02</pdfrwt>
<pdfrwt beam="2">  1       -1 0.41954863E-03 0.79491594E+02</pdfrwt>
<totfact> 0.32377816E+05</totfact>
</mgrwt>
</event>
<event>
 8    1  0.2433467E-020  0.7645272E+02  0.7818608E-02  0.1339431E+00
         -1   -1    0    0    0  501 -0.00000000000E+00  0.00000000000E+00  0.17780334829E+01  0.17780406260E+01  0.50400000000E-02 0.  1.
          2   -1    0    0  501    0  0.00000000000E+00 -0.00000000000E+00 -0.82183585717E+03  0.82183585718E+03  0.25500000000E-02 0. -1.
         24    2    1    2    0    0 -0.35527136788E-14 -0.88817841970E-15 -0.82005782369E+03  0.82361389780E+03  0.76452720415E+02 0.  0.
         66    2    3    3    0    0  0.27085056978E+02  0.53202620569E+01 -0.69479042210E+03  0.69534138101E+03  0.19999999146E+01 0.  0.
        -13    1    3    3    0    0 -0.27085056978E+02 -0.53202620569E+01 -0.12526740159E+03  0.12827251680E+03  0.10566000000E+00 0.  1.
         13    1    4    4    0    0  0.49142987163E+01  0.14341457286E+01 -0.12386440570E+03  0.12397019509E+03  0.10566000000E+00 0. -1.
        -13    1    4    4    0    0  0.16087696846E+02  0.31556545889E+01 -0.42815473149E+03  0.42846850223E+03  0.10566000000E+00 0. -1.
        -14    1    4    4    0    0  0.60830614162E+01  0.73046173932E+00 -0.14277128491E+03  0.14290268369E+03  0.00000000000E+00 0.  1.
<mgrwt>
<rscale>  0 0.76452720E+02</rscale>
<asrwt>0</asrwt>
<pdfrwt beam="1">  1        2 0.12643598E+00 0.76452720E+02</pdfrwt>
<pdfrwt beam="2">  1       -1 0.27354482E-03 0.76452720E+02</pdfrwt>
<totfact> 0.38824645E+05</totfact>
</mgrwt>
</event>
<event>
 8    1  0.2433467E-020  0.8155010E+02  0.7818608E-02  0.1324709E+00
         -1   -1    0    0    0  501 -0.00000000000E+00  0.00000000000E+00  0.39649937734E+02  0.39649938054E+02  0.50400000000E-02 0.  1.
          2   -1    0    0  501    0  0.00000000000E+00 -0.00000000000E+00 -0.41932083867E+02  0.41932083945E+02  0.25500000000E-02 0. -1.
         24    2    1    2    0    0  0.00000000000E+00  0.44408920985E-15 -0.22821461336E+01  0.81582021999E+02  0.81550095784E+02 0.  0.
         66    2    3    3    0    0  0.25285445222E+02 -0.39933482883E+01 -0.32860620320E+02  0.41702769018E+02  0.20000013338E+01 0.  0.
        -13    1    3    3    0    0 -0.25285445222E+02  0.39933482883E+01  0.30578474187E+02  0.39879252980E+02  0.10566000000E+00 0.  1.
         13    1    4    4    0    0  0.11247784530E+02 -0.13251121670E+01 -0.14581521032E+02  0.18463490969E+02  0.10566000000E+00 0. -1.
        -13    1    4    4    0    0  0.68002653768E+01 -0.17841822759E+01 -0.97016171454E+01  0.11981629892E+02  0.10566000000E+00 0.  1.
         14    1    4    4    0    0  0.72373953150E+01 -0.88405384547E+00 -0.85774821424E+01  0.11257648158E+02  0.00000000000E+00 0. -1.
<mgrwt>
<rscale>  0 0.81550096E+02</rscale>
<asrwt>0</asrwt>
<pdfrwt beam="1">  1        2 0.64510898E-02 0.81550096E+02</pdfrwt>
<pdfrwt beam="2">  1       -1 0.60999905E-02 0.81550096E+02</pdfrwt>
<totfact> 0.13651479E+05</totfact>
</mgrwt>
</event>
<event>
 8    1  0.2433467E-020  0.8526667E+02  0.7818608E-02  0.1314737E+00
         -1   -1    0    0    0  501 -0.00000000000E+00  0.00000000000E+00  0.32808049529E+01  0.32808088242E+01  0.50400000000E-02 0.  1.
          2   -1    0    0  501    0  0.00000000000E+00 -0.00000000000E+00 -0.55401046540E+03  0.55401046540E+03  0.25500000000E-02 0. -1.
         24    2    1    2    0    0  0.00000000000E+00 -0.88817841970E-15 -0.55072966044E+03  0.55729127423E+03  0.85266672486E+02 0.  0.
         66    2    3    3    0    0 -0.41786718310E+02  0.54742591027E+01 -0.31659263905E+03  0.31939160358E+03  0.20000001721E+01 0.  0.
        -13    1    3    3    0    0  0.41786718310E+02 -0.54742591027E+01 -0.23413702140E+03  0.23789967064E+03  0.10566000000E+00 0.  1.
         13    1    4    4    0    0 -0.15395332229E+02  0.25369790400E+01 -0.11566651931E+03  0.11671421238E+03  0.10566000000E+00 0. -1.
        -13    1    4    4    0    0 -0.84480080724E+00  0.23892664416E-01 -0.80659430075E+01  0.81107866388E+01  0.10566000000E+00 0.  1.
        -14    1    4    4    0    0 -0.25546585273E+02  0.29133873982E+01 -0.19286017673E+03  0.19456660457E+03  0.00000000000E+00 0.  1.
<mgrwt>
<rscale>  0 0.85266672E+02</rscale>
<asrwt>0</asrwt>
<pdfrwt beam="1">  1        2 0.85232305E-01 0.85266672E+02</pdfrwt>
<pdfrwt beam="2">  1       -1 0.50473996E-03 0.85266672E+02</pdfrwt>
<totfact> 0.26609632E+05</totfact>
</mgrwt>
</event>
<event>
 8    1  0.2433467E-020  0.8136890E+02  0.7818608E-02  0.1325211E+00
          2   -1    0    0  501    0  0.00000000000E+00  0.00000000000E+00  0.43028456070E+02  0.43028456146E+02  0.25500000000E-02 0. -1.
         -1   -1    0    0    0  501 -0.00000000000E+00 -0.00000000000E+00 -0.38468138084E+02  0.38468138414E+02  0.50400000000E-02 0.  1.
         24    2    1    2    0    0 -0.88817841970E-15  0.53290705182E-14  0.45603179861E+01  0.81496594560E+02  0.81368903303E+02 0.  0.
         66    2    3    3    0    0 -0.41433220014E+01  0.15685713251E+02  0.39622890304E+02  0.42862362861E+02  0.19999991538E+01 0.  0.
        -13    1    3    3    0    0  0.41433220014E+01 -0.15685713251E+02 -0.35062572318E+02  0.38634231699E+02  0.10566000000E+00 0.  1.
         13    1    4    4    0    0 -0.22971169127E+01  0.56916007460E+01  0.14002800386E+02  0.15289233069E+02  0.10566000000E+00 0. -1.
        -13    1    4    4    0    0 -0.30258508693E+00  0.35103801093E+01  0.91632325592E+01  0.98178572619E+01  0.10566000000E+00 0.  1.
         14    1    4    4    0    0 -0.15436200018E+01  0.64837323955E+01  0.16456857359E+02  0.17755272530E+02  0.00000000000E+00 0. -1.
<mgrwt>
<rscale>  0 0.81368903E+02</rscale>
<asrwt>0</asrwt>
<pdfrwt beam="1">  1        2 0.66197624E-02 0.81368903E+02</pdfrwt>
<pdfrwt beam="2">  1       -1 0.59181752E-02 0.81368903E+02</pdfrwt>
<totfact> 0.13810475E+05</totfact>
</mgrwt>
</event>
<event>
 8    1  0.2433467E-020  0.7881601E+02  0.7818608E-02  0.1332445E+00
         -1   -1    0    0    0  501 -0.00000000000E+00  0.00000000000E+00  0.35571072685E+01  0.35571108391E+01  0.50400000000E-02 0.  1.
          2   -1    0    0  501    0  0.00000000000E+00 -0.00000000000E+00 -0.43658788767E+03  0.43658788768E+03  0.25500000000E-02 0. -1.
         24    2    1    2    0    0  0.17763568394E-14  0.35527136788E-14 -0.43303078040E+03  0.44014499852E+03  0.78816006902E+02 0.  0.
         66    2    3    3    0    0 -0.14372252673E+02 -0.28811732128E+02 -0.34330088804E+03  0.34481324985E+03  0.19999983331E+01 0.  0.
        -13    1    3    3    0    0  0.14372252673E+02  0.28811732128E+02 -0.89729892363E+02  0.95331748661E+02  0.10566000000E+00 0.  1.
         13    1    4    4    0    0 -0.78734154626E+01 -0.15724138253E+02 -0.19341231581E+03  0.19421012915E+03  0.10566000000E+00 0. -1.
        -13    1    4    4    0    0 -0.22955999919E+00 -0.97141211109E+00 -0.91279627334E+01  0.91829846445E+01  0.10566000000E+00 0.  1.
         14    1    4    4    0    0 -0.62692772110E+01 -0.12116181764E+02 -0.14076060950E+03  0.14142013606E+03  0.00000000000E+00 0. -1.
<mgrwt>
<rscale>  0 0.78816007E+02</rscale>
<asrwt>0</asrwt>
<pdfrwt beam="1">  1        2 0.67167325E-01 0.78816007E+02</pdfrwt>
<pdfrwt beam="2">  1       -1 0.54724789E-03 0.78816007E+02</pdfrwt>
<totfact> 0.30273996E+05</totfact>
</mgrwt>
</event>
<event>
 8    1  0.2433467E-020  0.8462489E+02  0.7818608E-02  0.1316416E+00
          2   -1    0    0  501    0  0.00000000000E+00  0.00000000000E+00  0.43542478735E+03  0.43542478736E+03  0.25500000000E-02 0. -1.
         -1   -1    0    0    0  501 -0.00000000000E+00 -0.00000000000E+00 -0.41117143411E+01  0.41117174301E+01  0.50400000000E-02 0.  1.
         24    2    1    2    0    0  0.00000000000E+00  0.00000000000E+00  0.43131307301E+03  0.43953650479E+03  0.84624890502E+02 0.  0.
         66    2    3    3    0    0 -0.94972634847E+01  0.39425008065E+02  0.27806251320E+03  0.28101119286E+03  0.19999983421E+01 0.  0.
        -13    1    3    3    0    0  0.94972634847E+01 -0.39425008065E+02  0.15325055981E+03  0.15852531193E+03  0.10566000000E+00 0.  1.
         13    1    4    4    0    0 -0.69471060404E+01  0.25574963897E+02  0.18124808672E+03  0.18317538362E+03  0.10566000000E+00 0. -1.
        -13    1    4    4    0    0 -0.13756910499E+01  0.86527972587E+01  0.58430307766E+02  0.59083631032E+02  0.10566000000E+00 0.  1.
        -14    1    4    4    0    0 -0.11744663944E+01  0.51972469087E+01  0.38384118715E+02  0.38752178213E+02  0.00000000000E+00 0.  1.
<mgrwt>
<rscale>  0 0.84624891E+02</rscale>
<asrwt>0</asrwt>
<pdfrwt beam="1">  1        2 0.66988432E-01 0.84624891E+02</pdfrwt>
<pdfrwt beam="2">  1       -1 0.63257165E-03 0.84624891E+02</pdfrwt>
<totfact> 0.25113872E+05</totfact>
</mgrwt>
</event>
<event>
 8    1  0.2433467E-020  0.7817246E+02  0.7818608E-02  0.1334319E+00
          2   -1    0    0  501    0  0.00000000000E+00  0.00000000000E+00  0.22730671356E+03  0.22730671357E+03  0.25500000000E-02 0. -1.
         -1   -1    0    0    0  501 -0.00000000000E+00 -0.00000000000E+00 -0.67210201706E+01  0.67210220603E+01  0.50400000000E-02 0.  1.
         24    2    1    2    0    0 -0.17763568394E-14  0.00000000000E+00  0.22058569339E+03  0.23402773563E+03  0.78172456263E+02 0.  0.
         66    2    3    3    0    0  0.10275293879E+02 -0.72912322363E+01  0.22105152330E+03  0.22141932997E+03  0.19999996804E+01 0.  0.
        -13    1    3    3    0    0 -0.10275293879E+02  0.72912322363E+01 -0.46582991368E+00  0.12608405663E+02  0.10566000000E+00 0.  1.
         13    1    4    4    0    0  0.53701030569E+01 -0.35015722708E+01  0.10746303400E+03  0.10765413998E+03  0.10566000000E+00 0. -1.
        -13    1    4    4    0    0  0.21011536900E+01 -0.87058604222E+00  0.44558999514E+02  0.44617130887E+02  0.10566000000E+00 0.  1.
        -14    1    4    4    0    0  0.28040371316E+01 -0.29190739233E+01  0.69029489789E+02  0.69148059100E+02  0.00000000000E+00 0.  1.
<mgrwt>
<rscale>  0 0.78172456E+02</rscale>
<asrwt>0</asrwt>
<pdfrwt beam="1">  1        2 0.34970261E-01 0.78172456E+02</pdfrwt>
<pdfrwt beam="2">  1       -1 0.10340033E-02 0.78172456E+02</pdfrwt>
<totfact> 0.24518002E+05</totfact>
</mgrwt>
</event>
<event>
 8    1  0.2433467E-020  0.7977602E+02  0.7818608E-02  0.1329688E+00
         -1   -1    0    0    0  501 -0.00000000000E+00  0.00000000000E+00  0.31491961495E+02  0.31491961899E+02  0.50400000000E-02 0.  1.
          2   -1    0    0  501    0  0.00000000000E+00 -0.00000000000E+00 -0.50522516333E+02  0.50522516398E+02  0.25500000000E-02 0. -1.
         24    2    1    2    0    0  0.00000000000E+00  0.88817841970E-15 -0.19030554838E+02  0.82014478296E+02  0.79776015398E+02 0.  0.
         66    2    3    3    0    0  0.22060049389E+02 -0.70686500006E+01 -0.42872801720E+02  0.48771802528E+02  0.20000006602E+01 0.  0.
        -13    1    3    3    0    0 -0.22060049389E+02  0.70686500006E+01  0.23842246882E+02  0.33242675769E+02  0.10566000000E+00 0.  1.
         13    1    4    4    0    0  0.68920847895E+01 -0.29449595900E+01 -0.14469107694E+02  0.16295393865E+02  0.10566000000E+00 0.  1.
        -13    1    4    4    0    0  0.58363630319E+01 -0.13420164813E+01 -0.10043871723E+02  0.11694215019E+02  0.10566000000E+00 0. -1.
         14    1    4    4    0    0  0.93316015674E+01 -0.27816739293E+01 -0.18359822303E+02  0.20782193644E+02  0.00000000000E+00 0. -1.
<mgrwt>
<rscale>  0 0.79776015E+02</rscale>
<asrwt>0</asrwt>
<pdfrwt beam="1">  1        2 0.77726948E-02 0.79776015E+02</pdfrwt>
<pdfrwt beam="2">  1       -1 0.48449172E-02 0.79776015E+02</pdfrwt>
<totfact> 0.15092303E+05</totfact>
</mgrwt>
</event>
<event>
 8    1  0.2433467E-020  0.8185315E+02  0.7818608E-02  0.1323873E+00
         -1   -1    0    0    0  501 -0.00000000000E+00  0.00000000000E+00  0.14479897218E+02  0.14479898095E+02  0.50400000000E-02 0.  1.
          2   -1    0    0  501    0  0.00000000000E+00 -0.00000000000E+00 -0.11567653760E+03  0.11567653762E+03  0.25500000000E-02 0. -1.
         24    2    1    2    0    0 -0.17763568394E-14  0.35527136788E-14 -0.10119664038E+03  0.13015643572E+03  0.81853147375E+02 0.  0.
         66    2    3    3    0    0 -0.11529376028E+02  0.28280973319E+02 -0.93891419652E+02  0.98753929810E+02  0.20000012851E+01 0.  0.
        -13    1    3    3    0    0  0.11529376028E+02 -0.28280973319E+02 -0.73052207250E+01  0.31402505908E+02  0.10566000000E+00 0.  1.
         13    1    4    4    0    0 -0.34262750418E+01  0.78090226359E+01 -0.24488039154E+02  0.25930588517E+02  0.10566000000E+00 0. -1.
        -13    1    4    4    0    0 -0.30685680391E+01  0.63145870291E+01 -0.22985523074E+02  0.24034049891E+02  0.10566000000E+00 0.  1.
         14    1    4    4    0    0 -0.50345329468E+01  0.14157363653E+02 -0.46417857424E+02  0.48789291401E+02  0.00000000000E+00 0. -1.
<mgrwt>
<rscale>  0 0.81853147E+02</rscale>
<asrwt>0</asrwt>
<pdfrwt beam="1">  1        2 0.17796390E-01 0.81853147E+02</pdfrwt>
<pdfrwt beam="2">  1       -1 0.22276767E-02 0.81853147E+02</pdfrwt>
<totfact> 0.17386514E+05</totfact>
</mgrwt>
</event>
<event>
 8    1  0.2433467E-020  0.7952112E+02  0.7818608E-02  0.1330416E+00
          2   -1    0    0  501    0  0.00000000000E+00  0.00000000000E+00  0.25924933522E+02  0.25924933647E+02  0.25500000000E-02 0. -1.
         -1   -1    0    0    0  501 -0.00000000000E+00 -0.00000000000E+00 -0.60979992790E+02  0.60979992999E+02  0.50400000000E-02 0.  1.
         24    2    1    2    0    0  0.00000000000E+00  0.00000000000E+00 -0.35055059269E+02  0.86904926646E+02  0.79521123577E+02 0.  0.
         66    2    3    3    0    0  0.16013444605E+02  0.34383184076E+02 -0.45956043296E+01  0.38259029444E+02  0.19999998797E+01 0.  0.
        -13    1    3    3    0    0 -0.16013444605E+02 -0.34383184076E+02 -0.30459454939E+02  0.48645897202E+02  0.10566000000E+00 0.  1.
         13    1    4    4    0    0  0.13037023790E+02  0.28154554181E+02 -0.34860624926E+01  0.31221894660E+02  0.10566000000E+00 0. -1.
        -13    1    4    4    0    0  0.21001554306E+01  0.51270161172E+01 -0.88179889410E+00  0.56112102459E+01  0.10566000000E+00 0.  1.
         14    1    4    4    0    0  0.87626538524E+00  0.11016137780E+01 -0.22774294289E+00  0.14259245384E+01  0.00000000000E+00 0. -1.
<mgrwt>
<rscale>  0 0.79521124E+02</rscale>
<asrwt>0</asrwt>
<pdfrwt beam="1">  1        2 0.39884513E-02 0.79521124E+02</pdfrwt>
<pdfrwt beam="2">  1       -1 0.93815374E-02 0.79521124E+02</pdfrwt>
<totfact> 0.13297287E+05</totfact>
</mgrwt>
</event>
<event>
 8    1  0.2433467E-020  0.8152684E+02  0.7818608E-02  0.1324773E+00
          2   -1    0    0  501    0  0.00000000000E+00  0.00000000000E+00  0.57943525065E+02  0.57943525121E+02  0.25500000000E-02 0. -1.
         -1   -1    0    0    0  501 -0.00000000000E+00 -0.00000000000E+00 -0.28677171288E+02  0.28677171731E+02  0.50400000000E-02 0.  1.
         24    2    1    2    0    0  0.00000000000E+00  0.00000000000E+00  0.29266353777E+02  0.86620696852E+02  0.81526840118E+02 0.  0.
         66    2    3    3    0    0  0.18426732191E+02 -0.26979560564E+02 -0.11213904232E+02  0.34600473861E+02  0.19999989387E+01 0.  0.
        -13    1    3    3    0    0 -0.18426732191E+02  0.26979560564E+02  0.40480258010E+02  0.52020222991E+02  0.10566000000E+00 0.  1.
         13    1    4    4    0    0  0.76333392364E+01 -0.10768388076E+02 -0.47377713442E+01  0.14024396280E+02  0.10566000000E+00 0. -1.
        -13    1    4    4    0    0  0.94238485851E+01 -0.13519902170E+02 -0.50525333829E+01  0.17237631347E+02  0.10566000000E+00 0.  1.
        -14    1    4    4    0    0  0.13695443700E+01 -0.26912703183E+01 -0.14235995052E+01  0.33384462342E+01  0.00000000000E+00 0.  1.
<mgrwt>
<rscale>  0 0.81526840E+02</rscale>
<asrwt>0</asrwt>
<pdfrwt beam="1">  1        2 0.89143884E-02 0.81526840E+02</pdfrwt>
<pdfrwt beam="2">  1       -1 0.44118726E-02 0.81526840E+02</pdfrwt>
<totfact> 0.14665826E+05</totfact>
</mgrwt>
</event>
<event>
 8    1  0.2433467E-020  0.8113398E+02  0.7818608E-02  0.1325864E+00
         -1   -1    0    0    0  501 -0.00000000000E+00  0.00000000000E+00  0.18617066463E+01  0.18617134685E+01  0.50400000000E-02 0.  1.
          2   -1    0    0  501    0  0.00000000000E+00 -0.00000000000E+00 -0.88396193467E+03  0.88396193467E+03  0.25500000000E-02 0. -1.
         24    2    1    2    0    0  0.00000000000E+00  0.71054273576E-14 -0.88210022802E+03  0.88582364814E+03  0.81133983807E+02 0.  0.
         66    2    3    3    0    0 -0.13675999251E+01  0.33585441205E+02 -0.68880387448E+03  0.68962644212E+03  0.19999982014E+01 0.  0.
        -13    1    3    3    0    0  0.13675999251E+01 -0.33585441205E+02 -0.19329635355E+03  0.19619720602E+03  0.10566000000E+00 0.  1.
         13    1    4    4    0    0 -0.79589376684E+00  0.12645755631E+02 -0.24642788172E+03  0.24675344098E+03  0.10566000000E+00 0. -1.
        -13    1    4    4    0    0 -0.71365662853E+00  0.18566441056E+02 -0.39767555634E+03  0.39810938361E+03  0.10566000000E+00 0.  1.
        -14    1    4    4    0    0  0.14195047026E+00  0.23732445181E+01 -0.44700436407E+02  0.44763617530E+02  0.00000000000E+00 0.  1.
<mgrwt>
<rscale>  0 0.81133984E+02</rscale>
<asrwt>0</asrwt>
<pdfrwt beam="1">  1        2 0.13599381E+00 0.81133984E+02</pdfrwt>
<pdfrwt beam="2">  1       -1 0.28641764E-03 0.81133984E+02</pdfrwt>
<totfact> 0.33621706E+05</totfact>
</mgrwt>
</event>
<event>
 8    1  0.2433467E-020  0.7979586E+02  0.7818608E-02  0.1329632E+00
         -1   -1    0    0    0  501 -0.00000000000E+00  0.00000000000E+00  0.20449477202E+01  0.20449539310E+01  0.50400000000E-02 0.  1.
          2   -1    0    0  501    0  0.00000000000E+00 -0.00000000000E+00 -0.77842693205E+03  0.77842693205E+03  0.25500000000E-02 0. -1.
         24    2    1    2    0    0 -0.71054273576E-14  0.00000000000E+00 -0.77638198433E+03  0.78047188599E+03  0.79795859676E+02 0.  0.
         66    2    3    3    0    0  0.35112665117E+02 -0.53740641321E+01 -0.56558923552E+03  0.56670712291E+03  0.20000015340E+01 0.  0.
        -13    1    3    3    0    0 -0.35112665117E+02  0.53740641321E+01 -0.21079274881E+03  0.21376476308E+03  0.10566000000E+00 0.  1.
         13    1    4    4    0    0  0.56524944358E+01 -0.35501473331E+00 -0.91206501353E+02  0.91382239969E+02  0.10566000000E+00 0. -1.
        -13    1    4    4    0    0  0.26986692754E+02 -0.49493419790E+01 -0.43395935392E+03  0.43482583823E+03  0.10566000000E+00 0.  1.
        -14    1    4    4    0    0  0.24734779271E+01 -0.69707419777E-01 -0.40423380243E+02  0.40499044711E+02  0.00000000000E+00 0.  1.
<mgrwt>
<rscale>  0 0.79795860E+02</rscale>
<asrwt>0</asrwt>
<pdfrwt beam="1">  1        2 0.11975775E+00 0.79795860E+02</pdfrwt>
<pdfrwt beam="2">  1       -1 0.31460844E-03 0.79795860E+02</pdfrwt>
<totfact> 0.34425764E+05</totfact>
</mgrwt>
</event>
<event>
 8    1  0.2433467E-020  0.8685262E+02  0.7818608E-02  0.1310658E+00
         -1   -1    0    0    0  501 -0.00000000000E+00  0.00000000000E+00  0.28311803381E+01  0.28311848241E+01  0.50400000000E-02 0.  1.
          2   -1    0    0  501    0  0.00000000000E+00 -0.00000000000E+00 -0.66609777115E+03  0.66609777115E+03  0.25500000000E-02 0. -1.
         24    2    1    2    0    0  0.00000000000E+00  0.71054273576E-14 -0.66326659081E+03  0.66892895598E+03  0.86852620340E+02 0.  0.
         66    2    3    3    0    0 -0.37103031576E+00  0.33449229301E+02 -0.54481151148E+03  0.54584115972E+03  0.19999997056E+01 0.  0.
        -13    1    3    3    0    0  0.37103031576E+00 -0.33449229301E+02 -0.11845507933E+03  0.12308779625E+03  0.10566000000E+00 0.  1.
         13    1    4    4    0    0 -0.10902908741E+00  0.17752473925E+02 -0.29157170401E+03  0.29211167721E+03  0.10566000000E+00 0. -1.
        -13    1    4    4    0    0 -0.25597645685E+00  0.23749860537E+01 -0.32263234139E+02  0.32351715933E+02  0.10566000000E+00 0.  1.
        -14    1    4    4    0    0 -0.60247714973E-02  0.13321769322E+02 -0.22097657334E+03  0.22137776658E+03  0.00000000000E+00 0.  1.
<mgrwt>
<rscale>  0 0.86852620E+02</rscale>
<asrwt>0</asrwt>
<pdfrwt beam="1">  1        2 0.10247646E+00 0.86852620E+02</pdfrwt>
<pdfrwt beam="2">  1       -1 0.43556708E-03 0.86852620E+02</pdfrwt>
<totfact> 0.26675019E+05</totfact>
</mgrwt>
</event>
<event>
 8    1  0.2433467E-020  0.7824080E+02  0.7818608E-02  0.1334119E+00
          2   -1    0    0  501    0  0.00000000000E+00  0.00000000000E+00  0.46633744014E+03  0.46633744015E+03  0.25500000000E-02 0. -1.
         -1   -1    0    0    0  501 -0.00000000000E+00 -0.00000000000E+00 -0.32817541459E+01  0.32817580161E+01  0.50400000000E-02 0.  1.
         24    2    1    2    0    0  0.35527136788E-14  0.17763568394E-14  0.46305568599E+03  0.46961919816E+03  0.78240801068E+02 0.  0.
         66    2    3    3    0    0 -0.17734919478E+02 -0.49733421817E+01  0.43865896279E+03  0.43905005084E+03  0.19999996314E+01 0.  0.
        -13    1    3    3    0    0  0.17734919478E+02  0.49733421817E+01  0.24396723199E+02  0.30569147326E+02  0.10566000000E+00 0.  1.
         13    1    4    4    0    0 -0.12163245082E+02 -0.36895212782E+01  0.30352300982E+03  0.30378904811E+03  0.10566000000E+00 0. -1.
        -13    1    4    4    0    0 -0.18749384012E+01 -0.92209366711E+00  0.45249512965E+02  0.45297850262E+02  0.10566000000E+00 0.  1.
        -14    1    4    4    0    0 -0.36967359949E+01 -0.36172723639E+00  0.89886440009E+02  0.89963152463E+02  0.00000000000E+00 0.  1.
<mgrwt>
<rscale>  0 0.78240801E+02</rscale>
<asrwt>0</asrwt>
<pdfrwt beam="1">  1        2 0.71744237E-01 0.78240801E+02</pdfrwt>
<pdfrwt beam="2">  1       -1 0.50488544E-03 0.78240801E+02</pdfrwt>
<totfact> 0.31545360E+05</totfact>
</mgrwt>
</event>
<event>
 8    1  0.2433467E-020  0.8057120E+02  0.7818608E-02  0.1327438E+00
         -1   -1    0    0    0  501 -0.00000000000E+00  0.00000000000E+00  0.36902647010E+01  0.36902681427E+01  0.50400000000E-02 0.  1.
          2   -1    0    0  501    0  0.00000000000E+00 -0.00000000000E+00 -0.43978651064E+03  0.43978651065E+03  0.25500000000E-02 0. -1.
         24    2    1    2    0    0  0.00000000000E+00 -0.17763568394E-14 -0.43609624594E+03  0.44347677879E+03  0.80571195870E+02 0.  0.
         66    2    3    3    0    0 -0.18620504152E+02 -0.10907212506E+02 -0.40526153807E+03  0.40584061489E+03  0.19999997061E+01 0.  0.
        -13    1    3    3    0    0  0.18620504152E+02  0.10907212506E+02 -0.30834707875E+02  0.37636163902E+02  0.10566000000E+00 0.  1.
         13    1    4    4    0    0 -0.87863426303E+01 -0.58563512511E+01 -0.20721946607E+03  0.20748834894E+03  0.10566000000E+00 0. -1.
        -13    1    4    4    0    0 -0.69589220372E+01 -0.31452156988E+01 -0.13473225969E+03  0.13494855295E+03  0.10566000000E+00 0.  1.
        -14    1    4    4    0    0 -0.28752394842E+01 -0.19056455563E+01 -0.63309812311E+02  0.63403712998E+02  0.00000000000E+00 0.  1.
<mgrwt>
<rscale>  0 0.80571196E+02</rscale>
<asrwt>0</asrwt>
<pdfrwt beam="1">  1        2 0.67659422E-01 0.80571196E+02</pdfrwt>
<pdfrwt beam="2">  1       -1 0.56773365E-03 0.80571196E+02</pdfrwt>
<totfact> 0.28654471E+05</totfact>
</mgrwt>
</event>
<event>
 8    1  0.2433467E-020  0.8009904E+02  0.7818608E-02  0.1328771E+00
          2   -1    0    0  501    0  0.00000000000E+00  0.00000000000E+00  0.13626440414E+03  0.13626440416E+03  0.25500000000E-02 0. -1.
         -1   -1    0    0    0  501 -0.00000000000E+00 -0.00000000000E+00 -0.11770967131E+02  0.11770968210E+02  0.50400000000E-02 0.  1.
         24    2    1    2    0    0 -0.14210854715E-13  0.17763568394E-14  0.12449343701E+03  0.14803537237E+03  0.80099036297E+02 0.  0.
         66    2    3    3    0    0  0.37689668367E+02 -0.92715631246E+01  0.80345011382E+02  0.89251296012E+02  0.20000003515E+01 0.  0.
        -13    1    3    3    0    0 -0.37689668367E+02  0.92715631246E+01  0.44148425623E+02  0.58784076359E+02  0.10566000000E+00 0.  1.
         13    1    4    4    0    0  0.27178634305E+02 -0.63521495861E+01  0.57254268145E+02  0.63695293012E+02  0.10566000000E+00 0. -1.
        -13    1    4    4    0    0  0.53318393402E+01 -0.10227636535E+01  0.11859578287E+02  0.13043592965E+02  0.10566000000E+00 0.  1.
        -14    1    4    4    0    0  0.51791947218E+01 -0.18966498850E+01  0.11231164950E+02  0.12512410035E+02  0.00000000000E+00 0.  1.
<mgrwt>
<rscale>  0 0.80099036E+02</rscale>
<asrwt>0</asrwt>
<pdfrwt beam="1">  1        2 0.20963752E-01 0.80099036E+02</pdfrwt>
<pdfrwt beam="2">  1       -1 0.18109183E-02 0.80099036E+02</pdfrwt>
<totfact> 0.19364533E+05</totfact>
</mgrwt>
</event>
<event>
 8    1  0.2433467E-020  0.7994778E+02  0.7818608E-02  0.1329200E+00
          2   -1    0    0  501    0  0.00000000000E+00  0.00000000000E+00  0.11229008774E+04  0.11229008774E+04  0.25500000000E-02 0. -1.
         -1   -1    0    0    0  501 -0.00000000000E+00 -0.00000000000E+00 -0.14230169010E+01  0.14230258263E+01  0.50400000000E-02 0.  1.
         24    2    1    2    0    0  0.17763568394E-14 -0.44408920985E-15  0.11214778605E+04  0.11243239032E+04  0.79947781601E+02 0.  0.
         66    2    3    3    0    0 -0.98269087468E+01  0.20691820374E+01  0.11048572516E+04  0.11049047000E+04  0.19999995093E+01 0.  0.
        -13    1    3    3    0    0  0.98269087468E+01 -0.20691820374E+01  0.16620608828E+02  0.19419203168E+02  0.10566000000E+00 0.  1.
         13    1    4    4    0    0 -0.98904013466E+00 -0.15480645124E+00  0.77911602032E+02  0.77918104832E+02  0.10566000000E+00 0. -1.
        -13    1    4    4    0    0 -0.47953794309E+01  0.16030367320E+01  0.53108884967E+03  0.53111292848E+03  0.10566000000E+00 0.  1.
        -14    1    4    4    0    0 -0.40424891812E+01  0.62095175661E+00  0.49585679995E+03  0.49587366673E+03  0.00000000000E+00 0.  1.
<mgrwt>
<rscale>  0 0.79947782E+02</rscale>
<asrwt>0</asrwt>
<pdfrwt beam="1">  1        2 0.17275487E+00 0.79947782E+02</pdfrwt>
<pdfrwt beam="2">  1       -1 0.21892524E-03 0.79947782E+02</pdfrwt>
<totfact> 0.35282361E+05</totfact>
</mgrwt>
</event>
<event>
 8    1  0.2433467E-020  0.7972905E+02  0.7818608E-02  0.1329822E+00
         -1   -1    0    0    0  501 -0.00000000000E+00  0.00000000000E+00  0.54517497384E+01  0.54517520681E+01  0.50400000000E-02 0.  1.
          2   -1    0    0  501    0  0.00000000000E+00 -0.00000000000E+00 -0.29149907973E+03  0.29149907974E+03  0.25500000000E-02 0. -1.
         24    2    1    2    0    0 -0.44408920985E-15  0.00000000000E+00 -0.28604732999E+03  0.29695083181E+03  0.79729050646E+02 0.  0.
         66    2    3    3    0    0 -0.30856766606E+01  0.12236637144E+02 -0.28385410969E+03  0.28414153564E+03  0.19999994139E+01 0.  0.
        -13    1    3    3    0    0  0.30856766606E+01 -0.12236637144E+02 -0.21932203004E+01  0.12809296170E+02  0.10566000000E+00 0.  1.
         13    1    4    4    0    0 -0.23909482619E+01  0.75137172412E+01 -0.18098896586E+03  0.18116067318E+03  0.10566000000E+00 0. -1.
        -13    1    4    4    0    0 -0.11416928898E+00  0.35001592635E+00 -0.42900602396E+01  0.43071251050E+01  0.10566000000E+00 0.  1.
         14    1    4    4    0    0 -0.58055910972E+00  0.43729039767E+01 -0.98575083588E+02  0.98673737349E+02  0.00000000000E+00 0. -1.
<mgrwt>
<rscale>  0 0.79729051E+02</rscale>
<asrwt>0</asrwt>
<pdfrwt beam="1">  1        2 0.44846000E-01 0.79729051E+02</pdfrwt>
<pdfrwt beam="2">  1       -1 0.83873114E-03 0.79729051E+02</pdfrwt>
<totfact> 0.25455902E+05</totfact>
</mgrwt>
</event>
<event>
 8    1  0.2433467E-020  0.7725155E+02  0.7818608E-02  0.1337037E+00
          2   -1    0    0  501    0  0.00000000000E+00  0.00000000000E+00  0.18626120401E+02  0.18626120575E+02  0.25500000000E-02 0. -1.
         -1   -1    0    0    0  501 -0.00000000000E+00 -0.00000000000E+00 -0.80099900007E+02  0.80099900165E+02  0.50400000000E-02 0.  1.
         24    2    1    2    0    0  0.00000000000E+00  0.00000000000E+00 -0.61473779606E+02  0.98726020741E+02  0.77251547507E+02 0.  0.
         66    2    3    3    0    0 -0.24907886867E+01  0.38157800200E+02 -0.24028437243E+02  0.45206056493E+02  0.20000007171E+01 0.  0.
        -13    1    3    3    0    0  0.24907886867E+01 -0.38157800200E+02 -0.37445342363E+02  0.53519964248E+02  0.10566000000E+00 0.  1.
         13    1    4    4    0    0 -0.11227361992E+01  0.15414932016E+02 -0.92232007223E+01  0.17998868332E+02  0.10566000000E+00 0. -1.
        -13    1    4    4    0    0 -0.10561869505E+01  0.21778642316E+02 -0.13991245188E+02  0.25907352199E+02  0.10566000000E+00 0.  1.
        -14    1    4    4    0    0 -0.31186553699E+00  0.96422586806E+00 -0.81399133282E+00  0.12998359618E+01  0.00000000000E+00 0.  1.
<mgrwt>
<rscale>  0 0.77251548E+02</rscale>
<asrwt>0</asrwt>
<pdfrwt beam="1">  1        2 0.28655570E-02 0.77251548E+02</pdfrwt>
<pdfrwt beam="2">  1       -1 0.12323061E-01 0.77251548E+02</pdfrwt>
<totfact> 0.13531373E+05</totfact>
</mgrwt>
</event>
<event>
 8    1  0.2433467E-020  0.8286182E+02  0.7818608E-02  0.1321121E+00
         -1   -1    0    0    0  501 -0.00000000000E+00  0.00000000000E+00  0.27879535371E+01  0.27879580926E+01  0.50400000000E-02 0.  1.
          2   -1    0    0  501    0  0.00000000000E+00 -0.00000000000E+00 -0.61569142237E+03  0.61569142238E+03  0.25500000000E-02 0. -1.
         24    2    1    2    0    0  0.88817841970E-15  0.00000000000E+00 -0.61290346884E+03  0.61847938047E+03  0.82861824482E+02 0.  0.
         66    2    3    3    0    0 -0.57134224307E+01 -0.36824408185E+02 -0.44136146025E+03  0.44293635979E+03  0.20000002867E+01 0.  0.
        -13    1    3    3    0    0  0.57134224307E+01  0.36824408185E+02 -0.17154200859E+03  0.17554302068E+03  0.10566000000E+00 0.  1.
         13    1    4    4    0    0 -0.16356955852E+01 -0.94711110882E+01 -0.10573675716E+03  0.10617273861E+03  0.10566000000E+00 0. -1.
        -13    1    4    4    0    0 -0.66127580554E+00 -0.54889041077E+01 -0.71435490737E+02  0.71649186003E+02  0.10566000000E+00 0.  1.
         14    1    4    4    0    0 -0.34164510399E+01 -0.21864392989E+02 -0.26418921235E+03  0.26511443518E+03  0.00000000000E+00 0. -1.
<mgrwt>
<rscale>  0 0.82861824E+02</rscale>
<asrwt>0</asrwt>
<pdfrwt beam="1">  1        2 0.94721650E-01 0.82861824E+02</pdfrwt>
<pdfrwt beam="2">  1       -1 0.42891677E-03 0.82861824E+02</pdfrwt>
<totfact> 0.29557044E+05</totfact>
</mgrwt>
</event>
<event>
 8    1  0.2433467E-020  0.8109561E+02  0.7818608E-02  0.1325971E+00
         -1   -1    0    0    0  501 -0.00000000000E+00  0.00000000000E+00  0.11512122157E+03  0.11512122168E+03  0.50400000000E-02 0.  1.
          2   -1    0    0  501    0  0.00000000000E+00 -0.00000000000E+00 -0.14281680990E+02  0.14281681218E+02  0.25500000000E-02 0. -1.
         24    2    1    2    0    0  0.35527136788E-14 -0.35527136788E-14  0.10083954058E+03  0.12940290290E+03  0.81095612299E+02 0.  0.
         66    2    3    3    0    0  0.14868596771E+02 -0.19098261270E+02 -0.14105997465E+01  0.24327115419E+02  0.19999998699E+01 0.  0.
        -13    1    3    3    0    0 -0.14868596771E+02  0.19098261270E+02  0.10225014033E+03  0.10507578748E+03  0.10566000000E+00 0.  1.
         13    1    4    4    0    0  0.10321491735E+02 -0.12772944433E+02 -0.89482234242E+00  0.16446676631E+02  0.10566000000E+00 0. -1.
        -13    1    4    4    0    0  0.20127497088E+01 -0.27721716786E+01 -0.75466678832E+00  0.35095274899E+01  0.10566000000E+00 0.  1.
        -14    1    4    4    0    0  0.25343553274E+01 -0.35531451582E+01  0.23888938428E+00  0.43709112984E+01  0.00000000000E+00 0.  1.
<mgrwt>
<rscale>  0 0.81095612E+02</rscale>
<asrwt>0</asrwt>
<pdfrwt beam="1">  1        2 0.21971818E-02 0.81095612E+02</pdfrwt>
<pdfrwt beam="2">  1       -1 0.17710956E-01 0.81095612E+02</pdfrwt>
<totfact> 0.11107077E+05</totfact>
</mgrwt>
</event>
<event>
 8    1  0.2433467E-020  0.7958776E+02  0.7818608E-02  0.1330225E+00
          2   -1    0    0  501    0  0.00000000000E+00  0.00000000000E+00  0.10761729858E+04  0.10761729858E+04  0.25500000000E-02 0. -1.
         -1   -1    0    0    0  501 -0.00000000000E+00 -0.00000000000E+00 -0.14714625198E+01  0.14714711512E+01  0.50400000000E-02 0.  1.
         24    2    1    2    0    0  0.00000000000E+00  0.00000000000E+00  0.10747015232E+04  0.10776444569E+04  0.79587759506E+02 0.  0.
         66    2    3    3    0    0 -0.19237401977E+01  0.26846132999E+02  0.93410694687E+03  0.93449676500E+03  0.19999899332E+01 0.  0.
        -13    1    3    3    0    0  0.19237401977E+01 -0.26846132999E+02  0.14059457636E+03  0.14314769191E+03  0.10566000000E+00 0.  1.
         13    1    4    4    0    0 -0.13534854364E+01  0.15294194709E+02  0.53970924765E+03  0.53992761319E+03  0.10566000000E+00 0. -1.
        -13    1    4    4    0    0 -0.84442513105E+00  0.49309095011E+01  0.16900119356E+03  0.16907525399E+03  0.10566000000E+00 0.  1.
        -14    1    4    4    0    0  0.27417036979E+00  0.66210287892E+01  0.22539650566E+03  0.22549389782E+03  0.00000000000E+00 0.  1.
<mgrwt>
<rscale>  0 0.79587760E+02</rscale>
<asrwt>0</asrwt>
<pdfrwt beam="1">  1        2 0.16556478E+00 0.79587760E+02</pdfrwt>
<pdfrwt beam="2">  1       -1 0.22637992E-03 0.79587760E+02</pdfrwt>
<totfact> 0.35745430E+05</totfact>
</mgrwt>
</event>
<event>
 8    1  0.2433467E-020  0.7944301E+02  0.7818608E-02  0.1330640E+00
          2   -1    0    0  501    0  0.00000000000E+00  0.00000000000E+00  0.11850864087E+04  0.11850864087E+04  0.25500000000E-02 0. -1.
         -1   -1    0    0    0  501 -0.00000000000E+00 -0.00000000000E+00 -0.13313730623E+01  0.13313826019E+01  0.50400000000E-02 0.  1.
         24    2    1    2    0    0  0.00000000000E+00  0.00000000000E+00  0.11837550356E+04  0.11864177913E+04  0.79443005524E+02 0.  0.
         66    2    3    3    0    0 -0.20427626337E+02 -0.92688585820E+01  0.10813536672E+04  0.10815881625E+04  0.19999994728E+01 0.  0.
        -13    1    3    3    0    0  0.20427626337E+02  0.92688585820E+01  0.10240136846E+03  0.10482962885E+03  0.10566000000E+00 0.  1.
         13    1    4    4    0    0 -0.67185274666E+01 -0.28115006312E+01  0.31533044606E+03  0.31541455979E+03  0.10566000000E+00 0. -1.
        -13    1    4    4    0    0 -0.15686340016E+01 -0.51017036135E+00  0.76179786092E+02  0.76197715579E+02  0.10566000000E+00 0.  1.
         14    1    4    4    0    0 -0.12140464869E+02 -0.59471875894E+01  0.68984343502E+03  0.68997588709E+03  0.00000000000E+00 0. -1.
<mgrwt>
<rscale>  0 0.79443006E+02</rscale>
<asrwt>0</asrwt>
<pdfrwt beam="1">  1        2 0.18232114E+00 0.79443006E+02</pdfrwt>
<pdfrwt beam="2">  1       -1 0.20482718E-03 0.79443006E+02</pdfrwt>
<totfact> 0.35725722E+05</totfact>
</mgrwt>
</event>
<event>
 8    1  0.2455293E-020  0.8139939E+02  0.7818608E-02  0.1325126E+00
          2   -1    0    0  501    0  0.00000000000E+00  0.00000000000E+00  0.70136040855E+02  0.70136040901E+02  0.25500000000E-02 0. -1.
         -1   -1    0    0    0  501 -0.00000000000E+00 -0.00000000000E+00 -0.23617888692E+02  0.23617889230E+02  0.50400000000E-02 0.  1.
         24    2    1    2    0    0  0.00000000000E+00  0.00000000000E+00  0.46518152162E+02  0.93753930131E+02  0.81399391487E+02 0.  0.
         66    2    3    3    0    0  0.16839055993E+02 -0.28171985698E+02  0.50945595546E+02  0.60635536392E+02  0.19999957824E+01 0.  0.
        -13    1    3    3    0    0 -0.16839055993E+02  0.28171985698E+02 -0.44274433834E+01  0.33118393739E+02  0.10566000000E+00 0.  1.
         13    1    4    4    0    0  0.75536039452E+01 -0.11302222889E+02  0.21304642870E+02  0.25272438478E+02  0.10566000000E+00 0. -1.
        -13    1    4    4    0    0  0.54962255018E+01 -0.92251177699E+01  0.17213856400E+02  0.20288896195E+02  0.10566000000E+00 0.  1.
        -14    1    4    4    0    0  0.37892265462E+01 -0.76446450388E+01  0.12427096276E+02  0.15074201718E+02  0.00000000000E+00 0.  1.
<mgrwt>
<rscale>  0 0.81399391E+02</rscale>
<asrwt>0</asrwt>
<pdfrwt beam="1">  1        2 0.10790160E-01 0.81399391E+02</pdfrwt>
<pdfrwt beam="2">  1       -1 0.36335215E-02 0.81399391E+02</pdfrwt>
<totfact> 0.15412634E+05</totfact>
</mgrwt>
</event>
<event>
 8    1  0.2433467E-020  0.7892697E+02  0.7818608E-02  0.1332124E+00
         -1   -1    0    0    0  501 -0.00000000000E+00  0.00000000000E+00  0.21345210770E+02  0.21345211365E+02  0.50400000000E-02 0.  1.
          2   -1    0    0  501    0  0.00000000000E+00 -0.00000000000E+00 -0.72960935704E+02  0.72960935749E+02  0.25500000000E-02 0. -1.
         24    2    1    2    0    0  0.00000000000E+00 -0.88817841970E-15 -0.51615724934E+02  0.94306147114E+02  0.78926968287E+02 0.  0.
         66    2    3    3    0    0  0.19905846361E+02 -0.74703530029E+01 -0.65512815794E+02  0.68905572480E+02  0.19999980506E+01 0.  0.
        -13    1    3    3    0    0 -0.19905846361E+02  0.74703530029E+01  0.13897090859E+02  0.25400574634E+02  0.10566000000E+00 0.  1.
         13    1    4    4    0    0  0.77780548366E+01 -0.24280496699E+01 -0.26375301490E+02  0.27605456978E+02  0.10566000000E+00 0. -1.
        -13    1    4    4    0    0  0.12126673275E+02 -0.50093771229E+01 -0.39122019405E+02  0.41263708392E+02  0.10566000000E+00 0.  1.
        -14    1    4    4    0    0  0.11182502822E-02 -0.32926210059E-01 -0.15494898805E-01  0.36407110316E-01  0.00000000000E+00 0.  1.
<mgrwt>
<rscale>  0 0.78926968E+02</rscale>
<asrwt>0</asrwt>
<pdfrwt beam="1">  1        2 0.11224759E-01 0.78926968E+02</pdfrwt>
<pdfrwt beam="2">  1       -1 0.32838787E-02 0.78926968E+02</pdfrwt>
<totfact> 0.16917927E+05</totfact>
</mgrwt>
</event>
<event>
 8    1  0.2433467E-020  0.8511573E+02  0.7818608E-02  0.1315130E+00
         -1   -1    0    0    0  501 -0.00000000000E+00  0.00000000000E+00  0.47941820593E+01  0.47941847085E+01  0.50400000000E-02 0.  1.
          2   -1    0    0  501    0  0.00000000000E+00 -0.00000000000E+00 -0.37778530859E+03  0.37778530860E+03  0.25500000000E-02 0. -1.
         24    2    1    2    0    0  0.27755575616E-16  0.00000000000E+00 -0.37299112653E+03  0.38257949331E+03  0.85115734318E+02 0.  0.
         66    2    3    3    0    0 -0.15604361991E+00 -0.15090515682E+02 -0.36534382690E+03  0.36566085362E+03  0.20000016733E+01 0.  0.
        -13    1    3    3    0    0  0.15604361991E+00  0.15090515682E+02 -0.76472996381E+01  0.16918639689E+02  0.10566000000E+00 0.  1.
         13    1    4    4    0    0 -0.16720309192E+00 -0.19125405966E+01 -0.50854819130E+02  0.50891154056E+02  0.10566000000E+00 0. -1.
        -13    1    4    4    0    0 -0.83645927729E+00 -0.61422947994E+01 -0.14305397781E+03  0.14318826482E+03  0.10566000000E+00 0.  1.
         14    1    4    4    0    0  0.84761874930E+00 -0.70356802857E+01 -0.17143502995E+03  0.17158143475E+03  0.00000000000E+00 0. -1.
<mgrwt>
<rscale>  0 0.85115734E+02</rscale>
<asrwt>0</asrwt>
<pdfrwt beam="1">  1        2 0.58120794E-01 0.85115734E+02</pdfrwt>
<pdfrwt beam="2">  1       -1 0.73756697E-03 0.85115734E+02</pdfrwt>
<totfact> 0.23537118E+05</totfact>
</mgrwt>
</event>
<event>
 8    1  0.2433467E-020  0.8485833E+02  0.7818608E-02  0.1315803E+00
         -1   -1    0    0    0  501 -0.00000000000E+00  0.00000000000E+00  0.11391848506E+02  0.11391849621E+02  0.50400000000E-02 0.  1.
          2   -1    0    0  501    0  0.00000000000E+00 -0.00000000000E+00 -0.15802825020E+03  0.15802825022E+03  0.25500000000E-02 0. -1.
         24    2    1    2    0    0  0.00000000000E+00  0.11102230246E-15 -0.14663640170E+03  0.16942009984E+03  0.84858328575E+02 0.  0.
         66    2    3    3    0    0 -0.21776757302E+02 -0.91550900734E+00 -0.14598232479E+03  0.14761403885E+03  0.19999997187E+01 0.  0.
        -13    1    3    3    0    0  0.21776757302E+02  0.91550900734E+00 -0.65407690323E+00  0.21806060991E+02  0.10566000000E+00 0.  1.
         13    1    4    4    0    0 -0.31719790530E+01  0.20301069326E+00 -0.22064405802E+02  0.22292416466E+02  0.10566000000E+00 0. -1.
        -13    1    4    4    0    0 -0.10083760627E+02 -0.11538023271E+01 -0.63622026756E+02  0.64426601189E+02  0.10566000000E+00 0.  1.
        -14    1    4    4    0    0 -0.85210176216E+01  0.35282626529E-01 -0.60295892236E+02  0.60895021198E+02  0.00000000000E+00 0.  1.
<mgrwt>
<rscale>  0 0.84858329E+02</rscale>
<asrwt>0</asrwt>
<pdfrwt beam="1">  1        2 0.24312037E-01 0.84858329E+02</pdfrwt>
<pdfrwt beam="2">  1       -1 0.17525923E-02 0.84858329E+02</pdfrwt>
<totfact> 0.17415964E+05</totfact>
</mgrwt>
</event>
<event>
 8    1  0.2433467E-020  0.8099460E+02  0.7818608E-02  0.1326252E+00
         -1   -1    0    0    0  501 -0.00000000000E+00  0.00000000000E+00  0.19540811635E+03  0.19540811641E+03  0.50400000000E-02 0.  1.
          2   -1    0    0  501    0  0.00000000000E+00 -0.00000000000E+00 -0.83928517208E+01  0.83928521082E+01  0.25500000000E-02 0. -1.
         24    2    1    2    0    0 -0.88817841970E-15  0.14210854715E-13  0.18701526463E+03  0.20380096852E+03  0.80994602083E+02 0.  0.
         66    2    3    3    0    0  0.60892066185E+01 -0.37527448429E+02  0.12848831500E+03  0.13400983141E+03  0.19999998694E+01 0.  0.
        -13    1    3    3    0    0 -0.60892066185E+01  0.37527448429E+02  0.58526949624E+02  0.69791137111E+02  0.10566000000E+00 0.  1.
         13    1    4    4    0    0  0.21438982283E+01 -0.87906505919E+01  0.31481429734E+02  0.32756120337E+02  0.10566000000E+00 0. -1.
        -13    1    4    4    0    0  0.88608352273E+00 -0.45009433516E+01  0.15455166494E+02  0.16121940654E+02  0.10566000000E+00 0.  1.
        -14    1    4    4    0    0  0.30592248676E+01 -0.24235854486E+02  0.81551718774E+02  0.85131770418E+02  0.00000000000E+00 0.  1.
<mgrwt>
<rscale>  0 0.80994602E+02</rscale>
<asrwt>0</asrwt>
<pdfrwt beam="1">  1        2 0.12912081E-02 0.80994602E+02</pdfrwt>
<pdfrwt beam="2">  1       -1 0.30062784E-01 0.80994602E+02</pdfrwt>
<totfact> 0.97196641E+04</totfact>
</mgrwt>
</event>
<event>
 8    1  0.2433467E-020  0.7932657E+02  0.7818608E-02  0.1330973E+00
          2   -1    0    0  501    0  0.00000000000E+00  0.00000000000E+00  0.39836602750E+02  0.39836602832E+02  0.25500000000E-02 0. -1.
         -1   -1    0    0    0  501 -0.00000000000E+00 -0.00000000000E+00 -0.39490718958E+02  0.39490719279E+02  0.50400000000E-02 0.  1.
         24    2    1    2    0    0  0.44408920985E-15 -0.35527136788E-14  0.34588379239E+00  0.79327322111E+02  0.79326568044E+02 0.  0.
         66    2    3    3    0    0  0.22733173818E+01 -0.26350509974E+02  0.29697115983E+02  0.39817534172E+02  0.19999955011E+01 0.  0.
        -13    1    3    3    0    0 -0.22733173818E+01  0.26350509974E+02 -0.29351232191E+02  0.39509787939E+02  0.10566000000E+00 0.  1.
         13    1    4    4    0    0  0.88696092128E+00 -0.91282533368E+01  0.10098782934E+02  0.13642151202E+02  0.10566000000E+00 0. -1.
        -13    1    4    4    0    0  0.11737830373E+01 -0.16569668624E+02  0.19171750682E+02  0.25367279577E+02  0.10566000000E+00 0.  1.
        -14    1    4    4    0    0  0.21257342321E+00 -0.65258801363E+00  0.42658236782E+00  0.80810339210E+00  0.00000000000E+00 0.  1.
<mgrwt>
<rscale>  0 0.79326568E+02</rscale>
<asrwt>0</asrwt>
<pdfrwt beam="1">  1        2 0.61287081E-02 0.79326568E+02</pdfrwt>
<pdfrwt beam="2">  1       -1 0.60754953E-02 0.79326568E+02</pdfrwt>
<totfact> 0.14579881E+05</totfact>
</mgrwt>
</event>
<event>
 8    1  0.2915245E-020  0.7947755E+02  0.7818608E-02  0.1330541E+00
          2   -1    0    0  501    0  0.00000000000E+00  0.00000000000E+00  0.21280670397E+03  0.21280670398E+03  0.25500000000E-02 0. -1.
         -1   -1    0    0    0  501 -0.00000000000E+00 -0.00000000000E+00 -0.74206787400E+01  0.74206804515E+01  0.50400000000E-02 0.  1.
         24    2    1    2    0    0  0.00000000000E+00  0.00000000000E+00  0.20538602523E+03  0.22022738443E+03  0.79477553410E+02 0.  0.
         66    2    3    3    0    0 -0.20937094160E+02 -0.31115325798E+02  0.13895441791E+03  0.14394045878E+03  0.20000012241E+01 0.  0.
        -13    1    3    3    0    0  0.20937094160E+02  0.31115325798E+02  0.66431607316E+02  0.76286925656E+02  0.10566000000E+00 0.  1.
         13    1    4    4    0    0 -0.83693376782E+01 -0.12450535600E+02  0.55916279362E+02  0.57893895288E+02  0.10566000000E+00 0. -1.
        -13    1    4    4    0    0 -0.11746494942E+02 -0.17420030833E+02  0.75907144433E+02  0.78761306221E+02  0.10566000000E+00 0.  1.
        -14    1    4    4    0    0 -0.82126153942E+00 -0.12447593656E+01  0.71309941148E+01  0.72852572679E+01  0.00000000000E+00 0.  1.
<mgrwt>
<rscale>  0 0.79477553E+02</rscale>
<asrwt>0</asrwt>
<pdfrwt beam="1">  1        2 0.32739487E-01 0.79477553E+02</pdfrwt>
<pdfrwt beam="2">  1       -1 0.11416432E-02 0.79477553E+02</pdfrwt>
<totfact> 0.22934448E+05</totfact>
</mgrwt>
</event>
<event>
 8    1  0.2433467E-020  0.7776978E+02  0.7818608E-02  0.1335502E+00
          2   -1    0    0  501    0  0.00000000000E+00  0.00000000000E+00  0.32870185110E+02  0.32870185209E+02  0.25500000000E-02 0. -1.
         -1   -1    0    0    0  501 -0.00000000000E+00 -0.00000000000E+00 -0.46000185578E+02  0.46000185854E+02  0.50400000000E-02 0.  1.
         24    2    1    2    0    0  0.00000000000E+00  0.00000000000E+00 -0.13130000468E+02  0.78870371063E+02  0.77769778959E+02 0.  0.
         66    2    3    3    0    0  0.25762720158E+02  0.19041322402E+02  0.15736018697E+02  0.35747895076E+02  0.20000022928E+01 0.  0.
        -13    1    3    3    0    0 -0.25762720158E+02 -0.19041322402E+02 -0.28866019166E+02  0.43122475987E+02  0.10566000000E+00 0.  1.
         13    1    4    4    0    0  0.10902837314E+02  0.87839419837E+01  0.60294480056E+01  0.15244504110E+02  0.10566000000E+00 0. -1.
        -13    1    4    4    0    0  0.63673008509E+01  0.42697974142E+01  0.42715921859E+01  0.87767507611E+01  0.10566000000E+00 0.  1.
         14    1    4    4    0    0  0.84925819932E+01  0.59875830037E+01  0.54349785059E+01  0.11726640205E+02  0.00000000000E+00 0. -1.
<mgrwt>
<rscale>  0 0.77769779E+02</rscale>
<asrwt>0</asrwt>
<pdfrwt beam="1">  1        2 0.50569516E-02 0.77769779E+02</pdfrwt>
<pdfrwt beam="2">  1       -1 0.70769517E-02 0.77769779E+02</pdfrwt>
<totfact> 0.14822855E+05</totfact>
</mgrwt>
</event>
<event>
 8    1  0.2433467E-020  0.7639591E+02  0.7818608E-02  0.1339602E+00
         -1   -1    0    0    0  501 -0.00000000000E+00  0.00000000000E+00  0.24325023920E+01  0.24325076133E+01  0.50400000000E-02 0.  1.
          2   -1    0    0  501    0  0.00000000000E+00 -0.00000000000E+00 -0.59982768080E+03  0.59982768081E+03  0.25500000000E-02 0. -1.
         24    2    1    2    0    0  0.00000000000E+00  0.00000000000E+00 -0.59739517841E+03  0.60226018842E+03  0.76395911992E+02 0.  0.
         66    2    3    3    0    0  0.19357250676E+02  0.15414485203E+02 -0.52803235440E+03  0.52861562293E+03  0.20000008609E+01 0.  0.
        -13    1    3    3    0    0 -0.19357250676E+02 -0.15414485203E+02 -0.69362824010E+02  0.73644565491E+02  0.10566000000E+00 0.  1.
         13    1    4    4    0    0  0.44959858481E+01  0.31393759548E+01 -0.11064160791E+03  0.11077746222E+03  0.10566000000E+00 0. -1.
        -13    1    4    4    0    0  0.87664445225E+01  0.66730986999E+01 -0.25067449095E+03  0.25091650479E+03  0.10566000000E+00 0.  1.
        -14    1    4    4    0    0  0.60948203054E+01  0.56020105481E+01 -0.16671625554E+03  0.16692165593E+03  0.00000000000E+00 0.  1.
<mgrwt>
<rscale>  0 0.76395912E+02</rscale>
<asrwt>0</asrwt>
<pdfrwt beam="1">  1        2 0.92281064E-01 0.76395912E+02</pdfrwt>
<pdfrwt beam="2">  1       -1 0.37423202E-03 0.76395912E+02</pdfrwt>
<totfact> 0.36249687E+05</totfact>
</mgrwt>
</event>
<event>
 8    1  0.2433467E-020  0.7926286E+02  0.7818608E-02  0.1331156E+00
         -1   -1    0    0    0  501 -0.00000000000E+00  0.00000000000E+00  0.48351242612E+01  0.48351268879E+01  0.50400000000E-02 0.  1.
          2   -1    0    0  501    0  0.00000000000E+00 -0.00000000000E+00 -0.32484169141E+03  0.32484169142E+03  0.25500000000E-02 0. -1.
         24    2    1    2    0    0  0.00000000000E+00  0.00000000000E+00 -0.32000656715E+03  0.32967681831E+03  0.79262863381E+02 0.  0.
         66    2    3    3    0    0  0.16895327901E+02 -0.33659546681E+02 -0.21108423747E+03  0.21442707968E+03  0.20000008288E+01 0.  0.
        -13    1    3    3    0    0 -0.16895327901E+02  0.33659546681E+02 -0.10892232968E+03  0.11524973863E+03  0.10566000000E+00 0.  1.
         13    1    4    4    0    0  0.51120073525E+01 -0.11071834812E+02 -0.66945045825E+02  0.68046810871E+02  0.10566000000E+00 0. -1.
        -13    1    4    4    0    0  0.36538899801E+01 -0.84682868360E+01 -0.51871457720E+02  0.52685122036E+02  0.10566000000E+00 0.  1.
         14    1    4    4    0    0  0.81294305683E+01 -0.14119425033E+02 -0.92267733926E+02  0.93695146772E+02  0.00000000000E+00 0. -1.
<mgrwt>
<rscale>  0 0.79262863E+02</rscale>
<asrwt>0</asrwt>
<pdfrwt beam="1">  1        2 0.49975628E-01 0.79262863E+02</pdfrwt>
<pdfrwt beam="2">  1       -1 0.74386573E-03 0.79262863E+02</pdfrwt>
<totfact> 0.26881475E+05</totfact>
</mgrwt>
</event>
<event>
 8    1  0.2433467E-020  0.7987363E+02  0.7818608E-02  0.1329410E+00
          2   -1    0    0  501    0  0.00000000000E+00  0.00000000000E+00  0.48036367323E+02  0.48036367390E+02  0.25500000000E-02 0. -1.
         -1   -1    0    0    0  501 -0.00000000000E+00 -0.00000000000E+00 -0.33202954962E+02  0.33202955344E+02  0.50400000000E-02 0.  1.
         24    2    1    2    0    0  0.00000000000E+00  0.71054273576E-14  0.14833412361E+02  0.81239322735E+02  0.79873634174E+02 0.  0.
         66    2    3    3    0    0 -0.19902143257E+02 -0.32599174657E+02  0.19201381162E+02  0.42795964270E+02  0.20000061904E+01 0.  0.
        -13    1    3    3    0    0  0.19902143257E+02  0.32599174657E+02 -0.43679688009E+01  0.38443358465E+02  0.10566000000E+00 0.  1.
         13    1    4    4    0    0 -0.12885769623E+01 -0.13738034199E+01  0.10059906636E+01  0.21379774730E+01  0.10566000000E+00 0.  1.
        -13    1    4    4    0    0 -0.71646049816E+01 -0.12401886221E+02  0.68591382165E+01  0.15880720623E+02  0.10566000000E+00 0.  1.
         14    1    4    4    0    0 -0.11448961313E+02 -0.18823485016E+02  0.11336252282E+02  0.24777266175E+02  0.00000000000E+00 0. -1.
<mgrwt>
<rscale>  0 0.79873634E+02</rscale>
<asrwt>0</asrwt>
<pdfrwt beam="1">  1        2 0.73902103E-02 0.79873634E+02</pdfrwt>
<pdfrwt beam="2">  1       -1 0.51081470E-02 0.79873634E+02</pdfrwt>
<totfact> 0.14878390E+05</totfact>
</mgrwt>
</event>
<event>
 8    1  0.2433467E-020  0.8062647E+02  0.7818608E-02  0.1327283E+00
         -1   -1    0    0    0  501 -0.00000000000E+00  0.00000000000E+00  0.73241265842E+02  0.73241266015E+02  0.50400000000E-02 0.  1.
          2   -1    0    0  501    0  0.00000000000E+00 -0.00000000000E+00 -0.22189087064E+02  0.22189087210E+02  0.25500000000E-02 0. -1.
         24    2    1    2    0    0  0.00000000000E+00  0.00000000000E+00  0.51052178778E+02  0.95430353226E+02  0.80626468103E+02 0.  0.
         66    2    3    3    0    0  0.19387085796E+02 -0.22114138958E+02 -0.70507189288E+01  0.30308527978E+02  0.19999983249E+01 0.  0.
        -13    1    3    3    0    0 -0.19387085796E+02  0.22114138958E+02  0.58102897707E+02  0.65121825247E+02  0.10566000000E+00 0.  1.
         13    1    4    4    0    0  0.15828024929E+02 -0.18272742227E+02 -0.57168637618E+01  0.24841762759E+02  0.10566000000E+00 0. -1.
        -13    1    4    4    0    0  0.43119971547E+00 -0.83489764015E+00 -0.41177942294E+00  0.10313649174E+01  0.10566000000E+00 0.  1.
        -14    1    4    4    0    0  0.31278611509E+01 -0.30064990910E+01 -0.92207574413E+00  0.44354003022E+01  0.00000000000E+00 0.  1.
<mgrwt>
<rscale>  0 0.80626468E+02</rscale>
<asrwt>0</asrwt>
<pdfrwt beam="1">  1        2 0.34137058E-02 0.80626468E+02</pdfrwt>
<pdfrwt beam="2">  1       -1 0.11267887E-01 0.80626468E+02</pdfrwt>
<totfact> 0.12398040E+05</totfact>
</mgrwt>
</event>
<event>
 8    1  0.2433467E-020  0.8198585E+02  0.7818608E-02  0.1323509E+00
          2   -1    0    0  501    0  0.00000000000E+00  0.00000000000E+00  0.92881779135E+03  0.92881779136E+03  0.25500000000E-02 0. -1.
         -1   -1    0    0    0  501 -0.00000000000E+00 -0.00000000000E+00 -0.18091993904E+01  0.18092064105E+01  0.50400000000E-02 0.  1.
         24    2    1    2    0    0 -0.88817841970E-15  0.00000000000E+00  0.92700859196E+03  0.93062699777E+03  0.81985848782E+02 0.  0.
         66    2    3    3    0    0 -0.51159213528E+01  0.13488386802E+02  0.89903113709E+03  0.89914909480E+03  0.19999999009E+01 0.  0.
        -13    1    3    3    0    0  0.51159213528E+01 -0.13488386802E+02  0.27977454878E+02  0.31477902968E+02  0.10566000000E+00 0.  1.
         13    1    4    4    0    0 -0.12705234917E+01  0.45237670237E+01  0.25632009478E+03  0.25636318154E+03  0.10566000000E+00 0. -1.
        -13    1    4    4    0    0 -0.27511829904E+01  0.63215212812E+01  0.48369753128E+03  0.48374667293E+03  0.10566000000E+00 0.  1.
        -14    1    4    4    0    0 -0.10942148707E+01  0.26430984970E+01  0.15901351102E+03  0.15903924033E+03  0.00000000000E+00 0.  1.
<mgrwt>
<rscale>  0 0.81985849E+02</rscale>
<asrwt>0</asrwt>
<pdfrwt beam="1">  1        2 0.14289498E+00 0.81985849E+02</pdfrwt>
<pdfrwt beam="2">  1       -1 0.27833903E-03 0.81985849E+02</pdfrwt>
<totfact> 0.32892520E+05</totfact>
</mgrwt>
</event>
<event>
 8    1  0.2433467E-020  0.7947328E+02  0.7818608E-02  0.1330553E+00
          2   -1    0    0  501    0  0.00000000000E+00  0.00000000000E+00  0.40068192237E+03  0.40068192238E+03  0.25500000000E-02 0. -1.
         -1   -1    0    0    0  501 -0.00000000000E+00 -0.00000000000E+00 -0.39407819695E+01  0.39407851924E+01  0.50400000000E-02 0.  1.
         24    2    1    2    0    0  0.00000000000E+00  0.71054273576E-14  0.39674114040E+03  0.40462270757E+03  0.79473284791E+02 0.  0.
         66    2    3    3    0    0  0.17094464369E+02  0.35842265678E+02  0.20016170569E+03  0.20407252922E+03  0.20000091952E+01 0.  0.
        -13    1    3    3    0    0 -0.17094464369E+02 -0.35842265678E+02  0.19657943471E+03  0.20055017835E+03  0.10566000000E+00 0.  1.
         13    1    4    4    0    0  0.14180635417E+02  0.28627772670E+02  0.15854524269E+03  0.16173201580E+03  0.10566000000E+00 0. -1.
        -13    1    4    4    0    0  0.22244446717E+01  0.50293540136E+01  0.30064178506E+02  0.30563189447E+02  0.10566000000E+00 0.  1.
         14    1    4    4    0    0  0.68938427997E+00  0.21851389952E+01  0.11552284489E+02  0.11777323975E+02  0.00000000000E+00 0. -1.
<mgrwt>
<rscale>  0 0.79473285E+02</rscale>
<asrwt>0</asrwt>
<pdfrwt beam="1">  1        2 0.61643380E-01 0.79473285E+02</pdfrwt>
<pdfrwt beam="2">  1       -1 0.60627433E-03 0.79473285E+02</pdfrwt>
<totfact> 0.28762321E+05</totfact>
</mgrwt>
</event>
<event>
 8    1  0.2433467E-020  0.8108155E+02  0.7818608E-02  0.1326010E+00
          2   -1    0    0  501    0  0.00000000000E+00  0.00000000000E+00  0.43735987730E+02  0.43735987804E+02  0.25500000000E-02 0. -1.
         -1   -1    0    0    0  501 -0.00000000000E+00 -0.00000000000E+00 -0.37578992713E+02  0.37578993051E+02  0.50400000000E-02 0.  1.
         24    2    1    2    0    0  0.35527136788E-14  0.00000000000E+00  0.61569950166E+01  0.81314980856E+02  0.81081548603E+02 0.  0.
         66    2    3    3    0    0  0.24006560310E+02 -0.17681761120E+02  0.30592715626E+02  0.42765334684E+02  0.19999967551E+01 0.  0.
        -13    1    3    3    0    0 -0.24006560310E+02  0.17681761120E+02 -0.24435720610E+02  0.38549646172E+02  0.10566000000E+00 0.  1.
         13    1    4    4    0    0  0.15001381709E+02 -0.10558929808E+02  0.19876506490E+02  0.27048458850E+02  0.10566000000E+00 0. -1.
        -13    1    4    4    0    0  0.68852647681E+01 -0.51312517999E+01  0.79262460924E+01  0.11686451862E+02  0.10566000000E+00 0.  1.
         14    1    4    4    0    0  0.21199138328E+01 -0.19915795123E+01  0.27899630440E+01  0.40304239726E+01  0.00000000000E+00 0. -1.
<mgrwt>
<rscale>  0 0.81081549E+02</rscale>
<asrwt>0</asrwt>
<pdfrwt beam="1">  1        2 0.67286135E-02 0.81081549E+02</pdfrwt>
<pdfrwt beam="2">  1       -1 0.57813835E-02 0.81081549E+02</pdfrwt>
<totfact> 0.13994130E+05</totfact>
</mgrwt>
</event>
<event>
 8    1  0.2433467E-020  0.8078682E+02  0.7818608E-02  0.1326833E+00
          2   -1    0    0  501    0  0.00000000000E+00  0.00000000000E+00  0.73240063312E+03  0.73240063312E+03  0.25500000000E-02 0. -1.
         -1   -1    0    0    0  501 -0.00000000000E+00 -0.00000000000E+00 -0.22277773315E+01  0.22277830326E+01  0.50400000000E-02 0.  1.
         24    2    1    2    0    0  0.00000000000E+00  0.00000000000E+00  0.73017285579E+03  0.73462841616E+03  0.80786821296E+02 0.  0.
         66    2    3    3    0    0  0.24347895595E+02 -0.12809101682E+02  0.63394731009E+03  0.63454714961E+03  0.19999986813E+01 0.  0.
        -13    1    3    3    0    0 -0.24347895595E+02  0.12809101682E+02  0.96225545695E+02  0.10008126655E+03  0.10566000000E+00 0.  1.
         13    1    4    4    0    0  0.49423395413E+01 -0.29987453454E+01  0.12760347950E+03  0.12773440546E+03  0.10566000000E+00 0. -1.
        -13    1    4    4    0    0  0.91462217696E+01 -0.49312229677E+01  0.25811281715E+03  0.25832190746E+03  0.10566000000E+00 0.  1.
        -14    1    4    4    0    0  0.10259334284E+02 -0.48791333685E+01  0.24823101345E+03  0.24849083669E+03  0.00000000000E+00 0.  1.
<mgrwt>
<rscale>  0 0.80786821E+02</rscale>
<asrwt>0</asrwt>
<pdfrwt beam="1">  1        2 0.11267701E+00 0.80786821E+02</pdfrwt>
<pdfrwt beam="2">  1       -1 0.34273544E-03 0.80786821E+02</pdfrwt>
<totfact> 0.32937734E+05</totfact>
</mgrwt>
</event>
<event>
 8    1  0.2433467E-020  0.8005079E+02  0.7818608E-02  0.1328907E+00
          2   -1    0    0  501    0  0.00000000000E+00  0.00000000000E+00  0.10421875037E+04  0.10421875037E+04  0.25500000000E-02 0. -1.
         -1   -1    0    0    0  501 -0.00000000000E+00 -0.00000000000E+00 -0.15371781537E+01  0.15371864161E+01  0.50400000000E-02 0.  1.
         24    2    1    2    0    0  0.17763568394E-14 -0.35527136788E-14  0.10406503255E+04  0.10437246901E+04  0.80050788283E+02 0.  0.
         66    2    3    3    0    0  0.84653790245E+01 -0.24709549313E+02  0.91564715955E+03  0.91602180392E+03  0.20000006905E+01 0.  0.
        -13    1    3    3    0    0 -0.84653790245E+01  0.24709549313E+02  0.12500316595E+03  0.12770288615E+03  0.10566000000E+00 0.  1.
         13    1    4    4    0    0  0.24787710381E+01 -0.87554756007E+01  0.31791124051E+03  0.31804146061E+03  0.10566000000E+00 0. -1.
        -13    1    4    4    0    0  0.17795566510E+01 -0.46814915703E+01  0.15479901508E+03  0.15488004848E+03  0.10566000000E+00 0.  1.
        -14    1    4    4    0    0  0.42070513353E+01 -0.11272582142E+02  0.44293690396E+03  0.44310029483E+03  0.00000000000E+00 0.  1.
<mgrwt>
<rscale>  0 0.80050788E+02</rscale>
<asrwt>0</asrwt>
<pdfrwt beam="1">  1        2 0.16033666E+00 0.80050788E+02</pdfrwt>
<pdfrwt beam="2">  1       -1 0.23648941E-03 0.80050788E+02</pdfrwt>
<totfact> 0.35212295E+05</totfact>
</mgrwt>
</event>
<event>
 8    1  0.2433467E-020  0.8129613E+02  0.7818608E-02  0.1325413E+00
         -1   -1    0    0    0  501 -0.00000000000E+00  0.00000000000E+00  0.66691328705E+01  0.66691347749E+01  0.50400000000E-02 0.  1.
          2   -1    0    0  501    0  0.00000000000E+00 -0.00000000000E+00 -0.24774809058E+03  0.24774809060E+03  0.25500000000E-02 0. -1.
         24    2    1    2    0    0  0.00000000000E+00  0.00000000000E+00 -0.24107895771E+03  0.25441722537E+03  0.81296129759E+02 0.  0.
         66    2    3    3    0    0  0.93057638534E+01  0.16205866283E+02 -0.23349320970E+03  0.23424838604E+03  0.20000110962E+01 0.  0.
        -13    1    3    3    0    0 -0.93057638534E+01 -0.16205866283E+02 -0.75857480105E+01  0.20168839327E+02  0.10566000000E+00 0.  1.
         13    1    4    4    0    0  0.50604936015E+01  0.97056923353E+01 -0.13109919943E+03  0.13155538877E+03  0.10566000000E+00 0. -1.
        -13    1    4    4    0    0  0.15212597523E+01  0.19135910190E+01 -0.27093571748E+02  0.27203838993E+02  0.10566000000E+00 0.  1.
         14    1    4    4    0    0  0.27240104995E+01  0.45865829290E+01 -0.75300438527E+02  0.75489158285E+02  0.00000000000E+00 0. -1.
<mgrwt>
<rscale>  0 0.81296130E+02</rscale>
<asrwt>0</asrwt>
<pdfrwt beam="1">  1        2 0.38115084E-01 0.81296130E+02</pdfrwt>
<pdfrwt beam="2">  1       -1 0.10260208E-02 0.81296130E+02</pdfrwt>
<totfact> 0.22805949E+05</totfact>
</mgrwt>
</event>
<event>
 8    1  0.2433467E-020  0.8195118E+02  0.7818608E-02  0.1323604E+00
          2   -1    0    0  501    0  0.00000000000E+00  0.00000000000E+00  0.28008779512E+03  0.28008779513E+03  0.25500000000E-02 0. -1.
         -1   -1    0    0    0  501 -0.00000000000E+00 -0.00000000000E+00 -0.59945447784E+01  0.59945468971E+01  0.50400000000E-02 0.  1.
         24    2    1    2    0    0  0.00000000000E+00  0.00000000000E+00  0.27409325034E+03  0.28608234203E+03  0.81951183871E+02 0.  0.
         66    2    3    3    0    0  0.38911134266E+02 -0.79780410186E+01  0.10234704647E+03  0.10980274815E+03  0.20000181449E+01 0.  0.
        -13    1    3    3    0    0 -0.38911134266E+02  0.79780410186E+01  0.17174620388E+03  0.17627959388E+03  0.10566000000E+00 0.  1.
         13    1    4    4    0    0  0.19622011334E+02 -0.38798779289E+01  0.49005201714E+02  0.52930121297E+02  0.10566000000E+00 0. -1.
        -13    1    4    4    0    0  0.10049980575E+02 -0.23844202158E+01  0.28128109060E+02  0.29964800227E+02  0.10566000000E+00 0.  1.
        -14    1    4    4    0    0  0.92391423580E+01 -0.17137428739E+01  0.25213735693E+02  0.26907826626E+02  0.00000000000E+00 0.  1.
<mgrwt>
<rscale>  0 0.81951184E+02</rscale>
<asrwt>0</asrwt>
<pdfrwt beam="1">  1        2 0.43090430E-01 0.81951184E+02</pdfrwt>
<pdfrwt beam="2">  1       -1 0.92223782E-03 0.81951184E+02</pdfrwt>
<totfact> 0.23342304E+05</totfact>
</mgrwt>
</event>
<event>
 8    1  0.2433467E-020  0.7996003E+02  0.7818608E-02  0.1329165E+00
         -1   -1    0    0    0  501 -0.00000000000E+00  0.00000000000E+00  0.69227431924E+02  0.69227432108E+02  0.50400000000E-02 0.  1.
          2   -1    0    0  501    0  0.00000000000E+00 -0.00000000000E+00 -0.23089136905E+02  0.23089137046E+02  0.25500000000E-02 0. -1.
         24    2    1    2    0    0  0.00000000000E+00  0.35527136788E-14  0.46138295020E+02  0.92316569153E+02  0.79960031722E+02 0.  0.
         66    2    3    3    0    0  0.18703694920E+01  0.19721622048E+02 -0.16976558853E+02  0.26165706713E+02  0.19999997595E+01 0.  0.
        -13    1    3    3    0    0 -0.18703694920E+01 -0.19721622048E+02  0.63114853872E+02  0.66150862441E+02  0.10566000000E+00 0.  1.
         13    1    4    4    0    0  0.21715220728E+01  0.14383072501E+02 -0.11982404597E+02  0.18846152568E+02  0.10566000000E+00 0. -1.
        -13    1    4    4    0    0 -0.70270817267E-01  0.15341654378E+01 -0.14728472536E+01  0.21305033786E+01  0.10566000000E+00 0. -1.
         14    1    4    4    0    0 -0.23088176359E+00  0.38043841100E+01 -0.35213070023E+01  0.51890507657E+01  0.00000000000E+00 0. -1.
<mgrwt>
<rscale>  0 0.79960032E+02</rscale>
<asrwt>0</asrwt>
<pdfrwt beam="1">  1        2 0.35521749E-02 0.79960032E+02</pdfrwt>
<pdfrwt beam="2">  1       -1 0.10650374E-01 0.79960032E+02</pdfrwt>
<totfact> 0.12795993E+05</totfact>
</mgrwt>
</event>
<event>
 8    1  0.2433467E-020  0.7973814E+02  0.7818608E-02  0.1329796E+00
         -1   -1    0    0    0  501 -0.00000000000E+00  0.00000000000E+00  0.37240722945E+02  0.37240723286E+02  0.50400000000E-02 0.  1.
          2   -1    0    0  501    0  0.00000000000E+00 -0.00000000000E+00 -0.42682912944E+02  0.42682913020E+02  0.25500000000E-02 0. -1.
         24    2    1    2    0    0  0.00000000000E+00  0.00000000000E+00 -0.54421899996E+01  0.79923636306E+02  0.79738135220E+02 0.  0.
         66    2    3    3    0    0  0.20524309063E+02 -0.59883044883E+01 -0.36422895216E+02  0.42281607762E+02  0.20000014606E+01 0.  0.
        -13    1    3    3    0    0 -0.20524309063E+02  0.59883044883E+01  0.30980705217E+02  0.37642028544E+02  0.10566000000E+00 0.  1.
         13    1    4    4    0    0  0.85476285104E+01 -0.31178336936E+01 -0.14287130202E+02  0.16938597744E+02  0.10566000000E+00 0. -1.
        -13    1    4    4    0    0  0.46148605448E+01 -0.88573625511E+00 -0.78399417057E+01  0.91409691251E+01  0.10566000000E+00 0.  1.
         14    1    4    4    0    0  0.73618200075E+01 -0.19847345396E+01 -0.14295823309E+02  0.16202040893E+02  0.00000000000E+00 0. -1.
<mgrwt>
<rscale>  0 0.79738135E+02</rscale>
<asrwt>0</asrwt>
<pdfrwt beam="1">  1        2 0.65666020E-02 0.79738135E+02</pdfrwt>
<pdfrwt beam="2">  1       -1 0.57293420E-02 0.79738135E+02</pdfrwt>
<totfact> 0.14579192E+05</totfact>
</mgrwt>
</event>
<event>
 8    1  0.2433467E-020  0.7905809E+02  0.7818608E-02  0.1331746E+00
          2   -1    0    0  501    0  0.00000000000E+00  0.00000000000E+00  0.81345658572E+02  0.81345658612E+02  0.25500000000E-02 0. -1.
         -1   -1    0    0    0  501 -0.00000000000E+00 -0.00000000000E+00 -0.19208713167E+02  0.19208713828E+02  0.50400000000E-02 0.  1.
         24    2    1    2    0    0  0.00000000000E+00 -0.35527136788E-14  0.62136945405E+02  0.10055437244E+03  0.79058091506E+02 0.  0.
         66    2    3    3    0    0  0.33072166822E+02  0.20195731535E+02  0.40850095925E+02  0.56341513277E+02  0.19999976704E+01 0.  0.
        -13    1    3    3    0    0 -0.33072166822E+02 -0.20195731535E+02  0.21286849481E+02  0.44212859163E+02  0.10566000000E+00 0.  1.
         13    1    4    4    0    0  0.18086263890E+02  0.11721383431E+02  0.22887192296E+02  0.31437851489E+02  0.10566000000E+00 0. -1.
        -13    1    4    4    0    0  0.38359987605E+00  0.30245224463E+00  0.35656078414E+00  0.61394287484E+00  0.10566000000E+00 0.  1.
        -14    1    4    4    0    0  0.14602303056E+02  0.81718958591E+01  0.17606342845E+02  0.24289718913E+02  0.00000000000E+00 0.  1.
<mgrwt>
<rscale>  0 0.79058092E+02</rscale>
<asrwt>0</asrwt>
<pdfrwt beam="1">  1        2 0.12514717E-01 0.79058092E+02</pdfrwt>
<pdfrwt beam="2">  1       -1 0.29551867E-02 0.79058092E+02</pdfrwt>
<totfact> 0.17310909E+05</totfact>
</mgrwt>
</event>
<event>
 8    1  0.2433467E-020  0.8444417E+02  0.7818608E-02  0.1316893E+00
          2   -1    0    0  501    0  0.00000000000E+00  0.00000000000E+00  0.15384444223E+04  0.15384444223E+04  0.25500000000E-02 0. -1.
         -1   -1    0    0    0  501 -0.00000000000E+00 -0.00000000000E+00 -0.11587654014E+01  0.11587763619E+01  0.50400000000E-02 0.  1.
         24    2    1    2    0    0  0.00000000000E+00 -0.17763568394E-14  0.15372856569E+04  0.15396031987E+04  0.84444173453E+02 0.  0.
         66    2    3    3    0    0 -0.19564294347E+02  0.13256790853E+02  0.14064689621E+04  0.14066689182E+04  0.19999998743E+01 0.  0.
        -13    1    3    3    0    0  0.19564294347E+02 -0.13256790853E+02  0.13081669482E+03  0.13293428047E+03  0.10566000000E+00 0.  1.
         13    1    4    4    0    0 -0.51965474708E+01  0.30645610857E+01  0.38624609455E+03  0.38629322070E+03  0.10566000000E+00 0. -1.
        -13    1    4    4    0    0 -0.79588617443E+01  0.57556114589E+01  0.53341491527E+03  0.53350534538E+03  0.10566000000E+00 0.  1.
        -14    1    4    4    0    0 -0.64088851316E+01  0.44366183081E+01  0.48680795226E+03  0.48687035212E+03  0.00000000000E+00 0.  1.
<mgrwt>
<rscale>  0 0.84444173E+02</rscale>
<asrwt>0</asrwt>
<pdfrwt beam="1">  1        2 0.23668388E+00 0.84444173E+02</pdfrwt>
<pdfrwt beam="2">  1       -1 0.17827235E-03 0.84444173E+02</pdfrwt>
<totfact> 0.28592646E+05</totfact>
</mgrwt>
</event>
<event>
 8    1  0.2433467E-020  0.8092509E+02  0.7818608E-02  0.1326446E+00
          2   -1    0    0  501    0  0.00000000000E+00  0.00000000000E+00  0.39322283143E+02  0.39322283226E+02  0.25500000000E-02 0. -1.
         -1   -1    0    0    0  501 -0.00000000000E+00 -0.00000000000E+00 -0.41635870417E+02  0.41635870722E+02  0.50400000000E-02 0.  1.
         24    2    1    2    0    0 -0.35527136788E-14  0.00000000000E+00 -0.23135872732E+01  0.80958153948E+02  0.80925088845E+02 0.  0.
         66    2    3    3    0    0  0.19542880231E+02  0.14363094360E+02  0.31212945561E+02  0.39578663675E+02  0.20000000859E+01 0.  0.
        -13    1    3    3    0    0 -0.19542880231E+02 -0.14363094360E+02 -0.33526532835E+02  0.41379490273E+02  0.10566000000E+00 0.  1.
         13    1    4    4    0    0  0.37057055626E+01  0.29229835413E+01  0.66689313243E+01  0.81707952822E+01  0.10566000000E+00 0. -1.
        -13    1    4    4    0    0  0.21103837507E+00  0.41721367790E-01  0.46030622387E+00  0.51896408702E+00  0.10566000000E+00 0.  1.
         14    1    4    4    0    0  0.15626136293E+02  0.11398389451E+02  0.24083708013E+02  0.30888904306E+02  0.00000000000E+00 0. -1.
<mgrwt>
<rscale>  0 0.80925089E+02</rscale>
<asrwt>0</asrwt>
<pdfrwt beam="1">  1        2 0.60495820E-02 0.80925089E+02</pdfrwt>
<pdfrwt beam="2">  1       -1 0.64055186E-02 0.80925089E+02</pdfrwt>
<totfact> 0.13760189E+05</totfact>
</mgrwt>
</event>
<event>
 8    1  0.2433467E-020  0.7964586E+02  0.7818608E-02  0.1330059E+00
         -1   -1    0    0    0  501 -0.00000000000E+00  0.00000000000E+00  0.77124886495E+02  0.77124886659E+02  0.50400000000E-02 0.  1.
          2   -1    0    0  501    0  0.00000000000E+00 -0.00000000000E+00 -0.20562309615E+02  0.20562309773E+02  0.25500000000E-02 0. -1.
         24    2    1    2    0    0  0.00000000000E+00 -0.17763568394E-14  0.56562576880E+02  0.97687196432E+02  0.79645861433E+02 0.  0.
         66    2    3    3    0    0  0.35037624353E+02  0.13896093728E+02  0.43964194055E+02  0.57944688269E+02  0.19999996268E+01 0.  0.
        -13    1    3    3    0    0 -0.35037624353E+02 -0.13896093728E+02  0.12598382826E+02  0.39742508163E+02  0.10566000000E+00 0.  1.
         13    1    4    4    0    0  0.66409396357E+01  0.24159289908E+01  0.82440966608E+01  0.10858871301E+02  0.10566000000E+00 0. -1.
        -13    1    4    4    0    0  0.12736771589E+02  0.42745214150E+01  0.16053632758E+02  0.20933876196E+02  0.10566000000E+00 0.  1.
         14    1    4    4    0    0  0.15659913129E+02  0.72056433224E+01  0.19666464636E+02  0.26151940772E+02  0.00000000000E+00 0. -1.
<mgrwt>
<rscale>  0 0.79645861E+02</rscale>
<asrwt>0</asrwt>
<pdfrwt beam="1">  1        2 0.31634322E-02 0.79645861E+02</pdfrwt>
<pdfrwt beam="2">  1       -1 0.11865367E-01 0.79645861E+02</pdfrwt>
<totfact> 0.12645143E+05</totfact>
</mgrwt>
</event>
<event>
 8    1  0.2433467E-020  0.8111785E+02  0.7818608E-02  0.1325909E+00
          2   -1    0    0  501    0  0.00000000000E+00  0.00000000000E+00  0.71257519039E+03  0.71257519039E+03  0.25500000000E-02 0. -1.
         -1   -1    0    0    0  501 -0.00000000000E+00 -0.00000000000E+00 -0.23085626150E+01  0.23085681166E+01  0.50400000000E-02 0.  1.
         24    2    1    2    0    0  0.00000000000E+00  0.00000000000E+00  0.71026662777E+03  0.71488375851E+03  0.81117850391E+02 0.  0.
         66    2    3    3    0    0 -0.12103918313E+02 -0.31012911856E+02  0.55913750347E+03  0.56013128222E+03  0.19999992364E+01 0.  0.
        -13    1    3    3    0    0  0.12103918313E+02  0.31012911856E+02  0.15112912430E+03  0.15475247629E+03  0.10566000000E+00 0.  1.
         13    1    4    4    0    0 -0.59984021779E+01 -0.13359686794E+02  0.25276338183E+03  0.25318728329E+03  0.10566000000E+00 0. -1.
        -13    1    4    4    0    0 -0.17516010965E+01 -0.56700932023E+01  0.92631463326E+02  0.92821426542E+02  0.10566000000E+00 0.  1.
         14    1    4    4    0    0 -0.43539150385E+01 -0.11983131859E+02  0.21374265831E+03  0.21412257239E+03  0.00000000000E+00 0. -1.
<mgrwt>
<rscale>  0 0.81117850E+02</rscale>
<asrwt>0</asrwt>
<pdfrwt beam="1">  1        2 0.10962704E+00 0.81117850E+02</pdfrwt>
<pdfrwt beam="2">  1       -1 0.35516363E-03 0.81117850E+02</pdfrwt>
<totfact> 0.32395670E+05</totfact>
</mgrwt>
</event>
<event>
 8    1  0.2433467E-020  0.7985152E+02  0.7818608E-02  0.1329473E+00
          2   -1    0    0  501    0  0.00000000000E+00  0.00000000000E+00  0.26819461519E+02  0.26819461641E+02  0.25500000000E-02 0. -1.
         -1   -1    0    0    0  501 -0.00000000000E+00 -0.00000000000E+00 -0.59436927675E+02  0.59436927889E+02  0.50400000000E-02 0.  1.
         24    2    1    2    0    0  0.00000000000E+00  0.17763568394E-14 -0.32617466156E+02  0.86256389530E+02  0.79851522442E+02 0.  0.
         66    2    3    3    0    0 -0.19487594814E+02  0.14179602249E+02  0.18031631009E+02  0.30165662316E+02  0.19999986372E+01 0.  0.
        -13    1    3    3    0    0  0.19487594814E+02 -0.14179602249E+02 -0.50649097166E+02  0.56090727213E+02  0.10566000000E+00 0.  1.
         13    1    4    4    0    0 -0.81412482454E+01  0.67672149291E+01  0.72339431623E+01  0.12822488783E+02  0.10566000000E+00 0. -1.
        -13    1    4    4    0    0 -0.79107081450E+01  0.53054516696E+01  0.79668590723E+01  0.12418096806E+02  0.10566000000E+00 0.  1.
        -14    1    4    4    0    0 -0.34356384235E+01  0.21069356506E+01  0.28308287748E+01  0.49250767268E+01  0.00000000000E+00 0.  1.
<mgrwt>
<rscale>  0 0.79851522E+02</rscale>
<asrwt>0</asrwt>
<pdfrwt beam="1">  1        2 0.41260710E-02 0.79851522E+02</pdfrwt>
<pdfrwt beam="2">  1       -1 0.91441428E-02 0.79851522E+02</pdfrwt>
<totfact> 0.13230529E+05</totfact>
</mgrwt>
</event>
<event>
 8    1  0.2433467E-020  0.7961723E+02  0.7818608E-02  0.1330141E+00
         -1   -1    0    0    0  501 -0.00000000000E+00  0.00000000000E+00  0.77887768057E+01  0.77887784363E+01  0.50400000000E-02 0.  1.
          2   -1    0    0  501    0  0.00000000000E+00 -0.00000000000E+00 -0.20346269979E+03  0.20346269981E+03  0.25500000000E-02 0. -1.
         24    2    1    2    0    0 -0.35527136788E-14  0.17763568394E-14 -0.19567392298E+03  0.21125147824E+03  0.79617227555E+02 0.  0.
         66    2    3    3    0    0 -0.28896120459E+02  0.10554083833E+02 -0.16483140056E+03  0.16768949003E+03  0.19999985381E+01 0.  0.
        -13    1    3    3    0    0  0.28896120459E+02 -0.10554083833E+02 -0.30842522423E+02  0.43561988207E+02  0.10566000000E+00 0.  1.
         13    1    4    4    0    0 -0.89501939667E+01  0.32655348159E+01 -0.49098764746E+02  0.50014693374E+02  0.10566000000E+00 0. -1.
        -13    1    4    4    0    0 -0.59521586559E+01  0.14740900704E+01 -0.32241737123E+02  0.32819840203E+02  0.10566000000E+00 0.  1.
         14    1    4    4    0    0 -0.13993767836E+02  0.58144589469E+01 -0.83490898692E+02  0.84854956458E+02  0.00000000000E+00 0. -1.
<mgrwt>
<rscale>  0 0.79617228E+02</rscale>
<asrwt>0</asrwt>
<pdfrwt beam="1">  1        2 0.31301950E-01 0.79617228E+02</pdfrwt>
<pdfrwt beam="2">  1       -1 0.11982736E-02 0.79617228E+02</pdfrwt>
<totfact> 0.22473117E+05</totfact>
</mgrwt>
</event>
<event>
 8    1  0.2433467E-020  0.7978292E+02  0.7818608E-02  0.1329669E+00
          2   -1    0    0  501    0  0.00000000000E+00  0.00000000000E+00  0.64356548132E+03  0.64356548132E+03  0.25500000000E-02 0. -1.
         -1   -1    0    0    0  501 -0.00000000000E+00 -0.00000000000E+00 -0.24726727986E+01  0.24726779351E+01  0.50400000000E-02 0.  1.
         24    2    1    2    0    0  0.00000000000E+00 -0.71054273576E-14  0.64109280852E+03  0.64603815926E+03  0.79782918488E+02 0.  0.
         66    2    3    3    0    0 -0.46128845591E+01 -0.37555592624E+02  0.42240891534E+03  0.42410493159E+03  0.20000006121E+01 0.  0.
        -13    1    3    3    0    0  0.46128845591E+01  0.37555592624E+02  0.21868389318E+03  0.22193322767E+03  0.10566000000E+00 0.  1.
         13    1    4    4    0    0 -0.15943200990E+01 -0.94460210931E+01  0.10333016109E+03  0.10377332281E+03  0.10566000000E+00 0. -1.
        -13    1    4    4    0    0 -0.22337697935E+01 -0.24851272070E+02  0.28179656296E+03  0.28289908008E+03  0.10566000000E+00 0.  1.
        -14    1    4    4    0    0 -0.78479466654E+00 -0.32582994603E+01  0.37282191286E+02  0.37432528704E+02  0.00000000000E+00 0.  1.
<mgrwt>
<rscale>  0 0.79782918E+02</rscale>
<asrwt>0</asrwt>
<pdfrwt beam="1">  1        2 0.99010243E-01 0.79782918E+02</pdfrwt>
<pdfrwt beam="2">  1       -1 0.38041095E-03 0.79782918E+02</pdfrwt>
<totfact> 0.33006195E+05</totfact>
</mgrwt>
</event>
<event>
 8    1  0.2433467E-020  0.7878010E+02  0.7818608E-02  0.1332549E+00
         -1   -1    0    0    0  501 -0.00000000000E+00  0.00000000000E+00  0.38232114571E+03  0.38232114574E+03  0.50400000000E-02 0.  1.
          2   -1    0    0  501    0  0.00000000000E+00 -0.00000000000E+00 -0.40583055347E+01  0.40583063359E+01  0.25500000000E-02 0. -1.
         24    2    1    2    0    0  0.00000000000E+00  0.00000000000E+00  0.37826284018E+03  0.38637945208E+03  0.78780103653E+02 0.  0.
         66    2    3    3    0    0  0.35765557883E+02 -0.16174213514E+02  0.17471128756E+03  0.17907767676E+03  0.20000000294E+01 0.  0.
        -13    1    3    3    0    0 -0.35765557883E+02  0.16174213514E+02  0.20355155262E+03  0.20730177532E+03  0.10566000000E+00 0.  1.
         13    1    4    4    0    0  0.16569891396E+02 -0.71284638062E+01  0.79367752214E+02  0.81391815022E+02  0.10566000000E+00 0. -1.
        -13    1    4    4    0    0  0.10129467443E+02 -0.40294082374E+01  0.48739650136E+02  0.49944037691E+02  0.10566000000E+00 0.  1.
        -14    1    4    4    0    0  0.90661990438E+01 -0.50163414708E+01  0.46603885210E+02  0.47741824049E+02  0.00000000000E+00 0.  1.
<mgrwt>
<rscale>  0 0.78780104E+02</rscale>
<asrwt>0</asrwt>
<pdfrwt beam="1">  1        2 0.62435476E-03 0.78780104E+02</pdfrwt>
<pdfrwt beam="2">  1       -1 0.58818638E-01 0.78780104E+02</pdfrwt>
<totfact> 0.80671350E+04</totfact>
</mgrwt>
</event>
<event>
 8    1  0.2433467E-020  0.8348863E+02  0.7818608E-02  0.1319433E+00
          2   -1    0    0  501    0  0.00000000000E+00  0.00000000000E+00  0.23545475221E+03  0.23545475222E+03  0.25500000000E-02 0. -1.
         -1   -1    0    0    0  501 -0.00000000000E+00 -0.00000000000E+00 -0.74009447943E+01  0.74009465104E+01  0.50400000000E-02 0.  1.
         24    2    1    2    0    0 -0.17763568394E-14  0.17763568394E-14  0.22805380742E+03  0.24285569873E+03  0.83488629950E+02 0.  0.
         66    2    3    3    0    0  0.11374789537E+02 -0.96275208127E+01  0.22744423337E+03  0.22794068152E+03  0.20000006807E+01 0.  0.
        -13    1    3    3    0    0 -0.11374789537E+02  0.96275208127E+01  0.60957404413E+00  0.14915017217E+02  0.10566000000E+00 0.  1.
         13    1    4    4    0    0  0.52574451565E+01 -0.47377044146E+01  0.98268920292E+02  0.98523491778E+02  0.10566000000E+00 0. -1.
        -13    1    4    4    0    0  0.24971735453E+01 -0.15774644143E+01  0.41973038449E+02  0.42076969834E+02  0.10566000000E+00 0.  1.
         14    1    4    4    0    0  0.36201708357E+01 -0.33123519838E+01  0.87202274630E+02  0.87340219906E+02  0.00000000000E+00 0. -1.
<mgrwt>
<rscale>  0 0.83488630E+02</rscale>
<asrwt>0</asrwt>
<pdfrwt beam="1">  1        2 0.36223805E-01 0.83488630E+02</pdfrwt>
<pdfrwt beam="2">  1       -1 0.11386071E-02 0.83488630E+02</pdfrwt>
<totfact> 0.20875583E+05</totfact>
</mgrwt>
</event>
<event>
 8    1  0.2433467E-020  0.7902300E+02  0.7818608E-02  0.1331847E+00
         -1   -1    0    0    0  501 -0.00000000000E+00  0.00000000000E+00  0.74015342155E+02  0.74015342327E+02  0.50400000000E-02 0.  1.
          2   -1    0    0  501    0  0.00000000000E+00 -0.00000000000E+00 -0.21092367604E+02  0.21092367758E+02  0.25500000000E-02 0. -1.
         24    2    1    2    0    0  0.14210854715E-13  0.71054273576E-14  0.52922974551E+02  0.95107710085E+02  0.79023004766E+02 0.  0.
         66    2    3    3    0    0 -0.32163921120E+02 -0.22397236092E+02  0.32250370001E+02  0.50796066589E+02  0.20000023551E+01 0.  0.
        -13    1    3    3    0    0  0.32163921120E+02  0.22397236092E+02  0.20672604550E+02  0.44311643496E+02  0.10566000000E+00 0.  1.
         13    1    4    4    0    0 -0.22699087336E+02 -0.15559140893E+02  0.22260192076E+02  0.35395801256E+02  0.10566000000E+00 0. -1.
        -13    1    4    4    0    0 -0.42440811994E+01 -0.29007975232E+01  0.37747349996E+01  0.63786079869E+01  0.10566000000E+00 0.  1.
        -14    1    4    4    0    0 -0.52207525842E+01 -0.39372976761E+01  0.62154429246E+01  0.90216573469E+01  0.00000000000E+00 0.  1.
<mgrwt>
<rscale>  0 0.79023005E+02</rscale>
<asrwt>0</asrwt>
<pdfrwt beam="1">  1        2 0.32449796E-02 0.79023005E+02</pdfrwt>
<pdfrwt beam="2">  1       -1 0.11386976E-01 0.79023005E+02</pdfrwt>
<totfact> 0.12998032E+05</totfact>
</mgrwt>
</event>
<event>
 8    1  0.2433467E-020  0.7944371E+02  0.7818608E-02  0.1330638E+00
         -1   -1    0    0    0  501 -0.00000000000E+00  0.00000000000E+00  0.65875648518E+01  0.65875667798E+01  0.50400000000E-02 0.  1.
          2   -1    0    0  501    0  0.00000000000E+00 -0.00000000000E+00 -0.23951572988E+03  0.23951572990E+03  0.25500000000E-02 0. -1.
         24    2    1    2    0    0  0.00000000000E+00  0.00000000000E+00 -0.23292816503E+03  0.24610329668E+03  0.79443706926E+02 0.  0.
         66    2    3    3    0    0  0.33145166767E+02  0.21795300333E+02 -0.12111524557E+03  0.12746191553E+03  0.20000014369E+01 0.  0.
        -13    1    3    3    0    0 -0.33145166767E+02 -0.21795300333E+02 -0.11181291946E+03  0.11864138114E+03  0.10566000000E+00 0.  1.
         13    1    4    4    0    0  0.18939374930E+02  0.12309052394E+02 -0.66348705260E+02  0.70088333889E+02  0.10566000000E+00 0. -1.
        -13    1    4    4    0    0  0.47041440717E+01  0.31893303387E+01 -0.19379691584E+02  0.20196148380E+02  0.10566000000E+00 0.  1.
         14    1    4    4    0    0  0.95016477657E+01  0.62969175999E+01 -0.35386848723E+02  0.37177433264E+02  0.00000000000E+00 0. -1.
<mgrwt>
<rscale>  0 0.79443707E+02</rscale>
<asrwt>0</asrwt>
<pdfrwt beam="1">  1        2 0.36848567E-01 0.79443707E+02</pdfrwt>
<pdfrwt beam="2">  1       -1 0.10134718E-02 0.79443707E+02</pdfrwt>
<totfact> 0.23940942E+05</totfact>
</mgrwt>
</event>
<event>
 8    1  0.2433467E-020  0.7897095E+02  0.7818608E-02  0.1331997E+00
          2   -1    0    0  501    0  0.00000000000E+00  0.00000000000E+00  0.16177041029E+03  0.16177041031E+03  0.25500000000E-02 0. -1.
         -1   -1    0    0    0  501 -0.00000000000E+00 -0.00000000000E+00 -0.96377486004E+01  0.96377499182E+01  0.50400000000E-02 0.  1.
         24    2    1    2    0    0 -0.35527136788E-14  0.35527136788E-14  0.15213266169E+03  0.17140816023E+03  0.78970948078E+02 0.  0.
         66    2    3    3    0    0 -0.20222924774E+02  0.30926034608E+02  0.10616800294E+03  0.11243234043E+03  0.20000058476E+01 0.  0.
        -13    1    3    3    0    0  0.20222924774E+02 -0.30926034608E+02  0.45964658756E+02  0.58975819804E+02  0.10566000000E+00 0.  1.
         13    1    4    4    0    0 -0.12941130880E+02  0.19955677722E+02  0.65470884914E+02  0.69657374895E+02  0.10566000000E+00 0. -1.
        -13    1    4    4    0    0 -0.27468694924E+01  0.43123619165E+01  0.15747676715E+02  0.16557241414E+02  0.10566000000E+00 0.  1.
         14    1    4    4    0    0 -0.45349244018E+01  0.66579949694E+01  0.24949441310E+02  0.26217724120E+02  0.00000000000E+00 0. -1.
<mgrwt>
<rscale>  0 0.78970948E+02</rscale>
<asrwt>0</asrwt>
<pdfrwt beam="1">  1        2 0.24887752E-01 0.78970948E+02</pdfrwt>
<pdfrwt beam="2">  1       -1 0.14827309E-02 0.78970948E+02</pdfrwt>
<totfact> 0.21244864E+05</totfact>
</mgrwt>
</event>
<event>
 8    1  0.2433467E-020  0.7906017E+02  0.7818608E-02  0.1331740E+00
         -1   -1    0    0    0  501 -0.00000000000E+00  0.00000000000E+00  0.11410941897E+02  0.11410943010E+02  0.50400000000E-02 0.  1.
          2   -1    0    0  501    0  0.00000000000E+00 -0.00000000000E+00 -0.13694115064E+03  0.13694115067E+03  0.25500000000E-02 0. -1.
         24    2    1    2    0    0  0.17763568394E-14  0.88817841970E-15 -0.12553020875E+03  0.14835209368E+03  0.79060169431E+02 0.  0.
         66    2    3    3    0    0 -0.86335158787E+01 -0.79536508953E+01 -0.13358532935E+03  0.13411501915E+03  0.19999961241E+01 0.  0.
        -13    1    3    3    0    0  0.86335158787E+01  0.79536508953E+01  0.80551206078E+01  0.14237074525E+02  0.10566000000E+00 0.  1.
         13    1    4    4    0    0 -0.54235317505E+01 -0.58663404414E+01 -0.95781061762E+02  0.96113743050E+02  0.10566000000E+00 0. -1.
        -13    1    4    4    0    0 -0.88678927069E+00 -0.33222682371E+00 -0.92719635890E+01  0.93207962484E+01  0.10566000000E+00 0. -1.
         14    1    4    4    0    0 -0.23231948575E+01 -0.17550836302E+01 -0.28532304003E+02  0.28680479853E+02  0.00000000000E+00 0. -1.
<mgrwt>
<rscale>  0 0.79060169E+02</rscale>
<asrwt>0</asrwt>
<pdfrwt beam="1">  1        2 0.21067868E-01 0.79060169E+02</pdfrwt>
<pdfrwt beam="2">  1       -1 0.17555297E-02 0.79060169E+02</pdfrwt>
<totfact> 0.20079133E+05</totfact>
</mgrwt>
</event>
<event>
 8    1  0.2433467E-020  0.8047939E+02  0.7818608E-02  0.1327696E+00
          2   -1    0    0  501    0  0.00000000000E+00  0.00000000000E+00  0.44601090997E+02  0.44601091069E+02  0.25500000000E-02 0. -1.
         -1   -1    0    0    0  501 -0.00000000000E+00 -0.00000000000E+00 -0.36304782134E+02  0.36304782483E+02  0.50400000000E-02 0.  1.
         24    2    1    2    0    0 -0.35527136788E-14  0.00000000000E+00  0.82963088629E+01  0.80905873553E+02  0.80479386396E+02 0.  0.
         66    2    3    3    0    0 -0.20873719845E+02 -0.18014410623E+02  0.33580351659E+02  0.43495645614E+02  0.19999998991E+01 0.  0.
        -13    1    3    3    0    0  0.20873719845E+02  0.18014410623E+02 -0.25284042796E+02  0.37410227939E+02  0.10566000000E+00 0.  1.
         13    1    4    4    0    0 -0.37512122117E+01 -0.38998713800E+01  0.73734526828E+01  0.91465599183E+01  0.10566000000E+00 0. -1.
        -13    1    4    4    0    0 -0.50531493623E+01 -0.39858229098E+01  0.81159009183E+01  0.10358576857E+02  0.10566000000E+00 0.  1.
         14    1    4    4    0    0 -0.12069358271E+02 -0.10128716334E+02  0.18090998058E+02  0.23990508839E+02  0.00000000000E+00 0. -1.
<mgrwt>
<rscale>  0 0.80479386E+02</rscale>
<asrwt>0</asrwt>
<pdfrwt beam="1">  1        2 0.68617063E-02 0.80479386E+02</pdfrwt>
<pdfrwt beam="2">  1       -1 0.55853512E-02 0.80479386E+02</pdfrwt>
<totfact> 0.14343943E+05</totfact>
</mgrwt>
</event>
<event>
 8    1  0.2433467E-020  0.8475460E+02  0.7818608E-02  0.1316076E+00
         -1   -1    0    0    0  501 -0.00000000000E+00  0.00000000000E+00  0.29839146484E+01  0.29839189048E+01  0.50400000000E-02 0.  1.
          2   -1    0    0  501    0  0.00000000000E+00 -0.00000000000E+00 -0.60183841355E+03  0.60183841355E+03  0.25500000000E-02 0. -1.
         24    2    1    2    0    0  0.00000000000E+00 -0.35527136788E-14 -0.59885449890E+03  0.60482233246E+03  0.84754604523E+02 0.  0.
         66    2    3    3    0    0 -0.60172456337E+01 -0.23055714128E+02 -0.54946686844E+03  0.54998692050E+03  0.20000000646E+01 0.  0.
        -13    1    3    3    0    0  0.60172456337E+01  0.23055714128E+02 -0.49387630455E+02  0.54835411962E+02  0.10566000000E+00 0.  1.
         13    1    4    4    0    0 -0.24629122796E+01 -0.99975572567E+01 -0.25321978731E+03  0.25342906095E+03  0.10566000000E+00 0. -1.
        -13    1    4    4    0    0 -0.87835489572E+00 -0.33431606520E+01 -0.85794878925E+02  0.85864548239E+02  0.10566000000E+00 0.  1.
        -14    1    4    4    0    0 -0.26759784584E+01 -0.97149962195E+01 -0.21045220221E+03  0.21069331130E+03  0.00000000000E+00 0.  1.
<mgrwt>
<rscale>  0 0.84754605E+02</rscale>
<asrwt>0</asrwt>
<pdfrwt beam="1">  1        2 0.92590429E-01 0.84754605E+02</pdfrwt>
<pdfrwt beam="2">  1       -1 0.45906460E-03 0.84754605E+02</pdfrwt>
<totfact> 0.27688789E+05</totfact>
</mgrwt>
</event>
<event>
 8    1  0.2433467E-020  0.8281653E+02  0.7818608E-02  0.1321243E+00
          2   -1    0    0  501    0  0.00000000000E+00  0.00000000000E+00  0.14567250729E+04  0.14567250729E+04  0.25500000000E-02 0. -1.
         -1   -1    0    0    0  501 -0.00000000000E+00 -0.00000000000E+00 -0.11770488905E+01  0.11770596808E+01  0.50400000000E-02 0.  1.
         24    2    1    2    0    0  0.00000000000E+00  0.00000000000E+00  0.14555480240E+04  0.14579021326E+04  0.82816532121E+02 0.  0.
         66    2    3    3    0    0  0.83572866017E+01  0.14961337567E+02  0.13913223217E+04  0.13914292971E+04  0.19999995377E+01 0.  0.
        -13    1    3    3    0    0 -0.83572866017E+01 -0.14961337567E+02  0.64225702307E+02  0.66472835520E+02  0.10566000000E+00 0.  1.
         13    1    4    4    0    0  0.30351421875E+01  0.60524580861E+01  0.56223173532E+03  0.56227251374E+03  0.10566000000E+00 0. -1.
        -13    1    4    4    0    0  0.10824546639E+01  0.10660748586E+01  0.97875249046E+02  0.97887097023E+02  0.10566000000E+00 0.  1.
        -14    1    4    4    0    0  0.42396897504E+01  0.78428046224E+01  0.73121533735E+03  0.73126968632E+03  0.00000000000E+00 0.  1.
<mgrwt>
<rscale>  0 0.82816532E+02</rscale>
<asrwt>0</asrwt>
<pdfrwt beam="1">  1        2 0.22411179E+00 0.82816532E+02</pdfrwt>
<pdfrwt beam="2">  1       -1 0.18108508E-03 0.82816532E+02</pdfrwt>
<totfact> 0.30705159E+05</totfact>
</mgrwt>
</event>
<event>
 8    1  0.2717360E-020  0.8010274E+02  0.7818608E-02  0.1328760E+00
         -1   -1    0    0    0  501 -0.00000000000E+00  0.00000000000E+00  0.41846125372E+01  0.41846155723E+01  0.50400000000E-02 0.  1.
          2   -1    0    0  501    0  0.00000000000E+00 -0.00000000000E+00 -0.38333578244E+03  0.38333578245E+03  0.25500000000E-02 0. -1.
         24    2    1    2    0    0  0.00000000000E+00  0.35527136788E-14 -0.37915116990E+03  0.38752039802E+03  0.80102741797E+02 0.  0.
         66    2    3    3    0    0 -0.34073496307E+02  0.11614143781E+02 -0.27435007612E+03  0.27670897303E+03  0.20000004537E+01 0.  0.
        -13    1    3    3    0    0  0.34073496307E+02 -0.11614143781E+02 -0.10480109378E+03  0.11081142499E+03  0.10566000000E+00 0.  1.
         13    1    4    4    0    0 -0.23161075905E+02  0.83536989745E+01 -0.18445032441E+03  0.18608641289E+03  0.10566000000E+00 0. -1.
        -13    1    4    4    0    0 -0.31241870084E+01  0.13134514644E+01 -0.25572443236E+02  0.25796253920E+02  0.10566000000E+00 0.  1.
        -14    1    4    4    0    0 -0.77882333942E+01  0.19469933424E+01 -0.64327308480E+02  0.64826306225E+02  0.00000000000E+00 0.  1.
<mgrwt>
<rscale>  0 0.80102742E+02</rscale>
<asrwt>0</asrwt>
<pdfrwt beam="1">  1        2 0.58974708E-01 0.80102742E+02</pdfrwt>
<pdfrwt beam="2">  1       -1 0.64378708E-03 0.80102742E+02</pdfrwt>
<totfact> 0.27740990E+05</totfact>
</mgrwt>
</event>
<event>
 8    1  0.2433467E-020  0.8087307E+02  0.7818608E-02  0.1326592E+00
         -1   -1    0    0    0  501 -0.00000000000E+00  0.00000000000E+00  0.81460102128E+01  0.81460117719E+01  0.50400000000E-02 0.  1.
          2   -1    0    0  501    0  0.00000000000E+00 -0.00000000000E+00 -0.20072564917E+03  0.20072564919E+03  0.25500000000E-02 0. -1.
         24    2    1    2    0    0  0.00000000000E+00  0.00000000000E+00 -0.19257963896E+03  0.20887166096E+03  0.80873069748E+02 0.  0.
         66    2    3    3    0    0  0.33839634108E+02  0.10231393621E+02 -0.14691336492E+03  0.15112028002E+03  0.19999971616E+01 0.  0.
        -13    1    3    3    0    0 -0.33839634108E+02 -0.10231393621E+02 -0.45666274039E+02  0.57751380941E+02  0.10566000000E+00 0.  1.
         13    1    4    4    0    0  0.39931472670E+01  0.86385822833E+00 -0.19117485828E+02  0.19549447679E+02  0.10566000000E+00 0. -1.
        -13    1    4    4    0    0  0.20566230997E+02  0.67760016721E+01 -0.87901445286E+02  0.90529328417E+02  0.10566000000E+00 0.  1.
         14    1    4    4    0    0  0.92802558438E+01  0.25915337211E+01 -0.39894433803E+02  0.41041503920E+02  0.00000000000E+00 0. -1.
<mgrwt>
<rscale>  0 0.80873070E+02</rscale>
<asrwt>0</asrwt>
<pdfrwt beam="1">  1        2 0.30880865E-01 0.80873070E+02</pdfrwt>
<pdfrwt beam="2">  1       -1 0.12532326E-02 0.80873070E+02</pdfrwt>
<totfact> 0.21462425E+05</totfact>
</mgrwt>
</event>
<event>
 8    1  0.2433467E-020  0.8043807E+02  0.7818608E-02  0.1327813E+00
          2   -1    0    0  501    0  0.00000000000E+00  0.00000000000E+00  0.24070597121E+03  0.24070597123E+03  0.25500000000E-02 0. -1.
         -1   -1    0    0    0  501 -0.00000000000E+00 -0.00000000000E+00 -0.67201095590E+01  0.67201114489E+01  0.50400000000E-02 0.  1.
         24    2    1    2    0    0  0.00000000000E+00  0.88817841970E-15  0.23398586165E+03  0.24742608268E+03  0.80438068936E+02 0.  0.
         66    2    3    3    0    0  0.38719982151E+02  0.77818976040E+01  0.14003644847E+03  0.14551289241E+03  0.20000024696E+01 0.  0.
        -13    1    3    3    0    0 -0.38719982151E+02 -0.77818976040E+01  0.93949413188E+02  0.10191319027E+03  0.10566000000E+00 0.  1.
         13    1    4    4    0    0  0.18299473257E+02  0.36028065640E+01  0.63530168703E+02  0.66211361836E+02  0.10566000000E+00 0. -1.
        -13    1    4    4    0    0  0.52412951877E+01  0.13610395145E+01  0.18602185632E+02  0.19374624593E+02  0.10566000000E+00 0.  1.
         14    1    4    4    0    0  0.15179213707E+02  0.28180515255E+01  0.57904094131E+02  0.59926905979E+02  0.00000000000E+00 0. -1.
<mgrwt>
<rscale>  0 0.80438069E+02</rscale>
<asrwt>0</asrwt>
<pdfrwt beam="1">  1        2 0.37031690E-01 0.80438069E+02</pdfrwt>
<pdfrwt beam="2">  1       -1 0.10338631E-02 0.80438069E+02</pdfrwt>
<totfact> 0.23211290E+05</totfact>
</mgrwt>
</event>
<event>
 8    1  0.2433467E-020  0.8348837E+02  0.7818608E-02  0.1319434E+00
         -1   -1    0    0    0  501 -0.00000000000E+00  0.00000000000E+00  0.36546004259E+01  0.36546039012E+01  0.50400000000E-02 0.  1.
          2   -1    0    0  501    0  0.00000000000E+00 -0.00000000000E+00 -0.47681716682E+03  0.47681716682E+03  0.25500000000E-02 0. -1.
         24    2    1    2    0    0  0.71054273576E-14 -0.44408920985E-15 -0.47316256639E+03  0.48047177073E+03  0.83488371824E+02 0.  0.
         66    2    3    3    0    0  0.39250212067E+02 -0.19428170360E+01 -0.31733089905E+03  0.31976124402E+03  0.19999990625E+01 0.  0.
        -13    1    3    3    0    0 -0.39250212067E+02  0.19428170360E+01 -0.15583166734E+03  0.16071052671E+03  0.10566000000E+00 0.  1.
         13    1    4    4    0    0  0.33980522673E+02 -0.12696004949E+01 -0.27164310311E+03  0.27376317218E+03  0.10566000000E+00 0. -1.
        -13    1    4    4    0    0  0.98310335133E+00 -0.22228522566E-01 -0.95684990164E+01  0.96194762731E+01  0.10566000000E+00 0.  1.
        -14    1    4    4    0    0  0.42865860430E+01 -0.65098801852E+00 -0.36119296924E+02  0.36378595569E+02  0.00000000000E+00 0.  1.
<mgrwt>
<rscale>  0 0.83488372E+02</rscale>
<asrwt>0</asrwt>
<pdfrwt beam="1">  1        2 0.73356438E-01 0.83488372E+02</pdfrwt>
<pdfrwt beam="2">  1       -1 0.56224687E-03 0.83488372E+02</pdfrwt>
<totfact> 0.26823690E+05</totfact>
</mgrwt>
</event>
<event>
 8    1  0.2433467E-020  0.7951090E+02  0.7818608E-02  0.1330445E+00
          2   -1    0    0  501    0  0.00000000000E+00  0.00000000000E+00  0.13930504534E+04  0.13930504534E+04  0.25500000000E-02 0. -1.
         -1   -1    0    0    0  501 -0.00000000000E+00 -0.00000000000E+00 -0.11345517648E+01  0.11345629593E+01  0.50400000000E-02 0.  1.
         24    2    1    2    0    0  0.00000000000E+00  0.00000000000E+00  0.13919159016E+04  0.13941850163E+04  0.79510896249E+02 0.  0.
         66    2    3    3    0    0 -0.66246714086E+01  0.21461713729E+02  0.12710369349E+04  0.12712369494E+04  0.19999981427E+01 0.  0.
        -13    1    3    3    0    0  0.66246714086E+01 -0.21461713729E+02  0.12087896664E+03  0.12294806695E+03  0.10566000000E+00 0.  1.
         13    1    4    4    0    0 -0.20016288146E+01  0.57180166158E+01  0.29733513649E+03  0.29739686748E+03  0.10566000000E+00 0. -1.
        -13    1    4    4    0    0 -0.27208329227E+01  0.94369034454E+01  0.58916454114E+03  0.58924640497E+03  0.10566000000E+00 0.  1.
         14    1    4    4    0    0 -0.19022096713E+01  0.63067936682E+01  0.38453725732E+03  0.38459367691E+03  0.00000000000E+00 0. -1.
<mgrwt>
<rscale>  0 0.79510896E+02</rscale>
<asrwt>0</asrwt>
<pdfrwt beam="1">  1        2 0.21431494E+00 0.79510896E+02</pdfrwt>
<pdfrwt beam="2">  1       -1 0.17454770E-03 0.79510896E+02</pdfrwt>
<totfact> 0.34607959E+05</totfact>
</mgrwt>
</event>
<event>
 8    1  0.2433467E-020  0.7981261E+02  0.7818608E-02  0.1329584E+00
          2   -1    0    0  501    0  0.00000000000E+00  0.00000000000E+00  0.27154848568E+02  0.27154848688E+02  0.25500000000E-02 0. -1.
         -1   -1    0    0    0  501 -0.00000000000E+00 -0.00000000000E+00 -0.58645628173E+02  0.58645628390E+02  0.50400000000E-02 0.  1.
         24    2    1    2    0    0 -0.35527136788E-14  0.00000000000E+00 -0.31490779605E+02  0.85800477078E+02  0.79812609697E+02 0.  0.
         66    2    3    3    0    0 -0.21477027567E+02  0.23500337052E+02  0.10067259439E+02  0.33449638232E+02  0.20000076413E+01 0.  0.
        -13    1    3    3    0    0  0.21477027567E+02 -0.23500337052E+02 -0.41558039044E+02  0.52350838846E+02  0.10566000000E+00 0.  1.
         13    1    4    4    0    0 -0.13378397136E+02  0.13988004402E+02  0.56511786843E+01  0.20164145448E+02  0.10566000000E+00 0. -1.
        -13    1    4    4    0    0 -0.11895646883E+01  0.11079203444E+01  0.84163469690E+00  0.18335933671E+01  0.10566000000E+00 0.  1.
         14    1    4    4    0    0 -0.69090657421E+01  0.84044123061E+01  0.35744460578E+01  0.11451899417E+02  0.00000000000E+00 0. -1.
<mgrwt>
<rscale>  0 0.79812610E+02</rscale>
<asrwt>0</asrwt>
<pdfrwt beam="1">  1        2 0.41776690E-02 0.79812610E+02</pdfrwt>
<pdfrwt beam="2">  1       -1 0.90224044E-02 0.79812610E+02</pdfrwt>
<totfact> 0.13281143E+05</totfact>
</mgrwt>
</event>
<event>
 8    1  0.2433467E-020  0.7935700E+02  0.7818608E-02  0.1330886E+00
          2   -1    0    0  501    0  0.00000000000E+00  0.00000000000E+00  0.25313706206E+02  0.25313706334E+02  0.25500000000E-02 0. -1.
         -1   -1    0    0    0  501 -0.00000000000E+00 -0.00000000000E+00 -0.62194899546E+02  0.62194899751E+02  0.50400000000E-02 0.  1.
         24    2    1    2    0    0 -0.35527136788E-14  0.00000000000E+00 -0.36881193341E+02  0.87508606085E+02  0.79357001687E+02 0.  0.
         66    2    3    3    0    0  0.17591381600E+02 -0.15878521529E+02  0.16606512250E+02  0.29006213263E+02  0.20000015430E+01 0.  0.
        -13    1    3    3    0    0 -0.17591381600E+02  0.15878521529E+02 -0.53487705591E+02  0.58502392822E+02  0.10566000000E+00 0.  1.
         13    1    4    4    0    0  0.81002287292E+01 -0.74555077602E+01  0.82221560926E+01  0.13740935786E+02  0.10566000000E+00 0. -1.
        -13    1    4    4    0    0  0.10912728353E+01 -0.70925772715E+00  0.48801125970E+00  0.13940021340E+01  0.10566000000E+00 0.  1.
        -14    1    4    4    0    0  0.83998800358E+01 -0.77137560418E+01  0.78963448977E+01  0.13871275343E+02  0.00000000000E+00 0.  1.
<mgrwt>
<rscale>  0 0.79357002E+02</rscale>
<asrwt>0</asrwt>
<pdfrwt beam="1">  1        2 0.38944164E-02 0.79357002E+02</pdfrwt>
<pdfrwt beam="2">  1       -1 0.95684461E-02 0.79357002E+02</pdfrwt>
<totfact> 0.13312687E+05</totfact>
</mgrwt>
</event>
<event>
 8    1  0.2433467E-020  0.7524471E+02  0.7818608E-02  0.1343115E+00
          2   -1    0    0  501    0  0.00000000000E+00  0.00000000000E+00  0.50449644277E+03  0.50449644277E+03  0.25500000000E-02 0. -1.
         -1   -1    0    0    0  501 -0.00000000000E+00 -0.00000000000E+00 -0.28056502483E+01  0.28056547752E+01  0.50400000000E-02 0.  1.
         24    2    1    2    0    0  0.00000000000E+00  0.00000000000E+00  0.50169079252E+03  0.50730209755E+03  0.75244713297E+02 0.  0.
         66    2    3    3    0    0  0.33599050285E+02 -0.95748060241E+01  0.34465232405E+03  0.34642430283E+03  0.20000069601E+01 0.  0.
        -13    1    3    3    0    0 -0.33599050285E+02  0.95748060241E+01  0.15703846846E+03  0.16087779471E+03  0.10566000000E+00 0.  1.
         13    1    4    4    0    0  0.89997452091E+01 -0.18844644490E+01  0.89187812350E+02  0.89660602585E+02  0.10566000000E+00 0. -1.
        -13    1    4    4    0    0  0.16659829481E+02 -0.53079469783E+01  0.16822759241E+03  0.16913384709E+03  0.10566000000E+00 0.  1.
        -14    1    4    4    0    0  0.79394755951E+01 -0.23823945968E+01  0.87236919290E+02  0.87629853155E+02  0.00000000000E+00 0.  1.
<mgrwt>
<rscale>  0 0.75244713E+02</rscale>
<asrwt>0</asrwt>
<pdfrwt beam="1">  1        2 0.77614782E-01 0.75244713E+02</pdfrwt>
<pdfrwt beam="2">  1       -1 0.43163916E-03 0.75244713E+02</pdfrwt>
<totfact> 0.35808361E+05</totfact>
</mgrwt>
</event>
<event>
 8    1  0.2433467E-020  0.7933831E+02  0.7818608E-02  0.1330940E+00
          2   -1    0    0  501    0  0.00000000000E+00  0.00000000000E+00  0.79869957164E+03  0.79869957164E+03  0.25500000000E-02 0. -1.
         -1   -1    0    0    0  501 -0.00000000000E+00 -0.00000000000E+00 -0.19702518183E+01  0.19702582646E+01  0.50400000000E-02 0.  1.
         24    2    1    2    0    0 -0.17763568394E-14 -0.35527136788E-14  0.79672931982E+03  0.80066982991E+03  0.79338310181E+02 0.  0.
         66    2    3    3    0    0  0.11943241178E+02 -0.20812389315E+02  0.71708479245E+03  0.71748895192E+03  0.20000009714E+01 0.  0.
        -13    1    3    3    0    0 -0.11943241178E+02  0.20812389315E+02  0.79644527374E+02  0.83180877992E+02  0.10566000000E+00 0.  1.
         13    1    4    4    0    0  0.12873252463E+00 -0.24107542797E+00  0.15614677091E+02  0.15617425976E+02  0.10566000000E+00 0. -1.
        -13    1    4    4    0    0  0.79426918795E+00 -0.17327823887E+01  0.56943181703E+02  0.56975174461E+02  0.10566000000E+00 0.  1.
         14    1    4    4    0    0  0.11020239466E+02 -0.18838531498E+02  0.64452693365E+03  0.64489635148E+03  0.00000000000E+00 0. -1.
<mgrwt>
<rscale>  0 0.79338310E+02</rscale>
<asrwt>0</asrwt>
<pdfrwt beam="1">  1        2 0.12287689E+00 0.79338310E+02</pdfrwt>
<pdfrwt beam="2">  1       -1 0.30311607E-03 0.79338310E+02</pdfrwt>
<totfact> 0.35104957E+05</totfact>
</mgrwt>
</event>
<event>
 8    1  0.2433467E-020  0.7885168E+02  0.7818608E-02  0.1332342E+00
         -1   -1    0    0    0  501 -0.00000000000E+00  0.00000000000E+00  0.13131824322E+01  0.13131921039E+01  0.50400000000E-02 0.  1.
          2   -1    0    0  501    0  0.00000000000E+00 -0.00000000000E+00 -0.11836826458E+04  0.11836826458E+04  0.25500000000E-02 0. -1.
         24    2    1    2    0    0  0.17763568394E-14 -0.17763568394E-14 -0.11823694634E+04  0.11849958379E+04  0.78851683252E+02 0.  0.
         66    2    3    3    0    0  0.13843912840E+02 -0.89064533583E+01 -0.11295245831E+04  0.11296462998E+04  0.19999984537E+01 0.  0.
        -13    1    3    3    0    0 -0.13843912840E+02  0.89064533583E+01 -0.52844880313E+02  0.55349538151E+02  0.10566000000E+00 0.  1.
         13    1    4    4    0    0  0.77254050004E+01 -0.52033461305E+01 -0.67393112633E+03  0.67399549768E+03  0.10566000000E+00 0. -1.
        -13    1    4    4    0    0  0.47565086636E+01 -0.23429016744E+01 -0.33692839480E+03  0.33697012917E+03  0.10566000000E+00 0.  1.
         14    1    4    4    0    0  0.13619991757E+01 -0.13602055534E+01 -0.11866506196E+03  0.11868067294E+03  0.00000000000E+00 0. -1.
<mgrwt>
<rscale>  0 0.78851683E+02</rscale>
<asrwt>0</asrwt>
<pdfrwt beam="1">  1        2 0.18210417E+00 0.78851683E+02</pdfrwt>
<pdfrwt beam="2">  1       -1 0.20202976E-03 0.78851683E+02</pdfrwt>
<totfact> 0.36428887E+05</totfact>
</mgrwt>
</event>
<event>
 8    1  0.2433467E-020  0.7581095E+02  0.7818608E-02  0.1341378E+00
         -1   -1    0    0    0  501 -0.00000000000E+00  0.00000000000E+00  0.31057745620E+02  0.31057746029E+02  0.50400000000E-02 0.  1.
          2   -1    0    0  501    0  0.00000000000E+00 -0.00000000000E+00 -0.46263017419E+02  0.46263017489E+02  0.25500000000E-02 0. -1.
         24    2    1    2    0    0 -0.11102230246E-15  0.00000000000E+00 -0.15205271799E+02  0.77320763518E+02  0.75810950268E+02 0.  0.
         66    2    3    3    0    0  0.59254036579E+00 -0.12772224167E+02 -0.43973862344E+02  0.45838645098E+02  0.20000001706E+01 0.  0.
        -13    1    3    3    0    0 -0.59254036579E+00  0.12772224167E+02  0.28768590545E+02  0.31482118421E+02  0.10566000000E+00 0.  1.
         13    1    4    4    0    0 -0.40732998289E+00 -0.72336811299E+01 -0.23101550021E+02  0.24211254363E+02  0.10566000000E+00 0. -1.
        -13    1    4    4    0    0  0.56223665427E+00 -0.27352299349E+01 -0.91891245175E+01  0.96046221314E+01  0.10566000000E+00 0.  1.
         14    1    4    4    0    0  0.43763369441E+00 -0.28033131027E+01 -0.11683187805E+02  0.12022768604E+02  0.00000000000E+00 0. -1.
<mgrwt>
<rscale>  0 0.75810950E+02</rscale>
<asrwt>0</asrwt>
<pdfrwt beam="1">  1        2 0.71173873E-02 0.75810950E+02</pdfrwt>
<pdfrwt beam="2">  1       -1 0.47781148E-02 0.75810950E+02</pdfrwt>
<totfact> 0.17025709E+05</totfact>
</mgrwt>
</event>
<event>
 8    1  0.2433467E-020  0.7999536E+02  0.7818608E-02  0.1329065E+00
          2   -1    0    0  501    0  0.00000000000E+00  0.00000000000E+00  0.33770429733E+03  0.33770429734E+03  0.25500000000E-02 0. -1.
         -1   -1    0    0    0  501 -0.00000000000E+00 -0.00000000000E+00 -0.47373216248E+01  0.47373243058E+01  0.50400000000E-02 0.  1.
         24    2    1    2    0    0  0.00000000000E+00  0.00000000000E+00  0.33296697571E+03  0.34244162165E+03  0.79995358146E+02 0.  0.
         66    2    3    3    0    0  0.15728058102E+01 -0.11135931979E+02  0.33078845604E+03  0.33098562710E+03  0.19999997986E+01 0.  0.
        -13    1    3    3    0    0 -0.15728058102E+01  0.11135931979E+02  0.21785196719E+01  0.11455994551E+02  0.10566000000E+00 0.  1.
         13    1    4    4    0    0  0.10144905914E+01 -0.92131553925E+01  0.26797273047E+03  0.26813300219E+03  0.10566000000E+00 0. -1.
        -13    1    4    4    0    0  0.59052169219E+00 -0.68456834250E+00  0.28642454692E+02  0.28656914078E+02  0.10566000000E+00 0.  1.
        -14    1    4    4    0    0 -0.32206473363E-01 -0.12382082437E+01  0.34173270876E+02  0.34195710832E+02  0.00000000000E+00 0.  1.
<mgrwt>
<rscale>  0 0.79995358E+02</rscale>
<asrwt>0</asrwt>
<pdfrwt beam="1">  1        2 0.51954523E-01 0.79995358E+02</pdfrwt>
<pdfrwt beam="2">  1       -1 0.72881870E-03 0.79995358E+02</pdfrwt>
<totfact> 0.26610849E+05</totfact>
</mgrwt>
</event>
<event>
 8    1  0.2433467E-020  0.7820072E+02  0.7818608E-02  0.1334236E+00
         -1   -1    0    0    0  501 -0.00000000000E+00  0.00000000000E+00  0.56781803390E+01  0.56781825758E+01  0.50400000000E-02 0.  1.
          2   -1    0    0  501    0  0.00000000000E+00 -0.00000000000E+00 -0.26924783070E+03  0.26924783071E+03  0.25500000000E-02 0. -1.
         24    2    1    2    0    0  0.00000000000E+00  0.00000000000E+00 -0.26356965036E+03  0.27492601328E+03  0.78200717329E+02 0.  0.
         66    2    3    3    0    0  0.38368248119E+02 -0.53807602090E+01 -0.14971353346E+03  0.15465838854E+03  0.19999996237E+01 0.  0.
        -13    1    3    3    0    0 -0.38368248119E+02  0.53807602090E+01 -0.11385611689E+03  0.12026762475E+03  0.10566000000E+00 0.  1.
         13    1    4    4    0    0  0.18247218799E+02 -0.29789736810E+01 -0.70463622782E+02  0.72848943559E+02  0.10566000000E+00 0. -1.
        -13    1    4    4    0    0  0.10852942003E+02 -0.92705181486E+00 -0.44626880430E+02  0.45937080841E+02  0.10566000000E+00 0.  1.
        -14    1    4    4    0    0  0.92680873169E+01 -0.14747347131E+01 -0.34623030251E+02  0.35872364137E+02  0.00000000000E+00 0.  1.
<mgrwt>
<rscale>  0 0.78200717E+02</rscale>
<asrwt>0</asrwt>
<pdfrwt beam="1">  1        2 0.41422733E-01 0.78200717E+02</pdfrwt>
<pdfrwt beam="2">  1       -1 0.87356659E-03 0.78200717E+02</pdfrwt>
<totfact> 0.26022270E+05</totfact>
</mgrwt>
</event>
<event>
 8    1  0.2433467E-020  0.8108502E+02  0.7818608E-02  0.1326000E+00
          2   -1    0    0  501    0  0.00000000000E+00  0.00000000000E+00  0.62901285209E+02  0.62901285260E+02  0.25500000000E-02 0. -1.
         -1   -1    0    0    0  501 -0.00000000000E+00 -0.00000000000E+00 -0.26131346767E+02  0.26131347253E+02  0.50400000000E-02 0.  1.
         24    2    1    2    0    0  0.00000000000E+00  0.00000000000E+00  0.36769938442E+02  0.89032632513E+02  0.81085025000E+02 0.  0.
         66    2    3    3    0    0 -0.37397310672E+02  0.38892696848E+01  0.34975981461E+02  0.51390704960E+02  0.20000032311E+01 0.  0.
        -13    1    3    3    0    0  0.37397310672E+02 -0.38892696848E+01  0.17939569801E+01  0.37641927553E+02  0.10566000000E+00 0.  1.
         13    1    4    4    0    0 -0.40545594458E+01  0.24930508954E+00  0.33107435713E+01  0.52415448446E+01  0.10566000000E+00 0. -1.
        -13    1    4    4    0    0 -0.24219101121E+02  0.20152355574E+01  0.23116066008E+02  0.33540866196E+02  0.10566000000E+00 0.  1.
        -14    1    4    4    0    0 -0.91236501060E+01  0.16247290378E+01  0.85491718821E+01  0.12608293920E+02  0.00000000000E+00 0.  1.
<mgrwt>
<rscale>  0 0.81085025E+02</rscale>
<asrwt>0</asrwt>
<pdfrwt beam="1">  1        2 0.96771208E-02 0.81085025E+02</pdfrwt>
<pdfrwt beam="2">  1       -1 0.40202072E-02 0.81085025E+02</pdfrwt>
<totfact> 0.15172315E+05</totfact>
</mgrwt>
</event>
<event>
 8    1  0.2433467E-020  0.8744520E+02  0.7818608E-02  0.1309159E+00
         -1   -1    0    0    0  501 -0.00000000000E+00  0.00000000000E+00  0.24158812168E+02  0.24158812694E+02  0.50400000000E-02 0.  1.
          2   -1    0    0  501    0  0.00000000000E+00 -0.00000000000E+00 -0.79129126694E+02  0.79129126735E+02  0.25500000000E-02 0. -1.
         24    2    1    2    0    0  0.00000000000E+00  0.00000000000E+00 -0.54970314526E+02  0.10328793943E+03  0.87445199711E+02 0.  0.
         66    2    3    3    0    0 -0.20178897684E+02  0.85323640262E+01 -0.72160837234E+02  0.75439880563E+02  0.20000003375E+01 0.  0.
        -13    1    3    3    0    0  0.20178897684E+02 -0.85323640262E+01  0.17190522708E+02  0.27848058867E+02  0.10566000000E+00 0.  1.
         13    1    4    4    0    0 -0.15479377933E+02  0.57639107669E+01 -0.55579959803E+02  0.57982556897E+02  0.10566000000E+00 0. -1.
        -13    1    4    4    0    0 -0.15772167419E+01  0.81357376967E+00 -0.54840454534E+01  0.57650180832E+01  0.10566000000E+00 0. -1.
         14    1    4    4    0    0 -0.31223030093E+01  0.19548794896E+01 -0.11096831977E+02  0.11692305582E+02  0.00000000000E+00 0. -1.
<mgrwt>
<rscale>  0 0.87445200E+02</rscale>
<asrwt>0</asrwt>
<pdfrwt beam="1">  1        2 0.12173712E-01 0.87445200E+02</pdfrwt>
<pdfrwt beam="2">  1       -1 0.37167404E-02 0.87445200E+02</pdfrwt>
<totfact> 0.13079047E+05</totfact>
</mgrwt>
</event>
<event>
 8    1  0.2433467E-020  0.7786107E+02  0.7818608E-02  0.1335233E+00
         -1   -1    0    0    0  501 -0.00000000000E+00  0.00000000000E+00  0.30095197035E+01  0.30095239237E+01  0.50400000000E-02 0.  1.
          2   -1    0    0  501    0  0.00000000000E+00 -0.00000000000E+00 -0.50359712334E+03  0.50359712334E+03  0.25500000000E-02 0. -1.
         24    2    1    2    0    0 -0.35527136788E-14  0.35527136788E-14 -0.50058760363E+03  0.50660664727E+03  0.77861069500E+02 0.  0.
         66    2    3    3    0    0 -0.23949322555E+02  0.26606276307E+02 -0.34958836599E+03  0.35142209610E+03  0.19999995180E+01 0.  0.
        -13    1    3    3    0    0  0.23949322555E+02 -0.26606276307E+02 -0.15099923764E+03  0.15518455117E+03  0.10566000000E+00 0.  1.
         13    1    4    4    0    0 -0.48973439496E+01  0.48403517198E+01 -0.70189571773E+02  0.70526591668E+02  0.10566000000E+00 0. -1.
        -13    1    4    4    0    0 -0.18743071095E+02  0.21622343715E+02 -0.27648985117E+03  0.27796668402E+03  0.10566000000E+00 0.  1.
        -14    1    4    4    0    0 -0.30890750994E+00  0.14358087214E+00 -0.29089430464E+01  0.29288204049E+01  0.00000000000E+00 0.  1.
<mgrwt>
<rscale>  0 0.77861069E+02</rscale>
<asrwt>0</asrwt>
<pdfrwt beam="1">  1        2 0.77476414E-01 0.77861069E+02</pdfrwt>
<pdfrwt beam="2">  1       -1 0.46300376E-03 0.77861069E+02</pdfrwt>
<totfact> 0.32751215E+05</totfact>
</mgrwt>
</event>
<event>
 8    1  0.2433467E-020  0.8013882E+02  0.7818608E-02  0.1328658E+00
         -1   -1    0    0    0  501 -0.00000000000E+00  0.00000000000E+00  0.76518092318E+00  0.76519752143E+00  0.50400000000E-02 0.  1.
          2   -1    0    0  501    0  0.00000000000E+00 -0.00000000000E+00 -0.20982492246E+04  0.20982492246E+04  0.25500000000E-02 0. -1.
         24    2    1    2    0    0 -0.88817841970E-15  0.00000000000E+00 -0.20974840437E+04  0.20990144221E+04  0.80138822062E+02 0.  0.
         66    2    3    3    0    0  0.58128156281E+01 -0.10609664594E+02 -0.20492365762E+04  0.20492732612E+04  0.20000017369E+01 0.  0.
        -13    1    3    3    0    0 -0.58128156281E+01  0.10609664594E+02 -0.48247467439E+02  0.49741160889E+02  0.10566000000E+00 0.  1.
         13    1    4    4    0    0  0.31092241063E+01 -0.66768109118E+01 -0.11700534475E+04  0.11700766335E+04  0.10566000000E+00 0. -1.
        -13    1    4    4    0    0  0.15095273486E+01 -0.16503755825E+01 -0.47641246411E+03  0.47641772588E+03  0.10566000000E+00 0.  1.
        -14    1    4    4    0    0  0.11940641732E+01 -0.22824780999E+01 -0.40277066459E+03  0.40277890182E+03  0.00000000000E+00 0.  1.
<mgrwt>
<rscale>  0 0.80138822E+02</rscale>
<asrwt>0</asrwt>
<pdfrwt beam="1">  1        2 0.32280297E+00 0.80138822E+02</pdfrwt>
<pdfrwt beam="2">  1       -1 0.11772310E-03 0.80138822E+02</pdfrwt>
<totfact> 0.26355531E+05</totfact>
</mgrwt>
</event>
<event>
 8    1  0.2433467E-020  0.7927052E+02  0.7818608E-02  0.1331134E+00
          2   -1    0    0  501    0  0.00000000000E+00  0.00000000000E+00  0.28774994122E+03  0.28774994123E+03  0.25500000000E-02 0. -1.
         -1   -1    0    0    0  501 -0.00000000000E+00 -0.00000000000E+00 -0.54594394586E+01  0.54594417850E+01  0.50400000000E-02 0.  1.
         24    2    1    2    0    0  0.00000000000E+00  0.00000000000E+00  0.28229050176E+03  0.29320938302E+03  0.79270517244E+02 0.  0.
         66    2    3    3    0    0 -0.12128975598E+02 -0.20902066398E+02  0.25731851876E+03  0.25845856249E+03  0.19999985806E+01 0.  0.
        -13    1    3    3    0    0  0.12128975598E+02  0.20902066398E+02  0.24971983000E+02  0.34750820533E+02  0.10566000000E+00 0.  1.
         13    1    4    4    0    0 -0.46059405899E+01 -0.84656001976E+01  0.97478570648E+02  0.97953886983E+02  0.10566000000E+00 0. -1.
        -13    1    4    4    0    0 -0.75489343235E+01 -0.12156567482E+02  0.15704247978E+03  0.15769312022E+03  0.10566000000E+00 0.  1.
         14    1    4    4    0    0  0.25899314963E-01 -0.27989871869E+00  0.27974683313E+01  0.28115552870E+01  0.00000000000E+00 0. -1.
<mgrwt>
<rscale>  0 0.79270517E+02</rscale>
<asrwt>0</asrwt>
<pdfrwt beam="1">  1        2 0.44269226E-01 0.79270517E+02</pdfrwt>
<pdfrwt beam="2">  1       -1 0.83991387E-03 0.79270517E+02</pdfrwt>
<totfact> 0.25722866E+05</totfact>
</mgrwt>
</event>
<event>
 8    1  0.2433467E-020  0.7825101E+02  0.7818608E-02  0.1334089E+00
          2   -1    0    0  501    0  0.00000000000E+00  0.00000000000E+00  0.84339063100E+02  0.84339063139E+02  0.25500000000E-02 0. -1.
         -1   -1    0    0    0  501 -0.00000000000E+00 -0.00000000000E+00 -0.18150605349E+02  0.18150606049E+02  0.50400000000E-02 0.  1.
         24    2    1    2    0    0  0.00000000000E+00  0.00000000000E+00  0.66188457751E+02  0.10248966919E+03  0.78251008624E+02 0.  0.
         66    2    3    3    0    0  0.22425306604E+02  0.30567372373E+02  0.45647176726E+02  0.59371065079E+02  0.19999988722E+01 0.  0.
        -13    1    3    3    0    0 -0.22425306604E+02 -0.30567372373E+02  0.20541281025E+02  0.43118604108E+02  0.10566000000E+00 0.  1.
         13    1    4    4    0    0  0.10070439607E+02  0.13842898170E+02  0.19260503797E+02  0.25768541949E+02  0.10566000000E+00 0. -1.
        -13    1    4    4    0    0  0.62481946520E+01  0.79769406881E+01  0.12519081714E+02  0.16106212781E+02  0.10566000000E+00 0.  1.
         14    1    4    4    0    0  0.61066723448E+01  0.87475335145E+01  0.13867591215E+02  0.17496310349E+02  0.00000000000E+00 0. -1.
<mgrwt>
<rscale>  0 0.78251009E+02</rscale>
<asrwt>0</asrwt>
<pdfrwt beam="1">  1        2 0.12975240E-01 0.78251009E+02</pdfrwt>
<pdfrwt beam="2">  1       -1 0.27924009E-02 0.78251009E+02</pdfrwt>
<totfact> 0.17962138E+05</totfact>
</mgrwt>
</event>
<event>
 8    1  0.2433467E-020  0.8313440E+02  0.7818608E-02  0.1320385E+00
         -1   -1    0    0    0  501 -0.00000000000E+00  0.00000000000E+00  0.88708109341E+02  0.88708109484E+02  0.50400000000E-02 0.  1.
          2   -1    0    0  501    0  0.00000000000E+00 -0.00000000000E+00 -0.19477722295E+02  0.19477722462E+02  0.25500000000E-02 0. -1.
         24    2    1    2    0    0  0.35527136788E-14 -0.88817841970E-15  0.69230387046E+02  0.10818583195E+03  0.83134395669E+02 0.  0.
         66    2    3    3    0    0  0.19184410430E+02 -0.65880738740E+01 -0.12544025607E+02  0.23933175906E+02  0.20000024028E+01 0.  0.
        -13    1    3    3    0    0 -0.19184410430E+02  0.65880738740E+01  0.81774412653E+02  0.84252656039E+02  0.10566000000E+00 0.  1.
         13    1    4    4    0    0  0.46899879100E+01 -0.14020866015E+01 -0.29371113078E+01  0.57096077189E+01  0.10566000000E+00 0. -1.
        -13    1    4    4    0    0  0.95327297692E+01 -0.25856350326E+01 -0.63754658154E+01  0.11756537491E+02  0.10566000000E+00 0.  1.
        -14    1    4    4    0    0  0.49616927512E+01 -0.26003522399E+01 -0.32314484833E+01  0.64670306965E+01  0.00000000000E+00 0.  1.
<mgrwt>
<rscale>  0 0.83134396E+02</rscale>
<asrwt>0</asrwt>
<pdfrwt beam="1">  1        2 0.29965726E-02 0.83134396E+02</pdfrwt>
<pdfrwt beam="2">  1       -1 0.13647402E-01 0.83134396E+02</pdfrwt>
<totfact> 0.11051320E+05</totfact>
</mgrwt>
</event>
<event>
 8    1  0.2433467E-020  0.7859192E+02  0.7818608E-02  0.1333096E+00
         -1   -1    0    0    0  501 -0.00000000000E+00  0.00000000000E+00  0.57951226357E+01  0.57951248274E+01  0.50400000000E-02 0.  1.
          2   -1    0    0  501    0  0.00000000000E+00 -0.00000000000E+00 -0.26646063903E+03  0.26646063904E+03  0.25500000000E-02 0. -1.
         24    2    1    2    0    0  0.00000000000E+00  0.00000000000E+00 -0.26066551639E+03  0.27225576387E+03  0.78591917670E+02 0.  0.
         66    2    3    3    0    0 -0.17403806824E+02  0.16633596658E+02 -0.23789546794E+03  0.23911884638E+03  0.20000001208E+01 0.  0.
        -13    1    3    3    0    0  0.17403806824E+02 -0.16633596658E+02 -0.22770048457E+02  0.33136917487E+02  0.10566000000E+00 0.  1.
         13    1    4    4    0    0 -0.26788841542E+01  0.20274783284E+01 -0.31021924372E+02  0.31203494107E+02  0.10566000000E+00 0. -1.
        -13    1    4    4    0    0 -0.65447035946E+01  0.65988066014E+01 -0.85857467902E+02  0.86359095365E+02  0.10566000000E+00 0.  1.
         14    1    4    4    0    0 -0.81802190752E+01  0.80073117284E+01 -0.12101607566E+03  0.12155625691E+03  0.00000000000E+00 0. -1.
<mgrwt>
<rscale>  0 0.78591918E+02</rscale>
<asrwt>0</asrwt>
<pdfrwt beam="1">  1        2 0.40993935E-01 0.78591918E+02</pdfrwt>
<pdfrwt beam="2">  1       -1 0.89155771E-03 0.78591918E+02</pdfrwt>
<totfact> 0.25587878E+05</totfact>
</mgrwt>
</event>
<event>
 8    1  0.2433467E-020  0.7926296E+02  0.7818608E-02  0.1331156E+00
         -1   -1    0    0    0  501 -0.00000000000E+00  0.00000000000E+00  0.11586820992E+01  0.11586930605E+01  0.50400000000E-02 0.  1.
          2   -1    0    0  501    0  0.00000000000E+00 -0.00000000000E+00 -0.13555459737E+04  0.13555459737E+04  0.25500000000E-02 0. -1.
         24    2    1    2    0    0 -0.35527136788E-14  0.00000000000E+00 -0.13543872916E+04  0.13567046667E+04  0.79262962134E+02 0.  0.
         66    2    3    3    0    0 -0.17524012303E+02  0.10421956380E+02 -0.12588142114E+04  0.12589809081E+04  0.19999957709E+01 0.  0.
        -13    1    3    3    0    0  0.17524012303E+02 -0.10421956380E+02 -0.95573080206E+02  0.97723758657E+02  0.10566000000E+00 0.  1.
         13    1    4    4    0    0 -0.39986713055E+01  0.16114161699E+01 -0.25741050771E+03  0.25744662880E+03  0.10566000000E+00 0. -1.
        -13    1    4    4    0    0 -0.10927852370E+01  0.82106584976E+00 -0.10101854687E+03  0.10102784915E+03  0.10566000000E+00 0.  1.
         14    1    4    4    0    0 -0.12432555761E+02  0.79894743604E+01 -0.90038515679E+03  0.90050643013E+03  0.00000000000E+00 0. -1.
<mgrwt>
<rscale>  0 0.79262962E+02</rscale>
<asrwt>0</asrwt>
<pdfrwt beam="1">  1        2 0.20854426E+00 0.79262962E+02</pdfrwt>
<pdfrwt beam="2">  1       -1 0.17826071E-03 0.79262962E+02</pdfrwt>
<totfact> 0.35137202E+05</totfact>
</mgrwt>
</event>
<event>
 8    1  0.2433467E-020  0.8815434E+02  0.7818608E-02  0.1307384E+00
          2   -1    0    0  501    0  0.00000000000E+00  0.00000000000E+00  0.33725406348E+02  0.33725406444E+02  0.25500000000E-02 0. -1.
         -1   -1    0    0    0  501 -0.00000000000E+00 -0.00000000000E+00 -0.57606331889E+02  0.57606332110E+02  0.50400000000E-02 0.  1.
         24    2    1    2    0    0  0.00000000000E+00  0.00000000000E+00 -0.23880925541E+02  0.91331738554E+02  0.88154341144E+02 0.  0.
         66    2    3    3    0    0  0.33522695533E+02  0.28054240866E+02 -0.17619377266E+02  0.47172597969E+02  0.19999993798E+01 0.  0.
        -13    1    3    3    0    0 -0.33522695533E+02 -0.28054240866E+02 -0.62615482755E+01  0.44159140585E+02  0.10566000000E+00 0.  1.
         13    1    4    4    0    0  0.46036559328E+01  0.35772156460E+01 -0.25030700585E+01  0.63456003246E+01  0.10566000000E+00 0. -1.
        -13    1    4    4    0    0  0.19184371575E+02  0.16467583736E+02 -0.10923344171E+02  0.27541823446E+02  0.10566000000E+00 0.  1.
        -14    1    4    4    0    0  0.97346680255E+01  0.80094414840E+01 -0.41929630367E+01  0.13285174198E+02  0.00000000000E+00 0.  1.
<mgrwt>
<rscale>  0 0.88154341E+02</rscale>
<asrwt>0</asrwt>
<pdfrwt beam="1">  1        2 0.51885241E-02 0.88154341E+02</pdfrwt>
<pdfrwt beam="2">  1       -1 0.88625126E-02 0.88154341E+02</pdfrwt>
<totfact> 0.10484893E+05</totfact>
</mgrwt>
</event>
<event>
 8    1  0.2602659E-020  0.7689161E+02  0.7818608E-02  0.1338111E+00
         -1   -1    0    0    0  501 -0.00000000000E+00  0.00000000000E+00  0.19559218851E+01  0.19559283786E+01  0.50400000000E-02 0.  1.
          2   -1    0    0  501    0  0.00000000000E+00 -0.00000000000E+00 -0.75569357443E+03  0.75569357443E+03  0.25500000000E-02 0. -1.
         24    2    1    2    0    0  0.17763568394E-14 -0.35527136788E-14 -0.75373765254E+03  0.75764950281E+03  0.76891613644E+02 0.  0.
         66    2    3    3    0    0 -0.12190829243E+02  0.19513771585E+02 -0.68029504635E+03  0.68068697188E+03  0.19999992936E+01 0.  0.
        -13    1    3    3    0    0  0.12190829243E+02 -0.19513771585E+02 -0.73442606188E+02  0.76962530928E+02  0.10566000000E+00 0.  1.
         13    1    4    4    0    0 -0.86169134614E+01  0.13844536418E+02 -0.47876564640E+03  0.47904329420E+03  0.10566000000E+00 0. -1.
        -13    1    4    4    0    0 -0.20997145300E+01  0.41777185385E+01 -0.14491819699E+03  0.14499364509E+03  0.10566000000E+00 0.  1.
        -14    1    4    4    0    0 -0.14742012513E+01  0.14915166288E+01 -0.56611202967E+02  0.56650032591E+02  0.00000000000E+00 0.  1.
<mgrwt>
<rscale>  0 0.76891614E+02</rscale>
<asrwt>0</asrwt>
<pdfrwt beam="1">  1        2 0.11626032E+00 0.76891614E+02</pdfrwt>
<pdfrwt beam="2">  1       -1 0.30091216E-03 0.76891614E+02</pdfrwt>
<totfact> 0.37684522E+05</totfact>
</mgrwt>
</event>
<event>
 8    1  0.2433467E-020  0.8994084E+02  0.7818608E-02  0.1302995E+00
          2   -1    0    0  501    0  0.00000000000E+00  0.00000000000E+00  0.93464990806E+03  0.93464990806E+03  0.25500000000E-02 0. -1.
         -1   -1    0    0    0  501 -0.00000000000E+00 -0.00000000000E+00 -0.21637364195E+01  0.21637422893E+01  0.50400000000E-02 0.  1.
         24    2    1    2    0    0  0.71054273576E-14 -0.88817841970E-15  0.93248617164E+03  0.93681365035E+03  0.89940842705E+02 0.  0.
         66    2    3    3    0    0 -0.38350816768E+02  0.55218963323E+01  0.70377634309E+03  0.70484495996E+03  0.19999982582E+01 0.  0.
        -13    1    3    3    0    0  0.38350816768E+02 -0.55218963323E+01  0.22870982855E+03  0.23196869040E+03  0.10566000000E+00 0.  1.
         13    1    4    4    0    0 -0.18932508520E+02  0.28842869056E+01  0.33854749452E+03  0.33908874384E+03  0.10566000000E+00 0. -1.
        -13    1    4    4    0    0 -0.15922137793E+02  0.17102551336E+01  0.30035952995E+03  0.30078613306E+03  0.10566000000E+00 0. -1.
         14    1    4    4    0    0 -0.34961704542E+01  0.92735429312E+00  0.64869318619E+02  0.64970083053E+02  0.00000000000E+00 0. -1.
<mgrwt>
<rscale>  0 0.89940843E+02</rscale>
<asrwt>0</asrwt>
<pdfrwt beam="1">  1        2 0.14379241E+00 0.89940843E+02</pdfrwt>
<pdfrwt beam="2">  1       -1 0.33288272E-03 0.89940843E+02</pdfrwt>
<totfact> 0.25832901E+05</totfact>
</mgrwt>
</event>
<event>
 8    1  0.2433467E-020  0.8111756E+02  0.7818608E-02  0.1325910E+00
          2   -1    0    0  501    0  0.00000000000E+00  0.00000000000E+00  0.52555421640E+03  0.52555421641E+03  0.25500000000E-02 0. -1.
         -1   -1    0    0    0  501 -0.00000000000E+00 -0.00000000000E+00 -0.31300550798E+01  0.31300591374E+01  0.50400000000E-02 0.  1.
         24    2    1    2    0    0  0.00000000000E+00  0.00000000000E+00  0.52242416132E+03  0.52868427555E+03  0.81117562069E+02 0.  0.
         66    2    3    3    0    0  0.22447238935E+02 -0.56646184263E+01  0.47822261555E+03  0.47878683823E+03  0.20000008091E+01 0.  0.
        -13    1    3    3    0    0 -0.22447238935E+02  0.56646184263E+01  0.44201545772E+02  0.49897437313E+02  0.10566000000E+00 0.  1.
         13    1    4    4    0    0  0.91905278829E+01 -0.25216845770E+01  0.18663256356E+03  0.18687575990E+03  0.10566000000E+00 0.  1.
        -13    1    4    4    0    0  0.11239781529E+02 -0.22634412285E+01  0.25018646581E+03  0.25044906606E+03  0.10566000000E+00 0. -1.
        -14    1    4    4    0    0  0.20169295239E+01 -0.87949262086E+00  0.41403586186E+02  0.41462012265E+02  0.00000000000E+00 0.  1.
<mgrwt>
<rscale>  0 0.81117562E+02</rscale>
<asrwt>0</asrwt>
<pdfrwt beam="1">  1        2 0.80854527E-01 0.81117562E+02</pdfrwt>
<pdfrwt beam="2">  1       -1 0.48154706E-03 0.81117562E+02</pdfrwt>
<totfact> 0.29832969E+05</totfact>
</mgrwt>
</event>
<event>
 8    1  0.2433467E-020  0.7902245E+02  0.7818608E-02  0.1331849E+00
          2   -1    0    0  501    0  0.00000000000E+00  0.00000000000E+00  0.31643169462E+02  0.31643169565E+02  0.25500000000E-02 0. -1.
         -1   -1    0    0    0  501 -0.00000000000E+00 -0.00000000000E+00 -0.49335661561E+02  0.49335661818E+02  0.50400000000E-02 0.  1.
         24    2    1    2    0    0  0.44408920985E-15 -0.17763568394E-14 -0.17692492098E+02  0.80978831383E+02  0.79022445264E+02 0.  0.
         66    2    3    3    0    0 -0.29775167115E+01  0.10811681958E+02  0.29945336409E+02  0.32038746162E+02  0.20000026230E+01 0.  0.
        -13    1    3    3    0    0  0.29775167115E+01 -0.10811681958E+02 -0.47637828507E+02  0.48940085221E+02  0.10566000000E+00 0.  1.
         13    1    4    4    0    0 -0.18821514893E+01  0.49660514145E+01  0.14987960668E+02  0.15901392703E+02  0.10566000000E+00 0. -1.
        -13    1    4    4    0    0  0.85909275304E-01  0.77918818938E+00  0.28913449147E+01  0.29975913814E+01  0.10566000000E+00 0.  1.
         14    1    4    4    0    0 -0.11812744976E+01  0.50664423541E+01  0.12066030826E+02  0.13139762078E+02  0.00000000000E+00 0. -1.
<mgrwt>
<rscale>  0 0.79022445E+02</rscale>
<asrwt>0</asrwt>
<pdfrwt beam="1">  1        2 0.48681799E-02 0.79022445E+02</pdfrwt>
<pdfrwt beam="2">  1       -1 0.75901018E-02 0.79022445E+02</pdfrwt>
<totfact> 0.14072824E+05</totfact>
</mgrwt>
</event>
<event>
 8    1  0.2433467E-020  0.7180777E+02  0.7818608E-02  0.1354051E+00
         -1   -1    0    0    0  501 -0.00000000000E+00  0.00000000000E+00  0.16963371794E+01  0.16963446666E+01  0.50400000000E-02 0.  1.
          2   -1    0    0  501    0  0.00000000000E+00 -0.00000000000E+00 -0.75992327063E+03  0.75992327063E+03  0.25500000000E-02 0. -1.
         24    2    1    2    0    0 -0.17763568394E-14  0.35527136788E-14 -0.75822693345E+03  0.76161961530E+03  0.71807769783E+02 0.  0.
         66    2    3    3    0    0  0.13254937090E+02 -0.25283738780E+02 -0.60986613381E+03  0.61053719132E+03  0.20000010706E+01 0.  0.
        -13    1    3    3    0    0 -0.13254937090E+02  0.25283738780E+02 -0.14836079964E+03  0.15108242398E+03  0.10566000000E+00 0.  1.
         13    1    4    4    0    0  0.69799730463E+01 -0.12408735622E+02 -0.29996955889E+03  0.30030724961E+03  0.10566000000E+00 0. -1.
        -13    1    4    4    0    0  0.20295928525E+00 -0.16559612540E+00 -0.79440821932E+01  0.79491018660E+01  0.10566000000E+00 0. -1.
        -14    1    4    4    0    0  0.60720047586E+01 -0.12709407032E+02 -0.30195249273E+03  0.30228083984E+03  0.00000000000E+00 0.  1.
<mgrwt>
<rscale>  0 0.71807770E+02</rscale>
<asrwt>0</asrwt>
<pdfrwt beam="1">  1        2 0.11691100E+00 0.71807770E+02</pdfrwt>
<pdfrwt beam="2">  1       -1 0.26097613E-03 0.71807770E+02</pdfrwt>
<totfact> 0.45002381E+05</totfact>
</mgrwt>
</event>
<event>
 8    1  0.2433467E-020  0.8128971E+02  0.7818608E-02  0.1325431E+00
          2   -1    0    0  501    0  0.00000000000E+00  0.00000000000E+00  0.62710666971E+03  0.62710666971E+03  0.25500000000E-02 0. -1.
         -1   -1    0    0    0  501 -0.00000000000E+00 -0.00000000000E+00 -0.26343246287E+01  0.26343294500E+01  0.50400000000E-02 0.  1.
         24    2    1    2    0    0  0.00000000000E+00  0.00000000000E+00  0.62447234508E+03  0.62974099916E+03  0.81289705733E+02 0.  0.
         66    2    3    3    0    0  0.70171820478E+01 -0.80961656133E+01  0.61596075756E+03  0.61605717559E+03  0.19999990312E+01 0.  0.
        -13    1    3    3    0    0 -0.70171820478E+01  0.80961656133E+01  0.85115875179E+01  0.13683823575E+02  0.10566000000E+00 0.  1.
         13    1    4    4    0    0  0.18489262617E+01 -0.17737466084E+01  0.18327841204E+03  0.18329635073E+03  0.10566000000E+00 0. -1.
        -13    1    4    4    0    0  0.20043608866E+01 -0.16514332290E+01  0.13435665827E+03  0.13438179743E+03  0.10566000000E+00 0.  1.
        -14    1    4    4    0    0  0.31638948995E+01 -0.46709857759E+01  0.29832568725E+03  0.29837902744E+03  0.00000000000E+00 0.  1.
<mgrwt>
<rscale>  0 0.81289706E+02</rscale>
<asrwt>0</asrwt>
<pdfrwt beam="1">  1        2 0.96478080E-01 0.81289706E+02</pdfrwt>
<pdfrwt beam="2">  1       -1 0.40528053E-03 0.81289706E+02</pdfrwt>
<totfact> 0.31224946E+05</totfact>
</mgrwt>
</event>
<event>
 8    1  0.2433467E-020  0.7989963E+02  0.7818608E-02  0.1329337E+00
          2   -1    0    0  501    0  0.00000000000E+00  0.00000000000E+00  0.16249905781E+03  0.16249905783E+03  0.25500000000E-02 0. -1.
         -1   -1    0    0    0  501 -0.00000000000E+00 -0.00000000000E+00 -0.98215193693E+01  0.98215206625E+01  0.50400000000E-02 0.  1.
         24    2    1    2    0    0  0.00000000000E+00  0.00000000000E+00  0.15267753844E+03  0.17232057849E+03  0.79899630961E+02 0.  0.
         66    2    3    3    0    0 -0.12703124352E+02 -0.22157551478E+02  0.14256826943E+03  0.14485177911E+03  0.20000013834E+01 0.  0.
        -13    1    3    3    0    0  0.12703124352E+02  0.22157551478E+02  0.10109269008E+02  0.27468799386E+02  0.10566000000E+00 0.  1.
         13    1    4    4    0    0 -0.61480635768E+01 -0.10012029618E+02  0.63014734453E+02  0.64100759317E+02  0.10566000000E+00 0. -1.
        -13    1    4    4    0    0 -0.40470213398E+01 -0.86224315568E+01  0.55695748285E+02  0.56504444504E+02  0.10566000000E+00 0.  1.
        -14    1    4    4    0    0 -0.25080394353E+01 -0.35230903035E+01  0.23857786695E+02  0.24246575285E+02  0.00000000000E+00 0.  1.
<mgrwt>
<rscale>  0 0.79899631E+02</rscale>
<asrwt>0</asrwt>
<pdfrwt beam="1">  1        2 0.24999854E-01 0.79899631E+02</pdfrwt>
<pdfrwt beam="2">  1       -1 0.15110032E-02 0.79899631E+02</pdfrwt>
<totfact> 0.20627883E+05</totfact>
</mgrwt>
</event>
<event>
 8    1  0.2433467E-020  0.7885682E+02  0.7818608E-02  0.1332327E+00
         -1   -1    0    0    0  501 -0.00000000000E+00  0.00000000000E+00  0.29784158894E+01  0.29784201537E+01  0.50400000000E-02 0.  1.
          2   -1    0    0  501    0  0.00000000000E+00 -0.00000000000E+00 -0.52195476050E+03  0.52195476051E+03  0.25500000000E-02 0. -1.
         24    2    1    2    0    0  0.35527136788E-14  0.00000000000E+00 -0.51897634461E+03  0.52493318066E+03  0.78856818934E+02 0.  0.
         66    2    3    3    0    0 -0.23218866591E+02 -0.65874154470E+00 -0.47152932379E+03  0.47210534089E+03  0.19999986777E+01 0.  0.
        -13    1    3    3    0    0  0.23218866591E+02  0.65874154470E+00 -0.47447020820E+02  0.52827839772E+02  0.10566000000E+00 0.  1.
         13    1    4    4    0    0 -0.10620316597E+02 -0.83288873054E+00 -0.20838740230E+03  0.20865954430E+03  0.10566000000E+00 0. -1.
        -13    1    4    4    0    0 -0.36204188849E+01  0.25416980660E+00 -0.85663477526E+02  0.85740390604E+02  0.10566000000E+00 0.  1.
        -14    1    4    4    0    0 -0.89781311091E+01 -0.80022620764E-01 -0.17747844397E+03  0.17770540598E+03  0.00000000000E+00 0.  1.
<mgrwt>
<rscale>  0 0.78856819E+02</rscale>
<asrwt>0</asrwt>
<pdfrwt beam="1">  1        2 0.80300660E-01 0.78856819E+02</pdfrwt>
<pdfrwt beam="2">  1       -1 0.45821857E-03 0.78856819E+02</pdfrwt>
<totfact> 0.32044279E+05</totfact>
</mgrwt>
</event>
<event>
 8    1  0.2433467E-020  0.7843967E+02  0.7818608E-02  0.1333539E+00
          2   -1    0    0  501    0  0.00000000000E+00  0.00000000000E+00  0.12004269510E+03  0.12004269512E+03  0.25500000000E-02 0. -1.
         -1   -1    0    0    0  501 -0.00000000000E+00 -0.00000000000E+00 -0.12813735420E+02  0.12813736411E+02  0.50400000000E-02 0.  1.
         24    2    1    2    0    0  0.17763568394E-14  0.00000000000E+00  0.10722895968E+03  0.13285643154E+03  0.78439668580E+02 0.  0.
         66    2    3    3    0    0  0.13686656651E+02  0.30865309619E+02  0.87362694488E+02  0.93681547173E+02  0.19999961231E+01 0.  0.
        -13    1    3    3    0    0 -0.13686656651E+02 -0.30865309619E+02  0.19866265189E+02  0.39174884362E+02  0.10566000000E+00 0.  1.
         13    1    4    4    0    0  0.15420184928E+01  0.34658033017E+01  0.99995007239E+01  0.10695363122E+02  0.10566000000E+00 0. -1.
        -13    1    4    4    0    0  0.23474930516E+01  0.48671479487E+01  0.15924084115E+02  0.16816285908E+02  0.10566000000E+00 0.  1.
        -14    1    4    4    0    0  0.97971451069E+01  0.22532358369E+02  0.61439109648E+02  0.66169898143E+02  0.00000000000E+00 0.  1.
<mgrwt>
<rscale>  0 0.78439669E+02</rscale>
<asrwt>0</asrwt>
<pdfrwt beam="1">  1        2 0.18468108E-01 0.78439669E+02</pdfrwt>
<pdfrwt beam="2">  1       -1 0.19713439E-02 0.78439669E+02</pdfrwt>
<totfact> 0.19695235E+05</totfact>
</mgrwt>
</event>
<event>
 8    1  0.2433467E-020  0.8092738E+02  0.7818608E-02  0.1326440E+00
         -1   -1    0    0    0  501 -0.00000000000E+00  0.00000000000E+00  0.14622559536E+02  0.14622560404E+02  0.50400000000E-02 0.  1.
          2   -1    0    0  501    0  0.00000000000E+00 -0.00000000000E+00 -0.11197152660E+03  0.11197152663E+03  0.25500000000E-02 0. -1.
         24    2    1    2    0    0  0.00000000000E+00  0.00000000000E+00 -0.97348967061E+02  0.12659408703E+03  0.80927384013E+02 0.  0.
         66    2    3    3    0    0 -0.21782472438E+02  0.18887969404E+02 -0.93061510451E+02  0.97445760458E+02  0.20000025257E+01 0.  0.
        -13    1    3    3    0    0  0.21782472438E+02 -0.18887969404E+02 -0.42874566096E+01  0.29148326572E+02  0.10566000000E+00 0.  1.
         13    1    4    4    0    0 -0.15803397822E+02  0.12841778093E+02 -0.65472965020E+02  0.68566602364E+02  0.10566000000E+00 0. -1.
        -13    1    4    4    0    0 -0.54870380091E+00  0.31453323222E+00 -0.20839841550E+01  0.21804038638E+01  0.10566000000E+00 0. -1.
         14    1    4    4    0    0 -0.54303708151E+01  0.57316580789E+01 -0.25504561277E+02  0.26698754230E+02  0.00000000000E+00 0. -1.
<mgrwt>
<rscale>  0 0.80927384E+02</rscale>
<asrwt>0</asrwt>
<pdfrwt beam="1">  1        2 0.17226388E-01 0.80927384E+02</pdfrwt>
<pdfrwt beam="2">  1       -1 0.22496247E-02 0.80927384E+02</pdfrwt>
<totfact> 0.17752680E+05</totfact>
</mgrwt>
</event>
<event>
 8    1  0.2433467E-020  0.8035511E+02  0.7818608E-02  0.1328047E+00
          2   -1    0    0  501    0  0.00000000000E+00  0.00000000000E+00  0.55462794318E+02  0.55462794376E+02  0.25500000000E-02 0. -1.
         -1   -1    0    0    0  501 -0.00000000000E+00 -0.00000000000E+00 -0.29104840584E+02  0.29104841021E+02  0.50400000000E-02 0.  1.
         24    2    1    2    0    0  0.00000000000E+00  0.71054273576E-14  0.26357953733E+02  0.84567635397E+02  0.80355107066E+02 0.  0.
         66    2    3    3    0    0  0.35666672030E+01 -0.39978174368E+02  0.12007977478E+02  0.41942425446E+02  0.19999971067E+01 0.  0.
        -13    1    3    3    0    0 -0.35666672030E+01  0.39978174368E+02  0.14349976255E+02  0.42625209951E+02  0.10566000000E+00 0.  1.
         13    1    4    4    0    0  0.21576560378E+01 -0.14615218428E+02  0.39646306789E+01  0.15296716959E+02  0.10566000000E+00 0. -1.
        -13    1    4    4    0    0  0.98317095920E+00 -0.16656227502E+02  0.53037794894E+01  0.17508220373E+02  0.10566000000E+00 0.  1.
         14    1    4    4    0    0  0.42584020596E+00 -0.87067284381E+01  0.27395673102E+01  0.91374881134E+01  0.00000000000E+00 0. -1.
<mgrwt>
<rscale>  0 0.80355107E+02</rscale>
<asrwt>0</asrwt>
<pdfrwt beam="1">  1        2 0.85327375E-02 0.80355107E+02</pdfrwt>
<pdfrwt beam="2">  1       -1 0.44776679E-02 0.80355107E+02</pdfrwt>
<totfact> 0.15105991E+05</totfact>
</mgrwt>
</event>
<event>
 8    1  0.2433467E-020  0.8139173E+02  0.7818608E-02  0.1325148E+00
         -1   -1    0    0    0  501 -0.00000000000E+00  0.00000000000E+00  0.51278630542E+03  0.51278630544E+03  0.50400000000E-02 0.  1.
          2   -1    0    0  501    0  0.00000000000E+00 -0.00000000000E+00 -0.32297138750E+01  0.32297148817E+01  0.25500000000E-02 0. -1.
         24    2    1    2    0    0  0.35527136788E-14  0.35527136788E-14  0.50955659154E+03  0.51601602033E+03  0.81391727138E+02 0.  0.
         66    2    3    3    0    0 -0.24790799205E+02 -0.28185954686E+02  0.35419055633E+03  0.35617970458E+03  0.19999998129E+01 0.  0.
        -13    1    3    3    0    0  0.24790799205E+02  0.28185954686E+02  0.15536603522E+03  0.15983631574E+03  0.10566000000E+00 0.  1.
         13    1    4    4    0    0 -0.17756057439E+02 -0.19888760813E+02  0.25659857626E+03  0.25798000094E+03  0.10566000000E+00 0. -1.
        -13    1    4    4    0    0 -0.58352158840E+01 -0.63808498650E+01  0.77385358030E+02  0.77867000655E+02  0.10566000000E+00 0.  1.
         14    1    4    4    0    0 -0.11995258828E+01 -0.19163440080E+01  0.20206622037E+02  0.20332702989E+02  0.00000000000E+00 0. -1.
<mgrwt>
<rscale>  0 0.81391727E+02</rscale>
<asrwt>0</asrwt>
<pdfrwt beam="1">  1        2 0.49687925E-03 0.81391727E+02</pdfrwt>
<pdfrwt beam="2">  1       -1 0.78890183E-01 0.81391727E+02</pdfrwt>
<totfact> 0.62872474E+04</totfact>
</mgrwt>
</event>
<event>
 8    1  0.2433467E-020  0.8171281E+02  0.7818608E-02  0.1324260E+00
         -1   -1    0    0    0  501 -0.00000000000E+00  0.00000000000E+00  0.30888863204E+01  0.30888904322E+01  0.50400000000E-02 0.  1.
          2   -1    0    0  501    0  0.00000000000E+00 -0.00000000000E+00 -0.54040338734E+03  0.54040338734E+03  0.25500000000E-02 0. -1.
         24    2    1    2    0    0  0.00000000000E+00  0.00000000000E+00 -0.53731450102E+03  0.54349227777E+03  0.81712808045E+02 0.  0.
         66    2    3    3    0    0  0.27714389100E+02  0.20001710538E+02 -0.41740805757E+03  0.41880979251E+03  0.19999977628E+01 0.  0.
        -13    1    3    3    0    0 -0.27714389100E+02 -0.20001710538E+02 -0.11990644345E+03  0.12468248527E+03  0.10566000000E+00 0.  1.
         13    1    4    4    0    0  0.94449595106E+00  0.87506688395E+00 -0.18845941491E+02  0.18890169120E+02  0.10566000000E+00 0.  1.
        -13    1    4    4    0    0  0.16313923207E+02  0.12356832160E+02 -0.24600569850E+03  0.24685552506E+03  0.10566000000E+00 0. -1.
        -14    1    4    4    0    0  0.10455969942E+02  0.67698114946E+01 -0.15255641757E+03  0.15306409833E+03  0.00000000000E+00 0.  1.
<mgrwt>
<rscale>  0 0.81712808E+02</rscale>
<asrwt>0</asrwt>
<pdfrwt beam="1">  1        2 0.83138908E-01 0.81712808E+02</pdfrwt>
<pdfrwt beam="2">  1       -1 0.47521403E-03 0.81712808E+02</pdfrwt>
<totfact> 0.29520360E+05</totfact>
</mgrwt>
</event>
<event>
 8    1  0.2433467E-020  0.8271274E+02  0.7818608E-02  0.1321525E+00
          2   -1    0    0  501    0  0.00000000000E+00  0.00000000000E+00  0.71422217009E+03  0.71422217010E+03  0.25500000000E-02 0. -1.
         -1   -1    0    0    0  501 -0.00000000000E+00 -0.00000000000E+00 -0.23946996172E+01  0.23947049209E+01  0.50400000000E-02 0.  1.
         24    2    1    2    0    0 -0.17763568394E-14  0.00000000000E+00  0.71182747047E+03  0.71661687502E+03  0.82712742895E+02 0.  0.
         66    2    3    3    0    0  0.10415511051E+02 -0.30343628245E+02  0.58190346241E+03  0.58279057835E+03  0.19999992398E+01 0.  0.
        -13    1    3    3    0    0 -0.10415511051E+02  0.30343628245E+02  0.12992400806E+03  0.13382629667E+03  0.10566000000E+00 0.  1.
         13    1    4    4    0    0  0.75092776681E+01 -0.20630085951E+02  0.40212617423E+03  0.40272504375E+03  0.10566000000E+00 0. -1.
        -13    1    4    4    0    0  0.14542075197E+00 -0.12141529682E+01  0.25719600460E+02  0.25748870393E+02  0.10566000000E+00 0.  1.
        -14    1    4    4    0    0  0.27608126308E+01 -0.84993893254E+01  0.15405768772E+03  0.15431666421E+03  0.00000000000E+00 0.  1.
<mgrwt>
<rscale>  0 0.82712743E+02</rscale>
<asrwt>0</asrwt>
<pdfrwt beam="1">  1        2 0.10988043E+00 0.82712743E+02</pdfrwt>
<pdfrwt beam="2">  1       -1 0.36841542E-03 0.82712743E+02</pdfrwt>
<totfact> 0.30809089E+05</totfact>
</mgrwt>
</event>
<event>
 8    1  0.2433467E-020  0.7905201E+02  0.7818608E-02  0.1331763E+00
         -1   -1    0    0    0  501 -0.00000000000E+00  0.00000000000E+00  0.19604120544E+02  0.19604121192E+02  0.50400000000E-02 0.  1.
          2   -1    0    0  501    0  0.00000000000E+00 -0.00000000000E+00 -0.79692694634E+02  0.79692694675E+02  0.25500000000E-02 0. -1.
         24    2    1    2    0    0 -0.88817841970E-15  0.00000000000E+00 -0.60088574090E+02  0.99296815867E+02  0.79052013922E+02 0.  0.
         66    2    3    3    0    0  0.79967102487E+01  0.35247252235E+02 -0.50081693557E+02  0.61793949484E+02  0.19999996017E+01 0.  0.
        -13    1    3    3    0    0 -0.79967102487E+01 -0.35247252235E+02 -0.10006880534E+02  0.37502866383E+02  0.10566000000E+00 0.  1.
         13    1    4    4    0    0  0.19240809756E+01  0.82324933932E+01 -0.11466750393E+02  0.14246879086E+02  0.10566000000E+00 0. -1.
        -13    1    4    4    0    0  0.27720832353E+01  0.12590175651E+02 -0.19439702480E+02  0.23326169101E+02  0.10566000000E+00 0.  1.
        -14    1    4    4    0    0  0.33005460378E+01  0.14424583190E+02 -0.19175240684E+02  0.24220901297E+02  0.00000000000E+00 0.  1.
<mgrwt>
<rscale>  0 0.79052014E+02</rscale>
<asrwt>0</asrwt>
<pdfrwt beam="1">  1        2 0.12260414E-01 0.79052014E+02</pdfrwt>
<pdfrwt beam="2">  1       -1 0.30160187E-02 0.79052014E+02</pdfrwt>
<totfact> 0.17223530E+05</totfact>
</mgrwt>
</event>
<event>
 8    1  0.2433467E-020  0.8521243E+02  0.7818608E-02  0.1314878E+00
          2   -1    0    0  501    0  0.00000000000E+00  0.00000000000E+00  0.38770731796E+02  0.38770731880E+02  0.25500000000E-02 0. -1.
         -1   -1    0    0    0  501 -0.00000000000E+00 -0.00000000000E+00 -0.46821130246E+02  0.46821130517E+02  0.50400000000E-02 0.  1.
         24    2    1    2    0    0  0.00000000000E+00  0.00000000000E+00 -0.80503984501E+01  0.85591862397E+02  0.85212428632E+02 0.  0.
         66    2    3    3    0    0  0.42293931556E+02 -0.43530923475E+01 -0.16592858411E+01  0.42596705183E+02  0.20000008782E+01 0.  0.
        -13    1    3    3    0    0 -0.42293931556E+02  0.43530923475E+01 -0.63911126090E+01  0.42995157214E+02  0.10566000000E+00 0.  1.
         13    1    4    4    0    0  0.26558255331E+02 -0.27156140810E+01 -0.56265839902E+00  0.26702869407E+02  0.10566000000E+00 0. -1.
        -13    1    4    4    0    0  0.16369918171E+01 -0.34979320891E+00  0.13676004405E+00  0.16828442720E+01  0.10566000000E+00 0.  1.
         14    1    4    4    0    0  0.14098684408E+02 -0.12876850576E+01 -0.12333874862E+01  0.14210991504E+02  0.00000000000E+00 0. -1.
<mgrwt>
<rscale>  0 0.85212429E+02</rscale>
<asrwt>0</asrwt>
<pdfrwt beam="1">  1        2 0.59647280E-02 0.85212429E+02</pdfrwt>
<pdfrwt beam="2">  1       -1 0.72032508E-02 0.85212429E+02</pdfrwt>
<totfact> 0.11883001E+05</totfact>
</mgrwt>
</event>
<event>
 8    1  0.2433467E-020  0.7890444E+02  0.7818608E-02  0.1332190E+00
         -1   -1    0    0    0  501 -0.00000000000E+00  0.00000000000E+00  0.59091802076E+02  0.59091802290E+02  0.50400000000E-02 0.  1.
          2   -1    0    0  501    0  0.00000000000E+00 -0.00000000000E+00 -0.26339994968E+02  0.26339995092E+02  0.25500000000E-02 0. -1.
         24    2    1    2    0    0  0.00000000000E+00  0.00000000000E+00  0.32751807107E+02  0.85431797382E+02  0.78904443063E+02 0.  0.
         66    2    3    3    0    0 -0.76813584544E+01  0.14768816939E+02 -0.22310249937E+02  0.27908215161E+02  0.19999999356E+01 0.  0.
        -13    1    3    3    0    0  0.76813584544E+01 -0.14768816939E+02  0.55062057045E+02  0.57523582221E+02  0.10566000000E+00 0.  1.
         13    1    4    4    0    0 -0.36609117513E+01  0.62050135142E+01 -0.94801922227E+01  0.11907547026E+02  0.10566000000E+00 0. -1.
        -13    1    4    4    0    0 -0.33260930978E+00  0.19369853479E+01 -0.23715835180E+01  0.30819009733E+01  0.10566000000E+00 0.  1.
        -14    1    4    4    0    0 -0.36878373934E+01  0.66268180769E+01 -0.10458474196E+02  0.12918767162E+02  0.00000000000E+00 0.  1.
<mgrwt>
<rscale>  0 0.78904443E+02</rscale>
<asrwt>0</asrwt>
<pdfrwt beam="1">  1        2 0.40523070E-02 0.78904443E+02</pdfrwt>
<pdfrwt beam="2">  1       -1 0.90910465E-02 0.78904443E+02</pdfrwt>
<totfact> 0.13634652E+05</totfact>
</mgrwt>
</event>
<event>
 8    1  0.2433467E-020  0.7913699E+02  0.7818608E-02  0.1331519E+00
          2   -1    0    0  501    0  0.00000000000E+00  0.00000000000E+00  0.29452490180E+03  0.29452490181E+03  0.25500000000E-02 0. -1.
         -1   -1    0    0    0  501 -0.00000000000E+00 -0.00000000000E+00 -0.53159020431E+01  0.53159044323E+01  0.50400000000E-02 0.  1.
         24    2    1    2    0    0 -0.71054273576E-14 -0.44408920985E-15  0.28920899976E+03  0.29984080625E+03  0.79136992287E+02 0.  0.
         66    2    3    3    0    0 -0.36584903190E+02 -0.31209925346E+01  0.20031260423E+03  0.20365985160E+03  0.20000003750E+01 0.  0.
        -13    1    3    3    0    0  0.36584903190E+02  0.31209925346E+01  0.88896395526E+02  0.96180954650E+02  0.10566000000E+00 0.  1.
         13    1    4    4    0    0 -0.59353540051E+01 -0.60156832564E+00  0.30802067121E+02  0.31374652422E+02  0.10566000000E+00 0. -1.
        -13    1    4    4    0    0 -0.54310988051E+00  0.13088885815E+00  0.35332048662E+01  0.35786590922E+01  0.10566000000E+00 0.  1.
        -14    1    4    4    0    0 -0.30106439304E+02 -0.26503130671E+01  0.16597733225E+03  0.16870654008E+03  0.00000000000E+00 0.  1.
<mgrwt>
<rscale>  0 0.79136992E+02</rscale>
<asrwt>0</asrwt>
<pdfrwt beam="1">  1        2 0.45311529E-01 0.79136992E+02</pdfrwt>
<pdfrwt beam="2">  1       -1 0.81783116E-03 0.79136992E+02</pdfrwt>
<totfact> 0.26055279E+05</totfact>
</mgrwt>
</event>
<event>
 8    1  0.2433467E-020  0.7919948E+02  0.7818608E-02  0.1331339E+00
         -1   -1    0    0    0  501 -0.00000000000E+00  0.00000000000E+00  0.39598383769E+02  0.39598384089E+02  0.50400000000E-02 0.  1.
          2   -1    0    0  501    0  0.00000000000E+00 -0.00000000000E+00 -0.39601095945E+02  0.39601096027E+02  0.25500000000E-02 0. -1.
         24    2    1    2    0    0  0.35527136788E-14  0.22204460493E-15 -0.27121762783E-02  0.79199480116E+02  0.79199480070E+02 0.  0.
         66    2    3    3    0    0 -0.31648523983E+02 -0.17658427768E+01 -0.23694967717E+02  0.39625733671E+02  0.20000007160E+01 0.  0.
        -13    1    3    3    0    0  0.31648523983E+02  0.17658427768E+01  0.23692255541E+02  0.39573746445E+02  0.10566000000E+00 0.  1.
         13    1    4    4    0    0 -0.21470393732E+02 -0.59120288933E+00 -0.15511551177E+02  0.26494276963E+02  0.10566000000E+00 0. -1.
        -13    1    4    4    0    0 -0.15187466755E+01 -0.21477496822E+00 -0.94704005248E+00  0.18057598533E+01  0.10566000000E+00 0.  1.
         14    1    4    4    0    0 -0.86593835755E+01 -0.95986491927E+00 -0.72363764879E+01  0.11325696855E+02  0.00000000000E+00 0. -1.
<mgrwt>
<rscale>  0 0.79199480E+02</rscale>
<asrwt>0</asrwt>
<pdfrwt beam="1">  1        2 0.60924763E-02 0.79199480E+02</pdfrwt>
<pdfrwt beam="2">  1       -1 0.60920591E-02 0.79199480E+02</pdfrwt>
<totfact> 0.14626868E+05</totfact>
</mgrwt>
</event>
<event>
 8    1  0.2433467E-020  0.7729894E+02  0.7818608E-02  0.1336896E+00
          2   -1    0    0  501    0  0.00000000000E+00  0.00000000000E+00  0.19800434693E+02  0.19800434857E+02  0.25500000000E-02 0. -1.
         -1   -1    0    0    0  501 -0.00000000000E+00 -0.00000000000E+00 -0.75441862575E+02  0.75441862744E+02  0.50400000000E-02 0.  1.
         24    2    1    2    0    0  0.71054273576E-14 -0.88817841970E-15 -0.55641427882E+02  0.95242297601E+02  0.77298944078E+02 0.  0.
         66    2    3    3    0    0  0.36357392443E+02 -0.77292762181E+01 -0.14906322951E+02  0.40097382750E+02  0.19999858439E+01 0.  0.
        -13    1    3    3    0    0 -0.36357392443E+02  0.77292762181E+01 -0.40735104932E+02  0.55144914851E+02  0.10566000000E+00 0.  1.
         13    1    4    4    0    0  0.48642836028E+01 -0.10196611694E+01 -0.24289349917E+01  0.55327979448E+01  0.10566000000E+00 0. -1.
        -13    1    4    4    0    0  0.24233029421E+02 -0.57160326905E+01 -0.99591319855E+01  0.26816193215E+02  0.10566000000E+00 0.  1.
        -14    1    4    4    0    0  0.72600794198E+01 -0.99358235824E+00 -0.25182559734E+01  0.77483915900E+01  0.00000000000E+00 0.  1.
<mgrwt>
<rscale>  0 0.77298944E+02</rscale>
<asrwt>0</asrwt>
<pdfrwt beam="1">  1        2 0.30462208E-02 0.77298944E+02</pdfrwt>
<pdfrwt beam="2">  1       -1 0.11606440E-01 0.77298944E+02</pdfrwt>
<totfact> 0.13671424E+05</totfact>
</mgrwt>
</event>
<event>
 8    1  0.2433467E-020  0.7921652E+02  0.7818608E-02  0.1331290E+00
          2   -1    0    0  501    0  0.00000000000E+00  0.00000000000E+00  0.29758431432E+03  0.29758431433E+03  0.25500000000E-02 0. -1.
         -1   -1    0    0    0  501 -0.00000000000E+00 -0.00000000000E+00 -0.52718305801E+01  0.52718329892E+01  0.50400000000E-02 0.  1.
         24    2    1    2    0    0  0.71054273576E-14  0.00000000000E+00  0.29231248374E+03  0.30285614732E+03  0.79216524914E+02 0.  0.
         66    2    3    3    0    0  0.32806513976E+02 -0.10856245593E+02  0.22005503662E+03  0.22276073387E+03  0.19999960859E+01 0.  0.
        -13    1    3    3    0    0 -0.32806513976E+02  0.10856245593E+02  0.72257447121E+02  0.80095413452E+02  0.10566000000E+00 0.  1.
         13    1    4    4    0    0  0.88304927548E+01 -0.24178495973E+01  0.58866336337E+02  0.59574158129E+02  0.10566000000E+00 0. -1.
        -13    1    4    4    0    0  0.21488375805E+02 -0.74716142597E+01  0.14135150103E+03  0.14317064407E+03  0.10566000000E+00 0.  1.
         14    1    4    4    0    0  0.24876454162E+01 -0.96678173642E+00  0.19837199249E+02  0.20015931672E+02  0.00000000000E+00 0. -1.
<mgrwt>
<rscale>  0 0.79216525E+02</rscale>
<asrwt>0</asrwt>
<pdfrwt beam="1">  1        2 0.45782202E-01 0.79216525E+02</pdfrwt>
<pdfrwt beam="2">  1       -1 0.81105105E-03 0.79216525E+02</pdfrwt>
<totfact> 0.26084153E+05</totfact>
</mgrwt>
</event>
<event>
 8    1  0.2433467E-020  0.8213225E+02  0.7818608E-02  0.1323107E+00
          2   -1    0    0  501    0  0.00000000000E+00  0.00000000000E+00  0.49646383915E+02  0.49646383981E+02  0.25500000000E-02 0. -1.
         -1   -1    0    0    0  501 -0.00000000000E+00 -0.00000000000E+00 -0.33968768747E+02  0.33968769121E+02  0.50400000000E-02 0.  1.
         24    2    1    2    0    0  0.00000000000E+00 -0.35527136788E-14  0.15677615168E+02  0.83615153101E+02  0.82132248300E+02 0.  0.
         66    2    3    3    0    0 -0.28774890141E+02  0.29165005211E+02  0.53853660552E+01  0.41371415252E+02  0.20000002145E+01 0.  0.
        -13    1    3    3    0    0  0.28774890141E+02 -0.29165005211E+02  0.10292249113E+02  0.42243737849E+02  0.10566000000E+00 0.  1.
         13    1    4    4    0    0 -0.17796713674E+02  0.17392976332E+02  0.25056471441E+01  0.25010559269E+02  0.10566000000E+00 0. -1.
        -13    1    4    4    0    0 -0.62112593171E+01  0.64952070110E+01  0.18400150909E+01  0.91741090025E+01  0.10566000000E+00 0.  1.
        -14    1    4    4    0    0 -0.47669171499E+01  0.52768218675E+01  0.10397038202E+01  0.71867469810E+01  0.00000000000E+00 0.  1.
<mgrwt>
<rscale>  0 0.82132248E+02</rscale>
<asrwt>0</asrwt>
<pdfrwt beam="1">  1        2 0.76379051E-02 0.82132248E+02</pdfrwt>
<pdfrwt beam="2">  1       -1 0.52259645E-02 0.82132248E+02</pdfrwt>
<totfact> 0.13880563E+05</totfact>
</mgrwt>
</event>
<event>
 8    1  0.2433467E-020  0.7974669E+02  0.7818608E-02  0.1329772E+00
         -1   -1    0    0    0  501 -0.00000000000E+00  0.00000000000E+00  0.54306682317E+01  0.54306705704E+01  0.50400000000E-02 0.  1.
          2   -1    0    0  501    0  0.00000000000E+00 -0.00000000000E+00 -0.29276015195E+03  0.29276015196E+03  0.25500000000E-02 0. -1.
         24    2    1    2    0    0  0.00000000000E+00  0.35527136788E-14 -0.28732948372E+03  0.29819082253E+03  0.79746689137E+02 0.  0.
         66    2    3    3    0    0  0.27909278570E+02 -0.14374238338E+02 -0.23552461524E+03  0.23761605782E+03  0.19999976507E+01 0.  0.
        -13    1    3    3    0    0 -0.27909278570E+02  0.14374238338E+02 -0.51804868479E+02  0.60574764715E+02  0.10566000000E+00 0.  1.
         13    1    4    4    0    0  0.16877884416E+02 -0.87238600935E+01 -0.14127626273E+03  0.14254810518E+03  0.10566000000E+00 0. -1.
        -13    1    4    4    0    0  0.25165906258E+01 -0.77166241872E+00 -0.18535302908E+02  0.18721573364E+02  0.10566000000E+00 0.  1.
        -14    1    4    4    0    0  0.85148035284E+01 -0.48787158252E+01 -0.75713049606E+02  0.76346379272E+02  0.00000000000E+00 0.  1.
<mgrwt>
<rscale>  0 0.79746689E+02</rscale>
<asrwt>0</asrwt>
<pdfrwt beam="1">  1        2 0.45040011E-01 0.79746689E+02</pdfrwt>
<pdfrwt beam="2">  1       -1 0.83548783E-03 0.79746689E+02</pdfrwt>
<totfact> 0.25480948E+05</totfact>
</mgrwt>
</event>
<event>
 8    1  0.2433467E-020  0.7893887E+02  0.7818608E-02  0.1332090E+00
          2   -1    0    0  501    0  0.00000000000E+00  0.00000000000E+00  0.13650212203E+03  0.13650212206E+03  0.25500000000E-02 0. -1.
         -1   -1    0    0    0  501 -0.00000000000E+00 -0.00000000000E+00 -0.11412542330E+02  0.11412543443E+02  0.50400000000E-02 0.  1.
         24    2    1    2    0    0  0.00000000000E+00  0.00000000000E+00  0.12508957970E+03  0.14791466550E+03  0.78938870777E+02 0.  0.
         66    2    3    3    0    0  0.77943585671E+01  0.35604435047E+02  0.90841365096E+02  0.97900875518E+02  0.19999985666E+01 0.  0.
        -13    1    3    3    0    0 -0.77943585671E+01 -0.35604435047E+02  0.34248214609E+02  0.50013789983E+02  0.10566000000E+00 0.  1.
         13    1    4    4    0    0  0.84135511307E+00  0.45604688990E+01  0.11933255186E+02  0.12803105029E+02  0.10566000000E+00 0. -1.
        -13    1    4    4    0    0  0.15587997621E+01  0.60956344884E+01  0.17449020327E+02  0.18549018597E+02  0.10566000000E+00 0.  1.
         14    1    4    4    0    0  0.53942036919E+01  0.24948331660E+02  0.61459089583E+02  0.66548751892E+02  0.00000000000E+00 0. -1.
<mgrwt>
<rscale>  0 0.78938871E+02</rscale>
<asrwt>0</asrwt>
<pdfrwt beam="1">  1        2 0.21000327E-01 0.78938871E+02</pdfrwt>
<pdfrwt beam="2">  1       -1 0.17557758E-02 0.78938871E+02</pdfrwt>
<totfact> 0.20140936E+05</totfact>
</mgrwt>
</event>
<event>
 8    1  0.2433467E-020  0.8285681E+02  0.7818608E-02  0.1321134E+00
         -1   -1    0    0    0  501 -0.00000000000E+00  0.00000000000E+00  0.36111588055E+03  0.36111588058E+03  0.50400000000E-02 0.  1.
          2   -1    0    0  501    0  0.00000000000E+00 -0.00000000000E+00 -0.47528024034E+01  0.47528030875E+01  0.25500000000E-02 0. -1.
         24    2    1    2    0    0 -0.35527136788E-14  0.00000000000E+00  0.35636307814E+03  0.36586868367E+03  0.82856805552E+02 0.  0.
         66    2    3    3    0    0  0.22253133273E+02  0.33344780886E+02  0.13255965324E+03  0.13850320582E+03  0.20000009738E+01 0.  0.
        -13    1    3    3    0    0 -0.22253133273E+02 -0.33344780886E+02  0.22380342491E+03  0.22736547785E+03  0.10566000000E+00 0.  1.
         13    1    4    4    0    0  0.26429295872E+00  0.63814274217E+00  0.20412278880E+01  0.21575106613E+01  0.10566000000E+00 0. -1.
        -13    1    4    4    0    0  0.12112157763E+00  0.24820754072E+00  0.88481319132E+00  0.93291791653E+00  0.10566000000E+00 0. -1.
         14    1    4    4    0    0  0.21867718737E+02  0.32458430604E+02  0.12963361216E+03  0.13541277725E+03  0.00000000000E+00 0. -1.
<mgrwt>
<rscale>  0 0.82856806E+02</rscale>
<asrwt>0</asrwt>
<pdfrwt beam="1">  1        2 0.73120073E-03 0.82856806E+02</pdfrwt>
<pdfrwt beam="2">  1       -1 0.55556266E-01 0.82856806E+02</pdfrwt>
<totfact> 0.72830099E+04</totfact>
</mgrwt>
</event>
<event>
 8    1  0.2433467E-020  0.7996107E+02  0.7818608E-02  0.1329162E+00
          2   -1    0    0  501    0  0.00000000000E+00  0.00000000000E+00  0.24502122912E+03  0.24502122913E+03  0.25500000000E-02 0. -1.
         -1   -1    0    0    0  501 -0.00000000000E+00 -0.00000000000E+00 -0.65236921301E+01  0.65236940770E+01  0.50400000000E-02 0.  1.
         24    2    1    2    0    0  0.17763568394E-14  0.00000000000E+00  0.23849753699E+03  0.25154492321E+03  0.79961073295E+02 0.  0.
         66    2    3    3    0    0 -0.15782252096E+02 -0.36185940884E+02  0.13869923974E+03  0.14422198486E+03  0.20000031625E+01 0.  0.
        -13    1    3    3    0    0  0.15782252096E+02  0.36185940884E+02  0.99798297248E+02  0.10732293835E+03  0.10566000000E+00 0.  1.
         13    1    4    4    0    0 -0.52576970114E+01 -0.13177488762E+02  0.49232459385E+02  0.51236079174E+02  0.10566000000E+00 0. -1.
        -13    1    4    4    0    0 -0.29839431491E+01 -0.76113013470E+01  0.27242049399E+02  0.28442507702E+02  0.10566000000E+00 0.  1.
         14    1    4    4    0    0 -0.75406119350E+01 -0.15397150775E+02  0.62224730957E+02  0.64543397981E+02  0.00000000000E+00 0. -1.
<mgrwt>
<rscale>  0 0.79961073E+02</rscale>
<asrwt>0</asrwt>
<pdfrwt beam="1">  1        2 0.37695571E-01 0.79961073E+02</pdfrwt>
<pdfrwt beam="2">  1       -1 0.10036452E-02 0.79961073E+02</pdfrwt>
<totfact> 0.23727509E+05</totfact>
</mgrwt>
</event>
<event>
 8    1  0.2433467E-020  0.8014377E+02  0.7818608E-02  0.1328644E+00
         -1   -1    0    0    0  501 -0.00000000000E+00  0.00000000000E+00  0.60304531664E+02  0.60304531874E+02  0.50400000000E-02 0.  1.
          2   -1    0    0  501    0  0.00000000000E+00 -0.00000000000E+00 -0.26627449215E+02  0.26627449337E+02  0.25500000000E-02 0. -1.
         24    2    1    2    0    0  0.00000000000E+00  0.00000000000E+00  0.33677082449E+02  0.86931981211E+02  0.80143767537E+02 0.  0.
         66    2    3    3    0    0  0.30909839245E+02  0.23854823561E+02  0.71908913230E+01  0.39751474074E+02  0.20000009480E+01 0.  0.
        -13    1    3    3    0    0 -0.30909839245E+02 -0.23854823561E+02  0.26486191126E+02  0.47180507137E+02  0.10566000000E+00 0.  1.
         13    1    4    4    0    0  0.17103644531E+02  0.13895969032E+02  0.39257414311E+01  0.22384262807E+02  0.10566000000E+00 0. -1.
        -13    1    4    4    0    0  0.11428361436E+02  0.87239138477E+01  0.27807453903E+01  0.14644378679E+02  0.10566000000E+00 0.  1.
        -14    1    4    4    0    0  0.23778332784E+01  0.12349406811E+01  0.48440450156E+00  0.27228325888E+01  0.00000000000E+00 0.  1.
<mgrwt>
<rscale>  0 0.80143768E+02</rscale>
<asrwt>0</asrwt>
<pdfrwt beam="1">  1        2 0.40965307E-02 0.80143768E+02</pdfrwt>
<pdfrwt beam="2">  1       -1 0.92776201E-02 0.80143768E+02</pdfrwt>
<totfact> 0.13076365E+05</totfact>
</mgrwt>
</event>
<event>
 8    1  0.2433467E-020  0.8028813E+02  0.7818608E-02  0.1328236E+00
          2   -1    0    0  501    0  0.00000000000E+00  0.00000000000E+00  0.15833145608E+04  0.15833145608E+04  0.25500000000E-02 0. -1.
         -1   -1    0    0    0  501 -0.00000000000E+00 -0.00000000000E+00 -0.10178244126E+01  0.10178368909E+01  0.50400000000E-02 0.  1.
         24    2    1    2    0    0  0.00000000000E+00 -0.17763568394E-14  0.15822967364E+04  0.15843323977E+04  0.80288133600E+02 0.  0.
         66    2    3    3    0    0  0.13539443601E+02 -0.12516728641E+02  0.14947440622E+04  0.14948591226E+04  0.20000007958E+01 0.  0.
        -13    1    3    3    0    0 -0.13539443601E+02  0.12516728641E+02  0.87552674204E+02  0.89473275078E+02  0.10566000000E+00 0.  1.
         13    1    4    4    0    0  0.24181412136E+01 -0.21286792759E+01  0.21527774101E+03  0.21530187092E+03  0.10566000000E+00 0.  1.
        -13    1    4    4    0    0  0.53864837311E+01 -0.43494798805E+01  0.56966013148E+03  0.56970221058E+03  0.10566000000E+00 0. -1.
        -14    1    4    4    0    0  0.57348186563E+01 -0.60385694845E+01  0.70980618967E+03  0.70985504109E+03  0.00000000000E+00 0.  1.
<mgrwt>
<rscale>  0 0.80288134E+02</rscale>
<asrwt>0</asrwt>
<pdfrwt beam="1">  1        2 0.24358591E+00 0.80288134E+02</pdfrwt>
<pdfrwt beam="2">  1       -1 0.15658994E-03 0.80288134E+02</pdfrwt>
<totfact> 0.32208186E+05</totfact>
</mgrwt>
</event>
<event>
 8    1  0.2433467E-020  0.8165798E+02  0.7818608E-02  0.1324411E+00
         -1   -1    0    0    0  501 -0.00000000000E+00  0.00000000000E+00  0.57939414540E+02  0.57939414759E+02  0.50400000000E-02 0.  1.
          2   -1    0    0  501    0  0.00000000000E+00 -0.00000000000E+00 -0.28771544214E+02  0.28771544327E+02  0.25500000000E-02 0. -1.
         24    2    1    2    0    0  0.00000000000E+00  0.00000000000E+00  0.29167870326E+02  0.86710959085E+02  0.81657980419E+02 0.  0.
         66    2    3    3    0    0  0.20866577307E+02  0.22391517181E+02 -0.14062504082E+02  0.33742378534E+02  0.19999994675E+01 0.  0.
        -13    1    3    3    0    0 -0.20866577307E+02 -0.22391517181E+02  0.43230374408E+02  0.52968580552E+02  0.10566000000E+00 0.  1.
         13    1    4    4    0    0  0.42831139754E+01  0.41225080170E+01 -0.23149557895E+01  0.63804640912E+01  0.10566000000E+00 0. -1.
        -13    1    4    4    0    0  0.23349532063E+01  0.21049664277E+01 -0.11478153829E+01  0.33483629323E+01  0.10566000000E+00 0.  1.
         14    1    4    4    0    0  0.14248510125E+02  0.16164042736E+02 -0.10599732910E+02  0.24013551510E+02  0.00000000000E+00 0. -1.
<mgrwt>
<rscale>  0 0.81657980E+02</rscale>
<asrwt>0</asrwt>
<pdfrwt beam="1">  1        2 0.44263914E-02 0.81657980E+02</pdfrwt>
<pdfrwt beam="2">  1       -1 0.89137562E-02 0.81657980E+02</pdfrwt>
<totfact> 0.12596244E+05</totfact>
</mgrwt>
</event>
<event>
 8    1  0.2433467E-020  0.8083789E+02  0.7818608E-02  0.1326690E+00
          2   -1    0    0  501    0  0.00000000000E+00  0.00000000000E+00  0.22418896246E+03  0.22418896248E+03  0.25500000000E-02 0. -1.
         -1   -1    0    0    0  501 -0.00000000000E+00 -0.00000000000E+00 -0.72871160546E+01  0.72871177975E+01  0.50400000000E-02 0.  1.
         24    2    1    2    0    0  0.71054273576E-14  0.35527136788E-14  0.21690184641E+03  0.23147608027E+03  0.80837891883E+02 0.  0.
         66    2    3    3    0    0 -0.36278861714E+02 -0.13270770144E+02  0.14232742904E+03  0.14749022410E+03  0.20000001337E+01 0.  0.
        -13    1    3    3    0    0  0.36278861714E+02  0.13270770144E+02  0.74574417362E+02  0.83985856169E+02  0.10566000000E+00 0.  1.
         13    1    4    4    0    0 -0.99740433236E+00 -0.21465477932E+00  0.36352080532E+01  0.37771409429E+01  0.10566000000E+00 0.  1.
        -13    1    4    4    0    0 -0.10466999500E+01 -0.40863975535E+00  0.32746649135E+01  0.34636918983E+01  0.10566000000E+00 0. -1.
        -14    1    4    4    0    0 -0.34234757431E+02 -0.12647475609E+02  0.13541755608E+03  0.14024939126E+03  0.00000000000E+00 0.  1.
<mgrwt>
<rscale>  0 0.80837892E+02</rscale>
<asrwt>0</asrwt>
<pdfrwt beam="1">  1        2 0.34490612E-01 0.80837892E+02</pdfrwt>
<pdfrwt beam="2">  1       -1 0.11210948E-02 0.80837892E+02</pdfrwt>
<totfact> 0.22337969E+05</totfact>
</mgrwt>
</event>
<event>
 8    1  0.2433467E-020  0.8211718E+02  0.7818608E-02  0.1323148E+00
         -1   -1    0    0    0  501 -0.00000000000E+00  0.00000000000E+00  0.73283012033E+02  0.73283012206E+02  0.50400000000E-02 0.  1.
          2   -1    0    0  501    0  0.00000000000E+00 -0.00000000000E+00 -0.23004076209E+02  0.23004076350E+02  0.25500000000E-02 0. -1.
         24    2    1    2    0    0  0.88817841970E-15  0.71054273576E-14  0.50278935824E+02  0.96287088557E+02  0.82117184774E+02 0.  0.
         66    2    3    3    0    0 -0.75039603425E+01 -0.37429946509E+02  0.75077360035E+01  0.38957366644E+02  0.19999998597E+01 0.  0.
        -13    1    3    3    0    0  0.75039603425E+01  0.37429946509E+02  0.42771199820E+02  0.57329721913E+02  0.10566000000E+00 0.  1.
         13    1    4    4    0    0 -0.44546777873E+01 -0.21139824998E+02  0.47384308730E+01  0.22117871650E+02  0.10566000000E+00 0. -1.
        -13    1    4    4    0    0 -0.30839105524E+00 -0.15834427649E+01 -0.44493034141E-01  0.16172630270E+01  0.10566000000E+00 0.  1.
        -14    1    4    4    0    0 -0.27408915000E+01 -0.14706678746E+02  0.28137981646E+01  0.15222231967E+02  0.00000000000E+00 0.  1.
<mgrwt>
<rscale>  0 0.82117185E+02</rscale>
<asrwt>0</asrwt>
<pdfrwt beam="1">  1        2 0.35390887E-02 0.82117185E+02</pdfrwt>
<pdfrwt beam="2">  1       -1 0.11274310E-01 0.82117185E+02</pdfrwt>
<totfact> 0.11851463E+05</totfact>
</mgrwt>
</event>
<event>
 8    1  0.2433467E-020  0.8175038E+02  0.7818608E-02  0.1324156E+00
          2   -1    0    0  501    0  0.00000000000E+00  0.00000000000E+00  0.89439049925E+01  0.89439053560E+01  0.25500000000E-02 0. -1.
         -1   -1    0    0    0  501 -0.00000000000E+00 -0.00000000000E+00 -0.18680665497E+03  0.18680665504E+03  0.50400000000E-02 0.  1.
         24    2    1    2    0    0  0.71054273576E-14  0.00000000000E+00 -0.17786274998E+03  0.19575056039E+03  0.81750376543E+02 0.  0.
         66    2    3    3    0    0  0.32057179745E+02 -0.50342271629E+01 -0.29565848629E+02  0.43944801840E+02  0.19999968230E+01 0.  0.
        -13    1    3    3    0    0 -0.32057179745E+02  0.50342271629E+01 -0.14829690135E+03  0.15180575855E+03  0.10566000000E+00 0.  1.
         13    1    4    4    0    0  0.48131073244E+00 -0.78624568402E-01 -0.20810017908E+00  0.54065845415E+00  0.10566000000E+00 0. -1.
        -13    1    4    4    0    0  0.30951901630E+01 -0.55339482892E+00 -0.26767760199E+01  0.41307071886E+01  0.10566000000E+00 0.  1.
         14    1    4    4    0    0  0.28480678850E+02 -0.44022077655E+01 -0.26680972430E+02  0.39273436197E+02  0.00000000000E+00 0. -1.
<mgrwt>
<rscale>  0 0.81750377E+02</rscale>
<asrwt>0</asrwt>
<pdfrwt beam="1">  1        2 0.13759855E-02 0.81750377E+02</pdfrwt>
<pdfrwt beam="2">  1       -1 0.28739483E-01 0.81750377E+02</pdfrwt>
<totfact> 0.96195532E+04</totfact>
</mgrwt>
</event>
<event>
 8    1  0.2433467E-020  0.7881307E+02  0.7818608E-02  0.1332454E+00
         -1   -1    0    0    0  501 -0.00000000000E+00  0.00000000000E+00  0.51991415002E+01  0.51991439431E+01  0.50400000000E-02 0.  1.
          2   -1    0    0  501    0  0.00000000000E+00 -0.00000000000E+00 -0.29867906636E+03  0.29867906637E+03  0.25500000000E-02 0. -1.
         24    2    1    2    0    0  0.00000000000E+00  0.00000000000E+00 -0.29347992486E+03  0.30387821031E+03  0.78813072570E+02 0.  0.
         66    2    3    3    0    0  0.27126804721E+02  0.24848622154E+02 -0.20102713020E+03  0.20437520552E+03  0.20000000422E+01 0.  0.
        -13    1    3    3    0    0 -0.27126804721E+02 -0.24848622154E+02 -0.92452794662E+02  0.99503004790E+02  0.10566000000E+00 0.  1.
         13    1    4    4    0    0  0.71256259723E+01  0.61081836829E+01 -0.51071916201E+02  0.51927220625E+02  0.10566000000E+00 0. -1.
        -13    1    4    4    0    0  0.95457980800E+01  0.10034731462E+02 -0.75309559015E+02  0.76572573025E+02  0.10566000000E+00 0.  1.
        -14    1    4    4    0    0  0.10455380669E+02  0.87057070092E+01 -0.74645654981E+02  0.75875411874E+02  0.00000000000E+00 0.  1.
<mgrwt>
<rscale>  0 0.78813073E+02</rscale>
<asrwt>0</asrwt>
<pdfrwt beam="1">  1        2 0.45950612E-01 0.78813073E+02</pdfrwt>
<pdfrwt beam="2">  1       -1 0.79986834E-03 0.78813073E+02</pdfrwt>
<totfact> 0.26470412E+05</totfact>
</mgrwt>
</event>
<event>
 8    1  0.2433467E-020  0.8023606E+02  0.7818608E-02  0.1328383E+00
          2   -1    0    0  501    0  0.00000000000E+00  0.00000000000E+00  0.12152152263E+04  0.12152152263E+04  0.25500000000E-02 0. -1.
         -1   -1    0    0    0  501 -0.00000000000E+00 -0.00000000000E+00 -0.13244159237E+01  0.13244255134E+01  0.50400000000E-02 0.  1.
         24    2    1    2    0    0  0.00000000000E+00  0.35527136788E-14  0.12138908103E+04  0.12165396518E+04  0.80236057508E+02 0.  0.
         66    2    3    3    0    0 -0.65995885437E+00  0.26837457463E+02  0.10588252035E+04  0.10591673599E+04  0.20000003095E+01 0.  0.
        -13    1    3    3    0    0  0.65995885437E+00 -0.26837457463E+02  0.15506560682E+03  0.15737229188E+03  0.10566000000E+00 0.  1.
         13    1    4    4    0    0 -0.11845919980E+00  0.12001280822E+02  0.43699292287E+03  0.43715771819E+03  0.10566000000E+00 0.  1.
        -13    1    4    4    0    0 -0.87440789229E-01  0.32987410107E+01  0.13170209787E+03  0.13174347454E+03  0.10566000000E+00 0. -1.
        -14    1    4    4    0    0 -0.45405886534E+00  0.11537435631E+02  0.49013018278E+03  0.49026616716E+03  0.00000000000E+00 0.  1.
<mgrwt>
<rscale>  0 0.80236058E+02</rscale>
<asrwt>0</asrwt>
<pdfrwt beam="1">  1        2 0.18695563E+00 0.80236058E+02</pdfrwt>
<pdfrwt beam="2">  1       -1 0.20375764E-03 0.80236058E+02</pdfrwt>
<totfact> 0.34720049E+05</totfact>
</mgrwt>
</event>
<event>
 8    1  0.2433467E-020  0.8026802E+02  0.7818608E-02  0.1328293E+00
          2   -1    0    0  501    0  0.00000000000E+00  0.00000000000E+00  0.29146859785E+02  0.29146859896E+02  0.25500000000E-02 0. -1.
         -1   -1    0    0    0  501 -0.00000000000E+00 -0.00000000000E+00 -0.55262853731E+02  0.55262853961E+02  0.50400000000E-02 0.  1.
         24    2    1    2    0    0  0.00000000000E+00  0.00000000000E+00 -0.26115993947E+02  0.84409713857E+02  0.80268017626E+02 0.  0.
         66    2    3    3    0    0 -0.12950556611E+02  0.53609235153E+01  0.26453276501E+02  0.30003870633E+02  0.19999994675E+01 0.  0.
        -13    1    3    3    0    0  0.12950556611E+02 -0.53609235153E+01 -0.52569270448E+02  0.54405843224E+02  0.10566000000E+00 0.  1.
         13    1    4    4    0    0 -0.68690810847E+01  0.36735066023E+01  0.15441390783E+02  0.17295277941E+02  0.10566000000E+00 0. -1.
        -13    1    4    4    0    0 -0.26921861062E+01  0.56702824882E+00  0.53129965652E+01  0.59840190176E+01  0.10566000000E+00 0.  1.
         14    1    4    4    0    0 -0.33892894198E+01  0.11203886642E+01  0.56988891530E+01  0.67245736749E+01  0.00000000000E+00 0. -1.
<mgrwt>
<rscale>  0 0.80268018E+02</rscale>
<asrwt>0</asrwt>
<pdfrwt beam="1">  1        2 0.44841323E-02 0.80268018E+02</pdfrwt>
<pdfrwt beam="2">  1       -1 0.85019775E-02 0.80268018E+02</pdfrwt>
<totfact> 0.13253821E+05</totfact>
</mgrwt>
</event>
<event>
 8    1  0.2433467E-020  0.7977610E+02  0.7818608E-02  0.1329688E+00
         -1   -1    0    0    0  501 -0.00000000000E+00  0.00000000000E+00  0.91663119904E+01  0.91663133760E+01  0.50400000000E-02 0.  1.
          2   -1    0    0  501    0  0.00000000000E+00 -0.00000000000E+00 -0.17357648941E+03  0.17357648942E+03  0.25500000000E-02 0. -1.
         24    2    1    2    0    0  0.00000000000E+00  0.17763568394E-14 -0.16441017742E+03  0.18274280280E+03  0.79776096280E+02 0.  0.
         66    2    3    3    0    0 -0.18036583897E+02  0.10405200071E+02 -0.16012225471E+03  0.16148288765E+03  0.20000005749E+01 0.  0.
        -13    1    3    3    0    0  0.18036583897E+02 -0.10405200071E+02 -0.42879227066E+01  0.21259915154E+02  0.10566000000E+00 0.  1.
         13    1    4    4    0    0 -0.11876920576E+02  0.65118578173E+01 -0.11005018066E+03  0.11088065188E+03  0.10566000000E+00 0. -1.
        -13    1    4    4    0    0 -0.29901871430E+01  0.19549477184E+01 -0.26247190986E+02  0.26489417480E+02  0.10566000000E+00 0.  1.
        -14    1    4    4    0    0 -0.31694761780E+01  0.19383945357E+01 -0.23824883065E+02  0.24112818286E+02  0.00000000000E+00 0.  1.
<mgrwt>
<rscale>  0 0.79776096E+02</rscale>
<asrwt>0</asrwt>
<pdfrwt beam="1">  1        2 0.26704073E-01 0.79776096E+02</pdfrwt>
<pdfrwt beam="2">  1       -1 0.14102021E-02 0.79776096E+02</pdfrwt>
<totfact> 0.21171533E+05</totfact>
</mgrwt>
</event>
<event>
 8    1  0.2433467E-020  0.7947326E+02  0.7818608E-02  0.1330553E+00
         -1   -1    0    0    0  501 -0.00000000000E+00  0.00000000000E+00  0.49621884191E+01  0.49621909786E+01  0.50400000000E-02 0.  1.
          2   -1    0    0  501    0  0.00000000000E+00 -0.00000000000E+00 -0.31820624816E+03  0.31820624817E+03  0.25500000000E-02 0. -1.
         24    2    1    2    0    0  0.35527136788E-14 -0.35527136788E-14 -0.31324405974E+03  0.32316843915E+03  0.79473260277E+02 0.  0.
         66    2    3    3    0    0 -0.28056703002E+02  0.26816838292E+02 -0.19090597446E+03  0.19482148877E+03  0.19999998950E+01 0.  0.
        -13    1    3    3    0    0  0.28056703002E+02 -0.26816838292E+02 -0.12233808528E+03  0.12834695039E+03  0.10566000000E+00 0.  1.
         13    1    4    4    0    0 -0.15602210001E+02  0.15070875439E+02 -0.10897549904E+03  0.11111359412E+03  0.10566000000E+00 0. -1.
        -13    1    4    4    0    0 -0.11232691094E+02  0.11009307335E+02 -0.74669969597E+02  0.76308542909E+02  0.10566000000E+00 0.  1.
        -14    1    4    4    0    0 -0.12218019071E+01  0.73665551870E+00 -0.72605058258E+01  0.73993517351E+01  0.00000000000E+00 0.  1.
<mgrwt>
<rscale>  0 0.79473260E+02</rscale>
<asrwt>0</asrwt>
<pdfrwt beam="1">  1        2 0.48954791E-01 0.79473260E+02</pdfrwt>
<pdfrwt beam="2">  1       -1 0.76341405E-03 0.79473260E+02</pdfrwt>
<totfact> 0.26497840E+05</totfact>
</mgrwt>
</event>
<event>
 8    1  0.2433467E-020  0.8598498E+02  0.7818608E-02  0.1312877E+00
          2   -1    0    0  501    0  0.00000000000E+00  0.00000000000E+00  0.53213288449E+01  0.53213294559E+01  0.25500000000E-02 0. -1.
         -1   -1    0    0    0  501 -0.00000000000E+00 -0.00000000000E+00 -0.34734825195E+03  0.34734825198E+03  0.50400000000E-02 0.  1.
         24    2    1    2    0    0  0.00000000000E+00  0.00000000000E+00 -0.34202692310E+03  0.35266958144E+03  0.85984984422E+02 0.  0.
         66    2    3    3    0    0  0.19476827462E+02 -0.36448780531E+02 -0.12283843469E+03  0.12961921711E+03  0.19999993605E+01 0.  0.
        -13    1    3    3    0    0 -0.19476827462E+02  0.36448780531E+02 -0.21918848841E+03  0.22305036433E+03  0.10566000000E+00 0.  1.
         13    1    4    4    0    0  0.32848643704E+01 -0.63464763936E+01 -0.23207953477E+02  0.24283499854E+02  0.10566000000E+00 0. -1.
        -13    1    4    4    0    0  0.88181332221E+01 -0.17088576051E+02 -0.57213086086E+02  0.60358324103E+02  0.10566000000E+00 0.  1.
         14    1    4    4    0    0  0.73738298693E+01 -0.13013728087E+02 -0.42417395127E+02  0.44977393155E+02  0.00000000000E+00 0. -1.
<mgrwt>
<rscale>  0 0.85984984E+02</rscale>
<asrwt>0</asrwt>
<pdfrwt beam="1">  1        2 0.81866630E-03 0.85984984E+02</pdfrwt>
<pdfrwt beam="2">  1       -1 0.53438175E-01 0.85984984E+02</pdfrwt>
<totfact> 0.67401737E+04</totfact>
</mgrwt>
</event>
<event>
 8    1  0.2433467E-020  0.8098446E+02  0.7818608E-02  0.1326281E+00
          2   -1    0    0  501    0  0.00000000000E+00  0.00000000000E+00  0.15939674820E+03  0.15939674822E+03  0.25500000000E-02 0. -1.
         -1   -1    0    0    0  501 -0.00000000000E+00 -0.00000000000E+00 -0.10286411679E+02  0.10286412914E+02  0.50400000000E-02 0.  1.
         24    2    1    2    0    0 -0.35527136788E-14 -0.35527136788E-14  0.14911033652E+03  0.16968316114E+03  0.80984459715E+02 0.  0.
         66    2    3    3    0    0 -0.26757731979E+02 -0.23468077460E+02  0.11495194231E+03  0.12035229920E+03  0.20000002724E+01 0.  0.
        -13    1    3    3    0    0  0.26757731979E+02  0.23468077460E+02  0.34158394213E+02  0.49330861939E+02  0.10566000000E+00 0.  1.
         13    1    4    4    0    0 -0.76258721428E+01 -0.63073568413E+01  0.32695389951E+02  0.34160450294E+02  0.10566000000E+00 0. -1.
        -13    1    4    4    0    0 -0.14963939047E+01 -0.15423717807E+01  0.56852479994E+01  0.60787592713E+01  0.10566000000E+00 0.  1.
        -14    1    4    4    0    0 -0.17635465932E+02 -0.15618348838E+02  0.76571304358E+02  0.80113089631E+02  0.00000000000E+00 0.  1.
<mgrwt>
<rscale>  0 0.80984460E+02</rscale>
<asrwt>0</asrwt>
<pdfrwt beam="1">  1        2 0.24522578E-01 0.80984460E+02</pdfrwt>
<pdfrwt beam="2">  1       -1 0.15825249E-02 0.80984460E+02</pdfrwt>
<totfact> 0.19777539E+05</totfact>
</mgrwt>
</event>
<event>
 8    1  0.2433467E-020  0.7926996E+02  0.7818608E-02  0.1331136E+00
          2   -1    0    0  501    0  0.00000000000E+00  0.00000000000E+00  0.19406899130E+03  0.19406899131E+03  0.25500000000E-02 0. -1.
         -1   -1    0    0    0  501 -0.00000000000E+00 -0.00000000000E+00 -0.80947065828E+01  0.80947081518E+01  0.50400000000E-02 0.  1.
         24    2    1    2    0    0  0.00000000000E+00 -0.35527136788E-14  0.18597428471E+03  0.20216369946E+03  0.79269961565E+02 0.  0.
         66    2    3    3    0    0 -0.27680018579E+02  0.26126432694E+02  0.12100130136E+03  0.12686248006E+03  0.20000006321E+01 0.  0.
        -13    1    3    3    0    0  0.27680018579E+02 -0.26126432694E+02  0.64972983355E+02  0.75301219405E+02  0.10566000000E+00 0.  1.
         13    1    4    4    0    0 -0.94382990307E+01  0.88287854424E+01  0.39922706966E+02  0.41962633813E+02  0.10566000000E+00 0.  1.
        -13    1    4    4    0    0 -0.17714674779E+02  0.16636678884E+02  0.79075818069E+02  0.82725962999E+02  0.10566000000E+00 0. -1.
         14    1    4    4    0    0 -0.52704477019E+00  0.66096836701E+00  0.20027763235E+01  0.21738832475E+01  0.00000000000E+00 0. -1.
<mgrwt>
<rscale>  0 0.79269962E+02</rscale>
<asrwt>0</asrwt>
<pdfrwt beam="1">  1        2 0.29856767E-01 0.79269962E+02</pdfrwt>
<pdfrwt beam="2">  1       -1 0.12453397E-02 0.79269962E+02</pdfrwt>
<totfact> 0.22364349E+05</totfact>
</mgrwt>
</event>
<event>
 8    1  0.2433467E-020  0.7964717E+02  0.7818608E-02  0.1330056E+00
         -1   -1    0    0    0  501 -0.00000000000E+00  0.00000000000E+00  0.10947376259E+02  0.10947377419E+02  0.50400000000E-02 0.  1.
          2   -1    0    0  501    0  0.00000000000E+00 -0.00000000000E+00 -0.14486737899E+03  0.14486737902E+03  0.25500000000E-02 0. -1.
         24    2    1    2    0    0  0.00000000000E+00  0.00000000000E+00 -0.13392000273E+03  0.15581475643E+03  0.79647166869E+02 0.  0.
         66    2    3    3    0    0 -0.10452749304E+02 -0.38309859994E+02 -0.61823415682E+02  0.73505374409E+02  0.19999999165E+01 0.  0.
        -13    1    3    3    0    0  0.10452749304E+02  0.38309859994E+02 -0.72096587053E+02  0.82309382026E+02  0.10566000000E+00 0.  1.
         13    1    4    4    0    0 -0.24741610778E+01 -0.88041596359E+01 -0.13289442996E+02  0.16132425704E+02  0.10566000000E+00 0. -1.
        -13    1    4    4    0    0 -0.34537526622E+01 -0.15316924873E+02 -0.24648917140E+02  0.29225278018E+02  0.10566000000E+00 0.  1.
        -14    1    4    4    0    0 -0.45248355640E+01 -0.14188775485E+02 -0.23885055546E+02  0.28147670687E+02  0.00000000000E+00 0.  1.
<mgrwt>
<rscale>  0 0.79647167E+02</rscale>
<asrwt>0</asrwt>
<pdfrwt beam="1">  1        2 0.22287288E-01 0.79647167E+02</pdfrwt>
<pdfrwt beam="2">  1       -1 0.16842119E-02 0.79647167E+02</pdfrwt>
<totfact> 0.20041513E+05</totfact>
</mgrwt>
</event>
<event>
 8    1  0.2477562E-020  0.7982100E+02  0.7818608E-02  0.1329560E+00
          2   -1    0    0  501    0  0.00000000000E+00  0.00000000000E+00  0.29452582383E+02  0.29452582494E+02  0.25500000000E-02 0. -1.
         -1   -1    0    0    0  501 -0.00000000000E+00 -0.00000000000E+00 -0.54081775310E+02  0.54081775545E+02  0.50400000000E-02 0.  1.
         24    2    1    2    0    0  0.00000000000E+00 -0.88817841970E-15 -0.24629192927E+02  0.83534358039E+02  0.79820998670E+02 0.  0.
         66    2    3    3    0    0 -0.39298592721E+02 -0.66395668681E+01 -0.13936719560E+02  0.42269319703E+02  0.19999994994E+01 0.  0.
        -13    1    3    3    0    0  0.39298592721E+02  0.66395668681E+01 -0.10692473367E+02  0.41265038335E+02  0.10566000000E+00 0.  1.
         13    1    4    4    0    0 -0.31673036109E+02 -0.52487055483E+01 -0.10992695160E+02  0.33934947137E+02  0.10566000000E+00 0. -1.
        -13    1    4    4    0    0 -0.25248477128E+01 -0.48192542072E+00 -0.56843705876E+00  0.26346523128E+01  0.10566000000E+00 0.  1.
        -14    1    4    4    0    0 -0.51007089001E+01 -0.90893589911E+00 -0.23755873420E+01  0.56997202538E+01  0.00000000000E+00 0.  1.
<mgrwt>
<rscale>  0 0.79820999E+02</rscale>
<asrwt>0</asrwt>
<pdfrwt beam="1">  1        2 0.45311665E-02 0.79820999E+02</pdfrwt>
<pdfrwt beam="2">  1       -1 0.83202732E-02 0.79820999E+02</pdfrwt>
<totfact> 0.13490928E+05</totfact>
</mgrwt>
</event>
<event>
 8    1  0.2727858E-020  0.8002560E+02  0.7818608E-02  0.1328979E+00
          2   -1    0    0  501    0  0.00000000000E+00  0.00000000000E+00  0.28196674860E+02  0.28196674976E+02  0.25500000000E-02 0. -1.
         -1   -1    0    0    0  501 -0.00000000000E+00 -0.00000000000E+00 -0.56780606174E+02  0.56780606398E+02  0.50400000000E-02 0.  1.
         24    2    1    2    0    0  0.00000000000E+00  0.17763568394E-14 -0.28583931314E+02  0.84977281373E+02  0.80025603529E+02 0.  0.
         66    2    3    3    0    0  0.32026417993E+02  0.88568722201E+01  0.93216105815E+01  0.34569177804E+02  0.19999988081E+01 0.  0.
        -13    1    3    3    0    0 -0.32026417993E+02 -0.88568722201E+01 -0.37905541895E+02  0.50408103569E+02  0.10566000000E+00 0.  1.
         13    1    4    4    0    0  0.18969391820E+02  0.51589398581E+01  0.57151006386E+01  0.20472567641E+02  0.10566000000E+00 0. -1.
        -13    1    4    4    0    0  0.11736308291E+02  0.29737633504E+01  0.30070989222E+01  0.12475496332E+02  0.10566000000E+00 0.  1.
        -14    1    4    4    0    0  0.13207178826E+01  0.72416901153E+00  0.59941102072E+00  0.16211138314E+01  0.00000000000E+00 0.  1.
<mgrwt>
<rscale>  0 0.80025604E+02</rscale>
<asrwt>0</asrwt>
<pdfrwt beam="1">  1        2 0.43379500E-02 0.80025604E+02</pdfrwt>
<pdfrwt beam="2">  1       -1 0.87354779E-02 0.80025604E+02</pdfrwt>
<totfact> 0.13279879E+05</totfact>
</mgrwt>
</event>
<event>
 8    1  0.2433467E-020  0.8218870E+02  0.7818608E-02  0.1322953E+00
         -1   -1    0    0    0  501 -0.00000000000E+00  0.00000000000E+00  0.49249439723E+02  0.49249439981E+02  0.50400000000E-02 0.  1.
          2   -1    0    0  501    0  0.00000000000E+00 -0.00000000000E+00 -0.34289640197E+02  0.34289640291E+02  0.25500000000E-02 0. -1.
         24    2    1    2    0    0 -0.35527136788E-14 -0.17763568394E-14  0.14959799526E+02  0.83539080272E+02  0.82188699532E+02 0.  0.
         66    2    3    3    0    0  0.27344092015E+02  0.10177728835E+02 -0.21894826720E+02  0.36533121371E+02  0.19999969134E+01 0.  0.
        -13    1    3    3    0    0 -0.27344092015E+02 -0.10177728835E+02  0.36854626246E+02  0.47005958901E+02  0.10566000000E+00 0.  1.
         13    1    4    4    0    0  0.55902669874E+01  0.13249312375E+01 -0.42518573600E+01  0.71481454112E+01  0.10566000000E+00 0. -1.
        -13    1    4    4    0    0  0.43911968120E+01  0.20962396835E+01 -0.35439908035E+01  0.60206199933E+01  0.10566000000E+00 0.  1.
        -14    1    4    4    0    0  0.17362628216E+02  0.67565579141E+01 -0.14098978557E+02  0.23364355967E+02  0.00000000000E+00 0.  1.
<mgrwt>
<rscale>  0 0.82188700E+02</rscale>
<asrwt>0</asrwt>
<pdfrwt beam="1">  1        2 0.52753293E-02 0.82188700E+02</pdfrwt>
<pdfrwt beam="2">  1       -1 0.75768369E-02 0.82188700E+02</pdfrwt>
<totfact> 0.12814697E+05</totfact>
</mgrwt>
</event>
<event>
 8    1  0.2433467E-020  0.8085073E+02  0.7818608E-02  0.1326654E+00
          2   -1    0    0  501    0  0.00000000000E+00  0.00000000000E+00  0.15516519738E+02  0.15516519947E+02  0.25500000000E-02 0. -1.
         -1   -1    0    0    0  501 -0.00000000000E+00 -0.00000000000E+00 -0.10532065064E+03  0.10532065076E+03  0.50400000000E-02 0.  1.
         24    2    1    2    0    0  0.00000000000E+00  0.00000000000E+00 -0.89804130902E+02  0.12083717071E+03  0.80850726017E+02 0.  0.
         66    2    3    3    0    0 -0.15137625320E+02 -0.16579975389E+02  0.52703715126E+01  0.23147788185E+02  0.19999994336E+01 0.  0.
        -13    1    3    3    0    0  0.15137625320E+02  0.16579975389E+02 -0.95074502414E+02  0.97689382522E+02  0.10566000000E+00 0.  1.
         13    1    4    4    0    0 -0.18692162810E+01 -0.15881364993E+01  0.57486283882E+00  0.25214635363E+01  0.10566000000E+00 0. -1.
        -13    1    4    4    0    0 -0.15627854562E+01 -0.16359189641E+01  0.33851972313E-01  0.22651355878E+01  0.10566000000E+00 0.  1.
         14    1    4    4    0    0 -0.11705623583E+02 -0.13355919925E+02  0.46616567015E+01  0.18361189061E+02  0.00000000000E+00 0. -1.
<mgrwt>
<rscale>  0 0.80850726E+02</rscale>
<asrwt>0</asrwt>
<pdfrwt beam="1">  1        2 0.23871570E-02 0.80850726E+02</pdfrwt>
<pdfrwt beam="2">  1       -1 0.16203177E-01 0.80850726E+02</pdfrwt>
<totfact> 0.11415339E+05</totfact>
</mgrwt>
</event>
<event>
 8    1  0.2433467E-020  0.7722607E+02  0.7818608E-02  0.1337113E+00
          2   -1    0    0  501    0  0.00000000000E+00  0.00000000000E+00  0.10390402116E+04  0.10390402116E+04  0.25500000000E-02 0. -1.
         -1   -1    0    0    0  501 -0.00000000000E+00 -0.00000000000E+00 -0.14349413324E+01  0.14349501835E+01  0.50400000000E-02 0.  1.
         24    2    1    2    0    0 -0.35527136788E-14  0.35527136788E-14  0.10376052702E+04  0.10404751617E+04  0.77226066892E+02 0.  0.
         66    2    3    3    0    0  0.20058740944E+02 -0.99509975469E+01  0.94255392599E+03  0.94282197621E+03  0.19999952455E+01 0.  0.
        -13    1    3    3    0    0 -0.20058740944E+02  0.99509975469E+01  0.95051344233E+02  0.97653185534E+02  0.10566000000E+00 0.  1.
         13    1    4    4    0    0  0.12508570772E+02 -0.55146892276E+01  0.57075770878E+03  0.57092140391E+03  0.10566000000E+00 0.  1.
        -13    1    4    4    0    0  0.34570363403E+01 -0.16120621044E+01  0.17418280759E+03  0.17422460064E+03  0.10566000000E+00 0. -1.
        -14    1    4    4    0    0  0.40931338319E+01 -0.28242462149E+01  0.19761340961E+03  0.19767597166E+03  0.00000000000E+00 0.  1.
<mgrwt>
<rscale>  0 0.77226067E+02</rscale>
<asrwt>0</asrwt>
<pdfrwt beam="1">  1        2 0.15985240E+00 0.77226067E+02</pdfrwt>
<pdfrwt beam="2">  1       -1 0.22076080E-03 0.77226067E+02</pdfrwt>
<totfact> 0.38646403E+05</totfact>
</mgrwt>
</event>
<event>
 8    1  0.2433467E-020  0.7847143E+02  0.7818608E-02  0.1333446E+00
         -1   -1    0    0    0  501 -0.00000000000E+00  0.00000000000E+00  0.25435799554E+01  0.25435849487E+01  0.50400000000E-02 0.  1.
          2   -1    0    0  501    0  0.00000000000E+00 -0.00000000000E+00 -0.60522571298E+03  0.60522571299E+03  0.25500000000E-02 0. -1.
         24    2    1    2    0    0  0.00000000000E+00  0.00000000000E+00 -0.60268213303E+03  0.60776929794E+03  0.78471434575E+02 0.  0.
         66    2    3    3    0    0  0.17695251025E+02  0.32989778688E+02 -0.39185530878E+03  0.39364454834E+03  0.20000015718E+01 0.  0.
        -13    1    3    3    0    0 -0.17695251025E+02 -0.32989778688E+02 -0.21082682425E+03  0.21412474960E+03  0.10566000000E+00 0.  1.
         13    1    4    4    0    0  0.10463660012E+02  0.20700272803E+02 -0.24189801676E+03  0.24300751254E+03  0.10566000000E+00 0. -1.
        -13    1    4    4    0    0  0.17046336442E+01  0.29700326912E+01 -0.40586596491E+02  0.40730944610E+02  0.10566000000E+00 0.  1.
         14    1    4    4    0    0  0.55269573691E+01  0.93194731945E+01 -0.10937069553E+03  0.10990609119E+03  0.00000000000E+00 0. -1.
<mgrwt>
<rscale>  0 0.78471435E+02</rscale>
<asrwt>0</asrwt>
<pdfrwt beam="1">  1        2 0.93111533E-01 0.78471435E+02</pdfrwt>
<pdfrwt beam="2">  1       -1 0.39132086E-03 0.78471435E+02</pdfrwt>
<totfact> 0.33898988E+05</totfact>
</mgrwt>
</event>
<event>
 8    1  0.2433467E-020  0.7589147E+02  0.7818608E-02  0.1341132E+00
         -1   -1    0    0    0  501 -0.00000000000E+00  0.00000000000E+00  0.30820738662E+01  0.30820779870E+01  0.50400000000E-02 0.  1.
          2   -1    0    0  501    0  0.00000000000E+00 -0.00000000000E+00 -0.46717823859E+03  0.46717823860E+03  0.25500000000E-02 0. -1.
         24    2    1    2    0    0  0.17763568394E-14 -0.71054273576E-14 -0.46409616473E+03  0.47026031659E+03  0.75891470155E+02 0.  0.
         66    2    3    3    0    0  0.10059631692E+02 -0.35430597750E+02 -0.28809767142E+03  0.29044929285E+03  0.19999983215E+01 0.  0.
        -13    1    3    3    0    0 -0.10059631692E+02  0.35430597750E+02 -0.17599849330E+03  0.17981102373E+03  0.10566000000E+00 0.  1.
         13    1    4    4    0    0  0.42682004129E+01 -0.13289517101E+02 -0.11577296115E+03  0.11661139952E+03  0.10566000000E+00 0. -1.
        -13    1    4    4    0    0  0.19737348801E+01 -0.74146149628E+01 -0.57892136905E+02  0.58398483061E+02  0.10566000000E+00 0.  1.
         14    1    4    4    0    0  0.38176963991E+01 -0.14726465686E+02 -0.11443257337E+03  0.11543941027E+03  0.00000000000E+00 0. -1.
<mgrwt>
<rscale>  0 0.75891470E+02</rscale>
<asrwt>0</asrwt>
<pdfrwt beam="1">  1        2 0.71873519E-01 0.75891470E+02</pdfrwt>
<pdfrwt beam="2">  1       -1 0.47416590E-03 0.75891470E+02</pdfrwt>
<totfact> 0.34166070E+05</totfact>
</mgrwt>
</event>
<event>
 8    1  0.2433467E-020  0.8431606E+02  0.7818608E-02  0.1317231E+00
          2   -1    0    0  501    0  0.00000000000E+00  0.00000000000E+00  0.92871369207E+02  0.92871369242E+02  0.25500000000E-02 0. -1.
         -1   -1    0    0    0  501 -0.00000000000E+00 -0.00000000000E+00 -0.19137214637E+02  0.19137215301E+02  0.50400000000E-02 0.  1.
         24    2    1    2    0    0  0.00000000000E+00  0.00000000000E+00  0.73734154570E+02  0.11200858454E+03  0.84316056960E+02 0.  0.
         66    2    3    3    0    0 -0.23253838554E+01  0.39742675343E+02  0.55218592297E+02  0.68102720883E+02  0.20000007345E+01 0.  0.
        -13    1    3    3    0    0  0.23253838554E+01 -0.39742675343E+02  0.18515562273E+02  0.43905863661E+02  0.10566000000E+00 0.  1.
         13    1    4    4    0    0 -0.73203985753E+00  0.66255466274E+01  0.95732467803E+01  0.11665846237E+02  0.10566000000E+00 0. -1.
        -13    1    4    4    0    0 -0.86402499029E+00  0.18425969492E+02  0.24103563818E+02  0.30352196686E+02  0.10566000000E+00 0.  1.
         14    1    4    4    0    0 -0.72931900756E+00  0.14691159223E+02  0.21541781699E+02  0.26084677960E+02  0.00000000000E+00 0. -1.
<mgrwt>
<rscale>  0 0.84316057E+02</rscale>
<asrwt>0</asrwt>
<pdfrwt beam="1">  1        2 0.14287903E-01 0.84316057E+02</pdfrwt>
<pdfrwt beam="2">  1       -1 0.29441870E-02 0.84316057E+02</pdfrwt>
<totfact> 0.15076249E+05</totfact>
</mgrwt>
</event>
<event>
 8    1  0.2433467E-020  0.7951816E+02  0.7818608E-02  0.1330424E+00
          2   -1    0    0  501    0  0.00000000000E+00  0.00000000000E+00  0.23666575429E+02  0.23666575566E+02  0.25500000000E-02 0. -1.
         -1   -1    0    0    0  501 -0.00000000000E+00 -0.00000000000E+00 -0.66793967088E+02  0.66793967278E+02  0.50400000000E-02 0.  1.
         24    2    1    2    0    0 -0.88817841970E-15  0.00000000000E+00 -0.43127391660E+02  0.90460542844E+02  0.79518160821E+02 0.  0.
         66    2    3    3    0    0 -0.54921293464E+01 -0.24992500289E+02  0.13002839333E+02  0.28772597905E+02  0.20000010170E+01 0.  0.
        -13    1    3    3    0    0  0.54921293464E+01  0.24992500289E+02 -0.56130230993E+02  0.61687944939E+02  0.10566000000E+00 0.  1.
         13    1    4    4    0    0 -0.26037692403E+00 -0.19358884817E+01  0.14970852701E+01  0.24633084861E+01  0.10566000000E+00 0. -1.
        -13    1    4    4    0    0 -0.87703542750E+00 -0.27464705327E+01  0.12620748465E+01  0.31490138904E+01  0.10566000000E+00 0. -1.
         14    1    4    4    0    0 -0.43547169949E+01 -0.20310141274E+02  0.10243679217E+02  0.23160275529E+02  0.00000000000E+00 0. -1.
<mgrwt>
<rscale>  0 0.79518161E+02</rscale>
<asrwt>0</asrwt>
<pdfrwt beam="1">  1        2 0.36410117E-02 0.79518161E+02</pdfrwt>
<pdfrwt beam="2">  1       -1 0.10275995E-01 0.79518161E+02</pdfrwt>
<totfact> 0.13062680E+05</totfact>
</mgrwt>
</event>
<event>
 8    1  0.2433467E-020  0.8050962E+02  0.7818608E-02  0.1327611E+00
         -1   -1    0    0    0  501 -0.00000000000E+00  0.00000000000E+00  0.45296561515E+01  0.45296589554E+01  0.50400000000E-02 0.  1.
          2   -1    0    0  501    0  0.00000000000E+00 -0.00000000000E+00 -0.35774218173E+03  0.35774218174E+03  0.25500000000E-02 0. -1.
         24    2    1    2    0    0 -0.88817841970E-15  0.00000000000E+00 -0.35321252558E+03  0.36227184069E+03  0.80509616411E+02 0.  0.
         66    2    3    3    0    0  0.77823100470E+01 -0.33209868903E+02 -0.27269595084E+03  0.27482820334E+03  0.20000010333E+01 0.  0.
        -13    1    3    3    0    0 -0.77823100470E+01  0.33209868903E+02 -0.80516574742E+02  0.87443637358E+02  0.10566000000E+00 0.  1.
         13    1    4    4    0    0  0.45574519044E+00 -0.17207443270E+01 -0.16178028116E+02  0.16276007572E+02  0.10566000000E+00 0. -1.
        -13    1    4    4    0    0  0.49202195185E+01 -0.18981445640E+02 -0.15065258751E+03  0.15192339230E+03  0.10566000000E+00 0.  1.
        -14    1    4    4    0    0  0.24063453380E+01 -0.12507678936E+02 -0.10586533521E+03  0.10662880347E+03  0.00000000000E+00 0.  1.
<mgrwt>
<rscale>  0 0.80509616E+02</rscale>
<asrwt>0</asrwt>
<pdfrwt beam="1">  1        2 0.55037237E-01 0.80509616E+02</pdfrwt>
<pdfrwt beam="2">  1       -1 0.69687068E-03 0.80509616E+02</pdfrwt>
<totfact> 0.26713033E+05</totfact>
</mgrwt>
</event>
<event>
 8    1  0.2433467E-020  0.7861520E+02  0.7818608E-02  0.1333028E+00
          2   -1    0    0  501    0  0.00000000000E+00  0.00000000000E+00  0.92176056736E+03  0.92176056737E+03  0.25500000000E-02 0. -1.
         -1   -1    0    0    0  501 -0.00000000000E+00 -0.00000000000E+00 -0.16762311869E+01  0.16762387639E+01  0.50400000000E-02 0.  1.
         24    2    1    2    0    0 -0.35527136788E-14 -0.17763568394E-14  0.92008433618E+03  0.92343680613E+03  0.78615197257E+02 0.  0.
         66    2    3    3    0    0 -0.22049461585E+02 -0.15321036439E+02  0.79714626374E+03  0.79760082665E+03  0.19999906066E+01 0.  0.
        -13    1    3    3    0    0  0.22049461585E+02  0.15321036439E+02  0.12293807243E+03  0.12583597948E+03  0.10566000000E+00 0.  1.
         13    1    4    4    0    0 -0.64827489180E+01 -0.49123444571E+01  0.21842285057E+03  0.21857426650E+03  0.10566000000E+00 0.  1.
        -13    1    4    4    0    0 -0.78431023820E+01 -0.53356849517E+01  0.30103585697E+03  0.30118529535E+03  0.10566000000E+00 0. -1.
        -14    1    4    4    0    0 -0.77236102847E+01 -0.50730070304E+01  0.27768755620E+03  0.27784126480E+03  0.00000000000E+00 0.  1.
<mgrwt>
<rscale>  0 0.78615197E+02</rscale>
<asrwt>0</asrwt>
<pdfrwt beam="1">  1        2 0.14180956E+00 0.78615197E+02</pdfrwt>
<pdfrwt beam="2">  1       -1 0.25788187E-03 0.78615197E+02</pdfrwt>
<totfact> 0.36655985E+05</totfact>
</mgrwt>
</event>
<event>
 8    1  0.2433467E-020  0.8031878E+02  0.7818608E-02  0.1328149E+00
          2   -1    0    0  501    0  0.00000000000E+00  0.00000000000E+00  0.31363775544E+03  0.31363775545E+03  0.25500000000E-02 0. -1.
         -1   -1    0    0    0  501 -0.00000000000E+00 -0.00000000000E+00 -0.51421624816E+01  0.51421649515E+01  0.50400000000E-02 0.  1.
         24    2    1    2    0    0  0.00000000000E+00  0.00000000000E+00  0.30849559296E+03  0.31877992041E+03  0.80318782217E+02 0.  0.
         66    2    3    3    0    0  0.13454829906E+02 -0.49941541474E+01  0.30310130993E+03  0.30344748821E+03  0.19999995782E+01 0.  0.
        -13    1    3    3    0    0 -0.13454829906E+02  0.49941541474E+01  0.53942830308E+01  0.15332432191E+02  0.10566000000E+00 0.  1.
         13    1    4    4    0    0  0.15476721771E+01 -0.42410158472E+00  0.29886714562E+02  0.29929951932E+02  0.10566000000E+00 0. -1.
        -13    1    4    4    0    0  0.77621512393E+01 -0.37973702939E+01  0.17815105712E+03  0.17836053748E+03  0.10566000000E+00 0.  1.
        -14    1    4    4    0    0  0.41450064892E+01 -0.77268226874E+00  0.95063538248E+02  0.95156998802E+02  0.00000000000E+00 0.  1.
<mgrwt>
<rscale>  0 0.80318782E+02</rscale>
<asrwt>0</asrwt>
<pdfrwt beam="1">  1        2 0.48251958E-01 0.80318782E+02</pdfrwt>
<pdfrwt beam="2">  1       -1 0.79110218E-03 0.80318782E+02</pdfrwt>
<totfact> 0.25639123E+05</totfact>
</mgrwt>
</event>
<event>
 8    1  0.2433467E-020  0.7950832E+02  0.7818608E-02  0.1330453E+00
          2   -1    0    0  501    0  0.00000000000E+00  0.00000000000E+00  0.19230393707E+02  0.19230393877E+02  0.25500000000E-02 0. -1.
         -1   -1    0    0    0  501 -0.00000000000E+00 -0.00000000000E+00 -0.82182059437E+02  0.82182059591E+02  0.50400000000E-02 0.  1.
         24    2    1    2    0    0  0.35527136788E-14  0.00000000000E+00 -0.62951665729E+02  0.10141245347E+03  0.79508323465E+02 0.  0.
         66    2    3    3    0    0 -0.21728688276E+02  0.20707065878E+02  0.17032076827E+01  0.30130041251E+02  0.19999994749E+01 0.  0.
        -13    1    3    3    0    0  0.21728688276E+02 -0.20707065878E+02 -0.64654873412E+02  0.71282412217E+02  0.10566000000E+00 0.  1.
         13    1    4    4    0    0 -0.96430677121E+01  0.85009846279E+01  0.13221129476E+01  0.12923414457E+02  0.10566000000E+00 0. -1.
        -13    1    4    4    0    0 -0.42614275787E+01  0.44864853065E+01 -0.28385679581E+00  0.61951637694E+01  0.10566000000E+00 0.  1.
        -14    1    4    4    0    0 -0.78241929850E+01  0.77195959440E+01  0.66495153089E+00  0.11011463025E+02  0.00000000000E+00 0.  1.
<mgrwt>
<rscale>  0 0.79508323E+02</rscale>
<asrwt>0</asrwt>
<pdfrwt beam="1">  1        2 0.29585222E-02 0.79508323E+02</pdfrwt>
<pdfrwt beam="2">  1       -1 0.12643394E-01 0.79508323E+02</pdfrwt>
<totfact> 0.12537691E+05</totfact>
</mgrwt>
</event>
<event>
 8    1  0.2433467E-020  0.7959616E+02  0.7818608E-02  0.1330201E+00
          2   -1    0    0  501    0  0.00000000000E+00  0.00000000000E+00  0.82467728259E+03  0.82467728259E+03  0.25500000000E-02 0. -1.
         -1   -1    0    0    0  501 -0.00000000000E+00 -0.00000000000E+00 -0.19206111184E+01  0.19206177313E+01  0.50400000000E-02 0.  1.
         24    2    1    2    0    0  0.35527136788E-14  0.00000000000E+00  0.82275667147E+03  0.82659790032E+03  0.79596158017E+02 0.  0.
         66    2    3    3    0    0 -0.17994119980E+02 -0.29327036986E+02  0.61882024539E+03  0.61977928294E+03  0.19999996348E+01 0.  0.
        -13    1    3    3    0    0  0.17994119980E+02  0.29327036986E+02  0.20393642607E+03  0.20681861738E+03  0.10566000000E+00 0.  1.
         13    1    4    4    0    0 -0.57319538396E+01 -0.78172663296E+01  0.17401189474E+03  0.17428171339E+03  0.10566000000E+00 0. -1.
        -13    1    4    4    0    0 -0.39797927726E+01 -0.75625995492E+01  0.14982869651E+03  0.15007225301E+03  0.10566000000E+00 0.  1.
         14    1    4    4    0    0 -0.82823733675E+01 -0.13947171108E+02  0.29497965414E+03  0.29542531653E+03  0.00000000000E+00 0. -1.
<mgrwt>
<rscale>  0 0.79596158E+02</rscale>
<asrwt>0</asrwt>
<pdfrwt beam="1">  1        2 0.12687329E+00 0.79596158E+02</pdfrwt>
<pdfrwt beam="2">  1       -1 0.29547946E-03 0.79596158E+02</pdfrwt>
<totfact> 0.34995293E+05</totfact>
</mgrwt>
</event>
<event>
 8    1  0.2433467E-020  0.8207277E+02  0.7818608E-02  0.1323270E+00
          2   -1    0    0  501    0  0.00000000000E+00  0.00000000000E+00  0.26782320064E+02  0.26782320185E+02  0.25500000000E-02 0. -1.
         -1   -1    0    0    0  501 -0.00000000000E+00 -0.00000000000E+00 -0.62876742992E+02  0.62876743194E+02  0.50400000000E-02 0.  1.
         24    2    1    2    0    0  0.88817841970E-15  0.00000000000E+00 -0.36094422928E+02  0.89659063379E+02  0.82072774289E+02 0.  0.
         66    2    3    3    0    0  0.46614715781E+01 -0.39265985789E+02 -0.61692723804E+01  0.40070024705E+02  0.20000002077E+01 0.  0.
        -13    1    3    3    0    0 -0.46614715781E+01  0.39265985789E+02 -0.29925150548E+02  0.49589038674E+02  0.10566000000E+00 0.  1.
         13    1    4    4    0    0  0.30752102948E+01 -0.18465710399E+02 -0.31448062617E+01  0.18982632835E+02  0.10566000000E+00 0. -1.
        -13    1    4    4    0    0  0.93239553582E+00 -0.12534278948E+02 -0.21113396921E+01  0.12745447403E+02  0.10566000000E+00 0.  1.
         14    1    4    4    0    0  0.65386574741E+00 -0.82659964428E+01 -0.91312642654E+00  0.83419444663E+01  0.00000000000E+00 0. -1.
<mgrwt>
<rscale>  0 0.82072774E+02</rscale>
<asrwt>0</asrwt>
<pdfrwt beam="1">  1        2 0.41203570E-02 0.82072774E+02</pdfrwt>
<pdfrwt beam="2">  1       -1 0.96733451E-02 0.82072774E+02</pdfrwt>
<totfact> 0.12239911E+05</totfact>
</mgrwt>
</event>
<event>
 8    1  0.2433467E-020  0.7738981E+02  0.7818608E-02  0.1336626E+00
          2   -1    0    0  501    0  0.00000000000E+00  0.00000000000E+00  0.52612778931E+01  0.52612785111E+01  0.25500000000E-02 0. -1.
         -1   -1    0    0    0  501 -0.00000000000E+00 -0.00000000000E+00 -0.28458780287E+03  0.28458780292E+03  0.50400000000E-02 0.  1.
         24    2    1    2    0    0  0.00000000000E+00  0.00000000000E+00 -0.27932652498E+03  0.28984908143E+03  0.77389808423E+02 0.  0.
         66    2    3    3    0    0 -0.38144455347E+02 -0.41732372645E+01 -0.15766941679E+03  0.16228388821E+03  0.19999999062E+01 0.  0.
        -13    1    3    3    0    0  0.38144455347E+02  0.41732372645E+01 -0.12165710819E+03  0.12756519322E+03  0.10566000000E+00 0.  1.
         13    1    4    4    0    0 -0.12970291899E+02 -0.12672632553E+01 -0.53065723636E+02  0.54642626375E+02  0.10566000000E+00 0. -1.
        -13    1    4    4    0    0 -0.14487009731E+02 -0.23770767141E+01 -0.61972842628E+02  0.63688054862E+02  0.10566000000E+00 0.  1.
         14    1    4    4    0    0 -0.10687153718E+02 -0.52889729510E+00 -0.42630850525E+02  0.43953206975E+02  0.00000000000E+00 0. -1.
<mgrwt>
<rscale>  0 0.77389808E+02</rscale>
<asrwt>0</asrwt>
<pdfrwt beam="1">  1        2 0.80942764E-03 0.77389808E+02</pdfrwt>
<pdfrwt beam="2">  1       -1 0.43782727E-01 0.77389808E+02</pdfrwt>
<totfact> 0.96084008E+04</totfact>
</mgrwt>
</event>
<event>
 8    1  0.2433467E-020  0.7784012E+02  0.7818608E-02  0.1335295E+00
          2   -1    0    0  501    0  0.00000000000E+00  0.00000000000E+00  0.11419837369E+03  0.11419837372E+03  0.25500000000E-02 0. -1.
         -1   -1    0    0    0  501 -0.00000000000E+00 -0.00000000000E+00 -0.13264384383E+02  0.13264385340E+02  0.50400000000E-02 0.  1.
         24    2    1    2    0    0 -0.35527136788E-14 -0.35527136788E-14  0.10093398931E+03  0.12746275906E+03  0.77840123006E+02 0.  0.
         66    2    3    3    0    0 -0.30345373513E+02 -0.20696768452E+02  0.29557675544E+02  0.47189555258E+02  0.20000059847E+01 0.  0.
        -13    1    3    3    0    0  0.30345373513E+02  0.20696768452E+02  0.71376313768E+02  0.80273203805E+02  0.10566000000E+00 0.  1.
         13    1    4    4    0    0 -0.14355596253E+02 -0.88970542540E+01  0.13528566637E+02  0.21639639494E+02  0.10566000000E+00 0. -1.
        -13    1    4    4    0    0 -0.54754089731E+01 -0.43282001326E+01  0.61428654347E+01  0.92983535959E+01  0.10566000000E+00 0.  1.
         14    1    4    4    0    0 -0.10514368287E+02 -0.74715140651E+01  0.98862434724E+01  0.16251562168E+02  0.00000000000E+00 0. -1.
<mgrwt>
<rscale>  0 0.77840123E+02</rscale>
<asrwt>0</asrwt>
<pdfrwt beam="1">  1        2 0.17568980E-01 0.77840123E+02</pdfrwt>
<pdfrwt beam="2">  1       -1 0.20406746E-02 0.77840123E+02</pdfrwt>
<totfact> 0.19807774E+05</totfact>
</mgrwt>
</event>
<event>
 8    1  0.2433467E-020  0.7996276E+02  0.7818608E-02  0.1329157E+00
         -1   -1    0    0    0  501 -0.00000000000E+00  0.00000000000E+00  0.26518078867E+02  0.26518079346E+02  0.50400000000E-02 0.  1.
          2   -1    0    0  501    0  0.00000000000E+00 -0.00000000000E+00 -0.60280040327E+02  0.60280040381E+02  0.25500000000E-02 0. -1.
         24    2    1    2    0    0  0.00000000000E+00  0.00000000000E+00 -0.33761961461E+02  0.86798119727E+02  0.79962763499E+02 0.  0.
         66    2    3    3    0    0  0.18311027135E+02  0.19841460209E+02 -0.48863116806E+02  0.55862164678E+02  0.20000001452E+01 0.  0.
        -13    1    3    3    0    0 -0.18311027135E+02 -0.19841460209E+02  0.15101155345E+02  0.30935955048E+02  0.10566000000E+00 0.  1.
         13    1    4    4    0    0  0.58820314472E+01  0.62413058264E+01 -0.15763116656E+02  0.17945450764E+02  0.10566000000E+00 0.  1.
        -13    1    4    4    0    0  0.30932743787E+00  0.59586086252E+00 -0.17535793651E+01  0.18806749471E+01  0.10566000000E+00 0.  1.
         14    1    4    4    0    0  0.12119668250E+02  0.13004293520E+02 -0.31346420785E+02  0.36036038967E+02  0.00000000000E+00 0. -1.
<mgrwt>
<rscale>  0 0.79962763E+02</rscale>
<asrwt>0</asrwt>
<pdfrwt beam="1">  1        2 0.92738524E-02 0.79962763E+02</pdfrwt>
<pdfrwt beam="2">  1       -1 0.40797045E-02 0.79962763E+02</pdfrwt>
<totfact> 0.15602704E+05</totfact>
</mgrwt>
</event>
<event>
 8    1  0.2433467E-020  0.8160363E+02  0.7818608E-02  0.1324561E+00
          2   -1    0    0  501    0  0.00000000000E+00  0.00000000000E+00  0.36511002110E+03  0.36511002111E+03  0.25500000000E-02 0. -1.
         -1   -1    0    0    0  501 -0.00000000000E+00 -0.00000000000E+00 -0.45596877217E+01  0.45596905072E+01  0.50400000000E-02 0.  1.
         24    2    1    2    0    0  0.00000000000E+00  0.35527136788E-14  0.36055033338E+03  0.36966971162E+03  0.81603632193E+02 0.  0.
         66    2    3    3    0    0 -0.25938141252E+02  0.31068296010E+02  0.20292313553E+03  0.20692951727E+03  0.19999994648E+01 0.  0.
        -13    1    3    3    0    0  0.25938141252E+02 -0.31068296010E+02  0.15762719785E+03  0.16274019434E+03  0.10566000000E+00 0.  1.
         13    1    4    4    0    0 -0.75886475056E+01  0.10022299413E+02  0.64768712601E+02  0.65977506413E+02  0.10566000000E+00 0. -1.
        -13    1    4    4    0    0 -0.62625886384E+01  0.64949371672E+01  0.45723607126E+02  0.46605403527E+02  0.10566000000E+00 0.  1.
         14    1    4    4    0    0 -0.12086905108E+02  0.14551059430E+02  0.92430815802E+02  0.94346607334E+02  0.00000000000E+00 0. -1.
<mgrwt>
<rscale>  0 0.81603632E+02</rscale>
<asrwt>0</asrwt>
<pdfrwt beam="1">  1        2 0.56170767E-01 0.81603632E+02</pdfrwt>
<pdfrwt beam="2">  1       -1 0.70149070E-03 0.81603632E+02</pdfrwt>
<totfact> 0.25972937E+05</totfact>
</mgrwt>
</event>
<event>
 8    1  0.2433467E-020  0.7983731E+02  0.7818608E-02  0.1329514E+00
         -1   -1    0    0    0  501 -0.00000000000E+00  0.00000000000E+00  0.17143080316E+02  0.17143081057E+02  0.50400000000E-02 0.  1.
          2   -1    0    0  501    0  0.00000000000E+00 -0.00000000000E+00 -0.92952904304E+02  0.92952904339E+02  0.25500000000E-02 0. -1.
         24    2    1    2    0    0 -0.35527136788E-14  0.71054273576E-14 -0.75809823988E+02  0.11009598540E+03  0.79837313252E+02 0.  0.
         66    2    3    3    0    0  0.21117728815E+02 -0.32184429714E+02 -0.52371896264E+02  0.65027774800E+02  0.19999976745E+01 0.  0.
        -13    1    3    3    0    0 -0.21117728815E+02  0.32184429714E+02 -0.23437927723E+02  0.45068210596E+02  0.10566000000E+00 0.  1.
         13    1    4    4    0    0  0.92932613715E+01 -0.14714237043E+02 -0.23237013864E+02  0.29031766326E+02  0.10566000000E+00 0. -1.
        -13    1    4    4    0    0  0.95032745808E+01 -0.13559262817E+02 -0.22001909509E+02  0.27536539761E+02  0.10566000000E+00 0.  1.
        -14    1    4    4    0    0  0.23211928631E+01 -0.39109298535E+01 -0.71329728914E+01  0.84594687124E+01  0.00000000000E+00 0.  1.
<mgrwt>
<rscale>  0 0.79837313E+02</rscale>
<asrwt>0</asrwt>
<pdfrwt beam="1">  1        2 0.14300447E-01 0.79837313E+02</pdfrwt>
<pdfrwt beam="2">  1       -1 0.26373971E-02 0.79837313E+02</pdfrwt>
<totfact> 0.17466977E+05</totfact>
</mgrwt>
</event>
<event>
 8    1  0.2433467E-020  0.7669604E+02  0.7818608E-02  0.1338698E+00
          2   -1    0    0  501    0  0.00000000000E+00  0.00000000000E+00  0.29381308955E+03  0.29381308956E+03  0.25500000000E-02 0. -1.
         -1   -1    0    0    0  501 -0.00000000000E+00 -0.00000000000E+00 -0.50051219058E+01  0.50051244434E+01  0.50400000000E-02 0.  1.
         24    2    1    2    0    0  0.00000000000E+00  0.00000000000E+00  0.28880796764E+03  0.29881821400E+03  0.76696041919E+02 0.  0.
         66    2    3    3    0    0  0.32137211410E+02  0.74061038922E+01  0.22054297110E+03  0.22300415430E+03  0.19999999287E+01 0.  0.
        -13    1    3    3    0    0 -0.32137211410E+02 -0.74061038922E+01  0.68264996536E+02  0.75814059700E+02  0.10566000000E+00 0.  1.
         13    1    4    4    0    0  0.25460615964E+02  0.53600602995E+01  0.17330390848E+03  0.17524619559E+03  0.10566000000E+00 0. -1.
        -13    1    4    4    0    0  0.61612803511E+01  0.20702515268E+01  0.44182710547E+02  0.44658374268E+02  0.10566000000E+00 0.  1.
         14    1    4    4    0    0  0.51531509549E+00 -0.24207934185E-01  0.30563520805E+01  0.30995844418E+01  0.00000000000E+00 0. -1.
<mgrwt>
<rscale>  0 0.76696042E+02</rscale>
<asrwt>0</asrwt>
<pdfrwt beam="1">  1        2 0.45202016E-01 0.76696042E+02</pdfrwt>
<pdfrwt beam="2">  1       -1 0.77001892E-03 0.76696042E+02</pdfrwt>
<totfact> 0.28255635E+05</totfact>
</mgrwt>
</event>
<event>
 8    1  0.2433467E-020  0.7901981E+02  0.7818608E-02  0.1331856E+00
          2   -1    0    0  501    0  0.00000000000E+00  0.00000000000E+00  0.15040692056E+03  0.15040692058E+03  0.25500000000E-02 0. -1.
         -1   -1    0    0    0  501 -0.00000000000E+00 -0.00000000000E+00 -0.10378726732E+02  0.10378727956E+02  0.50400000000E-02 0.  1.
         24    2    1    2    0    0  0.00000000000E+00  0.17763568394E-14  0.14002819382E+03  0.16078564853E+03  0.79019805802E+02 0.  0.
         66    2    3    3    0    0 -0.32647941915E+02  0.88447568951E+01  0.11150534466E+03  0.11653994903E+03  0.19999993266E+01 0.  0.
        -13    1    3    3    0    0  0.32647941915E+02 -0.88447568951E+01  0.28522849167E+02  0.44245699503E+02  0.10566000000E+00 0.  1.
         13    1    4    4    0    0 -0.17837963891E+02  0.42192807634E+01  0.61331025348E+02  0.64011726427E+02  0.10566000000E+00 0. -1.
        -13    1    4    4    0    0 -0.12660571684E+02  0.41204193263E+01  0.44036419766E+02  0.46005275357E+02  0.10566000000E+00 0.  1.
         14    1    4    4    0    0 -0.21494063404E+01  0.50505680544E+00  0.61378995432E+01  0.65229472476E+01  0.00000000000E+00 0. -1.
<mgrwt>
<rscale>  0 0.79019806E+02</rscale>
<asrwt>0</asrwt>
<pdfrwt beam="1">  1        2 0.23139524E-01 0.79019806E+02</pdfrwt>
<pdfrwt beam="2">  1       -1 0.15967274E-02 0.79019806E+02</pdfrwt>
<totfact> 0.20713665E+05</totfact>
</mgrwt>
</event>
<event>
 8    1  0.2433467E-020  0.8516135E+02  0.7818608E-02  0.1315011E+00
         -1   -1    0    0    0  501 -0.00000000000E+00  0.00000000000E+00  0.56812295591E+01  0.56812317947E+01  0.50400000000E-02 0.  1.
          2   -1    0    0  501    0  0.00000000000E+00 -0.00000000000E+00 -0.31914101762E+03  0.31914101763E+03  0.25500000000E-02 0. -1.
         24    2    1    2    0    0  0.35527136788E-14  0.00000000000E+00 -0.31345978806E+03  0.32482224942E+03  0.85161346809E+02 0.  0.
         66    2    3    3    0    0 -0.16183617809E+02 -0.36592369752E+02 -0.21211508905E+03  0.21586505512E+03  0.20000023025E+01 0.  0.
        -13    1    3    3    0    0  0.16183617809E+02  0.36592369752E+02 -0.10134469901E+03  0.10895719430E+03  0.10566000000E+00 0.  1.
         13    1    4    4    0    0 -0.61377182420E+01 -0.13473617072E+02 -0.77910394481E+02  0.79304796037E+02  0.10566000000E+00 0. -1.
        -13    1    4    4    0    0 -0.10639064816E+01 -0.27159741001E+01 -0.13142994239E+02  0.13463204444E+02  0.10566000000E+00 0.  1.
        -14    1    4    4    0    0 -0.89819930852E+01 -0.20402778580E+02 -0.12106170033E+03  0.12309705464E+03  0.00000000000E+00 0.  1.
<mgrwt>
<rscale>  0 0.85161347E+02</rscale>
<asrwt>0</asrwt>
<pdfrwt beam="1">  1        2 0.49098604E-01 0.85161347E+02</pdfrwt>
<pdfrwt beam="2">  1       -1 0.87403574E-03 0.85161347E+02</pdfrwt>
<totfact> 0.22121164E+05</totfact>
</mgrwt>
</event>
<event>
 8    1  0.2433467E-020  0.7979762E+02  0.7818608E-02  0.1329627E+00
         -1   -1    0    0    0  501 -0.00000000000E+00  0.00000000000E+00  0.51009017417E+02  0.51009017666E+02  0.50400000000E-02 0.  1.
          2   -1    0    0  501    0  0.00000000000E+00 -0.00000000000E+00 -0.31208505676E+02  0.31208505781E+02  0.25500000000E-02 0. -1.
         24    2    1    2    0    0  0.00000000000E+00  0.00000000000E+00  0.19800511741E+02  0.82217523447E+02  0.79797624630E+02 0.  0.
         66    2    3    3    0    0 -0.17225601706E+02  0.16097985845E+02 -0.23225255102E+02  0.33155376339E+02  0.20000008137E+01 0.  0.
        -13    1    3    3    0    0  0.17225601706E+02 -0.16097985845E+02  0.43025766842E+02  0.49062147108E+02  0.10566000000E+00 0.  1.
         13    1    4    4    0    0 -0.12878385707E+01  0.13626199179E+01 -0.18033431471E+01  0.26035498395E+01  0.10566000000E+00 0. -1.
        -13    1    4    4    0    0 -0.51996853980E+01  0.36895595247E+01 -0.64475177702E+01  0.90681435342E+01  0.10566000000E+00 0.  1.
        -14    1    4    4    0    0 -0.10738077737E+02  0.11045806403E+02 -0.14974394184E+02  0.21483682965E+02  0.00000000000E+00 0.  1.
<mgrwt>
<rscale>  0 0.79797625E+02</rscale>
<asrwt>0</asrwt>
<pdfrwt beam="1">  1        2 0.48013086E-02 0.79797625E+02</pdfrwt>
<pdfrwt beam="2">  1       -1 0.78475411E-02 0.79797625E+02</pdfrwt>
<totfact> 0.13657075E+05</totfact>
</mgrwt>
</event>
<event>
 8    1  0.2433467E-020  0.8050351E+02  0.7818608E-02  0.1327629E+00
          2   -1    0    0  501    0  0.00000000000E+00  0.00000000000E+00  0.51250141540E+03  0.51250141541E+03  0.25500000000E-02 0. -1.
         -1   -1    0    0    0  501 -0.00000000000E+00 -0.00000000000E+00 -0.31613624237E+01  0.31613664413E+01  0.50400000000E-02 0.  1.
         24    2    1    2    0    0  0.00000000000E+00 -0.11102230246E-15  0.50934005298E+03  0.51566278185E+03  0.80503509346E+02 0.  0.
         66    2    3    3    0    0 -0.30757400551E+02 -0.38898879584E+00  0.42087920197E+03  0.42200648294E+03  0.19999971464E+01 0.  0.
        -13    1    3    3    0    0  0.30757400551E+02  0.38898879584E+00  0.88460851005E+02  0.93656298910E+02  0.10566000000E+00 0.  1.
         13    1    4    4    0    0 -0.66290637199E+01 -0.15043043003E+00  0.97712130044E+02  0.97936911514E+02  0.10566000000E+00 0. -1.
        -13    1    4    4    0    0 -0.10878421679E+02 -0.78335339262E+00  0.14472407034E+03  0.14513449418E+03  0.10566000000E+00 0.  1.
         14    1    4    4    0    0 -0.13249915152E+02  0.54479502680E+00  0.17844300159E+03  0.17893507725E+03  0.00000000000E+00 0. -1.
<mgrwt>
<rscale>  0 0.80503509E+02</rscale>
<asrwt>0</asrwt>
<pdfrwt beam="1">  1        2 0.78846370E-01 0.80503509E+02</pdfrwt>
<pdfrwt beam="2">  1       -1 0.48636377E-03 0.80503509E+02</pdfrwt>
<totfact> 0.30192372E+05</totfact>
</mgrwt>
</event>
<event>
 8    1  0.2433467E-020  0.7984934E+02  0.7818608E-02  0.1329480E+00
          2   -1    0    0  501    0  0.00000000000E+00  0.00000000000E+00  0.25980616750E+03  0.25980616751E+03  0.25500000000E-02 0. -1.
         -1   -1    0    0    0  501 -0.00000000000E+00 -0.00000000000E+00 -0.61352619964E+01  0.61352640665E+01  0.50400000000E-02 0.  1.
         24    2    1    2    0    0  0.17763568394E-14  0.00000000000E+00  0.25367090550E+03  0.26594143158E+03  0.79849337701E+02 0.  0.
         66    2    3    3    0    0 -0.11269255176E+02 -0.10683022351E+02  0.24932523458E+03  0.24981632387E+03  0.19999991139E+01 0.  0.
        -13    1    3    3    0    0  0.11269255176E+02  0.10683022351E+02  0.43456709256E+01  0.16125107708E+02  0.10566000000E+00 0.  1.
         13    1    4    4    0    0 -0.69982777854E+01 -0.76972751366E+01  0.16331406213E+03  0.16364509767E+03  0.10566000000E+00 0. -1.
        -13    1    4    4    0    0 -0.17779395474E+01 -0.91321490583E+00  0.34865538185E+02  0.34922942995E+02  0.10566000000E+00 0.  1.
         14    1    4    4    0    0 -0.24930378428E+01 -0.20725323081E+01  0.51145634258E+02  0.51248283206E+02  0.00000000000E+00 0. -1.
<mgrwt>
<rscale>  0 0.79849338E+02</rscale>
<asrwt>0</asrwt>
<pdfrwt beam="1">  1        2 0.39970170E-01 0.79849338E+02</pdfrwt>
<pdfrwt beam="2">  1       -1 0.94388685E-03 0.79849338E+02</pdfrwt>
<totfact> 0.24320872E+05</totfact>
</mgrwt>
</event>
<event>
 8    1  0.2433467E-020  0.8055591E+02  0.7818608E-02  0.1327481E+00
          2   -1    0    0  501    0  0.00000000000E+00  0.00000000000E+00  0.14957925904E+03  0.14957925906E+03  0.25500000000E-02 0. -1.
         -1   -1    0    0    0  501 -0.00000000000E+00 -0.00000000000E+00 -0.10845845203E+02  0.10845846374E+02  0.50400000000E-02 0.  1.
         24    2    1    2    0    0  0.00000000000E+00  0.00000000000E+00  0.13873341383E+03  0.16042510543E+03  0.80555908158E+02 0.  0.
         66    2    3    3    0    0  0.29571938077E+01 -0.38826405866E+02  0.89725696458E+02  0.97831157530E+02  0.19999977674E+01 0.  0.
        -13    1    3    3    0    0 -0.29571938077E+01  0.38826405866E+02  0.49007717376E+02  0.62593947903E+02  0.10566000000E+00 0.  1.
         13    1    4    4    0    0  0.78532043089E+00 -0.91931498659E+01  0.19347536731E+02  0.21435229745E+02  0.10566000000E+00 0. -1.
        -13    1    4    4    0    0  0.14874846297E+01 -0.18656546255E+02  0.45034757572E+02  0.48769046354E+02  0.10566000000E+00 0.  1.
         14    1    4    4    0    0  0.68438874714E+00 -0.10976709745E+02  0.25343402155E+02  0.27626881430E+02  0.00000000000E+00 0. -1.
<mgrwt>
<rscale>  0 0.80555908E+02</rscale>
<asrwt>0</asrwt>
<pdfrwt beam="1">  1        2 0.23012195E-01 0.80555908E+02</pdfrwt>
<pdfrwt beam="2">  1       -1 0.16685916E-02 0.80555908E+02</pdfrwt>
<totfact> 0.19647386E+05</totfact>
</mgrwt>
</event>
<event>
 8    1  0.2433467E-020  0.7931293E+02  0.7818608E-02  0.1331013E+00
         -1   -1    0    0    0  501 -0.00000000000E+00  0.00000000000E+00  0.43531352594E+01  0.43531381770E+01  0.50400000000E-02 0.  1.
          2   -1    0    0  501    0  0.00000000000E+00 -0.00000000000E+00 -0.36126484804E+03  0.36126484805E+03  0.25500000000E-02 0. -1.
         24    2    1    2    0    0  0.00000000000E+00  0.00000000000E+00 -0.35691171278E+03  0.36561798623E+03  0.79312931682E+02 0.  0.
         66    2    3    3    0    0 -0.21406017735E+00  0.38345511200E+02 -0.22471469877E+03  0.22797175225E+03  0.19999822350E+01 0.  0.
        -13    1    3    3    0    0  0.21406017735E+00 -0.38345511200E+02 -0.13219701402E+03  0.13764623398E+03  0.10566000000E+00 0.  1.
         13    1    4    4    0    0  0.11770153132E+00  0.10117563470E+02 -0.57345880744E+02  0.58231779524E+02  0.10566000000E+00 0. -1.
        -13    1    4    4    0    0 -0.49378706584E+00  0.43709507623E+01 -0.28126418188E+02  0.28468501898E+02  0.10566000000E+00 0.  1.
        -14    1    4    4    0    0  0.16202535717E+00  0.23856996967E+02 -0.13924239984E+03  0.14127147082E+03  0.00000000000E+00 0.  1.
<mgrwt>
<rscale>  0 0.79312932E+02</rscale>
<asrwt>0</asrwt>
<pdfrwt beam="1">  1        2 0.55579184E-01 0.79312932E+02</pdfrwt>
<pdfrwt beam="2">  1       -1 0.66971363E-03 0.79312932E+02</pdfrwt>
<totfact> 0.27876970E+05</totfact>
</mgrwt>
</event>
<event>
 8    1  0.2433467E-020  0.8016627E+02  0.7818608E-02  0.1328580E+00
          2   -1    0    0  501    0  0.00000000000E+00  0.00000000000E+00  0.11671211269E+03  0.11671211272E+03  0.25500000000E-02 0. -1.
         -1   -1    0    0    0  501 -0.00000000000E+00 -0.00000000000E+00 -0.13765988644E+02  0.13765989567E+02  0.50400000000E-02 0.  1.
         24    2    1    2    0    0  0.00000000000E+00 -0.71054273576E-14  0.10294612405E+03  0.13047810229E+03  0.80166269215E+02 0.  0.
         66    2    3    3    0    0  0.11797730156E+02  0.33504394487E+02  0.21364991121E+02  0.41499322229E+02  0.20000032727E+01 0.  0.
        -13    1    3    3    0    0 -0.11797730156E+02 -0.33504394487E+02  0.81581132926E+02  0.88978780056E+02  0.10566000000E+00 0.  1.
         13    1    4    4    0    0  0.12118508844E+01  0.51036666470E+01  0.30666232421E+01  0.60771159241E+01  0.10566000000E+00 0. -1.
        -13    1    4    4    0    0  0.26535962161E+01  0.67771009598E+01  0.49268707196E+01  0.87895329467E+01  0.10566000000E+00 0.  1.
         14    1    4    4    0    0  0.79322830557E+01  0.21623626881E+02  0.13371497159E+02  0.26632673359E+02  0.00000000000E+00 0. -1.
<mgrwt>
<rscale>  0 0.80166269E+02</rscale>
<asrwt>0</asrwt>
<pdfrwt beam="1">  1        2 0.17955710E-01 0.80166269E+02</pdfrwt>
<pdfrwt beam="2">  1       -1 0.21178445E-02 0.80166269E+02</pdfrwt>
<totfact> 0.18430266E+05</totfact>
</mgrwt>
</event>
<event>
 8    1  0.2433467E-020  0.7617350E+02  0.7818608E-02  0.1340275E+00
         -1   -1    0    0    0  501 -0.00000000000E+00  0.00000000000E+00  0.15811725608E+01  0.15811805933E+01  0.50400000000E-02 0.  1.
          2   -1    0    0  501    0  0.00000000000E+00 -0.00000000000E+00 -0.91741849283E+03  0.91741849283E+03  0.25500000000E-02 0. -1.
         24    2    1    2    0    0  0.00000000000E+00  0.00000000000E+00 -0.91583732027E+03  0.91899967343E+03  0.76173503009E+02 0.  0.
         66    2    3    3    0    0 -0.22544765039E+02  0.13120203649E+02 -0.79261756469E+03  0.79304918513E+03  0.19999993603E+01 0.  0.
        -13    1    3    3    0    0  0.22544765039E+02 -0.13120203649E+02 -0.12321975558E+03  0.12595048830E+03  0.10566000000E+00 0.  1.
         13    1    4    4    0    0 -0.87164052271E+01  0.55499797973E+01 -0.32400260471E+03  0.32416735958E+03  0.10566000000E+00 0. -1.
        -13    1    4    4    0    0 -0.13530476323E+02  0.74984501869E+01 -0.45353429780E+03  0.45379805089E+03  0.10566000000E+00 0.  1.
        -14    1    4    4    0    0 -0.29788348930E+00  0.71773665127E-01 -0.15080662182E+02  0.15083774656E+02  0.00000000000E+00 0.  1.
<mgrwt>
<rscale>  0 0.76173503E+02</rscale>
<asrwt>0</asrwt>
<pdfrwt beam="1">  1        2 0.14114088E+00 0.76173503E+02</pdfrwt>
<pdfrwt beam="2">  1       -1 0.24325867E-03 0.76173503E+02</pdfrwt>
<totfact> 0.39756072E+05</totfact>
</mgrwt>
</event>
<event>
 8    1  0.2433467E-020  0.7881463E+02  0.7818608E-02  0.1332449E+00
         -1   -1    0    0    0  501 -0.00000000000E+00  0.00000000000E+00  0.79973069326E+00  0.79974657445E+00  0.50400000000E-02 0.  1.
          2   -1    0    0  501    0  0.00000000000E+00 -0.00000000000E+00 -0.19418051997E+04  0.19418051997E+04  0.25500000000E-02 0. -1.
         24    2    1    2    0    0  0.00000000000E+00  0.00000000000E+00 -0.19410054690E+04  0.19426049462E+04  0.78814634315E+02 0.  0.
         66    2    3    3    0    0  0.19928175304E+01 -0.10522232995E+02 -0.19052220978E+04  0.19052532458E+04  0.20000000873E+01 0.  0.
        -13    1    3    3    0    0 -0.19928175304E+01  0.10522232995E+02 -0.35783371162E+02  0.37351700426E+02  0.10566000000E+00 0.  1.
         13    1    4    4    0    0  0.10656867828E+01 -0.63942299971E+01 -0.11614915577E+04  0.11615096520E+04  0.10566000000E+00 0. -1.
        -13    1    4    4    0    0  0.91988173311E+00 -0.32903352766E+01 -0.66033051936E+03  0.66033936612E+03  0.10566000000E+00 0.  1.
         14    1    4    4    0    0  0.72490143986E-02 -0.83766772120E+00 -0.83400020744E+02  0.83404227710E+02  0.00000000000E+00 0. -1.
<mgrwt>
<rscale>  0 0.78814634E+02</rscale>
<asrwt>0</asrwt>
<pdfrwt beam="1">  1        2 0.29873549E+00 0.78814634E+02</pdfrwt>
<pdfrwt beam="2">  1       -1 0.12303827E-03 0.78814634E+02</pdfrwt>
<totfact> 0.29632393E+05</totfact>
</mgrwt>
</event>
<event>
 8    1  0.2433467E-020  0.7915600E+02  0.7818608E-02  0.1331464E+00
          2   -1    0    0  501    0  0.00000000000E+00  0.00000000000E+00  0.56990418848E+02  0.56990418905E+02  0.25500000000E-02 0. -1.
         -1   -1    0    0    0  501 -0.00000000000E+00 -0.00000000000E+00 -0.27485637154E+02  0.27485637616E+02  0.50400000000E-02 0.  1.
         24    2    1    2    0    0  0.00000000000E+00  0.00000000000E+00  0.29504781693E+02  0.84476056521E+02  0.79155997768E+02 0.  0.
         66    2    3    3    0    0 -0.77457704974E+01  0.36239076831E+02  0.29516528194E+02  0.47418277956E+02  0.19999993884E+01 0.  0.
        -13    1    3    3    0    0  0.77457704974E+01 -0.36239076831E+02 -0.11746500302E-01  0.37057778565E+02  0.10566000000E+00 0.  1.
         13    1    4    4    0    0 -0.21299163040E+01  0.70535300353E+01  0.56387933779E+01  0.92787921743E+01  0.10566000000E+00 0. -1.
        -13    1    4    4    0    0 -0.26434982470E+01  0.11205005749E+02  0.90064454328E+01  0.14617368442E+02  0.10566000000E+00 0.  1.
         14    1    4    4    0    0 -0.29723559464E+01  0.17980541047E+02  0.14871289383E+02  0.23522117339E+02  0.00000000000E+00 0. -1.
<mgrwt>
<rscale>  0 0.79155998E+02</rscale>
<asrwt>0</asrwt>
<pdfrwt beam="1">  1        2 0.87677568E-02 0.79155998E+02</pdfrwt>
<pdfrwt beam="2">  1       -1 0.42285596E-02 0.79155998E+02</pdfrwt>
<totfact> 0.15834816E+05</totfact>
</mgrwt>
</event>
<event>
 8    1  0.2433467E-020  0.7856792E+02  0.7818608E-02  0.1333165E+00
          2   -1    0    0  501    0  0.00000000000E+00  0.00000000000E+00  0.24037115338E+03  0.24037115340E+03  0.25500000000E-02 0. -1.
         -1   -1    0    0    0  501 -0.00000000000E+00 -0.00000000000E+00 -0.64201936354E+01  0.64201956137E+01  0.50400000000E-02 0.  1.
         24    2    1    2    0    0 -0.71054273576E-14  0.88817841970E-15  0.23395095975E+03  0.24679134901E+03  0.78567922077E+02 0.  0.
         66    2    3    3    0    0 -0.38948063597E+02  0.49267445559E+01  0.11700830333E+03  0.12343487158E+03  0.20000009951E+01 0.  0.
        -13    1    3    3    0    0  0.38948063597E+02 -0.49267445559E+01  0.11694265641E+03  0.12335647743E+03  0.10566000000E+00 0.  1.
         13    1    4    4    0    0 -0.14151200323E+02  0.11049622998E+01  0.42221437382E+02  0.44543667910E+02  0.10566000000E+00 0. -1.
        -13    1    4    4    0    0 -0.46001724636E+01  0.83699203584E+00  0.15257822485E+02  0.15958522908E+02  0.10566000000E+00 0.  1.
         14    1    4    4    0    0 -0.20196690811E+02  0.29847902202E+01  0.59529043467E+02  0.62932680766E+02  0.00000000000E+00 0. -1.
<mgrwt>
<rscale>  0 0.78567922E+02</rscale>
<asrwt>0</asrwt>
<pdfrwt beam="1">  1        2 0.36980178E-01 0.78567922E+02</pdfrwt>
<pdfrwt beam="2">  1       -1 0.98772225E-03 0.78567922E+02</pdfrwt>
<totfact> 0.24679790E+05</totfact>
</mgrwt>
</event>
<event>
 8    1  0.2433467E-020  0.7998275E+02  0.7818608E-02  0.1329100E+00
         -1   -1    0    0    0  501 -0.00000000000E+00  0.00000000000E+00  0.63203035147E+01  0.63203055242E+01  0.50400000000E-02 0.  1.
          2   -1    0    0  501    0  0.00000000000E+00 -0.00000000000E+00 -0.25304317886E+03  0.25304317887E+03  0.25500000000E-02 0. -1.
         24    2    1    2    0    0 -0.17763568394E-14  0.00000000000E+00 -0.24672287534E+03  0.25936348440E+03  0.79982747014E+02 0.  0.
         66    2    3    3    0    0  0.96223267186E+01  0.33648066963E+02 -0.18602610148E+03  0.18930000529E+03  0.19999980427E+01 0.  0.
        -13    1    3    3    0    0 -0.96223267186E+01 -0.33648066963E+02 -0.60696773868E+02  0.70063479102E+02  0.10566000000E+00 0.  1.
         13    1    4    4    0    0  0.31972582784E+01  0.13582607476E+02 -0.77047202723E+02  0.78300653240E+02  0.10566000000E+00 0. -1.
        -13    1    4    4    0    0  0.25091631446E+01  0.72057304883E+01 -0.37953975660E+02  0.38713484524E+02  0.10566000000E+00 0. -1.
         14    1    4    4    0    0  0.39159052956E+01  0.12859728999E+02 -0.71024923093E+02  0.72285867530E+02  0.00000000000E+00 0. -1.
<mgrwt>
<rscale>  0 0.79982747E+02</rscale>
<asrwt>0</asrwt>
<pdfrwt beam="1">  1        2 0.38929712E-01 0.79982747E+02</pdfrwt>
<pdfrwt beam="2">  1       -1 0.97235474E-03 0.79982747E+02</pdfrwt>
<totfact> 0.23985681E+05</totfact>
</mgrwt>
</event>
<event>
 8    1  0.2433467E-020  0.7933436E+02  0.7818608E-02  0.1330951E+00
          2   -1    0    0  501    0  0.00000000000E+00  0.00000000000E+00  0.17757179949E+01  0.17757198258E+01  0.25500000000E-02 0. -1.
         -1   -1    0    0    0  501 -0.00000000000E+00 -0.00000000000E+00 -0.88611170605E+03  0.88611170606E+03  0.50400000000E-02 0.  1.
         24    2    1    2    0    0  0.00000000000E+00  0.00000000000E+00 -0.88433598805E+03  0.88788742589E+03  0.79334363830E+02 0.  0.
         66    2    3    3    0    0 -0.20549069202E+02 -0.25513061127E+02 -0.69227669521E+03  0.69305425709E+03  0.20000010289E+01 0.  0.
        -13    1    3    3    0    0  0.20549069202E+02  0.25513061127E+02 -0.19205929284E+03  0.19483316880E+03  0.10566000000E+00 0.  1.
         13    1    4    4    0    0 -0.78260672449E+01 -0.10574894892E+02 -0.26908512631E+03  0.26940655541E+03  0.10566000000E+00 0. -1.
        -13    1    4    4    0    0 -0.12213229939E+01 -0.16570341902E+01 -0.38488552389E+02  0.38543705338E+02  0.10566000000E+00 0.  1.
         14    1    4    4    0    0 -0.11501678963E+02 -0.13281132044E+02 -0.38470301651E+03  0.38510399635E+03  0.00000000000E+00 0. -1.
<mgrwt>
<rscale>  0 0.79334364E+02</rscale>
<asrwt>0</asrwt>
<pdfrwt beam="1">  1        2 0.27318823E-03 0.79334364E+02</pdfrwt>
<pdfrwt beam="2">  1       -1 0.13632453E+00 0.79334364E+02</pdfrwt>
<totfact> 0.42568531E+04</totfact>
</mgrwt>
</event>
<event>
 8    1  0.2433467E-020  0.7811188E+02  0.7818608E-02  0.1334497E+00
          2   -1    0    0  501    0  0.00000000000E+00  0.00000000000E+00  0.13660492088E+04  0.13660492089E+04  0.25500000000E-02 0. -1.
         -1   -1    0    0    0  501 -0.00000000000E+00 -0.00000000000E+00 -0.11166205268E+01  0.11166319011E+01  0.50400000000E-02 0.  1.
         24    2    1    2    0    0 -0.17763568394E-14  0.00000000000E+00  0.13649325883E+04  0.13671658408E+04  0.78111877819E+02 0.  0.
         66    2    3    3    0    0 -0.13509551167E+02 -0.13892667351E+02  0.12759008196E+04  0.12760495349E+04  0.19999976917E+01 0.  0.
        -13    1    3    3    0    0  0.13509551167E+02  0.13892667351E+02  0.89031768756E+02  0.91116305844E+02  0.10566000000E+00 0.  1.
         13    1    4    4    0    0 -0.15043161365E+01 -0.18844239348E+01  0.13582855305E+03  0.13584999451E+03  0.10566000000E+00 0. -1.
        -13    1    4    4    0    0 -0.82312272842E+01 -0.74814954505E+01  0.71957491454E+03  0.71966088867E+03  0.10566000000E+00 0.  1.
         14    1    4    4    0    0 -0.37740077461E+01 -0.45267479655E+01  0.42049735198E+03  0.42053865173E+03  0.00000000000E+00 0. -1.
<mgrwt>
<rscale>  0 0.78111878E+02</rscale>
<asrwt>0</asrwt>
<pdfrwt beam="1">  1        2 0.21016097E+00 0.78111878E+02</pdfrwt>
<pdfrwt beam="2">  1       -1 0.17178902E-03 0.78111878E+02</pdfrwt>
<totfact> 0.36426155E+05</totfact>
</mgrwt>
</event>
<event>
 8    1  0.2433467E-020  0.7822777E+02  0.7818608E-02  0.1334157E+00
          2   -1    0    0  501    0  0.00000000000E+00  0.00000000000E+00  0.12081448100E+02  0.12081448369E+02  0.25500000000E-02 0. -1.
         -1   -1    0    0    0  501 -0.00000000000E+00 -0.00000000000E+00 -0.12663183268E+03  0.12663183278E+03  0.50400000000E-02 0.  1.
         24    2    1    2    0    0  0.00000000000E+00  0.00000000000E+00 -0.11455038458E+03  0.13871328115E+03  0.78227768469E+02 0.  0.
         66    2    3    3    0    0 -0.30453954003E+02  0.17117321845E+02 -0.26221087020E+02  0.43726324186E+02  0.20000001916E+01 0.  0.
        -13    1    3    3    0    0  0.30453954003E+02 -0.17117321845E+02 -0.88329297558E+02  0.94986956961E+02  0.10566000000E+00 0.  1.
         13    1    4    4    0    0 -0.11989146142E+02  0.68520141603E+01 -0.10667223289E+02  0.17449657303E+02  0.10566000000E+00 0. -1.
        -13    1    4    4    0    0 -0.12828414160E+02  0.63605984581E+01 -0.10314030574E+02  0.17646977456E+02  0.10566000000E+00 0.  1.
         14    1    4    4    0    0 -0.56363937002E+01  0.39047092269E+01 -0.52398331570E+01  0.86296894268E+01  0.00000000000E+00 0. -1.
<mgrwt>
<rscale>  0 0.78227768E+02</rscale>
<asrwt>0</asrwt>
<pdfrwt beam="1">  1        2 0.18586844E-02 0.78227768E+02</pdfrwt>
<pdfrwt beam="2">  1       -1 0.19481820E-01 0.78227768E+02</pdfrwt>
<totfact> 0.11894618E+05</totfact>
</mgrwt>
</event>
<event>
 8    1  0.2433467E-020  0.7823023E+02  0.7818608E-02  0.1334150E+00
          2   -1    0    0  501    0  0.00000000000E+00  0.00000000000E+00  0.48789581525E+03  0.48789581525E+03  0.25500000000E-02 0. -1.
         -1   -1    0    0    0  501 -0.00000000000E+00 -0.00000000000E+00 -0.31358973494E+01  0.31359013995E+01  0.50400000000E-02 0.  1.
         24    2    1    2    0    0  0.00000000000E+00  0.17763568394E-14  0.48475991790E+03  0.49103171665E+03  0.78230229191E+02 0.  0.
         66    2    3    3    0    0 -0.16304883611E+01 -0.14969286053E+02  0.46895814482E+03  0.46920409164E+03  0.20000003794E+01 0.  0.
        -13    1    3    3    0    0  0.16304883611E+01  0.14969286053E+02  0.15801773074E+02  0.21827625010E+02  0.10566000000E+00 0.  1.
         13    1    4    4    0    0 -0.11818093471E+01 -0.77161716515E+01  0.22361654175E+03  0.22375277627E+03  0.10566000000E+00 0. -1.
        -13    1    4    4    0    0  0.13368989321E+00 -0.50321114531E+01  0.17335243755E+03  0.17342554249E+03  0.10566000000E+00 0.  1.
        -14    1    4    4    0    0 -0.58236890720E+00 -0.22210029487E+01  0.71989165521E+02  0.72025772887E+02  0.00000000000E+00 0.  1.
<mgrwt>
<rscale>  0 0.78230229E+02</rscale>
<asrwt>0</asrwt>
<pdfrwt beam="1">  1        2 0.75060869E-01 0.78230229E+02</pdfrwt>
<pdfrwt beam="2">  1       -1 0.48244622E-03 0.78230229E+02</pdfrwt>
<totfact> 0.32025068E+05</totfact>
</mgrwt>
</event>
<event>
 8    1  0.2433467E-020  0.7149082E+02  0.7818608E-02  0.1355096E+00
         -1   -1    0    0    0  501 -0.00000000000E+00  0.00000000000E+00  0.31103927061E+02  0.31103927469E+02  0.50400000000E-02 0.  1.
          2   -1    0    0  501    0  0.00000000000E+00 -0.00000000000E+00 -0.41079522276E+02  0.41079522355E+02  0.25500000000E-02 0. -1.
         24    2    1    2    0    0 -0.35527136788E-14 -0.17763568394E-14 -0.99755952151E+01  0.72183449824E+02  0.71490824086E+02 0.  0.
         66    2    3    3    0    0  0.29873097694E+02  0.83109986719E+01 -0.22890676593E+02  0.38593493649E+02  0.20000030932E+01 0.  0.
        -13    1    3    3    0    0 -0.29873097694E+02 -0.83109986719E+01  0.12915081378E+02  0.33589956175E+02  0.10566000000E+00 0.  1.
         13    1    4    4    0    0  0.14280302001E+02  0.35108917952E+01 -0.10056867707E+02  0.17815867606E+02  0.10566000000E+00 0.  1.
        -13    1    4    4    0    0  0.13123394081E+02  0.38480255873E+01 -0.11096565911E+02  0.17611806045E+02  0.10566000000E+00 0. -1.
         14    1    4    4    0    0  0.24694016126E+01  0.95208128942E+00 -0.17372429746E+01  0.31658199979E+01  0.00000000000E+00 0. -1.
<mgrwt>
<rscale>  0 0.71490824E+02</rscale>
<asrwt>0</asrwt>
<pdfrwt beam="1">  1        2 0.63199265E-02 0.71490824E+02</pdfrwt>
<pdfrwt beam="2">  1       -1 0.47852196E-02 0.71490824E+02</pdfrwt>
<totfact> 0.19495654E+05</totfact>
</mgrwt>
</event>
<event>
 8    1  0.2433467E-020  0.8064403E+02  0.7818608E-02  0.1327234E+00
         -1   -1    0    0    0  501 -0.00000000000E+00  0.00000000000E+00  0.21880697184E+02  0.21880697764E+02  0.50400000000E-02 0.  1.
          2   -1    0    0  501    0  0.00000000000E+00 -0.00000000000E+00 -0.74305903275E+02  0.74305903319E+02  0.25500000000E-02 0. -1.
         24    2    1    2    0    0  0.71054273576E-14  0.00000000000E+00 -0.52425206091E+02  0.96186601083E+02  0.80644032601E+02 0.  0.
         66    2    3    3    0    0 -0.37468927525E+02 -0.11599235433E+02 -0.15206582728E+02  0.42115352886E+02  0.19999994972E+01 0.  0.
        -13    1    3    3    0    0  0.37468927525E+02  0.11599235433E+02 -0.37218623363E+02  0.54071248197E+02  0.10566000000E+00 0.  1.
         13    1    4    4    0    0 -0.10632034432E+02 -0.36423732813E+01 -0.39938724225E+01  0.11927666170E+02  0.10566000000E+00 0. -1.
        -13    1    4    4    0    0 -0.22379411423E+01 -0.56841098519E+00 -0.13347310689E+01  0.26691089649E+01  0.10566000000E+00 0.  1.
        -14    1    4    4    0    0 -0.24598951950E+02 -0.73884511662E+01 -0.98779792369E+01  0.27518577752E+02  0.00000000000E+00 0.  1.
<mgrwt>
<rscale>  0 0.80644033E+02</rscale>
<asrwt>0</asrwt>
<pdfrwt beam="1">  1        2 0.11431677E-01 0.80644033E+02</pdfrwt>
<pdfrwt beam="2">  1       -1 0.33662612E-02 0.80644033E+02</pdfrwt>
<totfact> 0.16034956E+05</totfact>
</mgrwt>
</event>
<event>
 8    1  0.2433467E-020  0.7998646E+02  0.7818608E-02  0.1329090E+00
          2   -1    0    0  501    0  0.00000000000E+00  0.00000000000E+00  0.13580951793E+03  0.13580951795E+03  0.25500000000E-02 0. -1.
         -1   -1    0    0    0  501 -0.00000000000E+00 -0.00000000000E+00 -0.11777218937E+02  0.11777220016E+02  0.50400000000E-02 0.  1.
         24    2    1    2    0    0  0.00000000000E+00 -0.35527136788E-14  0.12403229899E+03  0.14758673797E+03  0.79986461549E+02 0.  0.
         66    2    3    3    0    0  0.36702698704E+02  0.13803378300E+02  0.47782370871E+02  0.61844775972E+02  0.20000010706E+01 0.  0.
        -13    1    3    3    0    0 -0.36702698704E+02 -0.13803378300E+02  0.76249928119E+02  0.85741961995E+02  0.10566000000E+00 0.  1.
         13    1    4    4    0    0  0.12640351923E+02  0.44560930560E+01  0.15448641110E+02  0.20452553343E+02  0.10566000000E+00 0. -1.
        -13    1    4    4    0    0  0.88122765857E+01  0.40012329570E+01  0.11758771899E+02  0.15229772303E+02  0.10566000000E+00 0.  1.
         14    1    4    4    0    0  0.15250070195E+02  0.53460522874E+01  0.20574957862E+02  0.26162450326E+02  0.00000000000E+00 0. -1.
<mgrwt>
<rscale>  0 0.79986462E+02</rscale>
<asrwt>0</asrwt>
<pdfrwt beam="1">  1        2 0.20893772E-01 0.79986462E+02</pdfrwt>
<pdfrwt beam="2">  1       -1 0.18118800E-02 0.79986462E+02</pdfrwt>
<totfact> 0.19416777E+05</totfact>
</mgrwt>
</event>
<event>
 8    1  0.2433467E-020  0.8006362E+02  0.7818608E-02  0.1328871E+00
          2   -1    0    0  501    0  0.00000000000E+00  0.00000000000E+00  0.15699065181E+02  0.15699065388E+02  0.25500000000E-02 0. -1.
         -1   -1    0    0    0  501 -0.00000000000E+00 -0.00000000000E+00 -0.10207905028E+03  0.10207905040E+03  0.50400000000E-02 0.  1.
         24    2    1    2    0    0 -0.35527136788E-14  0.00000000000E+00 -0.86379985098E+02  0.11777811579E+03  0.80063616793E+02 0.  0.
         66    2    3    3    0    0 -0.24163764727E+02 -0.63520201247E+01 -0.89181328185E+02  0.92636628712E+02  0.19999992265E+01 0.  0.
        -13    1    3    3    0    0  0.24163764727E+02  0.63520201247E+01  0.28013430869E+01  0.25141487080E+02  0.10566000000E+00 0.  1.
         13    1    4    4    0    0 -0.15621187744E+02 -0.35120652294E+01 -0.55603149173E+02  0.57862574007E+02  0.10566000000E+00 0. -1.
        -13    1    4    4    0    0 -0.12646260942E+01 -0.54850324358E+00 -0.42283008793E+01  0.44485758763E+01  0.10566000000E+00 0.  1.
        -14    1    4    4    0    0 -0.72779508888E+01 -0.22914516518E+01 -0.29349878132E+02  0.30325478829E+02  0.00000000000E+00 0.  1.
<mgrwt>
<rscale>  0 0.80063617E+02</rscale>
<asrwt>0</asrwt>
<pdfrwt beam="1">  1        2 0.24152409E-02 0.80063617E+02</pdfrwt>
<pdfrwt beam="2">  1       -1 0.15704469E-01 0.80063617E+02</pdfrwt>
<totfact> 0.11777303E+05</totfact>
</mgrwt>
</event>
<event>
 8    1  0.2433467E-020  0.7937685E+02  0.7818608E-02  0.1330829E+00
         -1   -1    0    0    0  501 -0.00000000000E+00  0.00000000000E+00  0.36596700123E+01  0.36596734827E+01  0.50400000000E-02 0.  1.
          2   -1    0    0  501    0  0.00000000000E+00 -0.00000000000E+00 -0.43041318413E+03  0.43041318414E+03  0.25500000000E-02 0. -1.
         24    2    1    2    0    0  0.00000000000E+00  0.00000000000E+00 -0.42675351412E+03  0.43407285762E+03  0.79376847448E+02 0.  0.
         66    2    3    3    0    0 -0.38822171229E+02 -0.48691497046E+01 -0.24907666228E+03  0.25213895632E+03  0.20000014862E+01 0.  0.
        -13    1    3    3    0    0  0.38822171229E+02  0.48691497046E+01 -0.17767685184E+03  0.18193390130E+03  0.10566000000E+00 0.  1.
         13    1    4    4    0    0 -0.11420483492E+02 -0.16136184861E+01 -0.72946491256E+02  0.73852778949E+02  0.10566000000E+00 0. -1.
        -13    1    4    4    0    0 -0.24760393629E+02 -0.31219332776E+01 -0.16192181545E+03  0.16383378480E+03  0.10566000000E+00 0.  1.
        -14    1    4    4    0    0 -0.26412941086E+01 -0.13359794093E+00 -0.14208355575E+02  0.14452392574E+02  0.00000000000E+00 0.  1.
<mgrwt>
<rscale>  0 0.79376847E+02</rscale>
<asrwt>0</asrwt>
<pdfrwt beam="1">  1        2 0.66217373E-01 0.79376847E+02</pdfrwt>
<pdfrwt beam="2">  1       -1 0.56302677E-03 0.79376847E+02</pdfrwt>
<totfact> 0.29575804E+05</totfact>
</mgrwt>
</event>
<event>
 8    1  0.2433467E-020  0.8160728E+02  0.7818608E-02  0.1324551E+00
          2   -1    0    0  501    0  0.00000000000E+00  0.00000000000E+00  0.51155589401E+02  0.51155589465E+02  0.25500000000E-02 0. -1.
         -1   -1    0    0    0  501 -0.00000000000E+00 -0.00000000000E+00 -0.32546532035E+02  0.32546532425E+02  0.50400000000E-02 0.  1.
         24    2    1    2    0    0  0.35527136788E-14  0.35527136788E-14  0.18609057366E+02  0.83702121890E+02  0.81607280269E+02 0.  0.
         66    2    3    3    0    0 -0.31730078489E+02 -0.20775499455E+02  0.24678482626E+02  0.45292899748E+02  0.20000010904E+01 0.  0.
        -13    1    3    3    0    0  0.31730078489E+02  0.20775499455E+02 -0.60694252597E+01  0.38409222142E+02  0.10566000000E+00 0.  1.
         13    1    4    4    0    0 -0.10144365533E+02 -0.69991300662E+01  0.80184439413E+01  0.14703828788E+02  0.10566000000E+00 0. -1.
        -13    1    4    4    0    0 -0.65562221988E+01 -0.50028550285E+01  0.51183545314E+01  0.97067669746E+01  0.10566000000E+00 0.  1.
         14    1    4    4    0    0 -0.15029490758E+02 -0.87735143598E+01  0.11541684153E+02  0.20882303986E+02  0.00000000000E+00 0. -1.
<mgrwt>
<rscale>  0 0.81607280E+02</rscale>
<asrwt>0</asrwt>
<pdfrwt beam="1">  1        2 0.78700907E-02 0.81607280E+02</pdfrwt>
<pdfrwt beam="2">  1       -1 0.50071588E-02 0.81607280E+02</pdfrwt>
<totfact> 0.14220927E+05</totfact>
</mgrwt>
</event>
<event>
 8    1  0.2433467E-020  0.8012958E+02  0.7818608E-02  0.1328684E+00
          2   -1    0    0  501    0  0.00000000000E+00  0.00000000000E+00  0.22495262070E+02  0.22495262214E+02  0.25500000000E-02 0. -1.
         -1   -1    0    0    0  501 -0.00000000000E+00 -0.00000000000E+00 -0.71356696180E+02  0.71356696358E+02  0.50400000000E-02 0.  1.
         24    2    1    2    0    0  0.00000000000E+00  0.00000000000E+00 -0.48861434110E+02  0.93851958572E+02  0.80129584952E+02 0.  0.
         66    2    3    3    0    0  0.21271606408E+02  0.40677076729E+01  0.14998626081E+02  0.26419429801E+02  0.20000004469E+01 0.  0.
        -13    1    3    3    0    0 -0.21271606408E+02 -0.40677076729E+01 -0.63860060191E+02  0.67432528771E+02  0.10566000000E+00 0.  1.
         13    1    4    4    0    0  0.77234697420E+01  0.21982776522E+01  0.49300229201E+01  0.94234123077E+01  0.10566000000E+00 0. -1.
        -13    1    4    4    0    0  0.55145971160E+01  0.44571306363E+00  0.40130182278E+01  0.68355629482E+01  0.10566000000E+00 0.  1.
         14    1    4    4    0    0  0.80335395497E+01  0.14237169571E+01  0.60555849332E+01  0.10160454545E+02  0.00000000000E+00 0. -1.
<mgrwt>
<rscale>  0 0.80129585E+02</rscale>
<asrwt>0</asrwt>
<pdfrwt beam="1">  1        2 0.34608096E-02 0.80129585E+02</pdfrwt>
<pdfrwt beam="2">  1       -1 0.10977953E-01 0.80129585E+02</pdfrwt>
<totfact> 0.12653329E+05</totfact>
</mgrwt>
</event>
<event>
 8    1  0.2433467E-020  0.7959544E+02  0.7818608E-02  0.1330203E+00
         -1   -1    0    0    0  501 -0.00000000000E+00  0.00000000000E+00  0.60661678082E+01  0.60661699019E+01  0.50400000000E-02 0.  1.
          2   -1    0    0  501    0  0.00000000000E+00 -0.00000000000E+00 -0.26109698209E+03  0.26109698210E+03  0.25500000000E-02 0. -1.
         24    2    1    2    0    0  0.00000000000E+00  0.00000000000E+00 -0.25503081428E+03  0.26716315200E+03  0.79595436776E+02 0.  0.
         66    2    3    3    0    0 -0.18541467214E+02 -0.34076612654E+02 -0.15702063830E+03  0.16175438911E+03  0.20000013384E+01 0.  0.
        -13    1    3    3    0    0  0.18541467214E+02  0.34076612654E+02 -0.98010175974E+02  0.10540876289E+03  0.10566000000E+00 0.  1.
         13    1    4    4    0    0 -0.14246369055E+02 -0.26472597772E+02 -0.12485392993E+03  0.12842224280E+03  0.10566000000E+00 0. -1.
        -13    1    4    4    0    0 -0.12796940745E+01 -0.22009978250E+01 -0.96466240894E+01  0.99775011254E+01  0.10566000000E+00 0.  1.
         14    1    4    4    0    0 -0.30154040848E+01 -0.54030170571E+01 -0.22520084286E+02  0.23354645177E+02  0.00000000000E+00 0. -1.
<mgrwt>
<rscale>  0 0.79595437E+02</rscale>
<asrwt>0</asrwt>
<pdfrwt beam="1">  1        2 0.40168758E-01 0.79595437E+02</pdfrwt>
<pdfrwt beam="2">  1       -1 0.93325695E-03 0.79595437E+02</pdfrwt>
<totfact> 0.24569075E+05</totfact>
</mgrwt>
</event>
<event>
 8    1  0.2433467E-020  0.8181354E+02  0.7818608E-02  0.1323982E+00
          2   -1    0    0  501    0  0.00000000000E+00  0.00000000000E+00  0.52603378416E+02  0.52603378478E+02  0.25500000000E-02 0. -1.
         -1   -1    0    0    0  501 -0.00000000000E+00 -0.00000000000E+00 -0.31810954177E+02  0.31810954576E+02  0.50400000000E-02 0.  1.
         24    2    1    2    0    0 -0.17763568394E-14  0.00000000000E+00  0.20792424239E+02  0.84414333054E+02  0.81813536284E+02 0.  0.
         66    2    3    3    0    0 -0.90876589779E+01 -0.39399684424E+02  0.16630691252E+02  0.43766431954E+02  0.19999990200E+01 0.  0.
        -13    1    3    3    0    0  0.90876589779E+01  0.39399684424E+02  0.41617329872E+01  0.40647901101E+02  0.10566000000E+00 0.  1.
         13    1    4    4    0    0 -0.42315672423E+01 -0.17668530552E+02  0.73815841365E+01  0.19610764432E+02  0.10566000000E+00 0. -1.
        -13    1    4    4    0    0 -0.39498818953E+01 -0.18351767195E+02  0.83344432784E+01  0.20539304637E+02  0.10566000000E+00 0.  1.
        -14    1    4    4    0    0 -0.90620984035E+00 -0.33793866766E+01  0.91466383697E+00  0.36163628854E+01  0.00000000000E+00 0.  1.
<mgrwt>
<rscale>  0 0.81813536E+02</rscale>
<asrwt>0</asrwt>
<pdfrwt beam="1">  1        2 0.80928273E-02 0.81813536E+02</pdfrwt>
<pdfrwt beam="2">  1       -1 0.48939931E-02 0.81813536E+02</pdfrwt>
<totfact> 0.14210683E+05</totfact>
</mgrwt>
</event>
<event>
 8    1  0.2433467E-020  0.8092808E+02  0.7818608E-02  0.1326438E+00
          2   -1    0    0  501    0  0.00000000000E+00  0.00000000000E+00  0.26612456890E+04  0.26612456890E+04  0.25500000000E-02 0. -1.
         -1   -1    0    0    0  501 -0.00000000000E+00 -0.00000000000E+00 -0.61524236059E+00  0.61526300382E+00  0.50400000000E-02 0.  1.
         24    2    1    2    0    0  0.00000000000E+00  0.17763568394E-14  0.26606304466E+04  0.26618609520E+04  0.80928080569E+02 0.  0.
         66    2    3    3    0    0 -0.52679590900E+00 -0.13184979409E+02  0.25884366817E+04  0.25884710886E+04  0.19999893359E+01 0.  0.
        -13    1    3    3    0    0  0.52679590900E+00  0.13184979409E+02  0.72193764926E+02  0.73389863429E+02  0.10566000000E+00 0.  1.
         13    1    4    4    0    0 -0.53905649085E+00 -0.11963560038E+02  0.23324307414E+04  0.23324614878E+04  0.10566000000E+00 0. -1.
        -13    1    4    4    0    0  0.14819593906E+00 -0.61693625227E+00  0.80612724595E+02  0.80615290752E+02  0.10566000000E+00 0. -1.
         14    1    4    4    0    0 -0.13593535721E+00 -0.60448311841E+00  0.17539321568E+03  0.17539431001E+03  0.00000000000E+00 0. -1.
<mgrwt>
<rscale>  0 0.80928081E+02</rscale>
<asrwt>0</asrwt>
<pdfrwt beam="1">  1        2 0.40942797E+00 0.80928081E+02</pdfrwt>
<pdfrwt beam="2">  1       -1 0.94652975E-04 0.80928081E+02</pdfrwt>
<totfact> 0.18233606E+05</totfact>
</mgrwt>
</event>
<event>
 8    1  0.2433467E-020  0.8325477E+02  0.7818608E-02  0.1320061E+00
          2   -1    0    0  501    0  0.00000000000E+00  0.00000000000E+00  0.21105768965E+03  0.21105768967E+03  0.25500000000E-02 0. -1.
         -1   -1    0    0    0  501 -0.00000000000E+00 -0.00000000000E+00 -0.82102628870E+01  0.82102644339E+01  0.50400000000E-02 0.  1.
         24    2    1    2    0    0 -0.35527136788E-14  0.00000000000E+00  0.20284742676E+03  0.21926795410E+03  0.83254772539E+02 0.  0.
         66    2    3    3    0    0  0.26856491028E+02  0.31742044668E+02  0.97752098834E+02  0.10624641798E+03  0.19999993214E+01 0.  0.
        -13    1    3    3    0    0 -0.26856491028E+02 -0.31742044668E+02  0.10509532793E+03  0.11302153612E+03  0.10566000000E+00 0.  1.
         13    1    4    4    0    0  0.12561160314E+02  0.13750000950E+02  0.43494551683E+02  0.47314188831E+02  0.10566000000E+00 0. -1.
        -13    1    4    4    0    0  0.92352407561E+01  0.11289322167E+02  0.33281506825E+02  0.36337423236E+02  0.10566000000E+00 0.  1.
        -14    1    4    4    0    0  0.50600899574E+01  0.67027215510E+01  0.20976040325E+02  0.22594805914E+02  0.00000000000E+00 0.  1.
<mgrwt>
<rscale>  0 0.83254773E+02</rscale>
<asrwt>0</asrwt>
<pdfrwt beam="1">  1        2 0.32470412E-01 0.83254773E+02</pdfrwt>
<pdfrwt beam="2">  1       -1 0.12631176E-02 0.83254773E+02</pdfrwt>
<totfact> 0.20229361E+05</totfact>
</mgrwt>
</event>
<event>
 8    1  0.2433467E-020  0.8035405E+02  0.7818608E-02  0.1328050E+00
          2   -1    0    0  501    0  0.00000000000E+00  0.00000000000E+00  0.15211079274E+02  0.15211079488E+02  0.25500000000E-02 0. -1.
         -1   -1    0    0    0  501 -0.00000000000E+00 -0.00000000000E+00 -0.10611957567E+03  0.10611957579E+03  0.50400000000E-02 0.  1.
         24    2    1    2    0    0  0.88817841970E-15  0.71054273576E-14 -0.90908496398E+02  0.12133065528E+03  0.80354049016E+02 0.  0.
         66    2    3    3    0    0 -0.45149415082E+01 -0.38154377397E+02 -0.27870378166E+02  0.47506833070E+02  0.19999994785E+01 0.  0.
        -13    1    3    3    0    0  0.45149415082E+01  0.38154377397E+02 -0.63038118233E+02  0.73823822210E+02  0.10566000000E+00 0.  1.
         13    1    4    4    0    0 -0.27294596359E+01 -0.15860467056E+02 -0.11401886330E+02  0.19723552952E+02  0.10566000000E+00 0. -1.
        -13    1    4    4    0    0 -0.51928311025E+00 -0.94924218699E+01 -0.67044606646E+01  0.11633429621E+02  0.10566000000E+00 0.  1.
         14    1    4    4    0    0 -0.12661987621E+01 -0.12801488470E+02 -0.97640311711E+01  0.16149850497E+02  0.00000000000E+00 0. -1.
<mgrwt>
<rscale>  0 0.80354049E+02</rscale>
<asrwt>0</asrwt>
<pdfrwt beam="1">  1        2 0.23401661E-02 0.80354049E+02</pdfrwt>
<pdfrwt beam="2">  1       -1 0.16326088E-01 0.80354049E+02</pdfrwt>
<totfact> 0.11573257E+05</totfact>
</mgrwt>
</event>
<event>
 8    1  0.2433467E-020  0.7381938E+02  0.7818608E-02  0.1347566E+00
          2   -1    0    0  501    0  0.00000000000E+00  0.00000000000E+00  0.38846209762E+03  0.38846209763E+03  0.25500000000E-02 0. -1.
         -1   -1    0    0    0  501 -0.00000000000E+00 -0.00000000000E+00 -0.35069691732E+01  0.35069727948E+01  0.50400000000E-02 0.  1.
         24    2    1    2    0    0  0.00000000000E+00  0.00000000000E+00  0.38495512845E+03  0.39196907043E+03  0.73819382624E+02 0.  0.
         66    2    3    3    0    0  0.36093462187E+02  0.68708794302E+01  0.20972031240E+03  0.21292382777E+03  0.20000008916E+01 0.  0.
        -13    1    3    3    0    0 -0.36093462187E+02 -0.68708794302E+01  0.17523481605E+03  0.17904524266E+03  0.10566000000E+00 0.  1.
         13    1    4    4    0    0  0.93854172827E+01  0.24020001479E+01  0.55901630276E+02  0.56734990031E+02  0.10566000000E+00 0. -1.
        -13    1    4    4    0    0  0.17968034443E+02  0.25487468185E+01  0.10101584714E+03  0.10263312774E+03  0.10566000000E+00 0.  1.
        -14    1    4    4    0    0  0.87400104607E+01  0.19201324638E+01  0.52802834975E+02  0.53555709993E+02  0.00000000000E+00 0.  1.
<mgrwt>
<rscale>  0 0.73819383E+02</rscale>
<asrwt>0</asrwt>
<pdfrwt beam="1">  1        2 0.59763369E-01 0.73819383E+02</pdfrwt>
<pdfrwt beam="2">  1       -1 0.53953427E-03 0.73819383E+02</pdfrwt>
<totfact> 0.34472472E+05</totfact>
</mgrwt>
</event>
<event>
 8    1  0.2433467E-020  0.8009975E+02  0.7818608E-02  0.1328769E+00
         -1   -1    0    0    0  501 -0.00000000000E+00  0.00000000000E+00  0.37623665179E+01  0.37623698936E+01  0.50400000000E-02 0.  1.
          2   -1    0    0  501    0  0.00000000000E+00 -0.00000000000E+00 -0.42632522947E+03  0.42632522948E+03  0.25500000000E-02 0. -1.
         24    2    1    2    0    0  0.00000000000E+00  0.00000000000E+00 -0.42256286295E+03  0.43008759937E+03  0.80099750228E+02 0.  0.
         66    2    3    3    0    0  0.25764149988E+01  0.11891881149E+02 -0.41615053477E+03  0.41633318669E+03  0.19999990153E+01 0.  0.
        -13    1    3    3    0    0 -0.25764149988E+01 -0.11891881149E+02 -0.64123281803E+01  0.13754412682E+02  0.10566000000E+00 0.  1.
         13    1    4    4    0    0  0.16777784316E+01  0.87356087037E+01 -0.31484668524E+03  0.31497233556E+03  0.10566000000E+00 0. -1.
        -13    1    4    4    0    0  0.55835022632E-01  0.17594940832E+01 -0.55062394269E+02  0.55090628637E+02  0.10566000000E+00 0.  1.
         14    1    4    4    0    0  0.84280154456E+00  0.13967783622E+01 -0.46241455269E+02  0.46270222494E+02  0.00000000000E+00 0. -1.
<mgrwt>
<rscale>  0 0.80099750E+02</rscale>
<asrwt>0</asrwt>
<pdfrwt beam="1">  1        2 0.65588459E-01 0.80099750E+02</pdfrwt>
<pdfrwt beam="2">  1       -1 0.57882622E-03 0.80099750E+02</pdfrwt>
<totfact> 0.28790227E+05</totfact>
</mgrwt>
</event>
<event>
 8    1  0.2433467E-020  0.7908236E+02  0.7818608E-02  0.1331676E+00
          2   -1    0    0  501    0  0.00000000000E+00  0.00000000000E+00  0.25487051092E+03  0.25487051093E+03  0.25500000000E-02 0. -1.
         -1   -1    0    0    0  501 -0.00000000000E+00 -0.00000000000E+00 -0.61345051745E+01  0.61345072448E+01  0.50400000000E-02 0.  1.
         24    2    1    2    0    0  0.00000000000E+00 -0.71054273576E-14  0.24873600574E+03  0.26100501817E+03  0.79082355551E+02 0.  0.
         66    2    3    3    0    0  0.49214257130E+01 -0.32509560202E+02  0.19678662692E+03  0.19952460618E+03  0.19999997038E+01 0.  0.
        -13    1    3    3    0    0 -0.49214257130E+01  0.32509560202E+02  0.51949378820E+02  0.61480411998E+02  0.10566000000E+00 0.  1.
         13    1    4    4    0    0  0.25779736079E+01 -0.13054128737E+02  0.78902539780E+02  0.80016736829E+02  0.10566000000E+00 0. -1.
        -13    1    4    4    0    0  0.16371624299E+01 -0.16279347676E+02  0.96354234336E+02  0.97733551558E+02  0.10566000000E+00 0.  1.
         14    1    4    4    0    0  0.70628967511E+00 -0.31760837888E+01  0.21529852806E+02  0.21774317789E+02  0.00000000000E+00 0. -1.
<mgrwt>
<rscale>  0 0.79082356E+02</rscale>
<asrwt>0</asrwt>
<pdfrwt beam="1">  1        2 0.39210847E-01 0.79082356E+02</pdfrwt>
<pdfrwt beam="2">  1       -1 0.94377021E-03 0.79082356E+02</pdfrwt>
<totfact> 0.24773468E+05</totfact>
</mgrwt>
</event>
<event>
 8    1  0.2433467E-020  0.7944031E+02  0.7818608E-02  0.1330647E+00
         -1   -1    0    0    0  501 -0.00000000000E+00  0.00000000000E+00  0.55600490778E+01  0.55600513621E+01  0.50400000000E-02 0.  1.
          2   -1    0    0  501    0  0.00000000000E+00 -0.00000000000E+00 -0.28375473020E+03  0.28375473021E+03  0.25500000000E-02 0. -1.
         24    2    1    2    0    0  0.00000000000E+00  0.35527136788E-14 -0.27819468112E+03  0.28931478158E+03  0.79440306094E+02 0.  0.
         66    2    3    3    0    0  0.80634607210E+01  0.30459062424E+02 -0.22711405219E+03  0.22929798644E+03  0.19999995731E+01 0.  0.
        -13    1    3    3    0    0 -0.80634607210E+01 -0.30459062424E+02 -0.51080628930E+02  0.60016795137E+02  0.10566000000E+00 0.  1.
         13    1    4    4    0    0  0.42944672241E+01  0.15792647622E+02 -0.11767539774E+03  0.11880808291E+03  0.10566000000E+00 0. -1.
        -13    1    4    4    0    0  0.28692701910E+00  0.30597287858E+01 -0.24006461633E+02  0.24202595554E+02  0.10566000000E+00 0.  1.
         14    1    4    4    0    0  0.34820664778E+01  0.11606686016E+02 -0.85432192820E+02  0.86287307974E+02  0.00000000000E+00 0. -1.
<mgrwt>
<rscale>  0 0.79440306E+02</rscale>
<asrwt>0</asrwt>
<pdfrwt beam="1">  1        2 0.43654563E-01 0.79440306E+02</pdfrwt>
<pdfrwt beam="2">  1       -1 0.85539256E-03 0.79440306E+02</pdfrwt>
<totfact> 0.25449840E+05</totfact>
</mgrwt>
</event>
<event>
 8    1  0.2433467E-020  0.7958922E+02  0.7818608E-02  0.1330221E+00
         -1   -1    0    0    0  501 -0.00000000000E+00  0.00000000000E+00  0.53418585184E+01  0.53418608960E+01  0.50400000000E-02 0.  1.
          2   -1    0    0  501    0  0.00000000000E+00 -0.00000000000E+00 -0.29645314511E+03  0.29645314512E+03  0.25500000000E-02 0. -1.
         24    2    1    2    0    0  0.17763568394E-14  0.00000000000E+00 -0.29111128659E+03  0.30179500601E+03  0.79589223364E+02 0.  0.
         66    2    3    3    0    0 -0.14870716505E+02 -0.10671783613E+02 -0.27952801828E+03  0.28013378621E+03  0.19999988112E+01 0.  0.
        -13    1    3    3    0    0  0.14870716505E+02  0.10671783613E+02 -0.11583268308E+02  0.21661219809E+02  0.10566000000E+00 0.  1.
         13    1    4    4    0    0 -0.73895098726E+01 -0.57875381449E+01 -0.14530453272E+03  0.14560741344E+03  0.10566000000E+00 0. -1.
        -13    1    4    4    0    0 -0.12878318406E+01 -0.69243787950E+00 -0.16206074653E+02  0.16272246334E+02  0.10566000000E+00 0.  1.
        -14    1    4    4    0    0 -0.61933747920E+01 -0.41918075882E+01 -0.11801741090E+03  0.11825412643E+03  0.00000000000E+00 0.  1.
<mgrwt>
<rscale>  0 0.79589223E+02</rscale>
<asrwt>0</asrwt>
<pdfrwt beam="1">  1        2 0.45608164E-01 0.79589223E+02</pdfrwt>
<pdfrwt beam="2">  1       -1 0.82182480E-03 0.79589223E+02</pdfrwt>
<totfact> 0.25729831E+05</totfact>
</mgrwt>
</event>
<event>
 8    1  0.2433467E-020  0.8235119E+02  0.7818608E-02  0.1322508E+00
         -1   -1    0    0    0  501 -0.00000000000E+00  0.00000000000E+00  0.11976090144E+02  0.11976091205E+02  0.50400000000E-02 0.  1.
          2   -1    0    0  501    0  0.00000000000E+00 -0.00000000000E+00 -0.14156788440E+03  0.14156788442E+03  0.25500000000E-02 0. -1.
         24    2    1    2    0    0 -0.35527136788E-14  0.00000000000E+00 -0.12959179425E+03  0.15354397562E+03  0.82351194970E+02 0.  0.
         66    2    3    3    0    0  0.26422250110E+02 -0.46246644999E+01 -0.12302027702E+03  0.12592661106E+03  0.19999981411E+01 0.  0.
        -13    1    3    3    0    0 -0.26422250110E+02  0.46246644999E+01 -0.65715172311E+01  0.27617364562E+02  0.10566000000E+00 0.  1.
         13    1    4    4    0    0  0.11290017047E+02 -0.19712926741E+01 -0.49522526025E+02  0.50831508217E+02  0.10566000000E+00 0.  1.
        -13    1    4    4    0    0  0.97416235048E+01 -0.14294458378E+01 -0.49351295969E+02  0.50323991513E+02  0.10566000000E+00 0. -1.
         14    1    4    4    0    0  0.53906095581E+01 -0.12239259880E+01 -0.24146455028E+02  0.24771111332E+02  0.00000000000E+00 0. -1.
<mgrwt>
<rscale>  0 0.82351195E+02</rscale>
<asrwt>0</asrwt>
<pdfrwt beam="1">  1        2 0.21779673E-01 0.82351195E+02</pdfrwt>
<pdfrwt beam="2">  1       -1 0.18424756E-02 0.82351195E+02</pdfrwt>
<totfact> 0.18204587E+05</totfact>
</mgrwt>
</event>
<event>
 8    1  0.2433467E-020  0.7979988E+02  0.7818608E-02  0.1329620E+00
         -1   -1    0    0    0  501 -0.00000000000E+00  0.00000000000E+00  0.29969894365E+02  0.29969894788E+02  0.50400000000E-02 0.  1.
          2   -1    0    0  501    0  0.00000000000E+00 -0.00000000000E+00 -0.53120140800E+02  0.53120140861E+02  0.25500000000E-02 0. -1.
         24    2    1    2    0    0  0.35527136788E-14 -0.35527136788E-14 -0.23150246435E+02  0.83090035650E+02  0.79799875402E+02 0.  0.
         66    2    3    3    0    0 -0.29527470545E+02 -0.26548951059E+02 -0.15377047271E+02  0.42628299300E+02  0.19999998349E+01 0.  0.
        -13    1    3    3    0    0  0.29527470545E+02  0.26548951059E+02 -0.77731991645E+01  0.40461736349E+02  0.10566000000E+00 0.  1.
         13    1    4    4    0    0 -0.12494977882E+02 -0.10666012539E+02 -0.66082665799E+01  0.17707869634E+02  0.10566000000E+00 0. -1.
        -13    1    4    4    0    0 -0.83387726745E+00 -0.11909060961E+01 -0.56731553539E+00  0.15641673757E+01  0.10566000000E+00 0.  1.
         14    1    4    4    0    0 -0.16198615395E+02 -0.14692032425E+02 -0.82014651556E+01  0.23356262291E+02  0.00000000000E+00 0. -1.
<mgrwt>
<rscale>  0 0.79799875E+02</rscale>
<asrwt>0</asrwt>
<pdfrwt beam="1">  1        2 0.81723294E-02 0.79799875E+02</pdfrwt>
<pdfrwt beam="2">  1       -1 0.46107530E-02 0.79799875E+02</pdfrwt>
<totfact> 0.15247056E+05</totfact>
</mgrwt>
</event>
<event>
 8    1  0.2433467E-020  0.8423548E+02  0.7818608E-02  0.1317444E+00
         -1   -1    0    0    0  501 -0.00000000000E+00  0.00000000000E+00  0.47580987456E+01  0.47581014149E+01  0.50400000000E-02 0.  1.
          2   -1    0    0  501    0  0.00000000000E+00 -0.00000000000E+00 -0.37281770521E+03  0.37281770522E+03  0.25500000000E-02 0. -1.
         24    2    1    2    0    0 -0.35527136788E-14  0.00000000000E+00 -0.36805960646E+03  0.37757580663E+03  0.84235478537E+02 0.  0.
         66    2    3    3    0    0 -0.22933397362E+02 -0.33304692706E+02 -0.13171509604E+03  0.13779698763E+03  0.20000011111E+01 0.  0.
        -13    1    3    3    0    0  0.22933397362E+02  0.33304692706E+02 -0.23634451042E+03  0.23977881900E+03  0.10566000000E+00 0.  1.
         13    1    4    4    0    0 -0.30051762325E+01 -0.35822440768E+01 -0.15907065103E+02  0.16580393272E+02  0.10566000000E+00 0. -1.
        -13    1    4    4    0    0 -0.17887810271E+01 -0.23818511173E+01 -0.87728806347E+01  0.92653953490E+01  0.10566000000E+00 0.  1.
         14    1    4    4    0    0 -0.18139440103E+02 -0.27340597511E+02 -0.10703515031E+03  0.11195119901E+03  0.00000000000E+00 0. -1.
<mgrwt>
<rscale>  0 0.84235479E+02</rscale>
<asrwt>0</asrwt>
<pdfrwt beam="1">  1        2 0.57356547E-01 0.84235479E+02</pdfrwt>
<pdfrwt beam="2">  1       -1 0.73201569E-03 0.84235479E+02</pdfrwt>
<totfact> 0.24075278E+05</totfact>
</mgrwt>
</event>
<event>
 8    1  0.2433467E-020  0.8137846E+02  0.7818608E-02  0.1325184E+00
         -1   -1    0    0    0  501 -0.00000000000E+00  0.00000000000E+00  0.31774982661E+01  0.31775022632E+01  0.50400000000E-02 0.  1.
          2   -1    0    0  501    0  0.00000000000E+00 -0.00000000000E+00 -0.52104272548E+03  0.52104272548E+03  0.25500000000E-02 0. -1.
         24    2    1    2    0    0  0.00000000000E+00  0.00000000000E+00 -0.51786522721E+03  0.52422022775E+03  0.81378459215E+02 0.  0.
         66    2    3    3    0    0  0.40531652873E+01 -0.11170592155E+02 -0.50960567651E+03  0.50974812977E+03  0.19999994954E+01 0.  0.
        -13    1    3    3    0    0 -0.40531652873E+01  0.11170592155E+02 -0.82595507008E+01  0.14472097973E+02  0.10566000000E+00 0.  1.
         13    1    4    4    0    0  0.32393418056E+01 -0.75140228030E+01 -0.35292073097E+03  0.35301559086E+03  0.10566000000E+00 0. -1.
        -13    1    4    4    0    0  0.92125075380E-01 -0.49922623103E+00 -0.11785628591E+02  0.11797030100E+02  0.10566000000E+00 0.  1.
         14    1    4    4    0    0  0.72169840624E+00 -0.31573431206E+01 -0.14489931694E+03  0.14493550881E+03  0.00000000000E+00 0. -1.
<mgrwt>
<rscale>  0 0.81378459E+02</rscale>
<asrwt>0</asrwt>
<pdfrwt beam="1">  1        2 0.80160351E-01 0.81378459E+02</pdfrwt>
<pdfrwt beam="2">  1       -1 0.48884661E-03 0.81378459E+02</pdfrwt>
<totfact> 0.29505025E+05</totfact>
</mgrwt>
</event>
<event>
 8    1  0.2433467E-020  0.8009723E+02  0.7818608E-02  0.1328776E+00
         -1   -1    0    0    0  501 -0.00000000000E+00  0.00000000000E+00  0.71446571410E+02  0.71446571588E+02  0.50400000000E-02 0.  1.
          2   -1    0    0  501    0  0.00000000000E+00 -0.00000000000E+00 -0.22448824861E+02  0.22448825006E+02  0.25500000000E-02 0. -1.
         24    2    1    2    0    0  0.00000000000E+00  0.00000000000E+00  0.48997746549E+02  0.93895396594E+02  0.80097230506E+02 0.  0.
         66    2    3    3    0    0  0.25772714057E+02 -0.30142750310E+02  0.18193806303E+02  0.43678745124E+02  0.20000004473E+01 0.  0.
        -13    1    3    3    0    0 -0.25772714057E+02  0.30142750310E+02  0.30803940247E+02  0.50216651470E+02  0.10566000000E+00 0.  1.
         13    1    4    4    0    0  0.14805941138E+02 -0.16156898517E+02  0.10283930995E+02  0.24208090867E+02  0.10566000000E+00 0. -1.
        -13    1    4    4    0    0  0.40459062475E+01 -0.49939283458E+01  0.24586435083E+01  0.68822067408E+01  0.10566000000E+00 0.  1.
         14    1    4    4    0    0  0.69208666714E+01 -0.89919234464E+01  0.54512317992E+01  0.12588447517E+02  0.00000000000E+00 0. -1.
<mgrwt>
<rscale>  0 0.80097231E+02</rscale>
<asrwt>0</asrwt>
<pdfrwt beam="1">  1        2 0.34536654E-02 0.80097231E+02</pdfrwt>
<pdfrwt beam="2">  1       -1 0.10991780E-01 0.80097231E+02</pdfrwt>
<totfact> 0.12662693E+05</totfact>
</mgrwt>
</event>
<event>
 8    1  0.2433467E-020  0.8211837E+02  0.7818608E-02  0.1323145E+00
         -1   -1    0    0    0  501 -0.00000000000E+00  0.00000000000E+00  0.18268413487E+01  0.18268483010E+01  0.50400000000E-02 0.  1.
          2   -1    0    0  501    0  0.00000000000E+00 -0.00000000000E+00 -0.92282418910E+03  0.92282418910E+03  0.25500000000E-02 0. -1.
         24    2    1    2    0    0  0.88817841970E-15  0.35527136788E-14 -0.92099734775E+03  0.92465103740E+03  0.82118368276E+02 0.  0.
         66    2    3    3    0    0 -0.65024367368E+01 -0.26635644162E+02 -0.80454400665E+03  0.80501353893E+03  0.20000003010E+01 0.  0.
        -13    1    3    3    0    0  0.65024367368E+01  0.26635644162E+02 -0.11645334110E+03  0.11963749847E+03  0.10566000000E+00 0.  1.
         13    1    4    4    0    0 -0.20299791797E+01 -0.73657361816E+01 -0.22339374986E+03  0.22352439134E+03  0.10566000000E+00 0. -1.
        -13    1    4    4    0    0 -0.40682026733E+01 -0.18769468598E+02 -0.56141345835E+03  0.56174186741E+03  0.10566000000E+00 0.  1.
        -14    1    4    4    0    0 -0.40425488378E+00 -0.50043938288E+00 -0.19736798438E+02  0.19747280172E+02  0.00000000000E+00 0.  1.
<mgrwt>
<rscale>  0 0.82118368E+02</rscale>
<asrwt>0</asrwt>
<pdfrwt beam="1">  1        2 0.14197258E+00 0.82118368E+02</pdfrwt>
<pdfrwt beam="2">  1       -1 0.28105379E-03 0.82118368E+02</pdfrwt>
<totfact> 0.32734787E+05</totfact>
</mgrwt>
</event>
<event>
 8    1  0.2433467E-020  0.7910437E+02  0.7818608E-02  0.1331612E+00
          2   -1    0    0  501    0  0.00000000000E+00  0.00000000000E+00  0.51271324491E+03  0.51271324492E+03  0.25500000000E-02 0. -1.
         -1   -1    0    0    0  501 -0.00000000000E+00 -0.00000000000E+00 -0.30511676754E+01  0.30511718380E+01  0.50400000000E-02 0.  1.
         24    2    1    2    0    0  0.00000000000E+00  0.71054273576E-14  0.50966207724E+03  0.51576441676E+03  0.79104365359E+02 0.  0.
         66    2    3    3    0    0  0.72868276162E+01 -0.23148102006E+02  0.45841880239E+03  0.45906506170E+03  0.20000004545E+01 0.  0.
        -13    1    3    3    0    0 -0.72868276162E+01  0.23148102006E+02  0.51243274842E+02  0.56699355056E+02  0.10566000000E+00 0.  1.
         13    1    4    4    0    0  0.23267407331E+01 -0.80547344339E+01  0.15225165823E+03  0.15248236313E+03  0.10566000000E+00 0. -1.
        -13    1    4    4    0    0  0.50052985929E+00 -0.16561794256E+01  0.43114679777E+02  0.43149510273E+02  0.10566000000E+00 0.  1.
        -14    1    4    4    0    0  0.44595570237E+01 -0.13437188147E+02  0.26305246439E+03  0.26343318830E+03  0.00000000000E+00 0.  1.
<mgrwt>
<rscale>  0 0.79104365E+02</rscale>
<asrwt>0</asrwt>
<pdfrwt beam="1">  1        2 0.78878966E-01 0.79104365E+02</pdfrwt>
<pdfrwt beam="2">  1       -1 0.46941070E-03 0.79104365E+02</pdfrwt>
<totfact> 0.31607407E+05</totfact>
</mgrwt>
</event>
<event>
 8    1  0.2433467E-020  0.7976165E+02  0.7818608E-02  0.1329729E+00
         -1   -1    0    0    0  501 -0.00000000000E+00  0.00000000000E+00  0.38388119619E+02  0.38388119950E+02  0.50400000000E-02 0.  1.
          2   -1    0    0  501    0  0.00000000000E+00 -0.00000000000E+00 -0.41431570331E+02  0.41431570409E+02  0.25500000000E-02 0. -1.
         24    2    1    2    0    0  0.35527136788E-14  0.00000000000E+00 -0.30434507114E+01  0.79819690359E+02  0.79761647280E+02 0.  0.
         66    2    3    3    0    0  0.30624741742E+02  0.13920849741E+02 -0.22911353154E+02  0.40750398380E+02  0.20000001191E+01 0.  0.
        -13    1    3    3    0    0 -0.30624741742E+02 -0.13920849741E+02  0.19867902443E+02  0.39069291980E+02  0.10566000000E+00 0.  1.
         13    1    4    4    0    0  0.34473412881E+01  0.16743118706E+01 -0.24890487785E+01  0.45709966150E+01  0.10566000000E+00 0. -1.
        -13    1    4    4    0    0  0.12800273828E+02  0.52335028063E+01 -0.10389492053E+02  0.17297088508E+02  0.10566000000E+00 0.  1.
        -14    1    4    4    0    0  0.14377126626E+02  0.70130350638E+01 -0.10032812322E+02  0.18882313257E+02  0.00000000000E+00 0.  1.
<mgrwt>
<rscale>  0 0.79761647E+02</rscale>
<asrwt>0</asrwt>
<pdfrwt beam="1">  1        2 0.63740878E-02 0.79761647E+02</pdfrwt>
<pdfrwt beam="2">  1       -1 0.59058646E-02 0.79761647E+02</pdfrwt>
<totfact> 0.14477728E+05</totfact>
</mgrwt>
</event>
<event>
 8    1  0.2433467E-020  0.8410811E+02  0.7818608E-02  0.1317782E+00
         -1   -1    0    0    0  501 -0.00000000000E+00  0.00000000000E+00  0.28875366764E+02  0.28875367204E+02  0.50400000000E-02 0.  1.
          2   -1    0    0  501    0  0.00000000000E+00 -0.00000000000E+00 -0.61247488341E+02  0.61247488394E+02  0.25500000000E-02 0. -1.
         24    2    1    2    0    0  0.00000000000E+00  0.88817841970E-15 -0.32372121577E+02  0.90122855597E+02  0.84108114030E+02 0.  0.
         66    2    3    3    0    0  0.34989215398E+02 -0.59454226434E+01 -0.40320761274E+02  0.53752740370E+02  0.20000157556E+01 0.  0.
        -13    1    3    3    0    0 -0.34989215398E+02  0.59454226434E+01  0.79486396968E+01  0.36370115227E+02  0.10566000000E+00 0.  1.
         13    1    4    4    0    0  0.26812014665E+02 -0.47626900121E+01 -0.31896050031E+02  0.41939677134E+02  0.10566000000E+00 0. -1.
        -13    1    4    4    0    0  0.55166886228E+01 -0.10222494979E+01 -0.55405396368E+01  0.78859109112E+01  0.10566000000E+00 0.  1.
         14    1    4    4    0    0  0.26605121107E+01 -0.16048313345E+00 -0.28841716060E+01  0.39271523246E+01  0.00000000000E+00 0. -1.
<mgrwt>
<rscale>  0 0.84108114E+02</rscale>
<asrwt>0</asrwt>
<pdfrwt beam="1">  1        2 0.94226905E-02 0.84108114E+02</pdfrwt>
<pdfrwt beam="2">  1       -1 0.44423642E-02 0.84108114E+02</pdfrwt>
<totfact> 0.13643330E+05</totfact>
</mgrwt>
</event>
<event>
 8    1  0.2433467E-020  0.7815551E+02  0.7818608E-02  0.1334369E+00
         -1   -1    0    0    0  501 -0.00000000000E+00  0.00000000000E+00  0.40003537358E+01  0.40003569107E+01  0.50400000000E-02 0.  1.
          2   -1    0    0  501    0  0.00000000000E+00 -0.00000000000E+00 -0.38173383135E+03  0.38173383136E+03  0.25500000000E-02 0. -1.
         24    2    1    2    0    0  0.00000000000E+00  0.00000000000E+00 -0.37773347762E+03  0.38573418827E+03  0.78155510933E+02 0.  0.
         66    2    3    3    0    0 -0.19594057379E+02 -0.11183241467E+02 -0.34631270707E+03  0.34705256524E+03  0.19999975788E+01 0.  0.
        -13    1    3    3    0    0  0.19594057379E+02  0.11183241467E+02 -0.31420770550E+02  0.38681623030E+02  0.10566000000E+00 0.  1.
         13    1    4    4    0    0 -0.98042658534E+01 -0.51872656232E+01 -0.18011810925E+03  0.18045934666E+03  0.10566000000E+00 0. -1.
        -13    1    4    4    0    0 -0.98616691545E+00 -0.47513732652E+00 -0.12882963657E+02  0.12929818146E+02  0.10566000000E+00 0. -1.
         14    1    4    4    0    0 -0.88036246102E+01 -0.55208385173E+01 -0.15331163416E+03  0.15366340044E+03  0.00000000000E+00 0. -1.
<mgrwt>
<rscale>  0 0.78155511E+02</rscale>
<asrwt>0</asrwt>
<pdfrwt beam="1">  1        2 0.58728253E-01 0.78155511E+02</pdfrwt>
<pdfrwt beam="2">  1       -1 0.61543959E-03 0.78155511E+02</pdfrwt>
<totfact> 0.29538085E+05</totfact>
</mgrwt>
</event>
<event>
 8    1  0.2433467E-020  0.7952566E+02  0.7818608E-02  0.1330403E+00
         -1   -1    0    0    0  501 -0.00000000000E+00  0.00000000000E+00  0.19310619997E+03  0.19310620004E+03  0.50400000000E-02 0.  1.
          2   -1    0    0  501    0  0.00000000000E+00 -0.00000000000E+00 -0.81876325172E+01  0.81876329143E+01  0.25500000000E-02 0. -1.
         24    2    1    2    0    0 -0.71054273576E-14  0.00000000000E+00  0.18491856746E+03  0.20129383295E+03  0.79525659979E+02 0.  0.
         66    2    3    3    0    0 -0.31192212427E+02  0.17870902007E+02  0.49655023509E+02  0.61334693417E+02  0.20000005726E+01 0.  0.
        -13    1    3    3    0    0  0.31192212427E+02 -0.17870902007E+02  0.13526354395E+03  0.13995913954E+03  0.10566000000E+00 0.  1.
         13    1    4    4    0    0 -0.23787036364E+02  0.13306700671E+02  0.37378504639E+02  0.46260730159E+02  0.10566000000E+00 0. -1.
        -13    1    4    4    0    0 -0.52291480191E+01  0.31146408903E+01  0.78613676735E+01  0.99426979545E+01  0.10566000000E+00 0.  1.
        -14    1    4    4    0    0 -0.21760280433E+01  0.14495604459E+01  0.44151511966E+01  0.51312653040E+01  0.00000000000E+00 0.  1.
<mgrwt>
<rscale>  0 0.79525660E+02</rscale>
<asrwt>0</asrwt>
<pdfrwt beam="1">  1        2 0.12596360E-02 0.79525660E+02</pdfrwt>
<pdfrwt beam="2">  1       -1 0.29708642E-01 0.79525660E+02</pdfrwt>
<totfact> 0.10218863E+05</totfact>
</mgrwt>
</event>
<event>
 8    1  0.2433467E-020  0.8098333E+02  0.7818608E-02  0.1326284E+00
          2   -1    0    0  501    0  0.00000000000E+00  0.00000000000E+00  0.14500420105E+03  0.14500420107E+03  0.25500000000E-02 0. -1.
         -1   -1    0    0    0  501 -0.00000000000E+00 -0.00000000000E+00 -0.11307085935E+02  0.11307087058E+02  0.50400000000E-02 0.  1.
         24    2    1    2    0    0  0.00000000000E+00 -0.35527136788E-14  0.13369711512E+03  0.15631128813E+03  0.80983332897E+02 0.  0.
         66    2    3    3    0    0 -0.26515114588E+02  0.22701638597E+02  0.10640600953E+03  0.11200292205E+03  0.19999967682E+01 0.  0.
        -13    1    3    3    0    0  0.26515114588E+02 -0.22701638597E+02  0.27291105584E+02  0.44308366079E+02  0.10566000000E+00 0.  1.
         13    1    4    4    0    0 -0.62013031260E+01  0.53903777693E+01  0.23502405756E+02  0.24897521429E+02  0.10566000000E+00 0. -1.
        -13    1    4    4    0    0 -0.24484493046E+01  0.16356254978E+01  0.83165786699E+01  0.88230844705E+01  0.10566000000E+00 0.  1.
         14    1    4    4    0    0 -0.17865362157E+02  0.15675635330E+02  0.74587025107E+02  0.78282316153E+02  0.00000000000E+00 0. -1.
<mgrwt>
<rscale>  0 0.80983333E+02</rscale>
<asrwt>0</asrwt>
<pdfrwt beam="1">  1        2 0.22308338E-01 0.80983333E+02</pdfrwt>
<pdfrwt beam="2">  1       -1 0.17395519E-02 0.80983333E+02</pdfrwt>
<totfact> 0.19180826E+05</totfact>
</mgrwt>
</event>
<event>
 8    1  0.2433467E-020  0.7787401E+02  0.7818608E-02  0.1335195E+00
          2   -1    0    0  501    0  0.00000000000E+00  0.00000000000E+00  0.12771674594E+02  0.12771674848E+02  0.25500000000E-02 0. -1.
         -1   -1    0    0    0  501 -0.00000000000E+00 -0.00000000000E+00 -0.11870725222E+03  0.11870725233E+03  0.50400000000E-02 0.  1.
         24    2    1    2    0    0 -0.35527136788E-14  0.00000000000E+00 -0.10593557762E+03  0.13147892717E+03  0.77874011608E+02 0.  0.
         66    2    3    3    0    0 -0.28623563173E+02 -0.14932491191E+02 -0.16330039066E+02  0.36234760074E+02  0.19999999615E+01 0.  0.
        -13    1    3    3    0    0  0.28623563173E+02  0.14932491191E+02 -0.89605538559E+02  0.95244167099E+02  0.10566000000E+00 0.  1.
         13    1    4    4    0    0 -0.26800223864E+01 -0.12973473327E+01 -0.11546690379E+01  0.31953176236E+01  0.10566000000E+00 0. -1.
        -13    1    4    4    0    0 -0.60607989735E+01 -0.24958684908E+01 -0.35587731912E+01  0.74591336214E+01  0.10566000000E+00 0.  1.
         14    1    4    4    0    0 -0.19882741813E+02 -0.11139275368E+02 -0.11616596837E+02  0.25580308829E+02  0.00000000000E+00 0. -1.
<mgrwt>
<rscale>  0 0.77874012E+02</rscale>
<asrwt>0</asrwt>
<pdfrwt beam="1">  1        2 0.19648731E-02 0.77874012E+02</pdfrwt>
<pdfrwt beam="2">  1       -1 0.18262654E-01 0.77874012E+02</pdfrwt>
<totfact> 0.12210440E+05</totfact>
</mgrwt>
</event>
<event>
 8    1  0.2433467E-020  0.7983594E+02  0.7818608E-02  0.1329518E+00
          2   -1    0    0  501    0  0.00000000000E+00  0.00000000000E+00  0.10302228983E+04  0.10302228983E+04  0.25500000000E-02 0. -1.
         -1   -1    0    0    0  501 -0.00000000000E+00 -0.00000000000E+00 -0.15466945231E+01  0.15467027347E+01  0.50400000000E-02 0.  1.
         24    2    1    2    0    0  0.00000000000E+00  0.00000000000E+00  0.10286762038E+04  0.10317696010E+04  0.79835940584E+02 0.  0.
         66    2    3    3    0    0  0.29144562884E+02  0.74353390997E+01  0.85333525304E+03  0.85386752128E+03  0.20000000765E+01 0.  0.
        -13    1    3    3    0    0 -0.29144562884E+02 -0.74353390997E+01  0.17534095072E+03  0.17790207974E+03  0.10566000000E+00 0.  1.
         13    1    4    4    0    0  0.79489243723E+01  0.20895059412E+01  0.22812962066E+03  0.22827765204E+03  0.10566000000E+00 0. -1.
        -13    1    4    4    0    0  0.13587724285E+02  0.34641797949E+01  0.42323512609E+03  0.42346736582E+03  0.10566000000E+00 0.  1.
        -14    1    4    4    0    0  0.76079142273E+01  0.18816533636E+01  0.20197050629E+03  0.20212250342E+03  0.00000000000E+00 0.  1.
<mgrwt>
<rscale>  0 0.79835941E+02</rscale>
<asrwt>0</asrwt>
<pdfrwt beam="1">  1        2 0.15849576E+00 0.79835941E+02</pdfrwt>
<pdfrwt beam="2">  1       -1 0.23795375E-03 0.79835941E+02</pdfrwt>
<totfact> 0.35452302E+05</totfact>
</mgrwt>
</event>
<event>
 8    1  0.2433467E-020  0.7988505E+02  0.7818608E-02  0.1329378E+00
          2   -1    0    0  501    0  0.00000000000E+00  0.00000000000E+00  0.23725379001E+02  0.23725379138E+02  0.25500000000E-02 0. -1.
         -1   -1    0    0    0  501 -0.00000000000E+00 -0.00000000000E+00 -0.67244678229E+02  0.67244678418E+02  0.50400000000E-02 0.  1.
         24    2    1    2    0    0  0.00000000000E+00  0.00000000000E+00 -0.43519299228E+02  0.90970057557E+02  0.79885054714E+02 0.  0.
         66    2    3    3    0    0  0.20390193284E+02  0.34316744881E+02 -0.21728092326E+02  0.45491855925E+02  0.19999994796E+01 0.  0.
        -13    1    3    3    0    0 -0.20390193284E+02 -0.34316744881E+02 -0.21791206902E+02  0.45478201632E+02  0.10566000000E+00 0.  1.
         13    1    4    4    0    0  0.19007582555E+01  0.31057539918E+01 -0.14845964487E+01  0.39336726420E+01  0.10566000000E+00 0. -1.
        -13    1    4    4    0    0  0.28090523487E+01  0.50145209081E+01 -0.36486550195E+01  0.68088209348E+01  0.10566000000E+00 0.  1.
        -14    1    4    4    0    0  0.15680382680E+02  0.26196469981E+02 -0.16594840858E+02  0.34749362348E+02  0.00000000000E+00 0.  1.
<mgrwt>
<rscale>  0 0.79885055E+02</rscale>
<asrwt>0</asrwt>
<pdfrwt beam="1">  1        2 0.36500584E-02 0.79885055E+02</pdfrwt>
<pdfrwt beam="2">  1       -1 0.10345335E-01 0.79885055E+02</pdfrwt>
<totfact> 0.12899403E+05</totfact>
</mgrwt>
</event>
<event>
 8    1  0.2433467E-020  0.8203624E+02  0.7818608E-02  0.1323370E+00
         -1   -1    0    0    0  501 -0.00000000000E+00  0.00000000000E+00  0.43959254919E+03  0.43959254921E+03  0.50400000000E-02 0.  1.
          2   -1    0    0  501    0  0.00000000000E+00 -0.00000000000E+00 -0.38273757941E+01  0.38273766436E+01  0.25500000000E-02 0. -1.
         24    2    1    2    0    0  0.00000000000E+00  0.00000000000E+00  0.43576517339E+03  0.44341992586E+03  0.82036237768E+02 0.  0.
         66    2    3    3    0    0 -0.36627049914E+02 -0.18347767000E+02  0.20981487818E+03  0.21378602503E+03  0.20000133009E+01 0.  0.
        -13    1    3    3    0    0  0.36627049914E+02  0.18347767000E+02  0.22595029521E+03  0.22963390082E+03  0.10566000000E+00 0.  1.
         13    1    4    4    0    0 -0.20572280056E+02 -0.10553234751E+02  0.11785854662E+03  0.12010511082E+03  0.10566000000E+00 0. -1.
        -13    1    4    4    0    0 -0.68043912246E+00 -0.62038620921E+00  0.47627491396E+01  0.48520943777E+01  0.10566000000E+00 0.  1.
         14    1    4    4    0    0 -0.15374330735E+02 -0.71741460403E+01  0.87193582430E+02  0.88828819838E+02  0.00000000000E+00 0. -1.
<mgrwt>
<rscale>  0 0.82036238E+02</rscale>
<asrwt>0</asrwt>
<pdfrwt beam="1">  1        2 0.58882677E-03 0.82036238E+02</pdfrwt>
<pdfrwt beam="2">  1       -1 0.67629663E-01 0.82036238E+02</pdfrwt>
<totfact> 0.67541409E+04</totfact>
</mgrwt>
</event>
<event>
 8    1  0.2433467E-020  0.7819784E+02  0.7818608E-02  0.1334245E+00
          2   -1    0    0  501    0  0.00000000000E+00  0.00000000000E+00  0.45901501834E+01  0.45901508917E+01  0.25500000000E-02 0. -1.
         -1   -1    0    0    0  501 -0.00000000000E+00 -0.00000000000E+00 -0.33304472067E+03  0.33304472070E+03  0.50400000000E-02 0.  1.
         24    2    1    2    0    0  0.00000000000E+00  0.00000000000E+00 -0.32845457048E+03  0.33763487160E+03  0.78197836586E+02 0.  0.
         66    2    3    3    0    0 -0.32072612981E+02 -0.21983422077E+02 -0.14772549246E+03  0.15277023421E+03  0.19999969430E+01 0.  0.
        -13    1    3    3    0    0  0.32072612981E+02  0.21983422077E+02 -0.18072907802E+03  0.18486463739E+03  0.10566000000E+00 0.  1.
         13    1    4    4    0    0 -0.21076773652E+02 -0.14457650325E+02 -0.97210142710E+02  0.10051406394E+03  0.10566000000E+00 0. -1.
        -13    1    4    4    0    0 -0.62232237521E+01 -0.35604943522E+01 -0.26974177336E+02  0.27910984234E+02  0.10566000000E+00 0.  1.
        -14    1    4    4    0    0 -0.47726155775E+01 -0.39652773994E+01 -0.23541172412E+02  0.24345186030E+02  0.00000000000E+00 0.  1.
<mgrwt>
<rscale>  0 0.78197837E+02</rscale>
<asrwt>0</asrwt>
<pdfrwt beam="1">  1        2 0.70617727E-03 0.78197837E+02</pdfrwt>
<pdfrwt beam="2">  1       -1 0.51237631E-01 0.78197837E+02</pdfrwt>
<totfact> 0.87678985E+04</totfact>
</mgrwt>
</event>
<event>
 8    1  0.2433467E-020  0.8182406E+02  0.7818608E-02  0.1323953E+00
          2   -1    0    0  501    0  0.00000000000E+00  0.00000000000E+00  0.77584138345E+03  0.77584138345E+03  0.25500000000E-02 0. -1.
         -1   -1    0    0    0  501 -0.00000000000E+00 -0.00000000000E+00 -0.21573895509E+01  0.21573954380E+01  0.50400000000E-02 0.  1.
         24    2    1    2    0    0  0.00000000000E+00  0.00000000000E+00  0.77368399390E+03  0.77799877889E+03  0.81824064566E+02 0.  0.
         66    2    3    3    0    0 -0.13422351056E+02  0.20072828244E+02  0.70080117784E+03  0.70121991472E+03  0.20000019904E+01 0.  0.
        -13    1    3    3    0    0  0.13422351056E+02 -0.20072828244E+02  0.72882816062E+02  0.76778864167E+02  0.10566000000E+00 0.  1.
         13    1    4    4    0    0 -0.87415088892E+01  0.14010716392E+02  0.49929523003E+03  0.49956826565E+03  0.10566000000E+00 0. -1.
        -13    1    4    4    0    0 -0.41015544620E+01  0.51691614860E+01  0.17412083636E+03  0.17424586021E+03  0.10566000000E+00 0.  1.
         14    1    4    4    0    0 -0.57928770450E+00  0.89295036654E+00  0.27385111442E+02  0.27405788865E+02  0.00000000000E+00 0. -1.
<mgrwt>
<rscale>  0 0.81824065E+02</rscale>
<asrwt>0</asrwt>
<pdfrwt beam="1">  1        2 0.11936028E+00 0.81824065E+02</pdfrwt>
<pdfrwt beam="2">  1       -1 0.33190635E-03 0.81824065E+02</pdfrwt>
<totfact> 0.32230387E+05</totfact>
</mgrwt>
</event>
<event>
 8    1  0.2433467E-020  0.7847200E+02  0.7818608E-02  0.1333444E+00
          2   -1    0    0  501    0  0.00000000000E+00  0.00000000000E+00  0.99853337581E+02  0.99853337613E+02  0.25500000000E-02 0. -1.
         -1   -1    0    0    0  501 -0.00000000000E+00 -0.00000000000E+00 -0.15417248850E+02  0.15417249674E+02  0.50400000000E-02 0.  1.
         24    2    1    2    0    0 -0.35527136788E-14  0.00000000000E+00  0.84436088731E+02  0.11527058729E+03  0.78472002736E+02 0.  0.
         66    2    3    3    0    0  0.17694615322E+02  0.32414778215E+02  0.22888720842E+02  0.43493801930E+02  0.20000015976E+01 0.  0.
        -13    1    3    3    0    0 -0.17694615322E+02 -0.32414778215E+02  0.61547367888E+02  0.71776785357E+02  0.10566000000E+00 0.  1.
         13    1    4    4    0    0  0.30584491924E+01  0.52403127471E+01  0.40006760144E+01  0.72685322974E+01  0.10566000000E+00 0. -1.
        -13    1    4    4    0    0  0.31801647825E+01  0.50368800131E+01  0.42566747344E+01  0.73221617123E+01  0.10566000000E+00 0.  1.
         14    1    4    4    0    0  0.11456001347E+02  0.22137585455E+02  0.14631370094E+02  0.28903107921E+02  0.00000000000E+00 0. -1.
<mgrwt>
<rscale>  0 0.78472003E+02</rscale>
<asrwt>0</asrwt>
<pdfrwt beam="1">  1        2 0.15362052E-01 0.78472003E+02</pdfrwt>
<pdfrwt beam="2">  1       -1 0.23718845E-02 0.78472003E+02</pdfrwt>
<totfact> 0.18656932E+05</totfact>
</mgrwt>
</event>
<event>
 8    1  0.2433467E-020  0.7980117E+02  0.7818608E-02  0.1329617E+00
          2   -1    0    0  501    0  0.00000000000E+00  0.00000000000E+00  0.53027294271E+02  0.53027294332E+02  0.25500000000E-02 0. -1.
         -1   -1    0    0    0  501 -0.00000000000E+00 -0.00000000000E+00 -0.30023343108E+02  0.30023343531E+02  0.50400000000E-02 0.  1.
         24    2    1    2    0    0  0.00000000000E+00 -0.22204460493E-15  0.23003951163E+02  0.83050637863E+02  0.79801169667E+02 0.  0.
         66    2    3    3    0    0 -0.27144166232E+02  0.17331024618E+01  0.41855432800E+02  0.49956847984E+02  0.20000002713E+01 0.  0.
        -13    1    3    3    0    0  0.27144166232E+02 -0.17331024618E+01 -0.18851481637E+02  0.33093789878E+02  0.10566000000E+00 0.  1.
         13    1    4    4    0    0 -0.73137358281E+01  0.95180733866E-01  0.11057180067E+02  0.13257910325E+02  0.10566000000E+00 0. -1.
        -13    1    4    4    0    0 -0.13573550884E+02  0.17432252009E+01  0.21758355702E+02  0.25704422277E+02  0.10566000000E+00 0.  1.
        -14    1    4    4    0    0 -0.62568795195E+01 -0.10530347293E+00  0.90398970317E+01  0.10994515382E+02  0.00000000000E+00 0.  1.
<mgrwt>
<rscale>  0 0.79801170E+02</rscale>
<asrwt>0</asrwt>
<pdfrwt beam="1">  1        2 0.81580452E-02 0.79801170E+02</pdfrwt>
<pdfrwt beam="2">  1       -1 0.46189760E-02 0.79801170E+02</pdfrwt>
<totfact> 0.15240474E+05</totfact>
</mgrwt>
</event>
<event>
 8    1  0.2433467E-020  0.8045322E+02  0.7818608E-02  0.1327770E+00
          2   -1    0    0  501    0  0.00000000000E+00  0.00000000000E+00  0.62895321877E+02  0.62895321928E+02  0.25500000000E-02 0. -1.
         -1   -1    0    0    0  501 -0.00000000000E+00 -0.00000000000E+00 -0.25728147584E+02  0.25728148078E+02  0.50400000000E-02 0.  1.
         24    2    1    2    0    0  0.00000000000E+00  0.00000000000E+00  0.37167174292E+02  0.88623470006E+02  0.80453219893E+02 0.  0.
         66    2    3    3    0    0 -0.10414977483E+02  0.16790173127E+02  0.57161872572E+02  0.60513315383E+02  0.19999983021E+01 0.  0.
        -13    1    3    3    0    0  0.10414977483E+02 -0.16790173127E+02 -0.19994698280E+02  0.28110154623E+02  0.10566000000E+00 0.  1.
         13    1    4    4    0    0 -0.36930424874E+01  0.66271360132E+01  0.19570136508E+02  0.20989495028E+02  0.10566000000E+00 0. -1.
        -13    1    4    4    0    0 -0.33667153740E+01  0.49869527271E+01  0.19693617548E+02  0.20592576480E+02  0.10566000000E+00 0.  1.
        -14    1    4    4    0    0 -0.33552196211E+01  0.51760843865E+01  0.17898118516E+02  0.18931243876E+02  0.00000000000E+00 0.  1.
<mgrwt>
<rscale>  0 0.80453220E+02</rscale>
<asrwt>0</asrwt>
<pdfrwt beam="1">  1        2 0.96762034E-02 0.80453220E+02</pdfrwt>
<pdfrwt beam="2">  1       -1 0.39581766E-02 0.80453220E+02</pdfrwt>
<totfact> 0.15498222E+05</totfact>
</mgrwt>
</event>
<event>
 8    1  0.2433467E-020  0.7926271E+02  0.7818608E-02  0.1331157E+00
          2   -1    0    0  501    0  0.00000000000E+00  0.00000000000E+00  0.14919643968E+03  0.14919643971E+03  0.25500000000E-02 0. -1.
         -1   -1    0    0    0  501 -0.00000000000E+00 -0.00000000000E+00 -0.10527357082E+02  0.10527358289E+02  0.50400000000E-02 0.  1.
         24    2    1    2    0    0  0.00000000000E+00  0.00000000000E+00  0.13866908260E+03  0.15972379799E+03  0.79262709872E+02 0.  0.
         66    2    3    3    0    0  0.26207127540E+01 -0.31173873445E+02  0.11832400918E+03  0.12240608508E+03  0.19999984714E+01 0.  0.
        -13    1    3    3    0    0 -0.26207127540E+01  0.31173873445E+02  0.20345073417E+02  0.37317712916E+02  0.10566000000E+00 0.  1.
         13    1    4    4    0    0  0.51627313764E+00 -0.40399842014E+01  0.14582763088E+02  0.15141207138E+02  0.10566000000E+00 0. -1.
        -13    1    4    4    0    0 -0.22890456491E+00 -0.11237408439E+01  0.41946677673E+01  0.43498956881E+01  0.10566000000E+00 0.  1.
         14    1    4    4    0    0  0.23333441812E+01 -0.26010148399E+02  0.99546578330E+02  0.10291498225E+03  0.00000000000E+00 0. -1.
<mgrwt>
<rscale>  0 0.79262710E+02</rscale>
<asrwt>0</asrwt>
<pdfrwt beam="1">  1        2 0.22953298E-01 0.79262710E+02</pdfrwt>
<pdfrwt beam="2">  1       -1 0.16195935E-02 0.79262710E+02</pdfrwt>
<totfact> 0.20492539E+05</totfact>
</mgrwt>
</event>
<event>
 8    1  0.2433467E-020  0.8639629E+02  0.7818608E-02  0.1311821E+00
         -1   -1    0    0    0  501 -0.00000000000E+00  0.00000000000E+00  0.69408942875E+01  0.69408961174E+01  0.50400000000E-02 0.  1.
          2   -1    0    0  501    0  0.00000000000E+00 -0.00000000000E+00 -0.26885289631E+03  0.26885289633E+03  0.25500000000E-02 0. -1.
         24    2    1    2    0    0  0.00000000000E+00  0.35527136788E-14 -0.26191200203E+03  0.27579379244E+03  0.86396291268E+02 0.  0.
         66    2    3    3    0    0 -0.13739873674E+01 -0.22942238123E+02 -0.24769799957E+03  0.24877004064E+03  0.20000000323E+01 0.  0.
        -13    1    3    3    0    0  0.13739873674E+01  0.22942238123E+02 -0.14214002456E+02  0.27023751798E+02  0.10566000000E+00 0.  1.
         13    1    4    4    0    0 -0.55089790018E-01 -0.97470818160E+01 -0.10619779334E+03  0.10664422682E+03  0.10566000000E+00 0. -1.
        -13    1    4    4    0    0 -0.50595543194E-01 -0.28642367568E+00 -0.19890743508E+01  0.20130025434E+01  0.10566000000E+00 0.  1.
        -14    1    4    4    0    0 -0.12683020342E+01 -0.12908732632E+02 -0.13951113188E+03  0.14011281129E+03  0.00000000000E+00 0.  1.
<mgrwt>
<rscale>  0 0.86396291E+02</rscale>
<asrwt>0</asrwt>
<pdfrwt beam="1">  1        2 0.41361976E-01 0.86396291E+02</pdfrwt>
<pdfrwt beam="2">  1       -1 0.10678302E-02 0.86396291E+02</pdfrwt>
<totfact> 0.20005111E+05</totfact>
</mgrwt>
</event>
<event>
 8    1  0.2433467E-020  0.7421099E+02  0.7818608E-02  0.1346332E+00
         -1   -1    0    0    0  501 -0.00000000000E+00  0.00000000000E+00  0.32028364697E+01  0.32028404352E+01  0.50400000000E-02 0.  1.
          2   -1    0    0  501    0  0.00000000000E+00 -0.00000000000E+00 -0.42987427188E+03  0.42987427189E+03  0.25500000000E-02 0. -1.
         24    2    1    2    0    0  0.44408920985E-15 -0.35527136788E-14 -0.42667143541E+03  0.43307711232E+03  0.74210992601E+02 0.  0.
         66    2    3    3    0    0 -0.34346167189E+01  0.28728085762E+02 -0.34881349592E+03  0.35001707735E+03  0.19999997337E+01 0.  0.
        -13    1    3    3    0    0  0.34346167189E+01 -0.28728085762E+02 -0.77857939492E+02  0.83060034972E+02  0.10566000000E+00 0.  1.
         13    1    4    4    0    0 -0.22241414205E+01  0.22624213118E+02 -0.27378081560E+03  0.27472303868E+03  0.10566000000E+00 0. -1.
        -13    1    4    4    0    0  0.80674486244E-01  0.65395687356E+00 -0.79746915266E+01  0.80025643981E+01  0.10566000000E+00 0.  1.
         14    1    4    4    0    0 -0.12911497846E+01  0.54499157703E+01 -0.67057988791E+02  0.67291474277E+02  0.00000000000E+00 0. -1.
<mgrwt>
<rscale>  0 0.74210993E+02</rscale>
<asrwt>0</asrwt>
<pdfrwt beam="1">  1        2 0.66134458E-01 0.74210993E+02</pdfrwt>
<pdfrwt beam="2">  1       -1 0.49274472E-03 0.74210993E+02</pdfrwt>
<totfact> 0.35213049E+05</totfact>
</mgrwt>
</event>
<event>
 8    1  0.2433467E-020  0.8069078E+02  0.7818608E-02  0.1327102E+00
         -1   -1    0    0    0  501 -0.00000000000E+00  0.00000000000E+00  0.87941061552E+02  0.87941061696E+02  0.50400000000E-02 0.  1.
          2   -1    0    0  501    0  0.00000000000E+00 -0.00000000000E+00 -0.18509562782E+02  0.18509562958E+02  0.25500000000E-02 0. -1.
         24    2    1    2    0    0  0.00000000000E+00  0.00000000000E+00  0.69431498769E+02  0.10645062465E+03  0.80690783042E+02 0.  0.
         66    2    3    3    0    0 -0.31302331946E+02  0.24758914719E+02  0.27169376784E+02  0.48321991761E+02  0.20000023901E+01 0.  0.
        -13    1    3    3    0    0  0.31302331946E+02 -0.24758914719E+02  0.42262121985E+02  0.58128632893E+02  0.10566000000E+00 0.  1.
         13    1    4    4    0    0 -0.47692606678E+01  0.44597418892E+01  0.42867170526E+01  0.78116740946E+01  0.10566000000E+00 0. -1.
        -13    1    4    4    0    0 -0.76552250542E+01  0.54772556952E+01  0.59273154923E+01  0.11124164398E+02  0.10566000000E+00 0.  1.
        -14    1    4    4    0    0 -0.18877846224E+02  0.14821917135E+02  0.16955344239E+02  0.29386153267E+02  0.00000000000E+00 0.  1.
<mgrwt>
<rscale>  0 0.80690783E+02</rscale>
<asrwt>0</asrwt>
<pdfrwt beam="1">  1        2 0.28476251E-02 0.80690783E+02</pdfrwt>
<pdfrwt beam="2">  1       -1 0.13529394E-01 0.80690783E+02</pdfrwt>
<totfact> 0.11921052E+05</totfact>
</mgrwt>
</event>
<event>
 8    1  0.2433467E-020  0.8439093E+02  0.7818608E-02  0.1317033E+00
         -1   -1    0    0    0  501 -0.00000000000E+00  0.00000000000E+00  0.22192910667E+01  0.22192967896E+01  0.50400000000E-02 0.  1.
          2   -1    0    0  501    0  0.00000000000E+00 -0.00000000000E+00 -0.80226298027E+03  0.80226298028E+03  0.25500000000E-02 0. -1.
         24    2    1    2    0    0 -0.35527136788E-14  0.00000000000E+00 -0.80004368921E+03  0.80448227707E+03  0.84390932425E+02 0.  0.
         66    2    3    3    0    0  0.21487137671E+02 -0.31136119015E+02 -0.57789843568E+03  0.57913880629E+03  0.19999997426E+01 0.  0.
        -13    1    3    3    0    0 -0.21487137671E+02  0.31136119015E+02 -0.22214525353E+03  0.22534347078E+03  0.10566000000E+00 0.  1.
         13    1    4    4    0    0  0.10103075001E+02 -0.15868992099E+02 -0.28871089979E+03  0.28932316163E+03  0.10566000000E+00 0. -1.
        -13    1    4    4    0    0  0.95601668168E+01 -0.13387299224E+02 -0.24888402079E+03  0.24942711068E+03  0.10566000000E+00 0.  1.
        -14    1    4    4    0    0  0.18238958534E+01 -0.18798276928E+01 -0.40303515093E+02  0.40388533981E+02  0.00000000000E+00 0.  1.
<mgrwt>
<rscale>  0 0.84390932E+02</rscale>
<asrwt>0</asrwt>
<pdfrwt beam="1">  1        2 0.12342484E+00 0.84390932E+02</pdfrwt>
<pdfrwt beam="2">  1       -1 0.34143048E-03 0.84390932E+02</pdfrwt>
<totfact> 0.29915186E+05</totfact>
</mgrwt>
</event>
<event>
 8    1  0.2433467E-020  0.8177950E+02  0.7818608E-02  0.1324076E+00
         -1   -1    0    0    0  501 -0.00000000000E+00  0.00000000000E+00  0.32785333802E+01  0.32785372541E+01  0.50400000000E-02 0.  1.
          2   -1    0    0  501    0  0.00000000000E+00 -0.00000000000E+00 -0.50997521544E+03  0.50997521544E+03  0.25500000000E-02 0. -1.
         24    2    1    2    0    0  0.00000000000E+00  0.00000000000E+00 -0.50669668206E+03  0.51325375270E+03  0.81779502632E+02 0.  0.
         66    2    3    3    0    0  0.39436136559E+02 -0.93878446614E+01 -0.28588437231E+03  0.28875112956E+03  0.19999998276E+01 0.  0.
        -13    1    3    3    0    0 -0.39436136559E+02  0.93878446614E+01 -0.22081230975E+03  0.22450262313E+03  0.10566000000E+00 0.  1.
         13    1    4    4    0    0  0.27362433207E+02 -0.63919941768E+01 -0.19617655229E+03  0.19817873542E+03  0.10566000000E+00 0. -1.
        -13    1    4    4    0    0  0.27780914391E+00 -0.11672869629E+00 -0.15713084309E+01  0.16034268706E+01  0.10566000000E+00 0.  1.
        -14    1    4    4    0    0  0.11795894207E+02 -0.28791217883E+01 -0.88136511591E+02  0.88968967274E+02  0.00000000000E+00 0.  1.
<mgrwt>
<rscale>  0 0.81779503E+02</rscale>
<asrwt>0</asrwt>
<pdfrwt beam="1">  1        2 0.78457662E-01 0.81779503E+02</pdfrwt>
<pdfrwt beam="2">  1       -1 0.50439046E-03 0.81779503E+02</pdfrwt>
<totfact> 0.28933491E+05</totfact>
</mgrwt>
</event>
<event>
 8    1  0.2433467E-020  0.8040066E+02  0.7818608E-02  0.1327918E+00
         -1   -1    0    0    0  501 -0.00000000000E+00  0.00000000000E+00  0.84274686872E+02  0.84274687023E+02  0.50400000000E-02 0.  1.
          2   -1    0    0  501    0  0.00000000000E+00 -0.00000000000E+00 -0.19176180116E+02  0.19176180286E+02  0.25500000000E-02 0. -1.
         24    2    1    2    0    0 -0.35527136788E-14  0.71054273576E-14  0.65098506756E+02  0.10345086731E+03  0.80400661471E+02 0.  0.
         66    2    3    3    0    0 -0.20765131302E+02  0.30717059066E+02  0.12663704813E+02  0.39231337456E+02  0.20000058387E+01 0.  0.
        -13    1    3    3    0    0  0.20765131302E+02 -0.30717059066E+02  0.52434801942E+02  0.64219529852E+02  0.10566000000E+00 0.  1.
         13    1    4    4    0    0 -0.72349928917E+01  0.10723318338E+02  0.50570223087E+01  0.13889539840E+02  0.10566000000E+00 0. -1.
        -13    1    4    4    0    0 -0.10996911965E+01  0.16917218018E+01  0.98583503533E+00  0.22481721764E+01  0.10566000000E+00 0. -1.
        -14    1    4    4    0    0 -0.12430447214E+02  0.18302018927E+02  0.66208474693E+01  0.23093625439E+02  0.00000000000E+00 0.  1.
<mgrwt>
<rscale>  0 0.80400661E+02</rscale>
<asrwt>0</asrwt>
<pdfrwt beam="1">  1        2 0.29501815E-02 0.80400661E+02</pdfrwt>
<pdfrwt beam="2">  1       -1 0.12965337E-01 0.80400661E+02</pdfrwt>
<totfact> 0.12134101E+05</totfact>
</mgrwt>
</event>
<event>
 8    1  0.2433467E-020  0.8109340E+02  0.7818608E-02  0.1325977E+00
         -1   -1    0    0    0  501 -0.00000000000E+00  0.00000000000E+00  0.69921446392E+01  0.69921464556E+01  0.50400000000E-02 0.  1.
          2   -1    0    0  501    0  0.00000000000E+00 -0.00000000000E+00 -0.23512595169E+03  0.23512595170E+03  0.25500000000E-02 0. -1.
         24    2    1    2    0    0 -0.44408920985E-15  0.71054273576E-14 -0.22813380705E+03  0.24211809816E+03  0.81093400082E+02 0.  0.
         66    2    3    3    0    0  0.33768771377E+01 -0.32708183194E+02 -0.18484046471E+03  0.18775309837E+03  0.20000015600E+01 0.  0.
        -13    1    3    3    0    0 -0.33768771377E+01  0.32708183194E+02 -0.43293342340E+02  0.54364999789E+02  0.10566000000E+00 0.  1.
         13    1    4    4    0    0  0.17316504916E+01 -0.14013832700E+02 -0.79415638247E+02  0.80661272507E+02  0.10566000000E+00 0. -1.
        -13    1    4    4    0    0  0.35190600634E+00 -0.12381755082E+01 -0.59322442590E+01  0.60712109509E+01  0.10566000000E+00 0.  1.
         14    1    4    4    0    0  0.12933206397E+01 -0.17456174985E+02 -0.99492582206E+02  0.10102061491E+03  0.00000000000E+00 0. -1.
<mgrwt>
<rscale>  0 0.81093400E+02</rscale>
<asrwt>0</asrwt>
<pdfrwt beam="1">  1        2 0.36173217E-01 0.81093400E+02</pdfrwt>
<pdfrwt beam="2">  1       -1 0.10757149E-02 0.81093400E+02</pdfrwt>
<totfact> 0.22531182E+05</totfact>
</mgrwt>
</event>
<event>
 8    1  0.2433467E-020  0.7921599E+02  0.7818608E-02  0.1331291E+00
         -1   -1    0    0    0  501 -0.00000000000E+00  0.00000000000E+00  0.28792725898E+02  0.28792726339E+02  0.50400000000E-02 0.  1.
          2   -1    0    0  501    0  0.00000000000E+00 -0.00000000000E+00 -0.54485747271E+02  0.54485747331E+02  0.25500000000E-02 0. -1.
         24    2    1    2    0    0 -0.22204460493E-15  0.00000000000E+00 -0.25693021373E+02  0.83278473670E+02  0.79215988471E+02 0.  0.
         66    2    3    3    0    0 -0.12514601515E+01 -0.14512005181E+02 -0.51547396997E+02  0.53603158174E+02  0.19999955461E+01 0.  0.
        -13    1    3    3    0    0  0.12514601515E+01  0.14512005181E+02  0.25854375623E+02  0.29675315496E+02  0.10566000000E+00 0.  1.
         13    1    4    4    0    0  0.24371815931E+00 -0.42026097624E+01 -0.15500567607E+02  0.16062381129E+02  0.10566000000E+00 0. -1.
        -13    1    4    4    0    0 -0.14492727407E+01 -0.76620668806E+01 -0.28247851412E+02  0.29304606017E+02  0.10566000000E+00 0.  1.
        -14    1    4    4    0    0 -0.45905570130E-01 -0.26473285382E+01 -0.77989779777E+01  0.82361710283E+01  0.00000000000E+00 0.  1.
<mgrwt>
<rscale>  0 0.79215988E+02</rscale>
<asrwt>0</asrwt>
<pdfrwt beam="1">  1        2 0.83824226E-02 0.79215988E+02</pdfrwt>
<pdfrwt beam="2">  1       -1 0.44296502E-02 0.79215988E+02</pdfrwt>
<totfact> 0.15643690E+05</totfact>
</mgrwt>
</event>
<event>
 8    1  0.2433467E-020  0.8152251E+02  0.7818608E-02  0.1324785E+00
          2   -1    0    0  501    0  0.00000000000E+00  0.00000000000E+00  0.51609446448E+02  0.51609446511E+02  0.25500000000E-02 0. -1.
         -1   -1    0    0    0  501 -0.00000000000E+00 -0.00000000000E+00 -0.32193326331E+02  0.32193326725E+02  0.50400000000E-02 0.  1.
         24    2    1    2    0    0  0.71054273576E-14  0.00000000000E+00  0.19416120117E+02  0.83802773236E+02  0.81522506596E+02 0.  0.
         66    2    3    3    0    0 -0.37071439111E+02  0.15873054338E+02  0.15639614725E+02  0.43299457215E+02  0.19999986410E+01 0.  0.
        -13    1    3    3    0    0  0.37071439111E+02 -0.15873054338E+02  0.37765053919E+01  0.40503316022E+02  0.10566000000E+00 0.  1.
         13    1    4    4    0    0 -0.31010578426E+00  0.16656515089E+00  0.42156581427E-01  0.36993345331E+00  0.10566000000E+00 0. -1.
        -13    1    4    4    0    0 -0.71696499328E+01  0.34487364057E+01  0.27397972718E+01  0.84151836630E+01  0.10566000000E+00 0.  1.
         14    1    4    4    0    0 -0.29591683394E+02  0.12257752781E+02  0.12857660872E+02  0.34514340098E+02  0.00000000000E+00 0. -1.
<mgrwt>
<rscale>  0 0.81522507E+02</rscale>
<asrwt>0</asrwt>
<pdfrwt beam="1">  1        2 0.79399148E-02 0.81522507E+02</pdfrwt>
<pdfrwt beam="2">  1       -1 0.49528195E-02 0.81522507E+02</pdfrwt>
<totfact> 0.14289473E+05</totfact>
</mgrwt>
</event>
<event>
 8    1  0.2433467E-020  0.8059096E+02  0.7818608E-02  0.1327383E+00
         -1   -1    0    0    0  501 -0.00000000000E+00  0.00000000000E+00  0.43816593439E+01  0.43816622426E+01  0.50400000000E-02 0.  1.
          2   -1    0    0  501    0  0.00000000000E+00 -0.00000000000E+00 -0.37057315929E+03  0.37057315930E+03  0.25500000000E-02 0. -1.
         24    2    1    2    0    0  0.00000000000E+00  0.00000000000E+00 -0.36619149994E+03  0.37495482154E+03  0.80590964533E+02 0.  0.
         66    2    3    3    0    0 -0.40061752984E+02 -0.40762383791E+01 -0.18134050036E+03  0.18576850337E+03  0.20000004392E+01 0.  0.
        -13    1    3    3    0    0  0.40061752984E+02  0.40762383791E+01 -0.18485099958E+03  0.18918631817E+03  0.10566000000E+00 0.  1.
         13    1    4    4    0    0 -0.77989320050E+01 -0.13623428397E+01 -0.34530600524E+02  0.35426725152E+02  0.10566000000E+00 0. -1.
        -13    1    4    4    0    0 -0.42509685057E+01 -0.68748327157E+00 -0.18784461498E+02  0.19272014017E+02  0.10566000000E+00 0.  1.
         14    1    4    4    0    0 -0.28011852473E+02 -0.20264122678E+01 -0.12802543834E+03  0.13106976420E+03  0.00000000000E+00 0. -1.
<mgrwt>
<rscale>  0 0.80590965E+02</rscale>
<asrwt>0</asrwt>
<pdfrwt beam="1">  1        2 0.57011231E-01 0.80590965E+02</pdfrwt>
<pdfrwt beam="2">  1       -1 0.67410195E-03 0.80590965E+02</pdfrwt>
<totfact> 0.26977878E+05</totfact>
</mgrwt>
</event>
<event>
 8    1  0.2433467E-020  0.8016588E+02  0.7818608E-02  0.1328581E+00
         -1   -1    0    0    0  501 -0.00000000000E+00  0.00000000000E+00  0.96343446729E+01  0.96343459912E+01  0.50400000000E-02 0.  1.
          2   -1    0    0  501    0  0.00000000000E+00 -0.00000000000E+00 -0.16676192240E+03  0.16676192242E+03  0.25500000000E-02 0. -1.
         24    2    1    2    0    0 -0.17763568394E-14  0.71054273576E-14 -0.15712757773E+03  0.17639626841E+03  0.80165876949E+02 0.  0.
         66    2    3    3    0    0 -0.10941460378E+02  0.35661115579E+02 -0.46483356567E+02  0.59633322406E+02  0.19999959729E+01 0.  0.
        -13    1    3    3    0    0  0.10941460378E+02 -0.35661115579E+02 -0.11064422116E+03  0.11676294601E+03  0.10566000000E+00 0.  1.
         13    1    4    4    0    0 -0.41442691781E+01  0.13344568829E+02 -0.16984781180E+02  0.21994236518E+02  0.10566000000E+00 0. -1.
        -13    1    4    4    0    0 -0.90630928174E+00  0.48259336654E+01 -0.57450017764E+01  0.75582565254E+01  0.10566000000E+00 0.  1.
        -14    1    4    4    0    0 -0.58908819178E+01  0.17490613085E+02 -0.23753573611E+02  0.30080829363E+02  0.00000000000E+00 0.  1.
<mgrwt>
<rscale>  0 0.80165877E+02</rscale>
<asrwt>0</asrwt>
<pdfrwt beam="1">  1        2 0.25655678E-01 0.80165877E+02</pdfrwt>
<pdfrwt beam="2">  1       -1 0.14822071E-02 0.80165877E+02</pdfrwt>
<totfact> 0.20622798E+05</totfact>
</mgrwt>
</event>
<event>
 8    1  0.2433467E-020  0.7363001E+02  0.7818608E-02  0.1348167E+00
         -1   -1    0    0    0  501 -0.00000000000E+00  0.00000000000E+00  0.10644147818E+02  0.10644149011E+02  0.50400000000E-02 0.  1.
          2   -1    0    0  501    0  0.00000000000E+00 -0.00000000000E+00 -0.12733235560E+03  0.12733235563E+03  0.25500000000E-02 0. -1.
         24    2    1    2    0    0 -0.71054273576E-14 -0.71054273576E-14 -0.11668820778E+03  0.13797650464E+03  0.73630007444E+02 0.  0.
         66    2    3    3    0    0 -0.24166030584E+02 -0.21189493649E+02 -0.91926894169E+02  0.97404032550E+02  0.20000025453E+01 0.  0.
        -13    1    3    3    0    0  0.24166030584E+02  0.21189493649E+02 -0.24761313613E+02  0.40572472086E+02  0.10566000000E+00 0.  1.
         13    1    4    4    0    0 -0.15396093644E+02 -0.13892912041E+02 -0.58442333343E+02  0.62012661571E+02  0.10566000000E+00 0. -1.
        -13    1    4    4    0    0 -0.56450718637E+01 -0.42674053088E+01 -0.19456887167E+02  0.20704086715E+02  0.10566000000E+00 0.  1.
        -14    1    4    4    0    0 -0.31248650772E+01 -0.30291762988E+01 -0.14027673659E+02  0.14687284265E+02  0.00000000000E+00 0.  1.
<mgrwt>
<rscale>  0 0.73630007E+02</rscale>
<asrwt>0</asrwt>
<pdfrwt beam="1">  1        2 0.19589592E-01 0.73630007E+02</pdfrwt>
<pdfrwt beam="2">  1       -1 0.16375614E-02 0.73630007E+02</pdfrwt>
<totfact> 0.23702046E+05</totfact>
</mgrwt>
</event>
<event>
 8    1  0.2433467E-020  0.7802967E+02  0.7818608E-02  0.1334738E+00
          2   -1    0    0  501    0  0.00000000000E+00  0.00000000000E+00  0.18240524486E+02  0.18240524664E+02  0.25500000000E-02 0. -1.
         -1   -1    0    0    0  501 -0.00000000000E+00 -0.00000000000E+00 -0.83449217281E+02  0.83449217433E+02  0.50400000000E-02 0.  1.
         24    2    1    2    0    0  0.17763568394E-14  0.00000000000E+00 -0.65208692795E+02  0.10168974210E+03  0.78029674046E+02 0.  0.
         66    2    3    3    0    0 -0.13593798619E+02 -0.29508020966E+02 -0.45342224239E+01  0.32864476525E+02  0.19999955137E+01 0.  0.
        -13    1    3    3    0    0  0.13593798619E+02  0.29508020966E+02 -0.60674470371E+02  0.68825265572E+02  0.10566000000E+00 0.  1.
         13    1    4    4    0    0 -0.11232409611E+02 -0.25278296844E+02 -0.43712303890E+01  0.28004966277E+02  0.10566000000E+00 0. -1.
        -13    1    4    4    0    0 -0.12623587957E+01 -0.19714792397E+01 -0.10547866895E-01  0.23434067967E+01  0.10566000000E+00 0.  1.
         14    1    4    4    0    0 -0.10990302123E+01 -0.22582448814E+01 -0.15244416801E+00  0.25161034511E+01  0.00000000000E+00 0. -1.
<mgrwt>
<rscale>  0 0.78029674E+02</rscale>
<asrwt>0</asrwt>
<pdfrwt beam="1">  1        2 0.28062346E-02 0.78029674E+02</pdfrwt>
<pdfrwt beam="2">  1       -1 0.12838341E-01 0.78029674E+02</pdfrwt>
<totfact> 0.13092760E+05</totfact>
</mgrwt>
</event>
<event>
 8    1  0.2433467E-020  0.8034165E+02  0.7818608E-02  0.1328085E+00
         -1   -1    0    0    0  501 -0.00000000000E+00  0.00000000000E+00  0.19208092253E+03  0.19208092259E+03  0.50400000000E-02 0.  1.
          2   -1    0    0  501    0  0.00000000000E+00 -0.00000000000E+00 -0.84011212589E+01  0.84011216459E+01  0.25500000000E-02 0. -1.
         24    2    1    2    0    0  0.00000000000E+00  0.00000000000E+00  0.18367980127E+03  0.20048204424E+03  0.80341649649E+02 0.  0.
         66    2    3    3    0    0  0.28348657441E+02 -0.24101253225E+02  0.54285775095E+02  0.65844226524E+02  0.20000007944E+01 0.  0.
        -13    1    3    3    0    0 -0.28348657441E+02  0.24101253225E+02  0.12939402617E+03  0.13463781772E+03  0.10566000000E+00 0.  1.
         13    1    4    4    0    0  0.59632449736E+01 -0.55907361493E+01  0.12620348201E+02  0.15036654351E+02  0.10566000000E+00 0. -1.
        -13    1    4    4    0    0  0.64110967950E+01 -0.46590379512E+01  0.11843452020E+02  0.14250870729E+02  0.10566000000E+00 0.  1.
         14    1    4    4    0    0  0.15974315672E+02 -0.13851479125E+02  0.29821974874E+02  0.36556701445E+02  0.00000000000E+00 0. -1.
<mgrwt>
<rscale>  0 0.80341650E+02</rscale>
<asrwt>0</asrwt>
<pdfrwt beam="1">  1        2 0.12924804E-02 0.80341650E+02</pdfrwt>
<pdfrwt beam="2">  1       -1 0.29550907E-01 0.80341650E+02</pdfrwt>
<totfact> 0.99726459E+04</totfact>
</mgrwt>
</event>
<event>
 8    1  0.2433467E-020  0.7866585E+02  0.7818608E-02  0.1332881E+00
          2   -1    0    0  501    0  0.00000000000E+00  0.00000000000E+00  0.33766857424E+02  0.33766857520E+02  0.25500000000E-02 0. -1.
         -1   -1    0    0    0  501 -0.00000000000E+00 -0.00000000000E+00 -0.45816497462E+02  0.45816497739E+02  0.50400000000E-02 0.  1.
         24    2    1    2    0    0 -0.35527136788E-14  0.00000000000E+00 -0.12049640039E+02  0.79583355259E+02  0.78665854151E+02 0.  0.
         66    2    3    3    0    0  0.20840667545E+02 -0.11281447299E+02  0.25697381462E+02  0.35013710061E+02  0.20000003235E+01 0.  0.
        -13    1    3    3    0    0 -0.20840667545E+02  0.11281447299E+02 -0.37747021501E+02  0.44569645199E+02  0.10566000000E+00 0.  1.
         13    1    4    4    0    0  0.35700977711E+01 -0.18770230305E+01  0.41529594521E+01  0.57902547266E+01  0.10566000000E+00 0. -1.
        -13    1    4    4    0    0  0.13686666830E+02 -0.66345956492E+01  0.16867860729E+02  0.22712961013E+02  0.10566000000E+00 0.  1.
        -14    1    4    4    0    0  0.35839029436E+01 -0.27698286195E+01  0.46765612808E+01  0.65104943210E+01  0.00000000000E+00 0.  1.
<mgrwt>
<rscale>  0 0.78665854E+02</rscale>
<asrwt>0</asrwt>
<pdfrwt beam="1">  1        2 0.51949011E-02 0.78665854E+02</pdfrwt>
<pdfrwt beam="2">  1       -1 0.70486920E-02 0.78665854E+02</pdfrwt>
<totfact> 0.14434636E+05</totfact>
</mgrwt>
</event>
<event>
 8    1  0.2622397E-020  0.7935105E+02  0.7818608E-02  0.1330903E+00
          2   -1    0    0  501    0  0.00000000000E+00  0.00000000000E+00  0.53705659288E+03  0.53705659288E+03  0.25500000000E-02 0. -1.
         -1   -1    0    0    0  501 -0.00000000000E+00 -0.00000000000E+00 -0.29310621080E+01  0.29310664411E+01  0.50400000000E-02 0.  1.
         24    2    1    2    0    0 -0.35527136788E-14 -0.17763568394E-14  0.53412553077E+03  0.53998765932E+03  0.79351052943E+02 0.  0.
         66    2    3    3    0    0 -0.30624707666E+02 -0.12900373041E+02  0.41442404930E+03  0.41575904679E+03  0.19999996242E+01 0.  0.
        -13    1    3    3    0    0  0.30624707666E+02  0.12900373041E+02  0.11970148146E+03  0.12422861254E+03  0.10566000000E+00 0.  1.
         13    1    4    4    0    0 -0.17281376552E+02 -0.73429304190E+01  0.23102362341E+03  0.23178544031E+03  0.10566000000E+00 0. -1.
        -13    1    4    4    0    0 -0.93802717538E+01 -0.39112544423E+01  0.12127322641E+03  0.12169837311E+03  0.10566000000E+00 0.  1.
        -14    1    4    4    0    0 -0.39630593606E+01 -0.16461881799E+01  0.62127199487E+02  0.62275233368E+02  0.00000000000E+00 0.  1.
<mgrwt>
<rscale>  0 0.79351053E+02</rscale>
<asrwt>0</asrwt>
<pdfrwt beam="1">  1        2 0.82624061E-01 0.79351053E+02</pdfrwt>
<pdfrwt beam="2">  1       -1 0.45093313E-03 0.79351053E+02</pdfrwt>
<totfact> 0.31805067E+05</totfact>
</mgrwt>
</event>
<event>
 8    1  0.2433467E-020  0.7808866E+02  0.7818608E-02  0.1334565E+00
         -1   -1    0    0    0  501 -0.00000000000E+00  0.00000000000E+00  0.50199658035E+01  0.50199683335E+01  0.50400000000E-02 0.  1.
          2   -1    0    0  501    0  0.00000000000E+00 -0.00000000000E+00 -0.30367924043E+03  0.30367924044E+03  0.25500000000E-02 0. -1.
         24    2    1    2    0    0  0.00000000000E+00  0.00000000000E+00 -0.29865927463E+03  0.30869920877E+03  0.78088662285E+02 0.  0.
         66    2    3    3    0    0 -0.30551562565E+02  0.48093640952E+01 -0.24347058738E+03  0.24543523544E+03  0.19999793950E+01 0.  0.
        -13    1    3    3    0    0  0.30551562565E+02 -0.48093640952E+01 -0.55188687246E+02  0.63263973335E+02  0.10566000000E+00 0.  1.
         13    1    4    4    0    0 -0.23832241082E+02  0.44246533487E+01 -0.18946337412E+03  0.19100768196E+03  0.10566000000E+00 0. -1.
        -13    1    4    4    0    0 -0.32838816349E+01  0.27758095087E+00 -0.24523909175E+02  0.24744579509E+02  0.10566000000E+00 0.  1.
         14    1    4    4    0    0 -0.34354398475E+01  0.10712979567E+00 -0.29483304084E+02  0.29682973966E+02  0.00000000000E+00 0. -1.
<mgrwt>
<rscale>  0 0.78088662E+02</rscale>
<asrwt>0</asrwt>
<pdfrwt beam="1">  1        2 0.46719869E-01 0.78088662E+02</pdfrwt>
<pdfrwt beam="2">  1       -1 0.77230286E-03 0.78088662E+02</pdfrwt>
<totfact> 0.27280910E+05</totfact>
</mgrwt>
</event>
<event>
 8    1  0.2433467E-020  0.7265917E+02  0.7818608E-02  0.1351277E+00
          2   -1    0    0  501    0  0.00000000000E+00  0.00000000000E+00  0.23651999775E+03  0.23651999776E+03  0.25500000000E-02 0. -1.
         -1   -1    0    0    0  501 -0.00000000000E+00 -0.00000000000E+00 -0.55802405518E+01  0.55802428278E+01  0.50400000000E-02 0.  1.
         24    2    1    2    0    0 -0.35527136788E-14  0.00000000000E+00  0.23093975719E+03  0.24210024059E+03  0.72659170375E+02 0.  0.
         66    2    3    3    0    0  0.26931495166E+02  0.24185903325E+02  0.12472501224E+03  0.12988684316E+03  0.19999993445E+01 0.  0.
        -13    1    3    3    0    0 -0.26931495166E+02 -0.24185903325E+02  0.10621474496E+03  0.11221339742E+03  0.10566000000E+00 0.  1.
         13    1    4    4    0    0  0.14797112292E+02  0.13851955489E+02  0.67703907781E+02  0.70672919112E+02  0.10566000000E+00 0. -1.
        -13    1    4    4    0    0  0.49226922156E+01  0.41552514137E+01  0.21419835646E+02  0.22367823679E+02  0.10566000000E+00 0.  1.
         14    1    4    4    0    0  0.72116906587E+01  0.61786964224E+01  0.35601268812E+02  0.36846100372E+02  0.00000000000E+00 0. -1.
<mgrwt>
<rscale>  0 0.72659170E+02</rscale>
<asrwt>0</asrwt>
<pdfrwt beam="1">  1        2 0.36387695E-01 0.72659170E+02</pdfrwt>
<pdfrwt beam="2">  1       -1 0.85849865E-03 0.72659170E+02</pdfrwt>
<totfact> 0.30102503E+05</totfact>
</mgrwt>
</event>
<event>
 8    1  0.2433467E-020  0.7253579E+02  0.7818608E-02  0.1351676E+00
         -1   -1    0    0    0  501 -0.00000000000E+00  0.00000000000E+00  0.13459971008E+02  0.13459971951E+02  0.50400000000E-02 0.  1.
          2   -1    0    0  501    0  0.00000000000E+00 -0.00000000000E+00 -0.97723849909E+02  0.97723849942E+02  0.25500000000E-02 0. -1.
         24    2    1    2    0    0  0.00000000000E+00 -0.35527136788E-14 -0.84263878901E+02  0.11118382189E+03  0.72535790913E+02 0.  0.
         66    2    3    3    0    0  0.17278656846E+02  0.27257996504E+02 -0.67434624073E+02  0.74786221176E+02  0.19999995394E+01 0.  0.
        -13    1    3    3    0    0 -0.17278656846E+02 -0.27257996504E+02 -0.16829254828E+02  0.36397600717E+02  0.10566000000E+00 0.  1.
         13    1    4    4    0    0  0.50085680559E+01  0.79618239216E+01 -0.20499467634E+02  0.22554727474E+02  0.10566000000E+00 0. -1.
        -13    1    4    4    0    0  0.47560562608E+01  0.88437401224E+01 -0.20176969869E+02  0.22537814615E+02  0.10566000000E+00 0.  1.
        -14    1    4    4    0    0  0.75140325297E+01  0.10452432460E+02 -0.26758186570E+02  0.29693679087E+02  0.00000000000E+00 0.  1.
<mgrwt>
<rscale>  0 0.72535791E+02</rscale>
<asrwt>0</asrwt>
<pdfrwt beam="1">  1        2 0.15034438E-01 0.72535791E+02</pdfrwt>
<pdfrwt beam="2">  1       -1 0.20707649E-02 0.72535791E+02</pdfrwt>
<totfact> 0.22860792E+05</totfact>
</mgrwt>
</event>
<event>
 8    1  0.2433467E-020  0.8034021E+02  0.7818608E-02  0.1328089E+00
         -1   -1    0    0    0  501 -0.00000000000E+00  0.00000000000E+00  0.19506594615E+01  0.19506659726E+01  0.50400000000E-02 0.  1.
          2   -1    0    0  501    0  0.00000000000E+00 -0.00000000000E+00 -0.82722525401E+03  0.82722525401E+03  0.25500000000E-02 0. -1.
         24    2    1    2    0    0 -0.71054273576E-14  0.44408920985E-15 -0.82527459454E+03  0.82917591998E+03  0.80340213332E+02 0.  0.
         66    2    3    3    0    0  0.32905047659E+02 -0.21870239708E+01 -0.64917058071E+03  0.65001074455E+03  0.19999838350E+01 0.  0.
        -13    1    3    3    0    0 -0.32905047659E+02  0.21870239708E+01 -0.17610401384E+03  0.17916517544E+03  0.10566000000E+00 0.  1.
         13    1    4    4    0    0  0.12943230378E+02 -0.10906014267E+01 -0.26491244064E+03  0.26523070899E+03  0.10566000000E+00 0. -1.
        -13    1    4    4    0    0  0.15544718089E+02 -0.12469963953E+01 -0.30619487249E+03  0.30659175521E+03  0.10566000000E+00 0.  1.
        -14    1    4    4    0    0  0.44170991915E+01  0.15057385128E+00 -0.78063267579E+02  0.78188280342E+02  0.00000000000E+00 0.  1.
<mgrwt>
<rscale>  0 0.80340213E+02</rscale>
<asrwt>0</asrwt>
<pdfrwt beam="1">  1        2 0.12726514E+00 0.80340213E+02</pdfrwt>
<pdfrwt beam="2">  1       -1 0.30010262E-03 0.80340213E+02</pdfrwt>
<totfact> 0.34176266E+05</totfact>
</mgrwt>
</event>
<event>
 8    1  0.2433467E-020  0.7916792E+02  0.7818608E-02  0.1331429E+00
          2   -1    0    0  501    0  0.00000000000E+00  0.00000000000E+00  0.28232702349E+03  0.28232702350E+03  0.25500000000E-02 0. -1.
         -1   -1    0    0    0  501 -0.00000000000E+00 -0.00000000000E+00 -0.55499093499E+01  0.55499116383E+01  0.50400000000E-02 0.  1.
         24    2    1    2    0    0  0.17763568394E-14 -0.17763568394E-14  0.27677711414E+03  0.28787693514E+03  0.79167915684E+02 0.  0.
         66    2    3    3    0    0  0.11412401637E+02 -0.13127699116E+02  0.26766989646E+03  0.26824196702E+03  0.20000004913E+01 0.  0.
        -13    1    3    3    0    0 -0.11412401637E+02  0.13127699116E+02  0.91072176739E+01  0.19634968119E+02  0.10566000000E+00 0.  1.
         13    1    4    4    0    0  0.62563288036E+00 -0.53971676665E+00  0.84897372548E+01  0.85305048725E+01  0.10566000000E+00 0. -1.
        -13    1    4    4    0    0  0.43593734474E+00 -0.64687984617E+00  0.14757089432E+02  0.14778069815E+02  0.10566000000E+00 0.  1.
         14    1    4    4    0    0  0.10350831412E+02 -0.11941102504E+02  0.24442306978E+03  0.24493339233E+03  0.00000000000E+00 0. -1.
<mgrwt>
<rscale>  0 0.79167916E+02</rscale>
<asrwt>0</asrwt>
<pdfrwt beam="1">  1        2 0.43434922E-01 0.79167916E+02</pdfrwt>
<pdfrwt beam="2">  1       -1 0.85383248E-03 0.79167916E+02</pdfrwt>
<totfact> 0.25633195E+05</totfact>
</mgrwt>
</event>
<event>
 8    1  0.2433467E-020  0.7963323E+02  0.7818608E-02  0.1330095E+00
          2   -1    0    0  501    0  0.00000000000E+00  0.00000000000E+00  0.10533760313E+04  0.10533760313E+04  0.25500000000E-02 0. -1.
         -1   -1    0    0    0  501 -0.00000000000E+00 -0.00000000000E+00 -0.15050262464E+01  0.15050346853E+01  0.50400000000E-02 0.  1.
         24    2    1    2    0    0  0.00000000000E+00  0.00000000000E+00  0.10518710050E+04  0.10548810659E+04  0.79633234947E+02 0.  0.
         66    2    3    3    0    0 -0.19515335772E+02  0.12033258289E+01  0.98534995082E+03  0.98554595119E+03  0.20000012087E+01 0.  0.
        -13    1    3    3    0    0  0.19515335772E+02 -0.12033258289E+01  0.66521054193E+02  0.69335114757E+02  0.10566000000E+00 0.  1.
         13    1    4    4    0    0 -0.54649063404E+01  0.52183315240E-01  0.25134071494E+03  0.25140014733E+03  0.10566000000E+00 0. -1.
        -13    1    4    4    0    0 -0.61946231643E+01  0.25551564057E+00  0.29162725180E+03  0.29169316721E+03  0.10566000000E+00 0.  1.
        -14    1    4    4    0    0 -0.78558062673E+01  0.89562687305E+00  0.44238198408E+03  0.44245263665E+03  0.00000000000E+00 0.  1.
<mgrwt>
<rscale>  0 0.79633235E+02</rscale>
<asrwt>0</asrwt>
<pdfrwt beam="1">  1        2 0.16205657E+00 0.79633235E+02</pdfrwt>
<pdfrwt beam="2">  1       -1 0.23154498E-03 0.79633235E+02</pdfrwt>
<totfact> 0.35696375E+05</totfact>
</mgrwt>
</event>
<event>
 8    1  0.2433467E-020  0.7733336E+02  0.7818608E-02  0.1336794E+00
          2   -1    0    0  501    0  0.00000000000E+00  0.00000000000E+00  0.64590924289E+02  0.64590924340E+02  0.25500000000E-02 0. -1.
         -1   -1    0    0    0  501 -0.00000000000E+00 -0.00000000000E+00 -0.23147399624E+02  0.23147400173E+02  0.50400000000E-02 0.  1.
         24    2    1    2    0    0  0.00000000000E+00  0.00000000000E+00  0.41443524665E+02  0.87738324512E+02  0.77333355362E+02 0.  0.
         66    2    3    3    0    0  0.10295930899E+02 -0.31790431543E+02 -0.12778241930E+01  0.33500307005E+02  0.20000010058E+01 0.  0.
        -13    1    3    3    0    0 -0.10295930899E+02  0.31790431543E+02  0.42721348858E+02  0.54238017507E+02  0.10566000000E+00 0.  1.
         13    1    4    4    0    0  0.37242858486E+00 -0.10104403573E+01  0.46659004114E-01  0.10830668792E+01  0.10566000000E+00 0.  1.
        -13    1    4    4    0    0  0.14906987171E+01 -0.44941258665E+01 -0.82436766701E+00  0.48072961273E+01  0.10566000000E+00 0.  1.
         14    1    4    4    0    0  0.84328035974E+01 -0.26285865319E+02 -0.50011553008E+00  0.27609943999E+02  0.00000000000E+00 0. -1.
<mgrwt>
<rscale>  0 0.77333355E+02</rscale>
<asrwt>0</asrwt>
<pdfrwt beam="1">  1        2 0.99370652E-02 0.77333355E+02</pdfrwt>
<pdfrwt beam="2">  1       -1 0.35611385E-02 0.77333355E+02</pdfrwt>
<totfact> 0.17359720E+05</totfact>
</mgrwt>
</event>
<event>
 8    1  0.2433467E-020  0.8032448E+02  0.7818608E-02  0.1328133E+00
         -1   -1    0    0    0  501 -0.00000000000E+00  0.00000000000E+00  0.54964713958E+01  0.54964737065E+01  0.50400000000E-02 0.  1.
          2   -1    0    0  501    0  0.00000000000E+00 -0.00000000000E+00 -0.29346190780E+03  0.29346190781E+03  0.25500000000E-02 0. -1.
         24    2    1    2    0    0  0.00000000000E+00  0.00000000000E+00 -0.28796543641E+03  0.29895838152E+03  0.80324475201E+02 0.  0.
         66    2    3    3    0    0 -0.15225914281E+02 -0.34247442976E+02 -0.19752769924E+03  0.20106195010E+03  0.19999991941E+01 0.  0.
        -13    1    3    3    0    0  0.15225914281E+02  0.34247442976E+02 -0.90437737173E+02  0.97896431421E+02  0.10566000000E+00 0.  1.
         13    1    4    4    0    0 -0.87912837659E+01 -0.21062545604E+02 -0.12167588056E+03  0.12379801521E+03  0.10566000000E+00 0. -1.
        -13    1    4    4    0    0 -0.60849673567E+01 -0.12222747573E+02 -0.71631782660E+02  0.72921504627E+02  0.10566000000E+00 0.  1.
        -14    1    4    4    0    0 -0.34966315796E+00 -0.96214979926E+00 -0.42200360185E+01  0.43424302594E+01  0.00000000000E+00 0.  1.
<mgrwt>
<rscale>  0 0.80324475E+02</rscale>
<asrwt>0</asrwt>
<pdfrwt beam="1">  1        2 0.45147974E-01 0.80324475E+02</pdfrwt>
<pdfrwt beam="2">  1       -1 0.84561139E-03 0.80324475E+02</pdfrwt>
<totfact> 0.25024727E+05</totfact>
</mgrwt>
</event>
<event>
 8    1  0.2433467E-020  0.7980101E+02  0.7818608E-02  0.1329617E+00
          2   -1    0    0  501    0  0.00000000000E+00  0.00000000000E+00  0.43416355899E+03  0.43416355900E+03  0.25500000000E-02 0. -1.
         -1   -1    0    0    0  501 -0.00000000000E+00 -0.00000000000E+00 -0.36669352612E+01  0.36669387248E+01  0.50400000000E-02 0.  1.
         24    2    1    2    0    0  0.00000000000E+00  0.00000000000E+00  0.43049662373E+03  0.43783049773E+03  0.79801013113E+02 0.  0.
         66    2    3    3    0    0  0.16873068853E+02  0.34725877710E+02  0.27009964941E+03  0.27285235502E+03  0.19999981799E+01 0.  0.
        -13    1    3    3    0    0 -0.16873068853E+02 -0.34725877710E+02  0.16039697432E+03  0.16497814271E+03  0.10566000000E+00 0.  1.
         13    1    4    4    0    0  0.59953894704E+01  0.11972731081E+02  0.93446970083E+02  0.94401474385E+02  0.10566000000E+00 0. -1.
        -13    1    4    4    0    0  0.52499140189E+01  0.91779583776E+01  0.74160268102E+02  0.74910300001E+02  0.10566000000E+00 0.  1.
         14    1    4    4    0    0  0.56277653635E+01  0.13575188251E+02  0.10249241122E+03  0.10354058063E+03  0.00000000000E+00 0. -1.
<mgrwt>
<rscale>  0 0.79801013E+02</rscale>
<asrwt>0</asrwt>
<pdfrwt beam="1">  1        2 0.66794381E-01 0.79801013E+02</pdfrwt>
<pdfrwt beam="2">  1       -1 0.56414426E-03 0.79801013E+02</pdfrwt>
<totfact> 0.29253838E+05</totfact>
</mgrwt>
</event>
<event>
 8    1  0.2433467E-020  0.8029670E+02  0.7818608E-02  0.1328212E+00
          2   -1    0    0  501    0  0.00000000000E+00  0.00000000000E+00  0.70519999713E+02  0.70519999759E+02  0.25500000000E-02 0. -1.
         -1   -1    0    0    0  501 -0.00000000000E+00 -0.00000000000E+00 -0.22857203057E+02  0.22857203613E+02  0.50400000000E-02 0.  1.
         24    2    1    2    0    0  0.00000000000E+00  0.00000000000E+00  0.47662796656E+02  0.93377203372E+02  0.80296699337E+02 0.  0.
         66    2    3    3    0    0  0.10343600967E+01  0.33254412274E+02  0.49926259026E+02  0.60029635808E+02  0.19999996035E+01 0.  0.
        -13    1    3    3    0    0 -0.10343600967E+01 -0.33254412274E+02 -0.22634623703E+01  0.33347567564E+02  0.10566000000E+00 0.  1.
         13    1    4    4    0    0  0.46568188084E+00  0.11026225393E+02  0.15892320461E+02  0.19348682635E+02  0.10566000000E+00 0. -1.
        -13    1    4    4    0    0  0.98704216345E+00  0.10703656110E+02  0.16058876809E+02  0.19324626640E+02  0.10566000000E+00 0.  1.
        -14    1    4    4    0    0 -0.41836394757E+00  0.11524530772E+02  0.17975061755E+02  0.21356326534E+02  0.00000000000E+00 0.  1.
<mgrwt>
<rscale>  0 0.80296699E+02</rscale>
<asrwt>0</asrwt>
<pdfrwt beam="1">  1        2 0.10849231E-01 0.80296699E+02</pdfrwt>
<pdfrwt beam="2">  1       -1 0.35164929E-02 0.80296699E+02</pdfrwt>
<totfact> 0.16014474E+05</totfact>
</mgrwt>
</event>
<event>
 8    1  0.2801875E-020  0.7961232E+02  0.7818608E-02  0.1330155E+00
          2   -1    0    0  501    0  0.00000000000E+00  0.00000000000E+00  0.27159886059E+03  0.27159886060E+03  0.25500000000E-02 0. -1.
         -1   -1    0    0    0  501 -0.00000000000E+00 -0.00000000000E+00 -0.58340819076E+01  0.58340840846E+01  0.50400000000E-02 0.  1.
         24    2    1    2    0    0 -0.71054273576E-14  0.35527136788E-14  0.26576477868E+03  0.27743294468E+03  0.79612318201E+02 0.  0.
         66    2    3    3    0    0 -0.36603175758E+02  0.11312674835E+02  0.17029670243E+03  0.17456441774E+03  0.19999992559E+01 0.  0.
        -13    1    3    3    0    0  0.36603175758E+02 -0.11312674835E+02  0.95468076254E+02  0.10286852694E+03  0.10566000000E+00 0.  1.
         13    1    4    4    0    0 -0.18339368932E+02  0.54047214941E+01  0.85702755862E+02  0.87809549559E+02  0.10566000000E+00 0. -1.
        -13    1    4    4    0    0 -0.16042061510E+02  0.50404268084E+01  0.72059635283E+02  0.73995647447E+02  0.10566000000E+00 0.  1.
        -14    1    4    4    0    0 -0.22217453167E+01  0.86752653244E+00  0.12534311280E+02  0.12759220736E+02  0.00000000000E+00 0.  1.
<mgrwt>
<rscale>  0 0.79612318E+02</rscale>
<asrwt>0</asrwt>
<pdfrwt beam="1">  1        2 0.41784436E-01 0.79612318E+02</pdfrwt>
<pdfrwt beam="2">  1       -1 0.89755132E-03 0.79612318E+02</pdfrwt>
<totfact> 0.24907944E+05</totfact>
</mgrwt>
</event>
<event>
 8    1  0.2433467E-020  0.7987393E+02  0.7818608E-02  0.1329410E+00
         -1   -1    0    0    0  501 -0.00000000000E+00  0.00000000000E+00  0.33691213703E+02  0.33691214080E+02  0.50400000000E-02 0.  1.
          2   -1    0    0  501    0  0.00000000000E+00 -0.00000000000E+00 -0.47340569327E+02  0.47340569395E+02  0.25500000000E-02 0. -1.
         24    2    1    2    0    0  0.00000000000E+00  0.71054273576E-14 -0.13649355624E+02  0.81031783475E+02  0.79873932069E+02 0.  0.
         66    2    3    3    0    0  0.14379906781E+02  0.36232239656E+02 -0.15520481175E+02  0.42005264487E+02  0.19999997964E+01 0.  0.
        -13    1    3    3    0    0 -0.14379906781E+02 -0.36232239656E+02  0.18711255509E+01  0.39026518989E+02  0.10566000000E+00 0.  1.
         13    1    4    4    0    0  0.54589237735E+01  0.12664678847E+02 -0.45720263430E+01  0.14529574253E+02  0.10566000000E+00 0. -1.
        -13    1    4    4    0    0  0.67625660023E+01  0.17726500229E+02 -0.82163999453E+01  0.20675625780E+02  0.10566000000E+00 0.  1.
         14    1    4    4    0    0  0.21584170047E+01  0.58410605799E+01 -0.27320548865E+01  0.68000644532E+01  0.00000000000E+00 0. -1.
<mgrwt>
<rscale>  0 0.79873932E+02</rscale>
<asrwt>0</asrwt>
<pdfrwt beam="1">  1        2 0.72831645E-02 0.79873932E+02</pdfrwt>
<pdfrwt beam="2">  1       -1 0.51832637E-02 0.79873932E+02</pdfrwt>
<totfact> 0.14831744E+05</totfact>
</mgrwt>
</event>
<event>
 8    1  0.2433467E-020  0.7691531E+02  0.7818608E-02  0.1338040E+00
          2   -1    0    0  501    0  0.00000000000E+00  0.00000000000E+00  0.19632233124E+03  0.19632233126E+03  0.25500000000E-02 0. -1.
         -1   -1    0    0    0  501 -0.00000000000E+00 -0.00000000000E+00 -0.75334834506E+01  0.75334851365E+01  0.50400000000E-02 0.  1.
         24    2    1    2    0    0  0.00000000000E+00  0.00000000000E+00  0.18878884779E+03  0.20385581639E+03  0.76915309449E+02 0.  0.
         66    2    3    3    0    0 -0.17570721642E+02 -0.32130781971E+02  0.12535179807E+03  0.13060700855E+03  0.19999985862E+01 0.  0.
        -13    1    3    3    0    0  0.17570721642E+02  0.32130781971E+02  0.63437049720E+02  0.73248807842E+02  0.10566000000E+00 0.  1.
         13    1    4    4    0    0 -0.15539502291E+02 -0.28127216274E+02  0.10970495429E+03  0.11431449858E+03  0.10566000000E+00 0. -1.
        -13    1    4    4    0    0 -0.11880980966E+01 -0.17415654034E+01  0.79904002874E+01  0.82645198245E+01  0.10566000000E+00 0.  1.
         14    1    4    4    0    0 -0.84312125387E+00 -0.22620002938E+01  0.76564434948E+01  0.80279901449E+01  0.00000000000E+00 0. -1.
<mgrwt>
<rscale>  0 0.76915309E+02</rscale>
<asrwt>0</asrwt>
<pdfrwt beam="1">  1        2 0.30203435E-01 0.76915309E+02</pdfrwt>
<pdfrwt beam="2">  1       -1 0.11589976E-02 0.76915309E+02</pdfrwt>
<totfact> 0.24308991E+05</totfact>
</mgrwt>
</event>
<event>
 8    1  0.2433467E-020  0.7898929E+02  0.7818608E-02  0.1331944E+00
         -1   -1    0    0    0  501 -0.00000000000E+00  0.00000000000E+00  0.65081779747E+02  0.65081779942E+02  0.50400000000E-02 0.  1.
          2   -1    0    0  501    0  0.00000000000E+00 -0.00000000000E+00 -0.23967183884E+02  0.23967184020E+02  0.25500000000E-02 0. -1.
         24    2    1    2    0    0  0.71054273576E-14 -0.13322676296E-14  0.41114595862E+02  0.89048963962E+02  0.78989290348E+02 0.  0.
         66    2    3    3    0    0 -0.24021960634E+02  0.36743444293E+01 -0.14491324044E+02  0.28364658805E+02  0.19999992091E+01 0.  0.
        -13    1    3    3    0    0  0.24021960634E+02 -0.36743444293E+01  0.55605919906E+02  0.60684305157E+02  0.10566000000E+00 0.  1.
         13    1    4    4    0    0 -0.53530033700E+01  0.74563136083E+00 -0.41470679582E+01  0.68132186146E+01  0.10566000000E+00 0. -1.
        -13    1    4    4    0    0 -0.10925666354E+02  0.19936440704E+01 -0.59981679190E+01  0.12622756608E+02  0.10566000000E+00 0.  1.
         14    1    4    4    0    0 -0.77432909103E+01  0.93506899814E+00 -0.43460881671E+01  0.89286835820E+01  0.00000000000E+00 0. -1.
<mgrwt>
<rscale>  0 0.78989290E+02</rscale>
<asrwt>0</asrwt>
<pdfrwt beam="1">  1        2 0.36872591E-02 0.78989290E+02</pdfrwt>
<pdfrwt beam="2">  1       -1 0.10012581E-01 0.78989290E+02</pdfrwt>
<totfact> 0.13345175E+05</totfact>
</mgrwt>
</event>
<event>
 8    1  0.2433467E-020  0.8010019E+02  0.7818608E-02  0.1328767E+00
         -1   -1    0    0    0  501 -0.00000000000E+00  0.00000000000E+00  0.16247448374E+01  0.16247526545E+01  0.50400000000E-02 0.  1.
          2   -1    0    0  501    0  0.00000000000E+00 -0.00000000000E+00 -0.98723587196E+03  0.98723587197E+03  0.25500000000E-02 0. -1.
         24    2    1    2    0    0  0.00000000000E+00  0.00000000000E+00 -0.98561112713E+03  0.98886062462E+03  0.80100193580E+02 0.  0.
         66    2    3    3    0    0 -0.12046740421E+02 -0.23705089042E+02 -0.86243032339E+03  0.86284246413E+03  0.19999992162E+01 0.  0.
        -13    1    3    3    0    0  0.12046740421E+02  0.23705089042E+02 -0.12318080374E+03  0.12601816050E+03  0.10566000000E+00 0.  1.
         13    1    4    4    0    0 -0.45555169557E+01 -0.10506315674E+02 -0.36240664068E+03  0.36258753395E+03  0.10566000000E+00 0. -1.
        -13    1    4    4    0    0 -0.62549470136E+01 -0.11159342825E+02 -0.40915330896E+03  0.40935326637E+03  0.10566000000E+00 0.  1.
        -14    1    4    4    0    0 -0.12362764515E+01 -0.20394305432E+01 -0.90870373750E+02  0.90901663802E+02  0.00000000000E+00 0.  1.
<mgrwt>
<rscale>  0 0.80100194E+02</rscale>
<asrwt>0</asrwt>
<pdfrwt beam="1">  1        2 0.15188196E+00 0.80100194E+02</pdfrwt>
<pdfrwt beam="2">  1       -1 0.24996213E-03 0.80100194E+02</pdfrwt>
<totfact> 0.35095956E+05</totfact>
</mgrwt>
</event>
<event>
 8    1  0.2433467E-020  0.7897709E+02  0.7818608E-02  0.1331980E+00
         -1   -1    0    0    0  501 -0.00000000000E+00  0.00000000000E+00  0.28700664982E+03  0.28700664986E+03  0.50400000000E-02 0.  1.
          2   -1    0    0  501    0  0.00000000000E+00 -0.00000000000E+00 -0.54331327961E+01  0.54331333945E+01  0.25500000000E-02 0. -1.
         24    2    1    2    0    0  0.17763568394E-14 -0.14210854715E-13  0.28157351702E+03  0.29243978325E+03  0.78977093787E+02 0.  0.
         66    2    3    3    0    0  0.90696117238E+01 -0.38240565700E+02  0.12765932117E+03  0.13358705407E+03  0.20000027672E+01 0.  0.
        -13    1    3    3    0    0 -0.90696117238E+01  0.38240565700E+02  0.15391419585E+03  0.15885272919E+03  0.10566000000E+00 0.  1.
         13    1    4    4    0    0  0.15416296739E+01 -0.45349338331E+01  0.14908416625E+02  0.15659319820E+02  0.10566000000E+00 0. -1.
        -13    1    4    4    0    0  0.10982912590E+01 -0.35297864352E+01  0.12733598102E+02  0.13259763219E+02  0.10566000000E+00 0.  1.
         14    1    4    4    0    0  0.64296907909E+01 -0.30175845432E+02  0.10001730644E+03  0.10466797103E+03  0.00000000000E+00 0. -1.
<mgrwt>
<rscale>  0 0.78977094E+02</rscale>
<asrwt>0</asrwt>
<pdfrwt beam="1">  1        2 0.83586659E-03 0.78977094E+02</pdfrwt>
<pdfrwt beam="2">  1       -1 0.44154872E-01 0.78977094E+02</pdfrwt>
<totfact> 0.90919344E+04</totfact>
</mgrwt>
</event>
<event>
 8    1  0.2433467E-020  0.7969542E+02  0.7818608E-02  0.1329918E+00
          2   -1    0    0  501    0  0.00000000000E+00  0.00000000000E+00  0.38508017832E+03  0.38508017833E+03  0.25500000000E-02 0. -1.
         -1   -1    0    0    0  501 -0.00000000000E+00 -0.00000000000E+00 -0.41233996816E+01  0.41234027617E+01  0.50400000000E-02 0.  1.
         24    2    1    2    0    0  0.00000000000E+00  0.00000000000E+00  0.38095677864E+03  0.38920358109E+03  0.79695422345E+02 0.  0.
         66    2    3    3    0    0 -0.20758025534E+02 -0.33967677343E+02  0.19580407394E+03  0.19981975404E+03  0.20000009257E+01 0.  0.
        -13    1    3    3    0    0  0.20758025534E+02  0.33967677343E+02  0.18515270470E+03  0.18938382705E+03  0.10566000000E+00 0.  1.
         13    1    4    4    0    0 -0.10696721240E+02 -0.18317054380E+02  0.10648659473E+03  0.10857872879E+03  0.10566000000E+00 0. -1.
        -13    1    4    4    0    0 -0.78232588752E+01 -0.11846198942E+02  0.70107912287E+02  0.71530876816E+02  0.10566000000E+00 0.  1.
         14    1    4    4    0    0 -0.22380454187E+01 -0.38044240214E+01  0.19209566930E+02  0.19710148428E+02  0.00000000000E+00 0. -1.
<mgrwt>
<rscale>  0 0.79695422E+02</rscale>
<asrwt>0</asrwt>
<pdfrwt beam="1">  1        2 0.59243106E-01 0.79695422E+02</pdfrwt>
<pdfrwt beam="2">  1       -1 0.63436940E-03 0.79695422E+02</pdfrwt>
<totfact> 0.28158114E+05</totfact>
</mgrwt>
</event>
<event>
 8    1  0.2433467E-020  0.8116544E+02  0.7818608E-02  0.1325776E+00
         -1   -1    0    0    0  501 -0.00000000000E+00  0.00000000000E+00  0.98491619109E+01  0.98491632005E+01  0.50400000000E-02 0.  1.
          2   -1    0    0  501    0  0.00000000000E+00 -0.00000000000E+00 -0.16721797873E+03  0.16721797875E+03  0.25500000000E-02 0. -1.
         24    2    1    2    0    0  0.00000000000E+00  0.35527136788E-14 -0.15736881682E+03  0.17706714195E+03  0.81165437542E+02 0.  0.
         66    2    3    3    0    0 -0.25446081646E+02 -0.25491072848E+02 -0.11940827135E+03  0.12473825851E+03  0.20000005939E+01 0.  0.
        -13    1    3    3    0    0  0.25446081646E+02  0.25491072848E+02 -0.37960545468E+02  0.52328883442E+02  0.10566000000E+00 0.  1.
         13    1    4    4    0    0 -0.12706418306E+01 -0.11666222186E+01 -0.44913367868E+01  0.48123599440E+01  0.10566000000E+00 0. -1.
        -13    1    4    4    0    0 -0.15701714436E+02 -0.15518192700E+02 -0.73918011849E+02  0.77144291951E+02  0.10566000000E+00 0.  1.
         14    1    4    4    0    0 -0.84737253788E+01 -0.88062579296E+01 -0.40998922719E+02  0.42781606616E+02  0.00000000000E+00 0. -1.
<mgrwt>
<rscale>  0 0.81165438E+02</rscale>
<asrwt>0</asrwt>
<pdfrwt beam="1">  1        2 0.25725841E-01 0.81165438E+02</pdfrwt>
<pdfrwt beam="2">  1       -1 0.15152559E-02 0.81165438E+02</pdfrwt>
<totfact> 0.19974689E+05</totfact>
</mgrwt>
</event>
<event>
 8    1  0.2433467E-020  0.8014765E+02  0.7818608E-02  0.1328633E+00
          2   -1    0    0  501    0  0.00000000000E+00  0.00000000000E+00  0.24904418796E+03  0.24904418797E+03  0.25500000000E-02 0. -1.
         -1   -1    0    0    0  501 -0.00000000000E+00 -0.00000000000E+00 -0.64482980610E+01  0.64483000306E+01  0.50400000000E-02 0.  1.
         24    2    1    2    0    0  0.00000000000E+00  0.17763568394E-14  0.24259588990E+03  0.25549248800E+03  0.80147648938E+02 0.  0.
         66    2    3    3    0    0 -0.17903333575E+02 -0.11202396803E+02  0.22984579426E+03  0.23082268561E+03  0.20000015646E+01 0.  0.
        -13    1    3    3    0    0  0.17903333575E+02  0.11202396803E+02  0.12750095636E+02  0.24669802390E+02  0.10566000000E+00 0.  1.
         13    1    4    4    0    0 -0.97439581919E+01 -0.64347992307E+01  0.12785901691E+03  0.12839116298E+03  0.10566000000E+00 0. -1.
        -13    1    4    4    0    0 -0.72128767151E+01 -0.44697361622E+01  0.87393781090E+02  0.87804830556E+02  0.10566000000E+00 0.  1.
         14    1    4    4    0    0 -0.94649866756E+00 -0.29786140968E+00  0.14592996260E+02  0.14626692073E+02  0.00000000000E+00 0. -1.
<mgrwt>
<rscale>  0 0.80147649E+02</rscale>
<asrwt>0</asrwt>
<pdfrwt beam="1">  1        2 0.38314500E-01 0.80147649E+02</pdfrwt>
<pdfrwt beam="2">  1       -1 0.99204578E-03 0.80147649E+02</pdfrwt>
<totfact> 0.23720365E+05</totfact>
</mgrwt>
</event>
<event>
 8    1  0.2433467E-020  0.8202685E+02  0.7818608E-02  0.1323396E+00
         -1   -1    0    0    0  501 -0.00000000000E+00  0.00000000000E+00  0.19657626187E+03  0.19657626194E+03  0.50400000000E-02 0.  1.
          2   -1    0    0  501    0  0.00000000000E+00 -0.00000000000E+00 -0.85569895566E+01  0.85569899366E+01  0.25500000000E-02 0. -1.
         24    2    1    2    0    0  0.00000000000E+00  0.00000000000E+00  0.18801927232E+03  0.20513325188E+03  0.82026850861E+02 0.  0.
         66    2    3    3    0    0  0.12665308708E+02  0.34211547403E+02  0.47329319179E+02  0.59790504899E+02  0.20000004415E+01 0.  0.
        -13    1    3    3    0    0 -0.12665308708E+02 -0.34211547403E+02  0.14068995314E+03  0.14534274698E+03  0.10566000000E+00 0.  1.
         13    1    4    4    0    0  0.52466662042E+01  0.12989360969E+02  0.17829899665E+02  0.22675261646E+02  0.10566000000E+00 0. -1.
        -13    1    4    4    0    0  0.34462788243E+01  0.10469758392E+02  0.13381014630E+02  0.17336533537E+02  0.10566000000E+00 0.  1.
         14    1    4    4    0    0  0.39723636793E+01  0.10752428043E+02  0.16118404884E+02  0.19778709716E+02  0.00000000000E+00 0. -1.
<mgrwt>
<rscale>  0 0.82026851E+02</rscale>
<asrwt>0</asrwt>
<pdfrwt beam="1">  1        2 0.13164600E-02 0.82026851E+02</pdfrwt>
<pdfrwt beam="2">  1       -1 0.30242501E-01 0.82026851E+02</pdfrwt>
<totfact> 0.93944878E+04</totfact>
</mgrwt>
</event>
<event>
 8    1  0.2433467E-020  0.7955128E+02  0.7818608E-02  0.1330330E+00
         -1   -1    0    0    0  501 -0.00000000000E+00  0.00000000000E+00  0.10801191623E+03  0.10801191635E+03  0.50400000000E-02 0.  1.
          2   -1    0    0  501    0  0.00000000000E+00 -0.00000000000E+00 -0.14647473641E+02  0.14647473863E+02  0.25500000000E-02 0. -1.
         24    2    1    2    0    0 -0.35527136788E-14  0.35527136788E-14  0.93364442593E+02  0.12265939021E+03  0.79551284510E+02 0.  0.
         66    2    3    3    0    0 -0.30066435373E+02  0.23121375045E+02  0.28369743368E+02  0.47407077219E+02  0.20000279146E+01 0.  0.
        -13    1    3    3    0    0  0.30066435373E+02 -0.23121375045E+02  0.64994699224E+02  0.75252312996E+02  0.10566000000E+00 0.  1.
         13    1    4    4    0    0 -0.10844105971E+02  0.89322205118E+01  0.10164874962E+02  0.17341137351E+02  0.10566000000E+00 0. -1.
        -13    1    4    4    0    0 -0.72383027803E+00  0.70851353693E+00  0.10397514266E+01  0.14553929944E+01  0.10566000000E+00 0.  1.
        -14    1    4    4    0    0 -0.18498499123E+02  0.13480640996E+02  0.17165116979E+02  0.28610546873E+02  0.00000000000E+00 0.  1.
<mgrwt>
<rscale>  0 0.79551285E+02</rscale>
<asrwt>0</asrwt>
<pdfrwt beam="1">  1        2 0.22534575E-02 0.79551285E+02</pdfrwt>
<pdfrwt beam="2">  1       -1 0.16617218E-01 0.79551285E+02</pdfrwt>
<totfact> 0.11821494E+05</totfact>
</mgrwt>
</event>
<event>
 8    1  0.2433467E-020  0.8158655E+02  0.7818608E-02  0.1324608E+00
          2   -1    0    0  501    0  0.00000000000E+00  0.00000000000E+00  0.20492153790E+03  0.20492153791E+03  0.25500000000E-02 0. -1.
         -1   -1    0    0    0  501 -0.00000000000E+00 -0.00000000000E+00 -0.81206251219E+01  0.81206266859E+01  0.50400000000E-02 0.  1.
         24    2    1    2    0    0  0.00000000000E+00  0.17763568394E-14  0.19680091278E+03  0.21304216460E+03  0.81586546856E+02 0.  0.
         66    2    3    3    0    0  0.28622444796E+01  0.14879908565E+02  0.19729006313E+03  0.19788120967E+03  0.20000016409E+01 0.  0.
        -13    1    3    3    0    0 -0.28622444796E+01 -0.14879908565E+02 -0.48915035566E+00  0.15160954932E+02  0.10566000000E+00 0.  1.
         13    1    4    4    0    0 -0.26518782793E-01  0.25886987088E+01  0.36455675134E+02  0.36547632998E+02  0.10566000000E+00 0.  1.
        -13    1    4    4    0    0  0.10075209184E+01  0.63827376665E+01  0.86397034243E+02  0.86638404467E+02  0.10566000000E+00 0. -1.
        -14    1    4    4    0    0  0.18812423439E+01  0.59084721894E+01  0.74437353755E+02  0.74695172203E+02  0.00000000000E+00 0.  1.
<mgrwt>
<rscale>  0 0.81586547E+02</rscale>
<asrwt>0</asrwt>
<pdfrwt beam="1">  1        2 0.31526389E-01 0.81586547E+02</pdfrwt>
<pdfrwt beam="2">  1       -1 0.12493271E-02 0.81586547E+02</pdfrwt>
<totfact> 0.21121970E+05</totfact>
</mgrwt>
</event>
<event>
 8    1  0.2433467E-020  0.7805371E+02  0.7818608E-02  0.1334667E+00
          2   -1    0    0  501    0  0.00000000000E+00  0.00000000000E+00  0.50210441656E+01  0.50210448132E+01  0.25500000000E-02 0. -1.
         -1   -1    0    0    0  501 -0.00000000000E+00 -0.00000000000E+00 -0.30334237558E+03  0.30334237562E+03  0.50400000000E-02 0.  1.
         24    2    1    2    0    0  0.00000000000E+00  0.71054273576E-14 -0.29832133141E+03  0.30836342043E+03  0.78053714104E+02 0.  0.
         66    2    3    3    0    0 -0.12672435974E+02 -0.34667699134E+02 -0.19901945150E+03  0.20242327453E+03  0.19999993487E+01 0.  0.
        -13    1    3    3    0    0  0.12672435974E+02  0.34667699134E+02 -0.99301879909E+02  0.10594014590E+03  0.10566000000E+00 0.  1.
         13    1    4    4    0    0 -0.56622916842E+01 -0.16342735385E+02 -0.92486167552E+02  0.94089579122E+02  0.10566000000E+00 0. -1.
        -13    1    4    4    0    0 -0.32783495509E+01 -0.10444763483E+02 -0.59993314489E+02  0.60984011080E+02  0.10566000000E+00 0.  1.
         14    1    4    4    0    0 -0.37317947388E+01 -0.78802002658E+01 -0.46539969461E+02  0.47349684324E+02  0.00000000000E+00 0. -1.
<mgrwt>
<rscale>  0 0.78053714E+02</rscale>
<asrwt>0</asrwt>
<pdfrwt beam="1">  1        2 0.77246862E-03 0.78053714E+02</pdfrwt>
<pdfrwt beam="2">  1       -1 0.46668044E-01 0.78053714E+02</pdfrwt>
<totfact> 0.91649002E+04</totfact>
</mgrwt>
</event>
<event>
 8    1  0.2433467E-020  0.7844106E+02  0.7818608E-02  0.1333535E+00
         -1   -1    0    0    0  501 -0.00000000000E+00  0.00000000000E+00  0.25798257529E+02  0.25798258021E+02  0.50400000000E-02 0.  1.
          2   -1    0    0  501    0  0.00000000000E+00 -0.00000000000E+00 -0.59626113902E+02  0.59626113956E+02  0.25500000000E-02 0. -1.
         24    2    1    2    0    0  0.00000000000E+00  0.00000000000E+00 -0.33827856373E+02  0.85424371978E+02  0.78441057241E+02 0.  0.
         66    2    3    3    0    0  0.50723594369E+01 -0.30651761915E+02 -0.42947508038E+02  0.53044771157E+02  0.19999904280E+01 0.  0.
        -13    1    3    3    0    0 -0.50723594369E+01  0.30651761915E+02  0.91196516650E+01  0.32379600821E+02  0.10566000000E+00 0.  1.
         13    1    4    4    0    0  0.36528022709E+01 -0.22095308611E+02 -0.31184300530E+02  0.38392934124E+02  0.10566000000E+00 0. -1.
        -13    1    4    4    0    0  0.14803468451E+01 -0.81722408252E+01 -0.10890739592E+02  0.13696580587E+02  0.10566000000E+00 0.  1.
         14    1    4    4    0    0 -0.60789679134E-01 -0.38421247874E+00 -0.87246791592E+00  0.95525644631E+00  0.00000000000E+00 0. -1.
<mgrwt>
<rscale>  0 0.78441057E+02</rscale>
<asrwt>0</asrwt>
<pdfrwt beam="1">  1        2 0.91732483E-02 0.78441057E+02</pdfrwt>
<pdfrwt beam="2">  1       -1 0.39689628E-02 0.78441057E+02</pdfrwt>
<totfact> 0.16397688E+05</totfact>
</mgrwt>
</event>
<event>
 8    1  0.2433467E-020  0.7972070E+02  0.7818608E-02  0.1329846E+00
          2   -1    0    0  501    0  0.00000000000E+00  0.00000000000E+00  0.19518318548E+03  0.19518318549E+03  0.25500000000E-02 0. -1.
         -1   -1    0    0    0  501 -0.00000000000E+00 -0.00000000000E+00 -0.81402876108E+01  0.81402891710E+01  0.50400000000E-02 0.  1.
         24    2    1    2    0    0 -0.35527136788E-14  0.00000000000E+00  0.18704289787E+03  0.20332347466E+03  0.79720698112E+02 0.  0.
         66    2    3    3    0    0 -0.30693424013E+02  0.13129235293E+02  0.14901231754E+03  0.15271913393E+03  0.19999983508E+01 0.  0.
        -13    1    3    3    0    0  0.30693424013E+02 -0.13129235293E+02  0.38030580327E+02  0.50604340733E+02  0.10566000000E+00 0.  1.
         13    1    4    4    0    0 -0.25450713883E+01  0.90026459380E+00  0.11440556041E+02  0.11755226551E+02  0.10566000000E+00 0. -1.
        -13    1    4    4    0    0 -0.29709790665E+01  0.79424654067E+00  0.12802067969E+02  0.13166687226E+02  0.10566000000E+00 0.  1.
        -14    1    4    4    0    0 -0.25177373558E+02  0.11434724158E+02  0.12476969353E+03  0.12779722015E+03  0.00000000000E+00 0.  1.
<mgrwt>
<rscale>  0 0.79720698E+02</rscale>
<asrwt>0</asrwt>
<pdfrwt beam="1">  1        2 0.30028179E-01 0.79720698E+02</pdfrwt>
<pdfrwt beam="2">  1       -1 0.12523522E-02 0.79720698E+02</pdfrwt>
<totfact> 0.22075874E+05</totfact>
</mgrwt>
</event>
<event>
 8    1  0.2433467E-020  0.8341511E+02  0.7818608E-02  0.1319630E+00
          2   -1    0    0  501    0  0.00000000000E+00  0.00000000000E+00  0.95329364596E+02  0.95329364630E+02  0.25500000000E-02 0. -1.
         -1   -1    0    0    0  501 -0.00000000000E+00 -0.00000000000E+00 -0.18247472840E+02  0.18247473536E+02  0.50400000000E-02 0.  1.
         24    2    1    2    0    0  0.00000000000E+00  0.00000000000E+00  0.77081891756E+02  0.11357683817E+03  0.83415107332E+02 0.  0.
         66    2    3    3    0    0 -0.31682084862E+02 -0.20159919972E+02  0.13928561663E+02  0.40102140886E+02  0.19999998026E+01 0.  0.
        -13    1    3    3    0    0  0.31682084862E+02  0.20159919972E+02  0.63153330093E+02  0.73474697279E+02  0.10566000000E+00 0.  1.
         13    1    4    4    0    0 -0.10263990046E+02 -0.58034533485E+01  0.45215992026E+01  0.12628760265E+02  0.10566000000E+00 0. -1.
        -13    1    4    4    0    0 -0.17113035624E+01 -0.84262417301E+00  0.86688369408E+00  0.20979100920E+01  0.10566000000E+00 0.  1.
         14    1    4    4    0    0 -0.19706791253E+02 -0.13513842451E+02  0.85400787663E+01  0.25375470530E+02  0.00000000000E+00 0. -1.
<mgrwt>
<rscale>  0 0.83415107E+02</rscale>
<asrwt>0</asrwt>
<pdfrwt beam="1">  1        2 0.14666057E-01 0.83415107E+02</pdfrwt>
<pdfrwt beam="2">  1       -1 0.28073035E-02 0.83415107E+02</pdfrwt>
<totfact> 0.15632459E+05</totfact>
</mgrwt>
</event>
<event>
 8    1  0.2433467E-020  0.7925460E+02  0.7818608E-02  0.1331180E+00
         -1   -1    0    0    0  501 -0.00000000000E+00  0.00000000000E+00  0.22214818288E+02  0.22214818859E+02  0.50400000000E-02 0.  1.
          2   -1    0    0  501    0  0.00000000000E+00 -0.00000000000E+00 -0.70688085962E+02  0.70688086008E+02  0.25500000000E-02 0. -1.
         24    2    1    2    0    0 -0.22204460493E-15  0.71054273576E-14 -0.48473267674E+02  0.92902904867E+02  0.79254602729E+02 0.  0.
         66    2    3    3    0    0 -0.19528210246E+01  0.38391511801E+02 -0.13094696566E+02  0.40659473261E+02  0.19999998475E+01 0.  0.
        -13    1    3    3    0    0  0.19528210246E+01 -0.38391511801E+02 -0.35378571109E+02  0.52243431607E+02  0.10566000000E+00 0.  1.
         13    1    4    4    0    0 -0.91212848764E+00  0.20690621685E+02 -0.67436430606E+01  0.21781223332E+02  0.10566000000E+00 0. -1.
        -13    1    4    4    0    0 -0.10707727860E+00  0.19965715027E+00 -0.12126810823E+00  0.27784620011E+00  0.10566000000E+00 0.  1.
        -14    1    4    4    0    0 -0.93361525841E+00  0.17501232966E+02 -0.62297853967E+01  0.18600403729E+02  0.00000000000E+00 0.  1.
<mgrwt>
<rscale>  0 0.79254603E+02</rscale>
<asrwt>0</asrwt>
<pdfrwt beam="1">  1        2 0.10875090E-01 0.79254603E+02</pdfrwt>
<pdfrwt beam="2">  1       -1 0.34176644E-02 0.79254603E+02</pdfrwt>
<totfact> 0.16600174E+05</totfact>
</mgrwt>
</event>
<event>
 8    1  0.2433467E-020  0.8067899E+02  0.7818608E-02  0.1327136E+00
          2   -1    0    0  501    0  0.00000000000E+00  0.00000000000E+00  0.16550069001E+03  0.16550069003E+03  0.25500000000E-02 0. -1.
         -1   -1    0    0    0  501 -0.00000000000E+00 -0.00000000000E+00 -0.98324347959E+01  0.98324360877E+01  0.50400000000E-02 0.  1.
         24    2    1    2    0    0  0.00000000000E+00  0.00000000000E+00  0.15566825521E+03  0.17533312612E+03  0.80678990032E+02 0.  0.
         66    2    3    3    0    0 -0.57409288867E+01  0.16647641713E+02  0.15669413959E+03  0.15769323264E+03  0.19999994979E+01 0.  0.
        -13    1    3    3    0    0  0.57409288867E+01 -0.16647641713E+02 -0.10258843805E+01  0.17639893478E+02  0.10566000000E+00 0.  1.
         13    1    4    4    0    0 -0.22086967891E+01  0.43554574697E+01  0.44522624737E+02  0.44789771475E+02  0.10566000000E+00 0. -1.
        -13    1    4    4    0    0 -0.62658365988E+00  0.23823627531E+01  0.18217515306E+02  0.18383614643E+02  0.10566000000E+00 0.  1.
        -14    1    4    4    0    0 -0.29056484377E+01  0.99098214907E+01  0.93953999551E+02  0.94519846521E+02  0.00000000000E+00 0.  1.
<mgrwt>
<rscale>  0 0.80678990E+02</rscale>
<asrwt>0</asrwt>
<pdfrwt beam="1">  1        2 0.25461644E-01 0.80678990E+02</pdfrwt>
<pdfrwt beam="2">  1       -1 0.15126824E-02 0.80678990E+02</pdfrwt>
<totfact> 0.20226092E+05</totfact>
</mgrwt>
</event>
<event>
 8    1  0.2433467E-020  0.7968319E+02  0.7818608E-02  0.1329953E+00
          2   -1    0    0  501    0  0.00000000000E+00  0.00000000000E+00  0.22516047745E+03  0.22516047746E+03  0.25500000000E-02 0. -1.
         -1   -1    0    0    0  501 -0.00000000000E+00 -0.00000000000E+00 -0.70498718970E+01  0.70498736985E+01  0.50400000000E-02 0.  1.
         24    2    1    2    0    0  0.00000000000E+00  0.00000000000E+00  0.21811060555E+03  0.23221035116E+03  0.79683191028E+02 0.  0.
         66    2    3    3    0    0  0.32482230267E+02 -0.13100243185E+02  0.16431145989E+03  0.16801478362E+03  0.20000018462E+01 0.  0.
        -13    1    3    3    0    0 -0.32482230267E+02  0.13100243185E+02  0.53799145658E+02  0.64195567543E+02  0.10566000000E+00 0.  1.
         13    1    4    4    0    0  0.63998696614E+01 -0.28065111550E+01  0.30171970892E+02  0.30970854494E+02  0.10566000000E+00 0. -1.
        -13    1    4    4    0    0  0.71180969483E+01 -0.32713556995E+01  0.38904446713E+02  0.39685465984E+02  0.10566000000E+00 0.  1.
        -14    1    4    4    0    0  0.18964263657E+02 -0.70223763308E+01  0.95235042287E+02  0.97358463139E+02  0.00000000000E+00 0.  1.
<mgrwt>
<rscale>  0 0.79683191E+02</rscale>
<asrwt>0</asrwt>
<pdfrwt beam="1">  1        2 0.34640077E-01 0.79683191E+02</pdfrwt>
<pdfrwt beam="2">  1       -1 0.10845957E-02 0.79683191E+02</pdfrwt>
<totfact> 0.23236390E+05</totfact>
</mgrwt>
</event>
<event>
 8    1  0.2433467E-020  0.7951293E+02  0.7818608E-02  0.1330439E+00
          2   -1    0    0  501    0  0.00000000000E+00  0.00000000000E+00  0.35668198886E+02  0.35668198977E+02  0.25500000000E-02 0. -1.
         -1   -1    0    0    0  501 -0.00000000000E+00 -0.00000000000E+00 -0.44313322484E+02  0.44313322771E+02  0.50400000000E-02 0.  1.
         24    2    1    2    0    0  0.00000000000E+00  0.00000000000E+00 -0.86451235983E+01  0.79981521748E+02  0.79512927623E+02 0.  0.
         66    2    3    3    0    0 -0.31284437030E+02  0.24474257800E+02 -0.33891225947E+01  0.39914802320E+02  0.19999992669E+01 0.  0.
        -13    1    3    3    0    0  0.31284437030E+02 -0.24474257800E+02 -0.52560010036E+01  0.40066719429E+02  0.10566000000E+00 0.  1.
         13    1    4    4    0    0 -0.19249990194E+01  0.15402438042E+01 -0.62298376299E+00  0.25450432228E+01  0.10566000000E+00 0. -1.
        -13    1    4    4    0    0 -0.50263664479E+00  0.48873053252E+00 -0.50750692576E-01  0.71080292522E+00  0.10566000000E+00 0. -1.
         14    1    4    4    0    0 -0.28856801366E+02  0.22445283464E+02 -0.27153881391E+01  0.36658956172E+02  0.00000000000E+00 0. -1.
<mgrwt>
<rscale>  0 0.79512928E+02</rscale>
<asrwt>0</asrwt>
<pdfrwt beam="1">  1        2 0.54874152E-02 0.79512928E+02</pdfrwt>
<pdfrwt beam="2">  1       -1 0.68174343E-02 0.79512928E+02</pdfrwt>
<totfact> 0.14165103E+05</totfact>
</mgrwt>
</event>
<event>
 8    1  0.2433467E-020  0.7921580E+02  0.7818608E-02  0.1331292E+00
          2   -1    0    0  501    0  0.00000000000E+00  0.00000000000E+00  0.12742029007E+03  0.12742029009E+03  0.25500000000E-02 0. -1.
         -1   -1    0    0    0  501 -0.00000000000E+00 -0.00000000000E+00 -0.12311898257E+02  0.12311899288E+02  0.50400000000E-02 0.  1.
         24    2    1    2    0    0 -0.71054273576E-14  0.00000000000E+00  0.11510839181E+03  0.13973218938E+03  0.79215799460E+02 0.  0.
         66    2    3    3    0    0 -0.37758198567E+02  0.10771099764E+02  0.48756502838E+02  0.62633016341E+02  0.20000044775E+01 0.  0.
        -13    1    3    3    0    0  0.37758198567E+02 -0.10771099764E+02  0.66351888972E+02  0.77099173040E+02  0.10566000000E+00 0.  1.
         13    1    4    4    0    0 -0.15519382108E+02  0.46075894414E+01  0.18731638100E+02  0.24758160906E+02  0.10566000000E+00 0. -1.
        -13    1    4    4    0    0 -0.12394413739E+01  0.24327373550E+00  0.15486339678E+01  0.20012066938E+01  0.10566000000E+00 0. -1.
         14    1    4    4    0    0 -0.20999375085E+02  0.59202365876E+01  0.28476230770E+02  0.35873648742E+02  0.00000000000E+00 0. -1.
<mgrwt>
<rscale>  0 0.79215799E+02</rscale>
<asrwt>0</asrwt>
<pdfrwt beam="1">  1        2 0.19603123E-01 0.79215799E+02</pdfrwt>
<pdfrwt beam="2">  1       -1 0.18941381E-02 0.79215799E+02</pdfrwt>
<totfact> 0.19534544E+05</totfact>
</mgrwt>
</event>
<event>
 8    1  0.2433467E-020  0.7771428E+02  0.7818608E-02  0.1335666E+00
         -1   -1    0    0    0  501 -0.00000000000E+00  0.00000000000E+00  0.47373775409E+01  0.47373802219E+01  0.50400000000E-02 0.  1.
          2   -1    0    0  501    0  0.00000000000E+00 -0.00000000000E+00 -0.31871576535E+03  0.31871576536E+03  0.25500000000E-02 0. -1.
         24    2    1    2    0    0 -0.71054273576E-14 -0.88817841970E-15 -0.31397838780E+03  0.32345314558E+03  0.77714280384E+02 0.  0.
         66    2    3    3    0    0  0.31525046177E+02  0.61667659043E+01 -0.24790018929E+03  0.24998072204E+03  0.20000002456E+01 0.  0.
        -13    1    3    3    0    0 -0.31525046177E+02 -0.61667659043E+01 -0.66078198513E+02  0.73472423541E+02  0.10566000000E+00 0.  1.
         13    1    4    4    0    0  0.16527659795E+02  0.42317995083E+01 -0.13231001431E+03  0.13340548233E+03  0.10566000000E+00 0. -1.
        -13    1    4    4    0    0  0.10391703595E+02  0.13180523257E+01 -0.79652662888E+02  0.80338550116E+02  0.10566000000E+00 0.  1.
         14    1    4    4    0    0  0.46056827870E+01  0.61691407035E+00 -0.35937512097E+02  0.36236689593E+02  0.00000000000E+00 0. -1.
<mgrwt>
<rscale>  0 0.77714280E+02</rscale>
<asrwt>0</asrwt>
<pdfrwt beam="1">  1        2 0.49033178E-01 0.77714280E+02</pdfrwt>
<pdfrwt beam="2">  1       -1 0.72882777E-03 0.77714280E+02</pdfrwt>
<totfact> 0.28111217E+05</totfact>
</mgrwt>
</event>
<event>
 8    1  0.2433467E-020  0.8085856E+02  0.7818608E-02  0.1326632E+00
         -1   -1    0    0    0  501 -0.00000000000E+00  0.00000000000E+00  0.92593928995E+01  0.92593942712E+01  0.50400000000E-02 0.  1.
          2   -1    0    0  501    0  0.00000000000E+00 -0.00000000000E+00 -0.17652629861E+03  0.17652629863E+03  0.25500000000E-02 0. -1.
         24    2    1    2    0    0  0.35527136788E-14 -0.17763568394E-14 -0.16726690571E+03  0.18578569290E+03  0.80858555145E+02 0.  0.
         66    2    3    3    0    0 -0.26186219049E+02  0.10945821396E+02 -0.14975945961E+03  0.15243826560E+03  0.20000011452E+01 0.  0.
        -13    1    3    3    0    0  0.26186219049E+02 -0.10945821396E+02 -0.17507446103E+02  0.33347427295E+02  0.10566000000E+00 0.  1.
         13    1    4    4    0    0 -0.18505264344E+02  0.79376060653E+01 -0.11018836890E+03  0.11201311621E+03  0.10566000000E+00 0. -1.
        -13    1    4    4    0    0 -0.19203731700E+01  0.60580260608E+00 -0.89277996915E+01  0.91526827366E+01  0.10566000000E+00 0.  1.
         14    1    4    4    0    0 -0.57605815346E+01  0.24024127244E+01 -0.30643291012E+02  0.31272466653E+02  0.00000000000E+00 0. -1.
<mgrwt>
<rscale>  0 0.80858555E+02</rscale>
<asrwt>0</asrwt>
<pdfrwt beam="1">  1        2 0.27157890E-01 0.80858555E+02</pdfrwt>
<pdfrwt beam="2">  1       -1 0.14245222E-02 0.80858555E+02</pdfrwt>
<totfact> 0.20545776E+05</totfact>
</mgrwt>
</event>
<event>
 8    1  0.2433467E-020  0.8004626E+02  0.7818608E-02  0.1328920E+00
         -1   -1    0    0    0  501 -0.00000000000E+00  0.00000000000E+00  0.53516857039E+01  0.53516880771E+01  0.50400000000E-02 0.  1.
          2   -1    0    0  501    0  0.00000000000E+00 -0.00000000000E+00 -0.29931697845E+03  0.29931697846E+03  0.25500000000E-02 0. -1.
         24    2    1    2    0    0 -0.35527136788E-14 -0.88817841970E-15 -0.29396529275E+03  0.30466866654E+03  0.80046255569E+02 0.  0.
         66    2    3    3    0    0 -0.29329414179E+02  0.45835778522E+01 -0.24910630129E+03  0.25087680841E+03  0.19999837550E+01 0.  0.
        -13    1    3    3    0    0  0.29329414179E+02 -0.45835778522E+01 -0.44858991454E+02  0.53791858123E+02  0.10566000000E+00 0.  1.
         13    1    4    4    0    0 -0.14631563846E+02  0.23273927486E+01 -0.12869403006E+03  0.12954406183E+03  0.10566000000E+00 0. -1.
        -13    1    4    4    0    0 -0.11309465523E+01 -0.12014644449E+00 -0.96825264092E+01  0.97496644543E+01  0.10566000000E+00 0.  1.
        -14    1    4    4    0    0 -0.13566903781E+02  0.23763315481E+01 -0.11072974482E+03  0.11158308213E+03  0.00000000000E+00 0.  1.
<mgrwt>
<rscale>  0 0.80046256E+02</rscale>
<asrwt>0</asrwt>
<pdfrwt beam="1">  1        2 0.46048753E-01 0.80046256E+02</pdfrwt>
<pdfrwt beam="2">  1       -1 0.82333668E-03 0.80046256E+02</pdfrwt>
<totfact> 0.25434878E+05</totfact>
</mgrwt>
</event>
<event>
 8    1  0.2433467E-020  0.8385013E+02  0.7818608E-02  0.1318467E+00
          2   -1    0    0  501    0  0.00000000000E+00  0.00000000000E+00  0.44820675090E+03  0.44820675091E+03  0.25500000000E-02 0. -1.
         -1   -1    0    0    0  501 -0.00000000000E+00 -0.00000000000E+00 -0.39216503775E+01  0.39216536162E+01  0.50400000000E-02 0.  1.
         24    2    1    2    0    0  0.00000000000E+00  0.00000000000E+00  0.44428510053E+03  0.45212840453E+03  0.83850126003E+02 0.  0.
         66    2    3    3    0    0  0.17840799111E+02 -0.35944943825E+02  0.28728149450E+03  0.29007755890E+03  0.19999987744E+01 0.  0.
        -13    1    3    3    0    0 -0.17840799111E+02  0.35944943825E+02  0.15700360602E+03  0.16205084562E+03  0.10566000000E+00 0.  1.
         13    1    4    4    0    0  0.97146634665E+01 -0.19619577713E+02  0.15421934991E+03  0.15576559815E+03  0.10566000000E+00 0. -1.
        -13    1    4    4    0    0  0.45572180214E+01 -0.91862817637E+01  0.79391537717E+02  0.80051130122E+02  0.10566000000E+00 0.  1.
        -14    1    4    4    0    0  0.35689176227E+01 -0.71390843485E+01  0.53670606875E+02  0.54260830630E+02  0.00000000000E+00 0.  1.
<mgrwt>
<rscale>  0 0.83850126E+02</rscale>
<asrwt>0</asrwt>
<pdfrwt beam="1">  1        2 0.68954854E-01 0.83850126E+02</pdfrwt>
<pdfrwt beam="2">  1       -1 0.60333135E-03 0.83850126E+02</pdfrwt>
<totfact> 0.25980991E+05</totfact>
</mgrwt>
</event>
<event>
 8    1  0.2433467E-020  0.7965072E+02  0.7818608E-02  0.1330046E+00
         -1   -1    0    0    0  501 -0.00000000000E+00  0.00000000000E+00  0.29457085591E+02  0.29457086022E+02  0.50400000000E-02 0.  1.
          2   -1    0    0  501    0  0.00000000000E+00 -0.00000000000E+00 -0.53843052826E+02  0.53843052886E+02  0.25500000000E-02 0. -1.
         24    2    1    2    0    0  0.00000000000E+00  0.35527136788E-14 -0.24385967235E+02  0.83300138908E+02  0.79650723437E+02 0.  0.
         66    2    3    3    0    0  0.26012654934E+02 -0.29961214985E+02 -0.15461498726E+02  0.42630863990E+02  0.20000003925E+01 0.  0.
        -13    1    3    3    0    0 -0.26012654934E+02  0.29961214985E+02 -0.89244685090E+01  0.40669274918E+02  0.10566000000E+00 0.  1.
         13    1    4    4    0    0  0.88076366745E+00 -0.10747888802E+01 -0.31885400892E+00  0.14295970375E+01  0.10566000000E+00 0. -1.
        -13    1    4    4    0    0  0.92171495636E+01 -0.96855960026E+01 -0.48857733922E+01  0.14235468439E+02  0.10566000000E+00 0.  1.
         14    1    4    4    0    0  0.15914741703E+02 -0.19200830102E+02 -0.10256871325E+02  0.26965798514E+02  0.00000000000E+00 0. -1.
<mgrwt>
<rscale>  0 0.79650723E+02</rscale>
<asrwt>0</asrwt>
<pdfrwt beam="1">  1        2 0.82835466E-02 0.79650723E+02</pdfrwt>
<pdfrwt beam="2">  1       -1 0.45318594E-02 0.79650723E+02</pdfrwt>
<totfact> 0.15371199E+05</totfact>
</mgrwt>
</event>
<event>
 8    1  0.2433467E-020  0.7957220E+02  0.7818608E-02  0.1330270E+00
         -1   -1    0    0    0  501 -0.00000000000E+00  0.00000000000E+00  0.78707123895E+02  0.78707124056E+02  0.50400000000E-02 0.  1.
          2   -1    0    0  501    0  0.00000000000E+00 -0.00000000000E+00 -0.20111695488E+02  0.20111695650E+02  0.25500000000E-02 0. -1.
         24    2    1    2    0    0  0.00000000000E+00  0.00000000000E+00  0.58595428407E+02  0.98818819706E+02  0.79572199278E+02 0.  0.
         66    2    3    3    0    0  0.35869233428E+02  0.16465827036E+02  0.35298277838E+02  0.52987675760E+02  0.19999993541E+01 0.  0.
        -13    1    3    3    0    0 -0.35869233428E+02 -0.16465827036E+02  0.23297150569E+02  0.45831143946E+02  0.10566000000E+00 0.  1.
         13    1    4    4    0    0  0.67479708337E+01  0.29908954209E+01  0.71014308603E+01  0.10243146494E+02  0.10566000000E+00 0. -1.
        -13    1    4    4    0    0  0.12749278420E+01  0.79673169307E+00  0.16725404215E+01  0.22513946545E+01  0.10566000000E+00 0.  1.
         14    1    4    4    0    0  0.27846334753E+02  0.12678199922E+02  0.26524306556E+02  0.40493134612E+02  0.00000000000E+00 0. -1.
<mgrwt>
<rscale>  0 0.79572199E+02</rscale>
<asrwt>0</asrwt>
<pdfrwt beam="1">  1        2 0.30941069E-02 0.79572199E+02</pdfrwt>
<pdfrwt beam="2">  1       -1 0.12108789E-01 0.79572199E+02</pdfrwt>
<totfact> 0.12622441E+05</totfact>
</mgrwt>
</event>
<event>
 8    1  0.2433467E-020  0.7997024E+02  0.7818608E-02  0.1329136E+00
         -1   -1    0    0    0  501 -0.00000000000E+00  0.00000000000E+00  0.39883222332E+01  0.39883254177E+01  0.50400000000E-02 0.  1.
          2   -1    0    0  501    0  0.00000000000E+00 -0.00000000000E+00 -0.40087264475E+03  0.40087264475E+03  0.25500000000E-02 0. -1.
         24    2    1    2    0    0  0.00000000000E+00  0.00000000000E+00 -0.39688432251E+03  0.40486097017E+03  0.79970242665E+02 0.  0.
         66    2    3    3    0    0 -0.19145489878E+01  0.32380110808E+02 -0.31671856157E+03  0.31838150750E+03  0.19999989873E+01 0.  0.
        -13    1    3    3    0    0  0.19145489878E+01 -0.32380110808E+02 -0.80165760937E+02  0.86479462675E+02  0.10566000000E+00 0.  1.
         13    1    4    4    0    0 -0.15867207638E+01  0.25343995579E+02 -0.24107993473E+03  0.24241365863E+03  0.10566000000E+00 0. -1.
        -13    1    4    4    0    0 -0.36905244984E+00  0.60553536617E+01 -0.63226556040E+02  0.63517021816E+02  0.10566000000E+00 0.  1.
        -14    1    4    4    0    0  0.41224225799E-01  0.98076156763E+00 -0.12412070801E+02  0.12450827051E+02  0.00000000000E+00 0.  1.
<mgrwt>
<rscale>  0 0.79970243E+02</rscale>
<asrwt>0</asrwt>
<pdfrwt beam="1">  1        2 0.61672683E-01 0.79970243E+02</pdfrwt>
<pdfrwt beam="2">  1       -1 0.61358860E-03 0.79970243E+02</pdfrwt>
<totfact> 0.28302623E+05</totfact>
</mgrwt>
</event>
<event>
 8    1  0.2433467E-020  0.7989529E+02  0.7818608E-02  0.1329349E+00
          2   -1    0    0  501    0  0.00000000000E+00  0.00000000000E+00  0.10855155943E+03  0.10855155946E+03  0.25500000000E-02 0. -1.
         -1   -1    0    0    0  501 -0.00000000000E+00 -0.00000000000E+00 -0.14700978403E+02  0.14700979267E+02  0.50400000000E-02 0.  1.
         24    2    1    2    0    0  0.35527136788E-14  0.35527136788E-14  0.93850581025E+02  0.12325253872E+03  0.79895286114E+02 0.  0.
         66    2    3    3    0    0 -0.25213611538E+02 -0.17874713006E+02  0.85938180904E+02  0.91348795817E+02  0.19999970633E+01 0.  0.
        -13    1    3    3    0    0  0.25213611538E+02  0.17874713006E+02  0.79124001210E+01  0.31903742908E+02  0.10566000000E+00 0.  1.
         13    1    4    4    0    0 -0.65975304568E+01 -0.51963831336E+01  0.21595157507E+02  0.23170925696E+02  0.10566000000E+00 0. -1.
        -13    1    4    4    0    0 -0.14241713477E+02 -0.93248767945E+01  0.49379816435E+02  0.52231763948E+02  0.10566000000E+00 0.  1.
        -14    1    4    4    0    0 -0.43743676039E+01 -0.33534530776E+01  0.14963206962E+02  0.15946106173E+02  0.00000000000E+00 0.  1.
<mgrwt>
<rscale>  0 0.79895286E+02</rscale>
<asrwt>0</asrwt>
<pdfrwt beam="1">  1        2 0.16700240E-01 0.79895286E+02</pdfrwt>
<pdfrwt beam="2">  1       -1 0.22616891E-02 0.79895286E+02</pdfrwt>
<totfact> 0.18207723E+05</totfact>
</mgrwt>
</event>
<event>
 8    1  0.2433467E-020  0.8070342E+02  0.7818608E-02  0.1327067E+00
         -1   -1    0    0    0  501 -0.00000000000E+00  0.00000000000E+00  0.12271953819E+02  0.12271954853E+02  0.50400000000E-02 0.  1.
          2   -1    0    0  501    0  0.00000000000E+00 -0.00000000000E+00 -0.13268142314E+03  0.13268142316E+03  0.25500000000E-02 0. -1.
         24    2    1    2    0    0 -0.35527136788E-14 -0.88817841970E-15 -0.12040946932E+03  0.14495337801E+03  0.80703416882E+02 0.  0.
         66    2    3    3    0    0 -0.19315828677E+02 -0.39162375669E+01 -0.12343398208E+03  0.12501354362E+03  0.20000006262E+01 0.  0.
        -13    1    3    3    0    0  0.19315828677E+02  0.39162375669E+01  0.30245127619E+01  0.19939834393E+02  0.10566000000E+00 0.  1.
         13    1    4    4    0    0 -0.20219806262E+01 -0.56142950654E+00 -0.10883671569E+02  0.11084632588E+02  0.10566000000E+00 0. -1.
        -13    1    4    4    0    0 -0.38260670192E+01 -0.12579184174E+01 -0.27395359464E+02  0.27690034882E+02  0.10566000000E+00 0. -1.
        -14    1    4    4    0    0 -0.13467781031E+02 -0.20968896430E+01 -0.85154951047E+02  0.86238876151E+02  0.00000000000E+00 0.  1.
<mgrwt>
<rscale>  0 0.80703417E+02</rscale>
<asrwt>0</asrwt>
<pdfrwt beam="1">  1        2 0.20412526E-01 0.80703417E+02</pdfrwt>
<pdfrwt beam="2">  1       -1 0.18879931E-02 0.80703417E+02</pdfrwt>
<totfact> 0.18823976E+05</totfact>
</mgrwt>
</event>
<event>
 8    1  0.2433467E-020  0.7918513E+02  0.7818608E-02  0.1331380E+00
         -1   -1    0    0    0  501 -0.00000000000E+00  0.00000000000E+00  0.13980364953E+01  0.13980455800E+01  0.50400000000E-02 0.  1.
          2   -1    0    0  501    0  0.00000000000E+00 -0.00000000000E+00 -0.11212627832E+04  0.11212627832E+04  0.25500000000E-02 0. -1.
         24    2    1    2    0    0  0.00000000000E+00  0.44408920985E-15 -0.11198647467E+04  0.11226608288E+04  0.79185134788E+02 0.  0.
         66    2    3    3    0    0  0.28249569561E+02 -0.17914120573E+01 -0.95224904206E+03  0.95267176165E+03  0.20000001364E+01 0.  0.
        -13    1    3    3    0    0 -0.28249569561E+02  0.17914120573E+01 -0.16761570462E+03  0.16998906711E+03  0.10566000000E+00 0.  1.
         13    1    4    4    0    0  0.68934370643E+01  0.50613096509E-01 -0.23268148176E+03  0.23278360156E+03  0.10566000000E+00 0.  1.
        -13    1    4    4    0    0  0.76841171241E+01 -0.94838622282E+00 -0.23962374049E+03  0.23974881285E+03  0.10566000000E+00 0. -1.
         14    1    4    4    0    0  0.13672015373E+02 -0.89363893097E+00 -0.47994381980E+03  0.48013934723E+03  0.00000000000E+00 0. -1.
<mgrwt>
<rscale>  0 0.79185135E+02</rscale>
<asrwt>0</asrwt>
<pdfrwt beam="1">  1        2 0.17250125E+00 0.79185135E+02</pdfrwt>
<pdfrwt beam="2">  1       -1 0.21508413E-03 0.79185135E+02</pdfrwt>
<totfact> 0.36173441E+05</totfact>
</mgrwt>
</event>
<event>
 8    1  0.2433467E-020  0.7631809E+02  0.7818608E-02  0.1339837E+00
          2   -1    0    0  501    0  0.00000000000E+00  0.00000000000E+00  0.60134069809E+01  0.60134075215E+01  0.25500000000E-02 0. -1.
         -1   -1    0    0    0  501 -0.00000000000E+00 -0.00000000000E+00 -0.24214436394E+03  0.24214436400E+03  0.50400000000E-02 0.  1.
         24    2    1    2    0    0  0.00000000000E+00 -0.17763568394E-14 -0.23613095696E+03  0.24815777152E+03  0.76318089130E+02 0.  0.
         66    2    3    3    0    0 -0.36315159763E+02  0.10571540688E+02 -0.10236356549E+03  0.10914599329E+03  0.20000024648E+01 0.  0.
        -13    1    3    3    0    0  0.36315159763E+02 -0.10571540688E+02 -0.13376739147E+03  0.13901177823E+03  0.10566000000E+00 0.  1.
         13    1    4    4    0    0 -0.13232830993E+02  0.37940161571E+01 -0.36748227377E+02  0.39242142577E+02  0.10566000000E+00 0. -1.
        -13    1    4    4    0    0 -0.20057527594E+02  0.64196141099E+01 -0.57053405679E+02  0.60816265276E+02  0.10566000000E+00 0.  1.
        -14    1    4    4    0    0 -0.30248011757E+01  0.35791042047E+00 -0.85619324366E+01  0.90875854367E+01  0.00000000000E+00 0.  1.
<mgrwt>
<rscale>  0 0.76318089E+02</rscale>
<asrwt>0</asrwt>
<pdfrwt beam="1">  1        2 0.92513977E-03 0.76318089E+02</pdfrwt>
<pdfrwt beam="2">  1       -1 0.37252972E-01 0.76318089E+02</pdfrwt>
<totfact> 0.10560904E+05</totfact>
</mgrwt>
</event>
<event>
 8    1  0.2433467E-020  0.7816963E+02  0.7818608E-02  0.1334327E+00
          2   -1    0    0  501    0  0.00000000000E+00  0.00000000000E+00  0.17509476617E+02  0.17509476803E+02  0.25500000000E-02 0. -1.
         -1   -1    0    0    0  501 -0.00000000000E+00 -0.00000000000E+00 -0.87245485443E+02  0.87245485589E+02  0.50400000000E-02 0.  1.
         24    2    1    2    0    0  0.00000000000E+00 -0.35527136788E-14 -0.69736008826E+02  0.10475496239E+03  0.78169631051E+02 0.  0.
         66    2    3    3    0    0 -0.28278304267E+02 -0.21939626649E+02 -0.13931695261E+02  0.38459093091E+02  0.19999997139E+01 0.  0.
        -13    1    3    3    0    0  0.28278304267E+02  0.21939626649E+02 -0.55804313565E+02  0.66295869300E+02  0.10566000000E+00 0.  1.
         13    1    4    4    0    0 -0.51178689601E+01 -0.33473774791E+01 -0.24510439132E+01  0.65891045659E+01  0.10566000000E+00 0. -1.
        -13    1    4    4    0    0 -0.85105399512E+01 -0.71679614892E+01 -0.36695739780E+01  0.11716906562E+02  0.10566000000E+00 0.  1.
        -14    1    4    4    0    0 -0.14649895356E+02 -0.11424287681E+02 -0.78110773694E+01  0.20153081963E+02  0.00000000000E+00 0.  1.
<mgrwt>
<rscale>  0 0.78169631E+02</rscale>
<asrwt>0</asrwt>
<pdfrwt beam="1">  1        2 0.26937657E-02 0.78169631E+02</pdfrwt>
<pdfrwt beam="2">  1       -1 0.13422382E-01 0.78169631E+02</pdfrwt>
<totfact> 0.12917845E+05</totfact>
</mgrwt>
</event>
<event>
 8    1  0.2433467E-020  0.8190352E+02  0.7818608E-02  0.1323735E+00
          2   -1    0    0  501    0  0.00000000000E+00  0.00000000000E+00  0.50048258746E+03  0.50048258747E+03  0.25500000000E-02 0. -1.
         -1   -1    0    0    0  501 -0.00000000000E+00 -0.00000000000E+00 -0.33508572075E+01  0.33508609978E+01  0.50400000000E-02 0.  1.
         24    2    1    2    0    0 -0.88817841970E-15  0.71054273576E-14  0.49713173025E+03  0.50383344847E+03  0.81903519873E+02 0.  0.
         66    2    3    3    0    0 -0.40917229308E+01  0.33259123115E+02  0.39325936736E+03  0.39468955077E+03  0.20000009944E+01 0.  0.
        -13    1    3    3    0    0  0.40917229308E+01 -0.33259123115E+02  0.10387236289E+03  0.10914389769E+03  0.10566000000E+00 0.  1.
         13    1    4    4    0    0 -0.19979533253E+01  0.12370902260E+02  0.14084236152E+03  0.14139877298E+03  0.10566000000E+00 0. -1.
        -13    1    4    4    0    0 -0.95519018241E+00  0.11997095612E+02  0.13896415253E+03  0.13948437025E+03  0.10566000000E+00 0.  1.
        -14    1    4    4    0    0 -0.11385794231E+01  0.88911252426E+01  0.11345285332E+03  0.11380640754E+03  0.00000000000E+00 0.  1.
<mgrwt>
<rscale>  0 0.81903520E+02</rscale>
<asrwt>0</asrwt>
<pdfrwt beam="1">  1        2 0.76997363E-01 0.81903520E+02</pdfrwt>
<pdfrwt beam="2">  1       -1 0.51551651E-03 0.81903520E+02</pdfrwt>
<totfact> 0.28647927E+05</totfact>
</mgrwt>
</event>
<event>
 8    1  0.2433467E-020  0.7943590E+02  0.7818608E-02  0.1330660E+00
         -1   -1    0    0    0  501 -0.00000000000E+00  0.00000000000E+00  0.92142513351E+01  0.92142527135E+01  0.50400000000E-02 0.  1.
          2   -1    0    0  501    0  0.00000000000E+00 -0.00000000000E+00 -0.17120386361E+03  0.17120386363E+03  0.25500000000E-02 0. -1.
         24    2    1    2    0    0  0.00000000000E+00 -0.35527136788E-14 -0.16198961227E+03  0.18041811634E+03  0.79435900067E+02 0.  0.
         66    2    3    3    0    0  0.38869623203E+01 -0.24124126872E+02 -0.15209008693E+03  0.15405348588E+03  0.19999985560E+01 0.  0.
        -13    1    3    3    0    0 -0.38869623203E+01  0.24124126872E+02 -0.98995253375E+01  0.26364630461E+02  0.10566000000E+00 0.  1.
         13    1    4    4    0    0  0.18918428156E+01 -0.63635917854E+01 -0.40191059964E+02  0.40735817590E+02  0.10566000000E+00 0. -1.
        -13    1    4    4    0    0  0.37344599935E+00 -0.40110837642E+01 -0.25327500567E+02  0.25646085547E+02  0.10566000000E+00 0.  1.
         14    1    4    4    0    0  0.16216735054E+01 -0.13749451322E+02 -0.86571526403E+02  0.87671582741E+02  0.00000000000E+00 0. -1.
<mgrwt>
<rscale>  0 0.79435900E+02</rscale>
<asrwt>0</asrwt>
<pdfrwt beam="1">  1        2 0.26339054E-01 0.79435900E+02</pdfrwt>
<pdfrwt beam="2">  1       -1 0.14175774E-02 0.79435900E+02</pdfrwt>
<totfact> 0.21313836E+05</totfact>
</mgrwt>
</event>
<event>
 8    1  0.2433467E-020  0.7210629E+02  0.7818608E-02  0.1353074E+00
          2   -1    0    0  501    0  0.00000000000E+00  0.00000000000E+00  0.23845976174E+02  0.23845976311E+02  0.25500000000E-02 0. -1.
         -1   -1    0    0    0  501 -0.00000000000E+00 -0.00000000000E+00 -0.54509370629E+02  0.54509370862E+02  0.50400000000E-02 0.  1.
         24    2    1    2    0    0  0.00000000000E+00  0.00000000000E+00 -0.30663394455E+02  0.78355347173E+02  0.72106287320E+02 0.  0.
         66    2    3    3    0    0  0.88173261412E+01 -0.34042497149E+02 -0.68433045116E+01  0.35881299787E+02  0.20000013362E+01 0.  0.
        -13    1    3    3    0    0 -0.88173261412E+01  0.34042497149E+02 -0.23820089943E+02  0.42474047386E+02  0.10566000000E+00 0.  1.
         13    1    4    4    0    0  0.50342291388E+01 -0.18530385762E+02 -0.29197454865E+01  0.19423046549E+02  0.10566000000E+00 0. -1.
        -13    1    4    4    0    0  0.62848875354E+00 -0.27659916821E+01 -0.96854616433E+00  0.29991588499E+01  0.10566000000E+00 0.  1.
         14    1    4    4    0    0  0.31546082489E+01 -0.12746119705E+02 -0.29550128608E+01  0.13459094388E+02  0.00000000000E+00 0. -1.
<mgrwt>
<rscale>  0 0.72106287E+02</rscale>
<asrwt>0</asrwt>
<pdfrwt beam="1">  1        2 0.36686117E-02 0.72106287E+02</pdfrwt>
<pdfrwt beam="2">  1       -1 0.83860570E-02 0.72106287E+02</pdfrwt>
<totfact> 0.17219094E+05</totfact>
</mgrwt>
</event>
<event>
 8    1  0.2433467E-020  0.7883281E+02  0.7818608E-02  0.1332397E+00
          2   -1    0    0  501    0  0.00000000000E+00  0.00000000000E+00  0.22227012918E+02  0.22227013065E+02  0.25500000000E-02 0. -1.
         -1   -1    0    0    0  501 -0.00000000000E+00 -0.00000000000E+00 -0.69899310823E+02  0.69899311005E+02  0.50400000000E-02 0.  1.
         24    2    1    2    0    0  0.00000000000E+00  0.17763568394E-14 -0.47672297905E+02  0.92126324069E+02  0.78832807885E+02 0.  0.
         66    2    3    3    0    0 -0.36043173691E+02 -0.15006280159E+02 -0.29962959177E+02  0.49255230590E+02  0.20000009816E+01 0.  0.
        -13    1    3    3    0    0  0.36043173691E+02  0.15006280159E+02 -0.17709338728E+02  0.42871093479E+02  0.10566000000E+00 0.  1.
         13    1    4    4    0    0 -0.14776756367E+02 -0.54817581066E+01 -0.12111697555E+02  0.19877288104E+02  0.10566000000E+00 0. -1.
        -13    1    4    4    0    0 -0.83440349195E+01 -0.37109191931E+01 -0.62768867919E+01  0.11081710691E+02  0.10566000000E+00 0.  1.
        -14    1    4    4    0    0 -0.12922382404E+02 -0.58136028595E+01 -0.11574374830E+02  0.18296231796E+02  0.00000000000E+00 0.  1.
<mgrwt>
<rscale>  0 0.78832808E+02</rscale>
<asrwt>0</asrwt>
<pdfrwt beam="1">  1        2 0.34195405E-02 0.78832808E+02</pdfrwt>
<pdfrwt beam="2">  1       -1 0.10753740E-01 0.78832808E+02</pdfrwt>
<totfact> 0.13223636E+05</totfact>
</mgrwt>
</event>
<event>
 8    1  0.2433467E-020  0.8649164E+02  0.7818608E-02  0.1311577E+00
         -1   -1    0    0    0  501 -0.00000000000E+00  0.00000000000E+00  0.12813322944E+02  0.12813323935E+02  0.50400000000E-02 0.  1.
          2   -1    0    0  501    0  0.00000000000E+00 -0.00000000000E+00 -0.14595752273E+03  0.14595752276E+03  0.25500000000E-02 0. -1.
         24    2    1    2    0    0  0.00000000000E+00  0.00000000000E+00 -0.13314419979E+03  0.15877084669E+03  0.86491640183E+02 0.  0.
         66    2    3    3    0    0 -0.29681884054E+02  0.27150911868E+02 -0.37582410745E+02  0.55087420120E+02  0.20000004440E+01 0.  0.
        -13    1    3    3    0    0  0.29681884054E+02 -0.27150911868E+02 -0.95561789045E+02  0.10368342657E+03  0.10566000000E+00 0.  1.
         13    1    4    4    0    0 -0.23580672997E+01  0.19897782903E+01 -0.24784544077E+01  0.39589896844E+01  0.10566000000E+00 0.  1.
        -13    1    4    4    0    0 -0.55961434102E+01  0.45873952660E+01 -0.63014924706E+01  0.95958838981E+01  0.10566000000E+00 0. -1.
        -14    1    4    4    0    0 -0.21727673344E+02  0.20573738312E+02 -0.28802463867E+02  0.41532546537E+02  0.00000000000E+00 0.  1.
<mgrwt>
<rscale>  0 0.86491640E+02</rscale>
<asrwt>0</asrwt>
<pdfrwt beam="1">  1        2 0.22455002E-01 0.86491640E+02</pdfrwt>
<pdfrwt beam="2">  1       -1 0.19712806E-02 0.86491640E+02</pdfrwt>
<totfact> 0.16126013E+05</totfact>
</mgrwt>
</event>
<event>
 8    1  0.2433467E-020  0.8290001E+02  0.7818608E-02  0.1321017E+00
          2   -1    0    0  501    0  0.00000000000E+00  0.00000000000E+00  0.12250253834E+03  0.12250253836E+03  0.25500000000E-02 0. -1.
         -1   -1    0    0    0  501 -0.00000000000E+00 -0.00000000000E+00 -0.14025038220E+02  0.14025039125E+02  0.50400000000E-02 0.  1.
         24    2    1    2    0    0 -0.17763568394E-14  0.00000000000E+00  0.10847750012E+03  0.13652757749E+03  0.82900008342E+02 0.  0.
         66    2    3    3    0    0 -0.74703997256E+01 -0.33260838953E+02  0.93033790964E+02  0.99102858433E+02  0.20000020957E+01 0.  0.
        -13    1    3    3    0    0  0.74703997256E+01  0.33260838953E+02  0.15443709151E+02  0.37424719055E+02  0.10566000000E+00 0.  1.
         13    1    4    4    0    0 -0.39072329506E+00 -0.27022495871E+01  0.87652817046E+01  0.91812932052E+01  0.10566000000E+00 0. -1.
        -13    1    4    4    0    0 -0.30758041914E+01 -0.14439399395E+02  0.38690533785E+02  0.41411657717E+02  0.10566000000E+00 0.  1.
        -14    1    4    4    0    0 -0.40038722391E+01 -0.16119189971E+02  0.45577975475E+02  0.48509907510E+02  0.00000000000E+00 0.  1.
<mgrwt>
<rscale>  0 0.82900008E+02</rscale>
<asrwt>0</asrwt>
<pdfrwt beam="1">  1        2 0.18846544E-01 0.82900008E+02</pdfrwt>
<pdfrwt beam="2">  1       -1 0.21576983E-02 0.82900008E+02</pdfrwt>
<totfact> 0.17096862E+05</totfact>
</mgrwt>
</event>
<event>
 8    1  0.2433467E-020  0.7971632E+02  0.7818608E-02  0.1329858E+00
          2   -1    0    0  501    0  0.00000000000E+00  0.00000000000E+00  0.42764789724E+03  0.42764789724E+03  0.25500000000E-02 0. -1.
         -1   -1    0    0    0  501 -0.00000000000E+00 -0.00000000000E+00 -0.37149068382E+01  0.37149102570E+01  0.50400000000E-02 0.  1.
         24    2    1    2    0    0 -0.88817841970E-15  0.00000000000E+00  0.42393299040E+03  0.43136280750E+03  0.79716317948E+02 0.  0.
         66    2    3    3    0    0  0.63865242656E+01 -0.32251677588E+02  0.33378705828E+03  0.33540834622E+03  0.20000087972E+01 0.  0.
        -13    1    3    3    0    0 -0.63865242656E+01  0.32251677588E+02  0.90145932117E+02  0.95954461286E+02  0.10566000000E+00 0.  1.
         13    1    4    4    0    0  0.27423344622E+01 -0.97366830824E+01  0.10684392355E+03  0.10732175250E+03  0.10566000000E+00 0. -1.
        -13    1    4    4    0    0  0.26177155459E+01 -0.15378764313E+02  0.15571813646E+03  0.15649762942E+03  0.10566000000E+00 0.  1.
         14    1    4    4    0    0  0.10264742575E+01 -0.71362301930E+01  0.71224998265E+02  0.71588964294E+02  0.00000000000E+00 0. -1.
<mgrwt>
<rscale>  0 0.79716318E+02</rscale>
<asrwt>0</asrwt>
<pdfrwt beam="1">  1        2 0.65791999E-01 0.79716318E+02</pdfrwt>
<pdfrwt beam="2">  1       -1 0.57152426E-03 0.79716318E+02</pdfrwt>
<totfact> 0.29184016E+05</totfact>
</mgrwt>
</event>
<event>
 8    1  0.2433467E-020  0.7807975E+02  0.7818608E-02  0.1334591E+00
          2   -1    0    0  501    0  0.00000000000E+00  0.00000000000E+00  0.99211327313E+02  0.99211327345E+02  0.25500000000E-02 0. -1.
         -1   -1    0    0    0  501 -0.00000000000E+00 -0.00000000000E+00 -0.15362276604E+02  0.15362277431E+02  0.50400000000E-02 0.  1.
         24    2    1    2    0    0  0.00000000000E+00  0.00000000000E+00  0.83849050708E+02  0.11457360478E+03  0.78079751580E+02 0.  0.
         66    2    3    3    0    0 -0.24177766334E+02 -0.13648668908E+02  0.82171788321E+02  0.86758592265E+02  0.19999970591E+01 0.  0.
        -13    1    3    3    0    0  0.24177766334E+02  0.13648668908E+02  0.16772623878E+01  0.27815012511E+02  0.10566000000E+00 0.  1.
         13    1    4    4    0    0 -0.60687156627E+01 -0.33987377674E+01  0.20769538566E+02  0.21903552782E+02  0.10566000000E+00 0. -1.
        -13    1    4    4    0    0 -0.14667831298E+02 -0.75834809271E+01  0.49506166187E+02  0.52187413353E+02  0.10566000000E+00 0.  1.
        -14    1    4    4    0    0 -0.34412193728E+01 -0.26664502138E+01  0.11896083568E+02  0.12667626130E+02  0.00000000000E+00 0.  1.
<mgrwt>
<rscale>  0 0.78079752E+02</rscale>
<asrwt>0</asrwt>
<pdfrwt beam="1">  1        2 0.15263281E-01 0.78079752E+02</pdfrwt>
<pdfrwt beam="2">  1       -1 0.23634273E-02 0.78079752E+02</pdfrwt>
<totfact> 0.18874588E+05</totfact>
</mgrwt>
</event>
<event>
 8    1  0.2433467E-020  0.8068373E+02  0.7818608E-02  0.1327122E+00
         -1   -1    0    0    0  501 -0.00000000000E+00  0.00000000000E+00  0.12373367403E+01  0.12373470049E+01  0.50400000000E-02 0.  1.
          2   -1    0    0  501    0  0.00000000000E+00 -0.00000000000E+00 -0.13152921103E+04  0.13152921103E+04  0.25500000000E-02 0. -1.
         24    2    1    2    0    0 -0.35527136788E-14  0.00000000000E+00 -0.13140547736E+04  0.13165294573E+04  0.80683728490E+02 0.  0.
         66    2    3    3    0    0 -0.24201394082E+02 -0.95607624894E+01 -0.11599205109E+04  0.11602140782E+04  0.19999995041E+01 0.  0.
        -13    1    3    3    0    0  0.24201394082E+02  0.95607624894E+01 -0.15413426264E+03  0.15631537909E+03  0.10566000000E+00 0.  1.
         13    1    4    4    0    0 -0.12558251562E+02 -0.47012491229E+01 -0.63069270575E+03  0.63083524923E+03  0.10566000000E+00 0. -1.
        -13    1    4    4    0    0 -0.44303368918E+01 -0.22817415710E+01 -0.20793312265E+03  0.20799285778E+03  0.10566000000E+00 0.  1.
        -14    1    4    4    0    0 -0.72128056286E+01 -0.25777717955E+01 -0.32129468253E+03  0.32138597121E+03  0.00000000000E+00 0.  1.
<mgrwt>
<rscale>  0 0.80683728E+02</rscale>
<asrwt>0</asrwt>
<pdfrwt beam="1">  1        2 0.20235151E+00 0.80683728E+02</pdfrwt>
<pdfrwt beam="2">  1       -1 0.19036134E-03 0.80683728E+02</pdfrwt>
<totfact> 0.33780685E+05</totfact>
</mgrwt>
</event>
<event>
 8    1  0.2433467E-020  0.7955846E+02  0.7818608E-02  0.1330309E+00
         -1   -1    0    0    0  501 -0.00000000000E+00  0.00000000000E+00  0.20548022567E+01  0.20548084377E+01  0.50400000000E-02 0.  1.
          2   -1    0    0  501    0  0.00000000000E+00 -0.00000000000E+00 -0.77009103691E+03  0.77009103692E+03  0.25500000000E-02 0. -1.
         24    2    1    2    0    0  0.88817841970E-15  0.00000000000E+00 -0.76803623466E+03  0.77214584535E+03  0.79558461233E+02 0.  0.
         66    2    3    3    0    0  0.56320450580E+01 -0.16003571308E+02 -0.73318851217E+03  0.73338750235E+03  0.19999987345E+01 0.  0.
        -13    1    3    3    0    0 -0.56320450580E+01  0.16003571308E+02 -0.34847722482E+02  0.38758343004E+02  0.10566000000E+00 0.  1.
         13    1    4    4    0    0  0.43969528560E+01 -0.12372671700E+02 -0.55511751150E+03  0.55527279686E+03  0.10566000000E+00 0. -1.
        -13    1    4    4    0    0  0.37327552167E+00 -0.12125546376E+01 -0.41320072084E+02  0.41339680023E+02  0.10566000000E+00 0.  1.
         14    1    4    4    0    0  0.86181668038E+00 -0.24183449702E+01 -0.13675092859E+03  0.13677502546E+03  0.00000000000E+00 0. -1.
<mgrwt>
<rscale>  0 0.79558461E+02</rscale>
<asrwt>0</asrwt>
<pdfrwt beam="1">  1        2 0.11847531E+00 0.79558461E+02</pdfrwt>
<pdfrwt beam="2">  1       -1 0.31612451E-03 0.79558461E+02</pdfrwt>
<totfact> 0.34623202E+05</totfact>
</mgrwt>
</event>
<event>
 8    1  0.2433467E-020  0.8307136E+02  0.7818608E-02  0.1320555E+00
          2   -1    0    0  501    0  0.00000000000E+00  0.00000000000E+00  0.55762163102E+03  0.55762163103E+03  0.25500000000E-02 0. -1.
         -1   -1    0    0    0  501 -0.00000000000E+00 -0.00000000000E+00 -0.30938748044E+01  0.30938789095E+01  0.50400000000E-02 0.  1.
         24    2    1    2    0    0  0.35527136788E-14  0.00000000000E+00  0.55452775622E+03  0.56071550993E+03  0.83071358894E+02 0.  0.
         66    2    3    3    0    0  0.29096081716E+02  0.21353705038E+02  0.41586016254E+03  0.41742812252E+03  0.19999999707E+01 0.  0.
        -13    1    3    3    0    0 -0.29096081716E+02 -0.21353705038E+02  0.13866759368E+03  0.14328738741E+03  0.10566000000E+00 0.  1.
         13    1    4    4    0    0  0.23372888105E+02  0.17831652485E+02  0.33775234323E+03  0.33902937373E+03  0.10566000000E+00 0. -1.
        -13    1    4    4    0    0  0.10953913193E+01  0.85503279266E+00  0.18211209652E+02  0.18264454119E+02  0.10566000000E+00 0.  1.
        -14    1    4    4    0    0  0.46278022915E+01  0.26670197600E+01  0.59896609650E+02  0.60134294674E+02  0.00000000000E+00 0.  1.
<mgrwt>
<rscale>  0 0.83071359E+02</rscale>
<asrwt>0</asrwt>
<pdfrwt beam="1">  1        2 0.85787904E-01 0.83071359E+02</pdfrwt>
<pdfrwt beam="2">  1       -1 0.47598128E-03 0.83071359E+02</pdfrwt>
<totfact> 0.28544667E+05</totfact>
</mgrwt>
</event>
<event>
 8    1  0.2433467E-020  0.8066868E+02  0.7818608E-02  0.1327164E+00
          2   -1    0    0  501    0  0.00000000000E+00  0.00000000000E+00  0.61453088725E+02  0.61453088777E+02  0.25500000000E-02 0. -1.
         -1   -1    0    0    0  501 -0.00000000000E+00 -0.00000000000E+00 -0.26473182275E+02  0.26473182755E+02  0.50400000000E-02 0.  1.
         24    2    1    2    0    0  0.35527136788E-14  0.00000000000E+00  0.34979906449E+02  0.87926271532E+02  0.80668676513E+02 0.  0.
         66    2    3    3    0    0  0.23096555941E+02  0.51984148374E+01  0.53060691640E+02  0.58137005508E+02  0.19999997327E+01 0.  0.
        -13    1    3    3    0    0 -0.23096555941E+02 -0.51984148374E+01 -0.18080785191E+02  0.29789266025E+02  0.10566000000E+00 0.  1.
         13    1    4    4    0    0  0.10785282544E+02  0.27562020588E+01  0.24244934590E+02  0.26678586669E+02  0.10566000000E+00 0. -1.
        -13    1    4    4    0    0  0.34702210665E+00 -0.82487501067E-01  0.12072796500E+01  0.12632959745E+01  0.10566000000E+00 0.  1.
        -14    1    4    4    0    0  0.11964251290E+02  0.25247002796E+01  0.27608477400E+02  0.30195122864E+02  0.00000000000E+00 0.  1.
<mgrwt>
<rscale>  0 0.80668677E+02</rscale>
<asrwt>0</asrwt>
<pdfrwt beam="1">  1        2 0.94543212E-02 0.80668677E+02</pdfrwt>
<pdfrwt beam="2">  1       -1 0.40727974E-02 0.80668677E+02</pdfrwt>
<totfact> 0.15302420E+05</totfact>
</mgrwt>
</event>
<event>
 8    1  0.2433467E-020  0.7557731E+02  0.7818608E-02  0.1342093E+00
         -1   -1    0    0    0  501 -0.00000000000E+00  0.00000000000E+00  0.47480067081E+02  0.47480067349E+02  0.50400000000E-02 0.  1.
          2   -1    0    0  501    0  0.00000000000E+00 -0.00000000000E+00 -0.30075412132E+02  0.30075412240E+02  0.25500000000E-02 0. -1.
         24    2    1    2    0    0  0.17763568394E-14  0.00000000000E+00  0.17404654950E+02  0.77555479589E+02  0.75577314059E+02 0.  0.
         66    2    3    3    0    0  0.15805257221E+02  0.32355923647E+01 -0.26327626096E+02  0.30942189818E+02  0.20000002901E+01 0.  0.
        -13    1    3    3    0    0 -0.15805257221E+02 -0.32355923647E+01  0.43732281045E+02  0.46613289770E+02  0.10566000000E+00 0.  1.
         13    1    4    4    0    0  0.42011648343E+01  0.46252259983E+00 -0.69020311006E+01  0.80940046003E+01  0.10566000000E+00 0. -1.
        -13    1    4    4    0    0  0.59516227237E+01  0.11621531133E+01 -0.84991152591E+01  0.10441194239E+02  0.10566000000E+00 0. -1.
         14    1    4    4    0    0  0.56524696628E+01  0.16109166516E+01 -0.10926479736E+02  0.12406990980E+02  0.00000000000E+00 0. -1.
<mgrwt>
<rscale>  0 0.75577314E+02</rscale>
<asrwt>0</asrwt>
<pdfrwt beam="1">  1        2 0.46269865E-02 0.75577314E+02</pdfrwt>
<pdfrwt beam="2">  1       -1 0.73046258E-02 0.75577314E+02</pdfrwt>
<totfact> 0.15775849E+05</totfact>
</mgrwt>
</event>
<event>
 8    1  0.2433467E-020  0.8103336E+02  0.7818608E-02  0.1326144E+00
         -1   -1    0    0    0  501 -0.00000000000E+00  0.00000000000E+00  0.16769142890E+01  0.16769218629E+01  0.50400000000E-02 0.  1.
          2   -1    0    0  501    0  0.00000000000E+00 -0.00000000000E+00 -0.97893960143E+03  0.97893960144E+03  0.25500000000E-02 0. -1.
         24    2    1    2    0    0  0.00000000000E+00  0.00000000000E+00 -0.97726268715E+03  0.98061652330E+03  0.81033364014E+02 0.  0.
         66    2    3    3    0    0 -0.17931909974E+02  0.10877215814E+02 -0.90808541156E+03  0.90832977596E+03  0.19999984714E+01 0.  0.
        -13    1    3    3    0    0  0.17931909974E+02 -0.10877215814E+02 -0.69177275585E+02  0.72286747337E+02  0.10566000000E+00 0.  1.
         13    1    4    4    0    0 -0.19906672036E+01  0.12595242804E+01 -0.10681518997E+03  0.10684121456E+03  0.10566000000E+00 0. -1.
        -13    1    4    4    0    0 -0.10095996641E+02  0.52261201720E+01 -0.46649355246E+03  0.46663206827E+03  0.10566000000E+00 0.  1.
        -14    1    4    4    0    0 -0.58452461287E+01  0.43915713618E+01 -0.33477666913E+03  0.33485649314E+03  0.00000000000E+00 0.  1.
<mgrwt>
<rscale>  0 0.81033364E+02</rscale>
<asrwt>0</asrwt>
<pdfrwt beam="1">  1        2 0.15060564E+00 0.81033364E+02</pdfrwt>
<pdfrwt beam="2">  1       -1 0.25798818E-03 0.81033364E+02</pdfrwt>
<totfact> 0.34040095E+05</totfact>
</mgrwt>
</event>
<event>
 8    1  0.2433467E-020  0.7689539E+02  0.7818608E-02  0.1338100E+00
         -1   -1    0    0    0  501 -0.00000000000E+00  0.00000000000E+00  0.12908805886E+02  0.12908806870E+02  0.50400000000E-02 0.  1.
          2   -1    0    0  501    0  0.00000000000E+00 -0.00000000000E+00 -0.11451292365E+03  0.11451292368E+03  0.25500000000E-02 0. -1.
         24    2    1    2    0    0  0.00000000000E+00  0.00000000000E+00 -0.10160411777E+03  0.12742173055E+03  0.76895387828E+02 0.  0.
         66    2    3    3    0    0 -0.28300242881E+02 -0.20081066081E+02 -0.78168957041E+02  0.85548458832E+02  0.20000004193E+01 0.  0.
        -13    1    3    3    0    0  0.28300242881E+02  0.20081066081E+02 -0.23435160726E+02  0.41873271718E+02  0.10566000000E+00 0.  1.
         13    1    4    4    0    0 -0.98211654904E+01 -0.72151695217E+01 -0.25870575343E+02  0.28597408894E+02  0.10566000000E+00 0. -1.
        -13    1    4    4    0    0 -0.13842881968E+02 -0.91535646927E+01 -0.37745334107E+02  0.41232687745E+02  0.10566000000E+00 0.  1.
        -14    1    4    4    0    0 -0.46361954221E+01 -0.37123318669E+01 -0.14553047590E+02  0.15718362193E+02  0.00000000000E+00 0.  1.
<mgrwt>
<rscale>  0 0.76895388E+02</rscale>
<asrwt>0</asrwt>
<pdfrwt beam="1">  1        2 0.17617372E-01 0.76895388E+02</pdfrwt>
<pdfrwt beam="2">  1       -1 0.19859703E-02 0.76895388E+02</pdfrwt>
<totfact> 0.20478043E+05</totfact>
</mgrwt>
</event>
<event>
 8    1  0.2433467E-020  0.7587151E+02  0.7818608E-02  0.1341193E+00
         -1   -1    0    0    0  501 -0.00000000000E+00  0.00000000000E+00  0.97937333132E+02  0.97937333262E+02  0.50400000000E-02 0.  1.
          2   -1    0    0  501    0  0.00000000000E+00 -0.00000000000E+00 -0.14694309788E+02  0.14694310009E+02  0.25500000000E-02 0. -1.
         24    2    1    2    0    0  0.00000000000E+00  0.00000000000E+00  0.83243023345E+02  0.11263164327E+03  0.75871510663E+02 0.  0.
         66    2    3    3    0    0  0.20649788409E+02 -0.54562386279E+01 -0.48441081971E+01  0.21992037090E+02  0.20000024605E+01 0.  0.
        -13    1    3    3    0    0 -0.20649788409E+02  0.54562386279E+01  0.88087131542E+02  0.90639606181E+02  0.10566000000E+00 0.  1.
         13    1    4    4    0    0  0.16194239705E+02 -0.44498900581E+01 -0.42410040319E+01  0.17322014905E+02  0.10566000000E+00 0. -1.
        -13    1    4    4    0    0  0.10581759529E+01 -0.54971369015E+00 -0.25952240198E+00  0.12249234267E+01  0.10566000000E+00 0.  1.
        -14    1    4    4    0    0  0.33973727516E+01 -0.45663487965E+00 -0.34358176325E+00  0.34450987583E+01  0.00000000000E+00 0.  1.
<mgrwt>
<rscale>  0 0.75871511E+02</rscale>
<asrwt>0</asrwt>
<pdfrwt beam="1">  1        2 0.22606631E-02 0.75871511E+02</pdfrwt>
<pdfrwt beam="2">  1       -1 0.15067282E-01 0.75871511E+02</pdfrwt>
<totfact> 0.13585475E+05</totfact>
</mgrwt>
</event>
<event>
 8    1  0.2433467E-020  0.7897542E+02  0.7818608E-02  0.1331984E+00
         -1   -1    0    0    0  501 -0.00000000000E+00  0.00000000000E+00  0.31442689207E+02  0.31442689611E+02  0.50400000000E-02 0.  1.
          2   -1    0    0  501    0  0.00000000000E+00 -0.00000000000E+00 -0.49591147862E+02  0.49591147927E+02  0.25500000000E-02 0. -1.
         24    2    1    2    0    0 -0.35527136788E-14  0.35527136788E-14 -0.18148458655E+02  0.81033837539E+02  0.78975415635E+02 0.  0.
         66    2    3    3    0    0 -0.22625284129E+02 -0.23813102376E+02 -0.31520286330E+02  0.45568583189E+02  0.19999992035E+01 0.  0.
        -13    1    3    3    0    0  0.22625284129E+02  0.23813102376E+02  0.13371827675E+02  0.35465254350E+02  0.10566000000E+00 0.  1.
         13    1    4    4    0    0 -0.20425035280E+02 -0.21855864564E+02 -0.29309686359E+02  0.41879944610E+02  0.10566000000E+00 0. -1.
        -13    1    4    4    0    0 -0.67971324657E+00 -0.63066687688E+00 -0.64060018170E+00  0.11319379115E+01  0.10566000000E+00 0.  1.
         14    1    4    4    0    0 -0.15205356020E+01 -0.13265709356E+01 -0.15699997897E+01  0.25567006676E+01  0.00000000000E+00 0. -1.
<mgrwt>
<rscale>  0 0.78975416E+02</rscale>
<asrwt>0</asrwt>
<pdfrwt beam="1">  1        2 0.76294074E-02 0.78975416E+02</pdfrwt>
<pdfrwt beam="2">  1       -1 0.48373368E-02 0.78975416E+02</pdfrwt>
<totfact> 0.15452109E+05</totfact>
</mgrwt>
</event>
<event>
 8    1  0.2433467E-020  0.7960031E+02  0.7818608E-02  0.1330190E+00
         -1   -1    0    0    0  501 -0.00000000000E+00  0.00000000000E+00  0.84321953766E+01  0.84321968828E+01  0.50400000000E-02 0.  1.
          2   -1    0    0  501    0  0.00000000000E+00 -0.00000000000E+00 -0.18785760997E+03  0.18785760999E+03  0.25500000000E-02 0. -1.
         24    2    1    2    0    0 -0.22204460493E-15  0.00000000000E+00 -0.17942541459E+03  0.19628980687E+03  0.79600307029E+02 0.  0.
         66    2    3    3    0    0  0.99027337006E+00 -0.36140695387E+02 -0.48882337805E+02  0.60832667650E+02  0.19999999138E+01 0.  0.
        -13    1    3    3    0    0 -0.99027337006E+00  0.36140695387E+02 -0.13054307679E+03  0.13545713922E+03  0.10566000000E+00 0.  1.
         13    1    4    4    0    0  0.77473281684E+00 -0.26320625377E+02 -0.36534039353E+02  0.45034683597E+02  0.10566000000E+00 0. -1.
        -13    1    4    4    0    0  0.29529511842E+00 -0.71791365784E+01 -0.85089314042E+01  0.11137337155E+02  0.10566000000E+00 0.  1.
        -14    1    4    4    0    0 -0.79754565207E-01 -0.26409334315E+01 -0.38393670477E+01  0.46606468979E+01  0.00000000000E+00 0.  1.
<mgrwt>
<rscale>  0 0.79600307E+02</rscale>
<asrwt>0</asrwt>
<pdfrwt beam="1">  1        2 0.28901168E-01 0.79600307E+02</pdfrwt>
<pdfrwt beam="2">  1       -1 0.12972611E-02 0.79600307E+02</pdfrwt>
<totfact> 0.21874310E+05</totfact>
</mgrwt>
</event>
<event>
 8    1  0.2433467E-020  0.8087681E+02  0.7818608E-02  0.1326581E+00
         -1   -1    0    0    0  501 -0.00000000000E+00  0.00000000000E+00  0.31251693500E+02  0.31251693907E+02  0.50400000000E-02 0.  1.
          2   -1    0    0  501    0  0.00000000000E+00 -0.00000000000E+00 -0.52325626884E+02  0.52325626946E+02  0.25500000000E-02 0. -1.
         24    2    1    2    0    0 -0.88817841970E-15 -0.35527136788E-14 -0.21073933384E+02  0.83577320853E+02  0.80876806890E+02 0.  0.
         66    2    3    3    0    0 -0.56947219641E+01 -0.20718463527E+02 -0.45914566744E+02  0.50732948140E+02  0.19999996510E+01 0.  0.
        -13    1    3    3    0    0  0.56947219641E+01  0.20718463527E+02  0.24840633360E+02  0.32844372713E+02  0.10566000000E+00 0.  1.
         13    1    4    4    0    0 -0.33120756540E+01 -0.10195892221E+02 -0.21559817561E+02  0.24078267393E+02  0.10566000000E+00 0. -1.
        -13    1    4    4    0    0 -0.18983629831E+01 -0.71866112133E+01 -0.17598659248E+02  0.19104322393E+02  0.10566000000E+00 0.  1.
        -14    1    4    4    0    0 -0.48428332711E+00 -0.33359600921E+01 -0.67560899350E+01  0.75503583549E+01  0.00000000000E+00 0.  1.
<mgrwt>
<rscale>  0 0.80876807E+02</rscale>
<asrwt>0</asrwt>
<pdfrwt beam="1">  1        2 0.80500965E-02 0.80876807E+02</pdfrwt>
<pdfrwt beam="2">  1       -1 0.48079529E-02 0.80876807E+02</pdfrwt>
<totfact> 0.14649069E+05</totfact>
</mgrwt>
</event>
<event>
 8    1  0.2433467E-020  0.7157692E+02  0.7818608E-02  0.1354811E+00
         -1   -1    0    0    0  501 -0.00000000000E+00  0.00000000000E+00  0.17976916014E+02  0.17976916721E+02  0.50400000000E-02 0.  1.
          2   -1    0    0  501    0  0.00000000000E+00 -0.00000000000E+00 -0.71247686423E+02  0.71247686469E+02  0.25500000000E-02 0. -1.
         24    2    1    2    0    0  0.00000000000E+00  0.22204460493E-15 -0.53270770409E+02  0.89224603190E+02  0.71576915513E+02 0.  0.
         66    2    3    3    0    0  0.34119774056E+02 -0.10341389943E+01 -0.39941181971E+02  0.52578764176E+02  0.19999999704E+01 0.  0.
        -13    1    3    3    0    0 -0.34119774056E+02  0.10341389943E+01 -0.13329588438E+02  0.36645839014E+02  0.10566000000E+00 0.  1.
         13    1    4    4    0    0  0.62226164018E+01  0.13561052641E+00 -0.79760209028E+01  0.10117678517E+02  0.10566000000E+00 0. -1.
        -13    1    4    4    0    0  0.57560375123E+01 -0.88159954777E-01 -0.73227738788E+01  0.93152520812E+01  0.10566000000E+00 0.  1.
        -14    1    4    4    0    0  0.22141120142E+02 -0.10815895659E+01 -0.24642387190E+02  0.33145833577E+02  0.00000000000E+00 0.  1.
<mgrwt>
<rscale>  0 0.71576916E+02</rscale>
<asrwt>0</asrwt>
<pdfrwt beam="1">  1        2 0.10961182E-01 0.71576916E+02</pdfrwt>
<pdfrwt beam="2">  1       -1 0.27656795E-02 0.71576916E+02</pdfrwt>
<totfact> 0.21858053E+05</totfact>
</mgrwt>
</event>
<event>
 8    1  0.2433467E-020  0.7987006E+02  0.7818608E-02  0.1329421E+00
         -1   -1    0    0    0  501 -0.00000000000E+00  0.00000000000E+00  0.17803576719E+01  0.17803648057E+01  0.50400000000E-02 0.  1.
          2   -1    0    0  501    0  0.00000000000E+00 -0.00000000000E+00 -0.89577704471E+03  0.89577704472E+03  0.25500000000E-02 0. -1.
         24    2    1    2    0    0  0.00000000000E+00  0.17763568394E-14 -0.89399668704E+03  0.89755740952E+03  0.79870062902E+02 0.  0.
         66    2    3    3    0    0 -0.80004565411E+01 -0.14060220328E+02 -0.85727827735E+03  0.85743322885E+03  0.20000037061E+01 0.  0.
        -13    1    3    3    0    0  0.80004565411E+01  0.14060220328E+02 -0.36718409688E+02  0.40124180672E+02  0.10566000000E+00 0.  1.
         13    1    4    4    0    0 -0.35419782786E+01 -0.53435636604E+01 -0.33025156198E+03  0.33031379723E+03  0.10566000000E+00 0. -1.
        -13    1    4    4    0    0 -0.23879479824E+01 -0.59490150073E+01 -0.35749879834E+03  0.35755628236E+03  0.10566000000E+00 0.  1.
        -14    1    4    4    0    0 -0.20705302801E+01 -0.27676416605E+01 -0.16952791703E+03  0.16956314927E+03  0.00000000000E+00 0.  1.
<mgrwt>
<rscale>  0 0.79870063E+02</rscale>
<asrwt>0</asrwt>
<pdfrwt beam="1">  1        2 0.13781149E+00 0.79870063E+02</pdfrwt>
<pdfrwt beam="2">  1       -1 0.27390245E-03 0.79870063E+02</pdfrwt>
<totfact> 0.35075983E+05</totfact>
</mgrwt>
</event>
<event>
 8    1  0.2433467E-020  0.7859296E+02  0.7818608E-02  0.1333093E+00
         -1   -1    0    0    0  501 -0.00000000000E+00  0.00000000000E+00  0.47713386496E+01  0.47713413115E+01  0.50400000000E-02 0.  1.
          2   -1    0    0  501    0  0.00000000000E+00 -0.00000000000E+00 -0.32364350617E+03  0.32364350618E+03  0.25500000000E-02 0. -1.
         24    2    1    2    0    0  0.00000000000E+00 -0.71054273576E-14 -0.31887216752E+03  0.32841484749E+03  0.78592956643E+02 0.  0.
         66    2    3    3    0    0  0.20002827671E+02 -0.26858001663E+02 -0.24525221232E+03  0.24753608430E+03  0.20000032409E+01 0.  0.
        -13    1    3    3    0    0 -0.20002827671E+02  0.26858001663E+02 -0.73619955200E+02  0.80878763195E+02  0.10566000000E+00 0.  1.
         13    1    4    4    0    0  0.39822211430E+01 -0.60913071803E+01 -0.51088718793E+02  0.51604558523E+02  0.10566000000E+00 0. -1.
        -13    1    4    4    0    0  0.42339280364E+01 -0.45705980741E+01 -0.46013378555E+02  0.46433378979E+02  0.10566000000E+00 0.  1.
         14    1    4    4    0    0  0.11786678492E+02 -0.16196096409E+02 -0.14815011498E+03  0.14949814680E+03  0.00000000000E+00 0. -1.
<mgrwt>
<rscale>  0 0.78592957E+02</rscale>
<asrwt>0</asrwt>
<pdfrwt beam="1">  1        2 0.49791292E-01 0.78592957E+02</pdfrwt>
<pdfrwt beam="2">  1       -1 0.73405256E-03 0.78592957E+02</pdfrwt>
<totfact> 0.27448389E+05</totfact>
</mgrwt>
</event>
<event>
 8    1  0.2433467E-020  0.7816806E+02  0.7818608E-02  0.1334332E+00
          2   -1    0    0  501    0  0.00000000000E+00  0.00000000000E+00  0.62044026271E+02  0.62044026324E+02  0.25500000000E-02 0. -1.
         -1   -1    0    0    0  501 -0.00000000000E+00 -0.00000000000E+00 -0.24620605416E+02  0.24620605932E+02  0.50400000000E-02 0.  1.
         24    2    1    2    0    0  0.00000000000E+00  0.17763568394E-14  0.37423420855E+02  0.86664632256E+02  0.78168062888E+02 0.  0.
         66    2    3    3    0    0 -0.12166848896E+02  0.14577658579E+02  0.56566314064E+02  0.59701660125E+02  0.19999982953E+01 0.  0.
        -13    1    3    3    0    0  0.12166848896E+02 -0.14577658579E+02 -0.19142893209E+02  0.26962972131E+02  0.10566000000E+00 0.  1.
         13    1    4    4    0    0 -0.43249314735E+01  0.43651741378E+01  0.16401647501E+02  0.17515278539E+02  0.10566000000E+00 0. -1.
        -13    1    4    4    0    0 -0.73838899777E+00  0.13362889884E+01  0.51169718995E+01  0.53409223949E+01  0.10566000000E+00 0.  1.
         14    1    4    4    0    0 -0.71035284247E+01  0.88761954530E+01  0.35047694663E+02  0.36845459191E+02  0.00000000000E+00 0. -1.
<mgrwt>
<rscale>  0 0.78168063E+02</rscale>
<asrwt>0</asrwt>
<pdfrwt beam="1">  1        2 0.95452346E-02 0.78168063E+02</pdfrwt>
<pdfrwt beam="2">  1       -1 0.37877856E-02 0.78168063E+02</pdfrwt>
<totfact> 0.16705535E+05</totfact>
</mgrwt>
</event>
<event>
 8    1  0.2433467E-020  0.7794616E+02  0.7818608E-02  0.1334983E+00
          2   -1    0    0  501    0  0.00000000000E+00  0.00000000000E+00  0.60016994553E+03  0.60016994553E+03  0.25500000000E-02 0. -1.
         -1   -1    0    0    0  501 -0.00000000000E+00 -0.00000000000E+00 -0.25307822944E+01  0.25307873129E+01  0.50400000000E-02 0.  1.
         24    2    1    2    0    0  0.00000000000E+00 -0.35527136788E-14  0.59763916323E+03  0.60270073285E+03  0.77946160540E+02 0.  0.
         66    2    3    3    0    0  0.82587199465E+01  0.28152668382E+02  0.49707613959E+03  0.49794524573E+03  0.20000012899E+01 0.  0.
        -13    1    3    3    0    0 -0.82587199465E+01 -0.28152668382E+02  0.10056302364E+03  0.10475548711E+03  0.10566000000E+00 0.  1.
         13    1    4    4    0    0  0.26489664170E+01  0.10288657805E+02  0.17986735382E+03  0.18018088033E+03  0.10566000000E+00 0.  1.
        -13    1    4    4    0    0  0.36224626020E+01  0.12203693335E+02  0.20415841326E+03  0.20455493451E+03  0.10566000000E+00 0. -1.
         14    1    4    4    0    0  0.19872909274E+01  0.56603172414E+01  0.11305037252E+03  0.11320943090E+03  0.00000000000E+00 0. -1.
<mgrwt>
<rscale>  0 0.77946161E+02</rscale>
<asrwt>0</asrwt>
<pdfrwt beam="1">  1        2 0.92333948E-01 0.77946161E+02</pdfrwt>
<pdfrwt beam="2">  1       -1 0.38935104E-03 0.77946161E+02</pdfrwt>
<totfact> 0.34415341E+05</totfact>
</mgrwt>
</event>
<event>
 8    1  0.2433467E-020  0.8050768E+02  0.7818608E-02  0.1327617E+00
          2   -1    0    0  501    0  0.00000000000E+00  0.00000000000E+00  0.52668987725E+03  0.52668987726E+03  0.25500000000E-02 0. -1.
         -1   -1    0    0    0  501 -0.00000000000E+00 -0.00000000000E+00 -0.30765175909E+01  0.30765217192E+01  0.50400000000E-02 0.  1.
         24    2    1    2    0    0  0.00000000000E+00  0.00000000000E+00  0.52361335966E+03  0.52976639898E+03  0.80507683297E+02 0.  0.
         66    2    3    3    0    0  0.10111187564E+02  0.16245584929E+02  0.49482300617E+03  0.49519689274E+03  0.19999986865E+01 0.  0.
        -13    1    3    3    0    0 -0.10111187564E+02 -0.16245584929E+02  0.28790353485E+02  0.34569506237E+02  0.10566000000E+00 0.  1.
         13    1    4    4    0    0  0.28459502806E+01  0.41807539028E+01  0.12567856822E+03  0.12578033157E+03  0.10566000000E+00 0. -1.
        -13    1    4    4    0    0  0.44784301196E+01  0.81814322905E+01  0.26076886297E+03  0.26093563044E+03  0.10566000000E+00 0.  1.
        -14    1    4    4    0    0  0.27868071640E+01  0.38833987359E+01  0.10837557498E+03  0.10848093073E+03  0.00000000000E+00 0.  1.
<mgrwt>
<rscale>  0 0.80507683E+02</rscale>
<asrwt>0</asrwt>
<pdfrwt beam="1">  1        2 0.81029298E-01 0.80507683E+02</pdfrwt>
<pdfrwt beam="2">  1       -1 0.47331021E-03 0.80507683E+02</pdfrwt>
<totfact> 0.30446185E+05</totfact>
</mgrwt>
</event>
<event>
 8    1  0.2433467E-020  0.8144522E+02  0.7818608E-02  0.1324999E+00
          2   -1    0    0  501    0  0.00000000000E+00  0.00000000000E+00  0.73309307713E+03  0.73309307714E+03  0.25500000000E-02 0. -1.
         -1   -1    0    0    0  501 -0.00000000000E+00 -0.00000000000E+00 -0.22620985860E+01  0.22621042006E+01  0.50400000000E-02 0.  1.
         24    2    1    2    0    0  0.71054273576E-14 -0.88817841970E-15  0.73083097855E+03  0.73535518134E+03  0.81445217888E+02 0.  0.
         66    2    3    3    0    0  0.31793207622E+02 -0.60462182444E+01  0.58844094743E+03  0.58933361810E+03  0.20000001020E+01 0.  0.
        -13    1    3    3    0    0 -0.31793207622E+02  0.60462182444E+01  0.14239003111E+03  0.14602156324E+03  0.10566000000E+00 0.  1.
         13    1    4    4    0    0  0.10099110418E+02 -0.19076782668E+01  0.19873134412E+03  0.19899695869E+03  0.10566000000E+00 0. -1.
        -13    1    4    4    0    0  0.19733969678E+01 -0.21414989324E+00  0.30470750816E+02  0.30535519892E+02  0.10566000000E+00 0.  1.
         14    1    4    4    0    0  0.19720700237E+02 -0.39243900843E+01  0.35923885249E+03  0.35980113951E+03  0.00000000000E+00 0. -1.
<mgrwt>
<rscale>  0 0.81445218E+02</rscale>
<asrwt>0</asrwt>
<pdfrwt beam="1">  1        2 0.11278359E+00 0.81445218E+02</pdfrwt>
<pdfrwt beam="2">  1       -1 0.34801548E-03 0.81445218E+02</pdfrwt>
<totfact> 0.32255715E+05</totfact>
</mgrwt>
</event>
<event>
 8    1  0.2433467E-020  0.8775928E+02  0.7818608E-02  0.1308370E+00
          2   -1    0    0  501    0  0.00000000000E+00  0.00000000000E+00  0.17991026238E+03  0.17991026240E+03  0.25500000000E-02 0. -1.
         -1   -1    0    0    0  501 -0.00000000000E+00 -0.00000000000E+00 -0.10702127506E+02  0.10702128693E+02  0.50400000000E-02 0.  1.
         24    2    1    2    0    0  0.00000000000E+00  0.00000000000E+00  0.16920813488E+03  0.19061239109E+03  0.87759277172E+02 0.  0.
         66    2    3    3    0    0  0.12607720613E+02 -0.24196282776E+02  0.15922670882E+03  0.16155977074E+03  0.20000001908E+01 0.  0.
        -13    1    3    3    0    0 -0.12607720613E+02  0.24196282776E+02  0.99814260569E+01  0.29052620353E+02  0.10566000000E+00 0.  1.
         13    1    4    4    0    0  0.64508357139E+01 -0.11132127714E+02  0.73221133813E+02  0.74343010093E+02  0.10566000000E+00 0. -1.
        -13    1    4    4    0    0  0.11850092193E+01 -0.34764213178E+01  0.23277620509E+02  0.23565834011E+02  0.10566000000E+00 0.  1.
        -14    1    4    4    0    0  0.49718756802E+01 -0.95877337441E+01  0.62727954497E+02  0.63650926635E+02  0.00000000000E+00 0.  1.
<mgrwt>
<rscale>  0 0.87759277E+02</rscale>
<asrwt>0</asrwt>
<pdfrwt beam="1">  1        2 0.27678501E-01 0.87759277E+02</pdfrwt>
<pdfrwt beam="2">  1       -1 0.16464813E-02 0.87759277E+02</pdfrwt>
<totfact> 0.16632853E+05</totfact>
</mgrwt>
</event>
<event>
 8    1  0.2433467E-020  0.7956894E+02  0.7818608E-02  0.1330279E+00
          2   -1    0    0  501    0  0.00000000000E+00  0.00000000000E+00  0.74253880030E+02  0.74253880073E+02  0.25500000000E-02 0. -1.
         -1   -1    0    0    0  501 -0.00000000000E+00 -0.00000000000E+00 -0.21316111843E+02  0.21316112438E+02  0.50400000000E-02 0.  1.
         24    2    1    2    0    0 -0.35527136788E-14  0.35527136788E-14  0.52937768187E+02  0.95569992512E+02  0.79568939719E+02 0.  0.
         66    2    3    3    0    0 -0.27967635770E+02  0.22629809635E+02  0.61553472684E+01  0.36553867548E+02  0.19999995026E+01 0.  0.
        -13    1    3    3    0    0  0.27967635770E+02 -0.22629809635E+02  0.46782420919E+02  0.59016124964E+02  0.10566000000E+00 0.  1.
         13    1    4    4    0    0 -0.11951154756E+02  0.10115528731E+02  0.29308267806E+01  0.15929687102E+02  0.10566000000E+00 0. -1.
        -13    1    4    4    0    0 -0.11349296574E+02  0.95358684620E+01  0.20594053748E+01  0.14966350076E+02  0.10566000000E+00 0.  1.
         14    1    4    4    0    0 -0.46671844399E+01  0.29784124422E+01  0.11651151131E+01  0.56578303703E+01  0.00000000000E+00 0. -1.
<mgrwt>
<rscale>  0 0.79568940E+02</rscale>
<asrwt>0</asrwt>
<pdfrwt beam="1">  1        2 0.11423673E-01 0.79568940E+02</pdfrwt>
<pdfrwt beam="2">  1       -1 0.32794020E-02 0.79568940E+02</pdfrwt>
<totfact> 0.16624280E+05</totfact>
</mgrwt>
</event>
<event>
 8    1  0.2433467E-020  0.7905431E+02  0.7818608E-02  0.1331757E+00
         -1   -1    0    0    0  501 -0.00000000000E+00  0.00000000000E+00  0.49998675503E+01  0.49998700905E+01  0.50400000000E-02 0.  1.
          2   -1    0    0  501    0  0.00000000000E+00 -0.00000000000E+00 -0.31248737124E+03  0.31248737126E+03  0.25500000000E-02 0. -1.
         24    2    1    2    0    0 -0.17763568394E-14 -0.71054273576E-14 -0.30748750369E+03  0.31748724135E+03  0.79054307214E+02 0.  0.
         66    2    3    3    0    0 -0.90406062565E+01 -0.37455843863E+02 -0.11889562281E+03  0.12499936770E+03  0.20000002802E+01 0.  0.
        -13    1    3    3    0    0  0.90406062565E+01  0.37455843863E+02 -0.18859188088E+03  0.19248787364E+03  0.10566000000E+00 0.  1.
         13    1    4    4    0    0 -0.31040464216E+01 -0.10573806666E+02 -0.34870740074E+02  0.36570755651E+02  0.10566000000E+00 0. -1.
        -13    1    4    4    0    0 -0.96830565809E-01 -0.17419984797E+01 -0.51831691155E+01  0.54699489008E+01  0.10566000000E+00 0.  1.
        -14    1    4    4    0    0 -0.58397292691E+01 -0.25140038717E+02 -0.78841713624E+02  0.82958663151E+02  0.00000000000E+00 0.  1.
<mgrwt>
<rscale>  0 0.79054307E+02</rscale>
<asrwt>0</asrwt>
<pdfrwt beam="1">  1        2 0.48074965E-01 0.79054307E+02</pdfrwt>
<pdfrwt beam="2">  1       -1 0.76921083E-03 0.79054307E+02</pdfrwt>
<totfact> 0.26691780E+05</totfact>
</mgrwt>
</event>
<event>
 8    1  0.2433467E-020  0.8059508E+02  0.7818608E-02  0.1327371E+00
          2   -1    0    0  501    0  0.00000000000E+00  0.00000000000E+00  0.15522285856E+02  0.15522286065E+02  0.25500000000E-02 0. -1.
         -1   -1    0    0    0  501 -0.00000000000E+00 -0.00000000000E+00 -0.10461678651E+03  0.10461678663E+03  0.50400000000E-02 0.  1.
         24    2    1    2    0    0  0.00000000000E+00  0.00000000000E+00 -0.89094500654E+02  0.12013907270E+03  0.80595078892E+02 0.  0.
         66    2    3    3    0    0 -0.21043446729E+02  0.30104298341E+02 -0.69194773174E+02  0.78364609843E+02  0.20000031165E+01 0.  0.
        -13    1    3    3    0    0  0.21043446729E+02 -0.30104298341E+02 -0.19899727480E+02  0.41774462853E+02  0.10566000000E+00 0.  1.
         13    1    4    4    0    0 -0.19158318793E+02  0.27463283269E+02 -0.63512717151E+02  0.71799369849E+02  0.10566000000E+00 0. -1.
        -13    1    4    4    0    0 -0.56682872834E+00  0.12220676194E+01 -0.24050668523E+01  0.27586690039E+01  0.10566000000E+00 0.  1.
         14    1    4    4    0    0 -0.13182992083E+01  0.14189474527E+01 -0.32769891706E+01  0.38065709898E+01  0.00000000000E+00 0. -1.
<mgrwt>
<rscale>  0 0.80595079E+02</rscale>
<asrwt>0</asrwt>
<pdfrwt beam="1">  1        2 0.23880441E-02 0.80595079E+02</pdfrwt>
<pdfrwt beam="2">  1       -1 0.16094890E-01 0.80595079E+02</pdfrwt>
<totfact> 0.11522862E+05</totfact>
</mgrwt>
</event>
<event>
 8    1  0.2433467E-020  0.8953812E+02  0.7818608E-02  0.1303974E+00
          2   -1    0    0  501    0  0.00000000000E+00  0.00000000000E+00  0.48483522259E+03  0.48483522260E+03  0.25500000000E-02 0. -1.
         -1   -1    0    0    0  501 -0.00000000000E+00 -0.00000000000E+00 -0.41339160241E+01  0.41339190964E+01  0.50400000000E-02 0.  1.
         24    2    1    2    0    0  0.35527136788E-14  0.17763568394E-14  0.48070130656E+03  0.48896914169E+03  0.89538122573E+02 0.  0.
         66    2    3    3    0    0  0.20857776367E+02  0.13274928590E+02  0.44414441559E+03  0.44483652330E+03  0.20000002072E+01 0.  0.
        -13    1    3    3    0    0 -0.20857776367E+02 -0.13274928590E+02  0.36556890975E+02  0.44132618389E+02  0.10566000000E+00 0.  1.
         13    1    4    4    0    0  0.61483512833E+01  0.31006072198E+01  0.11406397078E+03  0.11427167883E+03  0.10566000000E+00 0. -1.
        -13    1    4    4    0    0  0.54041012642E+01  0.38684659379E+01  0.12060693680E+03  0.12078995698E+03  0.10566000000E+00 0.  1.
         14    1    4    4    0    0  0.93053238195E+01  0.63058554326E+01  0.20947350801E+03  0.20977488749E+03  0.00000000000E+00 0. -1.
<mgrwt>
<rscale>  0 0.89538123E+02</rscale>
<asrwt>0</asrwt>
<pdfrwt beam="1">  1        2 0.74590006E-01 0.89538123E+02</pdfrwt>
<pdfrwt beam="2">  1       -1 0.63598756E-03 0.89538123E+02</pdfrwt>
<totfact> 0.22442930E+05</totfact>
</mgrwt>
</event>
<event>
 8    1  0.2433467E-020  0.8021621E+02  0.7818608E-02  0.1328439E+00
         -1   -1    0    0    0  501 -0.00000000000E+00  0.00000000000E+00  0.16114548955E+01  0.16114627770E+01  0.50400000000E-02 0.  1.
          2   -1    0    0  501    0  0.00000000000E+00 -0.00000000000E+00 -0.99826313584E+03  0.99826313584E+03  0.25500000000E-02 0. -1.
         24    2    1    2    0    0  0.35527136788E-14  0.35527136788E-14 -0.99665168094E+03  0.99987459862E+03  0.80216206820E+02 0.  0.
         66    2    3    3    0    0  0.21451973073E+02  0.22233486954E+02 -0.81694733210E+03  0.81753376598E+03  0.19999996886E+01 0.  0.
        -13    1    3    3    0    0 -0.21451973073E+02 -0.22233486954E+02 -0.17970434884E+03  0.18234083264E+03  0.10566000000E+00 0.  1.
         13    1    4    4    0    0  0.96341646021E+01  0.97187496206E+01 -0.35081386713E+03  0.35108069123E+03  0.10566000000E+00 0. -1.
        -13    1    4    4    0    0  0.28339398185E+01  0.34690183723E+01 -0.13469025748E+03  0.13476476515E+03  0.10566000000E+00 0.  1.
        -14    1    4    4    0    0  0.89838686521E+01  0.90457189606E+01 -0.33144320750E+03  0.33168830960E+03  0.00000000000E+00 0.  1.
<mgrwt>
<rscale>  0 0.80216207E+02</rscale>
<asrwt>0</asrwt>
<pdfrwt beam="1">  1        2 0.15357845E+00 0.80216207E+02</pdfrwt>
<pdfrwt beam="2">  1       -1 0.24791754E-03 0.80216207E+02</pdfrwt>
<totfact> 0.34982558E+05</totfact>
</mgrwt>
</event>
<event>
 8    1  0.2433467E-020  0.8023575E+02  0.7818608E-02  0.1328384E+00
         -1   -1    0    0    0  501 -0.00000000000E+00  0.00000000000E+00  0.53644617593E+01  0.53644641269E+01  0.50400000000E-02 0.  1.
          2   -1    0    0  501    0  0.00000000000E+00 -0.00000000000E+00 -0.30001954569E+03  0.30001954570E+03  0.25500000000E-02 0. -1.
         24    2    1    2    0    0  0.00000000000E+00  0.00000000000E+00 -0.29465508393E+03  0.30538400983E+03  0.80235746225E+02 0.  0.
         66    2    3    3    0    0 -0.15159752740E+02  0.28497863099E+02 -0.23792783545E+03  0.24011580786E+03  0.19999990610E+01 0.  0.
        -13    1    3    3    0    0  0.15159752740E+02 -0.28497863099E+02 -0.56727248481E+02  0.65268201972E+02  0.10566000000E+00 0.  1.
         13    1    4    4    0    0 -0.76759553901E+01  0.14571365691E+02 -0.11706886263E+03  0.11822171861E+03  0.10566000000E+00 0. -1.
        -13    1    4    4    0    0 -0.42381912280E+01  0.88538523724E+01 -0.72475630086E+02  0.73137412363E+02  0.10566000000E+00 0.  1.
        -14    1    4    4    0    0 -0.32456061217E+01  0.50726450354E+01 -0.48383342738E+02  0.48756676889E+02  0.00000000000E+00 0.  1.
<mgrwt>
<rscale>  0 0.80235746E+02</rscale>
<asrwt>0</asrwt>
<pdfrwt beam="1">  1        2 0.46156840E-01 0.80235746E+02</pdfrwt>
<pdfrwt beam="2">  1       -1 0.82530223E-03 0.80235746E+02</pdfrwt>
<totfact> 0.25299132E+05</totfact>
</mgrwt>
</event>
<event>
 8    1  0.2433467E-020  0.6948148E+02  0.7818608E-02  0.1361865E+00
         -1   -1    0    0    0  501 -0.00000000000E+00  0.00000000000E+00  0.10606566876E+02  0.10606568073E+02  0.50400000000E-02 0.  1.
          2   -1    0    0  501    0  0.00000000000E+00 -0.00000000000E+00 -0.11378978265E+03  0.11378978268E+03  0.25500000000E-02 0. -1.
         24    2    1    2    0    0 -0.35527136788E-14  0.17763568394E-14 -0.10318321577E+03  0.12439635075E+03  0.69481479998E+02 0.  0.
         66    2    3    3    0    0 -0.23680263892E+02  0.10847805739E+02 -0.92714322820E+02  0.96324324264E+02  0.20000004051E+01 0.  0.
        -13    1    3    3    0    0  0.23680263892E+02 -0.10847805739E+02 -0.10468892953E+02  0.28072026486E+02  0.10566000000E+00 0.  1.
         13    1    4    4    0    0 -0.14261849518E+02  0.64854148501E+01 -0.52514456804E+02  0.54801827478E+02  0.10566000000E+00 0. -1.
        -13    1    4    4    0    0 -0.53674255896E+00  0.29317029467E+00 -0.27702249847E+01  0.28388997688E+01  0.10566000000E+00 0.  1.
        -14    1    4    4    0    0 -0.88816718148E+01  0.40692205944E+01 -0.37429641031E+02  0.38683597017E+02  0.00000000000E+00 0.  1.
<mgrwt>
<rscale>  0 0.69481480E+02</rscale>
<asrwt>0</asrwt>
<pdfrwt beam="1">  1        2 0.17506120E-01 0.69481480E+02</pdfrwt>
<pdfrwt beam="2">  1       -1 0.16317797E-02 0.69481480E+02</pdfrwt>
<totfact> 0.26708909E+05</totfact>
</mgrwt>
</event>
<event>
 8    1  0.2433467E-020  0.8000749E+02  0.7818608E-02  0.1329030E+00
         -1   -1    0    0    0  501 -0.00000000000E+00  0.00000000000E+00  0.76958139212E+02  0.76958139377E+02  0.50400000000E-02 0.  1.
          2   -1    0    0  501    0  0.00000000000E+00 -0.00000000000E+00 -0.20794418451E+02  0.20794418607E+02  0.25500000000E-02 0. -1.
         24    2    1    2    0    0  0.00000000000E+00  0.00000000000E+00  0.56163720761E+02  0.97752557984E+02  0.80007493791E+02 0.  0.
         66    2    3    3    0    0 -0.25933058051E+02  0.80871162420E+01 -0.77383347211E+01  0.28316192815E+02  0.20000005693E+01 0.  0.
        -13    1    3    3    0    0  0.25933058051E+02 -0.80871162420E+01  0.63902055482E+02  0.69436365169E+02  0.10566000000E+00 0.  1.
         13    1    4    4    0    0 -0.11647916917E+02  0.41430709372E+01 -0.33566177442E+01  0.12810817773E+02  0.10566000000E+00 0. -1.
        -13    1    4    4    0    0 -0.15830168784E+01  0.75906054158E+00 -0.77841398075E+00  0.19233324476E+01  0.10566000000E+00 0.  1.
        -14    1    4    4    0    0 -0.12702124256E+02  0.31849847632E+01 -0.36033029962E+01  0.13582042594E+02  0.00000000000E+00 0.  1.
<mgrwt>
<rscale>  0 0.80007494E+02</rscale>
<asrwt>0</asrwt>
<pdfrwt beam="1">  1        2 0.31991413E-02 0.80007494E+02</pdfrwt>
<pdfrwt beam="2">  1       -1 0.11839714E-01 0.80007494E+02</pdfrwt>
<totfact> 0.12510272E+05</totfact>
</mgrwt>
</event>
<event>
 8    1  0.2433467E-020  0.7752526E+02  0.7818608E-02  0.1336225E+00
         -1   -1    0    0    0  501 -0.00000000000E+00  0.00000000000E+00  0.13903462024E+02  0.13903462938E+02  0.50400000000E-02 0.  1.
          2   -1    0    0  501    0  0.00000000000E+00 -0.00000000000E+00 -0.10806958971E+03  0.10806958974E+03  0.25500000000E-02 0. -1.
         24    2    1    2    0    0 -0.35527136788E-14  0.00000000000E+00 -0.94166127682E+02  0.12197305267E+03  0.77525260245E+02 0.  0.
         66    2    3    3    0    0  0.21982251641E+02 -0.20087364624E+02 -0.86094093427E+02  0.91120329848E+02  0.19999959657E+01 0.  0.
        -13    1    3    3    0    0 -0.21982251641E+02  0.20087364624E+02 -0.80720342552E+01  0.30852722826E+02  0.10566000000E+00 0.  1.
         13    1    4    4    0    0  0.68616197902E+01 -0.60105652716E+01 -0.28009993640E+02  0.29458099544E+02  0.10566000000E+00 0. -1.
        -13    1    4    4    0    0  0.26708539770E+01 -0.21627331389E+01 -0.84968211107E+01  0.91661337880E+01  0.10566000000E+00 0.  1.
        -14    1    4    4    0    0  0.12449777873E+02 -0.11914066214E+02 -0.49587278676E+02  0.52496096515E+02  0.00000000000E+00 0.  1.
<mgrwt>
<rscale>  0 0.77525260E+02</rscale>
<asrwt>0</asrwt>
<pdfrwt beam="1">  1        2 0.16626090E-01 0.77525260E+02</pdfrwt>
<pdfrwt beam="2">  1       -1 0.21389943E-02 0.77525260E+02</pdfrwt>
<totfact> 0.19705965E+05</totfact>
</mgrwt>
</event>
<event>
 8    1  0.2433467E-020  0.8103901E+02  0.7818608E-02  0.1326128E+00
          2   -1    0    0  501    0  0.00000000000E+00  0.00000000000E+00  0.85045348078E+02  0.85045348117E+02  0.25500000000E-02 0. -1.
         -1   -1    0    0    0  501 -0.00000000000E+00 -0.00000000000E+00 -0.19305351058E+02  0.19305351716E+02  0.50400000000E-02 0.  1.
         24    2    1    2    0    0  0.00000000000E+00  0.00000000000E+00  0.65739997021E+02  0.10435069983E+03  0.81039011268E+02 0.  0.
         66    2    3    3    0    0  0.13815811177E+02  0.36737811592E+02  0.45720248459E+02  0.60290003792E+02  0.19999997574E+01 0.  0.
        -13    1    3    3    0    0 -0.13815811177E+02 -0.36737811592E+02  0.20019748562E+02  0.44060696041E+02  0.10566000000E+00 0.  1.
         13    1    4    4    0    0  0.95091449947E+01  0.25132770564E+02  0.31387733679E+02  0.41319256822E+02  0.10566000000E+00 0. -1.
        -13    1    4    4    0    0  0.24510301120E+01  0.80848913288E+01  0.96809693265E+01  0.12849332572E+02  0.10566000000E+00 0.  1.
         14    1    4    4    0    0  0.18556360702E+01  0.35201496991E+01  0.46515454533E+01  0.61214143981E+01  0.00000000000E+00 0. -1.
<mgrwt>
<rscale>  0 0.81039011E+02</rscale>
<asrwt>0</asrwt>
<pdfrwt beam="1">  1        2 0.13083900E-01 0.81039011E+02</pdfrwt>
<pdfrwt beam="2">  1       -1 0.29700541E-02 0.81039011E+02</pdfrwt>
<totfact> 0.16383843E+05</totfact>
</mgrwt>
</event>
<event>
 8    1  0.2433467E-020  0.7719138E+02  0.7818608E-02  0.1337216E+00
          2   -1    0    0  501    0  0.00000000000E+00  0.00000000000E+00  0.22854082547E+03  0.22854082548E+03  0.25500000000E-02 0. -1.
         -1   -1    0    0    0  501 -0.00000000000E+00 -0.00000000000E+00 -0.65179904228E+01  0.65179923714E+01  0.50400000000E-02 0.  1.
         24    2    1    2    0    0  0.00000000000E+00  0.00000000000E+00  0.22202283504E+03  0.23505881785E+03  0.77191376261E+02 0.  0.
         66    2    3    3    0    0 -0.37287335887E+02 -0.85083906681E+01  0.95895342225E+02  0.10326013145E+03  0.19999891853E+01 0.  0.
        -13    1    3    3    0    0  0.37287335887E+02  0.85083906681E+01  0.12612749282E+03  0.13179868640E+03  0.10566000000E+00 0.  1.
         13    1    4    4    0    0 -0.78024716029E+01 -0.20787513950E+01  0.19860940441E+02  0.21439866830E+02  0.10566000000E+00 0. -1.
        -13    1    4    4    0    0 -0.20600901539E+02 -0.45797694721E+01  0.51134955199E+02  0.55318769328E+02  0.10566000000E+00 0.  1.
         14    1    4    4    0    0 -0.88839627443E+01 -0.18498698009E+01  0.24899446585E+02  0.26501495289E+02  0.00000000000E+00 0. -1.
<mgrwt>
<rscale>  0 0.77191376E+02</rscale>
<asrwt>0</asrwt>
<pdfrwt beam="1">  1        2 0.35160121E-01 0.77191376E+02</pdfrwt>
<pdfrwt beam="2">  1       -1 0.10027681E-02 0.77191376E+02</pdfrwt>
<totfact> 0.25392988E+05</totfact>
</mgrwt>
</event>
<event>
 8    1  0.2433467E-020  0.8490126E+02  0.7818608E-02  0.1315691E+00
         -1   -1    0    0    0  501 -0.00000000000E+00  0.00000000000E+00  0.43013293770E+01  0.43013323298E+01  0.50400000000E-02 0.  1.
          2   -1    0    0  501    0  0.00000000000E+00 -0.00000000000E+00 -0.41895309229E+03  0.41895309230E+03  0.25500000000E-02 0. -1.
         24    2    1    2    0    0  0.00000000000E+00 -0.44408920985E-15 -0.41465176291E+03  0.42325442463E+03  0.84901257234E+02 0.  0.
         66    2    3    3    0    0  0.23138803607E+02 -0.28302934103E+01 -0.38416323024E+03  0.38487504759E+03  0.19999991409E+01 0.  0.
        -13    1    3    3    0    0 -0.23138803607E+02  0.28302934103E+01 -0.30488532673E+02  0.38379377037E+02  0.10566000000E+00 0.  1.
         13    1    4    4    0    0  0.11600831499E+02 -0.13949790691E+01 -0.18728098289E+03  0.18764515174E+03  0.10566000000E+00 0. -1.
        -13    1    4    4    0    0  0.90571288791E+01 -0.81153035348E+00 -0.16094585611E+03  0.16120257420E+03  0.10566000000E+00 0.  1.
         14    1    4    4    0    0  0.24808432281E+01 -0.62378398772E+00 -0.35936391242E+02  0.36027321648E+02  0.00000000000E+00 0. -1.
<mgrwt>
<rscale>  0 0.84901257E+02</rscale>
<asrwt>0</asrwt>
<pdfrwt beam="1">  1        2 0.64454290E-01 0.84901257E+02</pdfrwt>
<pdfrwt beam="2">  1       -1 0.66174354E-03 0.84901257E+02</pdfrwt>
<totfact> 0.24571650E+05</totfact>
</mgrwt>
</event>
<event>
 8    1  0.2433467E-020  0.8639064E+02  0.7818608E-02  0.1311835E+00
          2   -1    0    0  501    0  0.00000000000E+00  0.00000000000E+00  0.84198173386E+02  0.84198173424E+02  0.25500000000E-02 0. -1.
         -1   -1    0    0    0  501 -0.00000000000E+00 -0.00000000000E+00 -0.22160047215E+02  0.22160047789E+02  0.50400000000E-02 0.  1.
         24    2    1    2    0    0 -0.71054273576E-14  0.17763568394E-14  0.62038126170E+02  0.10635822121E+03  0.86390636766E+02 0.  0.
         66    2    3    3    0    0 -0.32995271973E+02  0.14202351376E+02  0.60516950440E+02  0.70403807063E+02  0.20000003207E+01 0.  0.
        -13    1    3    3    0    0  0.32995271973E+02 -0.14202351376E+02  0.15211757301E+01  0.35954414149E+02  0.10566000000E+00 0.  1.
         13    1    4    4    0    0 -0.27023032207E+02  0.11237519071E+02  0.50179796889E+02  0.58090870921E+02  0.10566000000E+00 0. -1.
        -13    1    4    4    0    0 -0.55862375133E+01  0.29098042023E+01  0.97579969801E+01  0.11614761261E+02  0.10566000000E+00 0.  1.
         14    1    4    4    0    0 -0.38600225285E+00  0.55028103510E-01  0.57915657086E+00  0.69817488136E+00  0.00000000000E+00 0. -1.
<mgrwt>
<rscale>  0 0.86390637E+02</rscale>
<asrwt>0</asrwt>
<pdfrwt beam="1">  1        2 0.12953565E-01 0.86390637E+02</pdfrwt>
<pdfrwt beam="2">  1       -1 0.34092381E-02 0.86390637E+02</pdfrwt>
<totfact> 0.13743215E+05</totfact>
</mgrwt>
</event>
<event>
 8    1  0.2433467E-020  0.7992444E+02  0.7818608E-02  0.1329266E+00
          2   -1    0    0  501    0  0.00000000000E+00  0.00000000000E+00  0.14480523571E+03  0.14480523574E+03  0.25500000000E-02 0. -1.
         -1   -1    0    0    0  501 -0.00000000000E+00 -0.00000000000E+00 -0.11028461726E+02  0.11028462878E+02  0.50400000000E-02 0.  1.
         24    2    1    2    0    0  0.00000000000E+00  0.00000000000E+00  0.13377677399E+03  0.15583369861E+03  0.79924441600E+02 0.  0.
         66    2    3    3    0    0 -0.35024706990E+02 -0.11522702006E+02  0.96849412667E+02  0.10364994693E+03  0.20000010555E+01 0.  0.
        -13    1    3    3    0    0  0.35024706990E+02  0.11522702006E+02  0.36927361321E+02  0.52183751680E+02  0.10566000000E+00 0.  1.
         13    1    4    4    0    0 -0.44567578571E+01 -0.16130180859E+01  0.12190835667E+02  0.13080220038E+02  0.10566000000E+00 0. -1.
        -13    1    4    4    0    0 -0.19145833588E+02 -0.63244963731E+01  0.55494129234E+02  0.59043812052E+02  0.10566000000E+00 0.  1.
        -14    1    4    4    0    0 -0.11422115545E+02 -0.35851875473E+01  0.29164447765E+02  0.31525914843E+02  0.00000000000E+00 0.  1.
<mgrwt>
<rscale>  0 0.79924442E+02</rscale>
<asrwt>0</asrwt>
<pdfrwt beam="1">  1        2 0.22277728E-01 0.79924442E+02</pdfrwt>
<pdfrwt beam="2">  1       -1 0.16966866E-02 0.79924442E+02</pdfrwt>
<totfact> 0.19854755E+05</totfact>
</mgrwt>
</event>
<event>
 8    1  0.2433467E-020  0.8113504E+02  0.7818608E-02  0.1325861E+00
          2   -1    0    0  501    0  0.00000000000E+00  0.00000000000E+00  0.18793851917E+02  0.18793852090E+02  0.25500000000E-02 0. -1.
         -1   -1    0    0    0  501 -0.00000000000E+00 -0.00000000000E+00 -0.87567127051E+02  0.87567127196E+02  0.50400000000E-02 0.  1.
         24    2    1    2    0    0  0.35527136788E-14  0.35527136788E-14 -0.68773275134E+02  0.10636097929E+03  0.81135038930E+02 0.  0.
         66    2    3    3    0    0  0.29137115503E+02 -0.25805426361E+02 -0.19528344058E+02  0.43591831370E+02  0.20000027571E+01 0.  0.
        -13    1    3    3    0    0 -0.29137115503E+02  0.25805426361E+02 -0.49244931076E+02  0.62769147916E+02  0.10566000000E+00 0.  1.
         13    1    4    4    0    0  0.11960503747E+02 -0.10192564346E+02 -0.72191153562E+01  0.17293605998E+02  0.10566000000E+00 0. -1.
        -13    1    4    4    0    0  0.90022687049E+01 -0.88489352900E+01 -0.63884434430E+01  0.14148069524E+02  0.10566000000E+00 0.  1.
        -14    1    4    4    0    0  0.81743430506E+01 -0.67639267244E+01 -0.59207852590E+01  0.12150155848E+02  0.00000000000E+00 0.  1.
<mgrwt>
<rscale>  0 0.81135039E+02</rscale>
<asrwt>0</asrwt>
<pdfrwt beam="1">  1        2 0.28913619E-02 0.81135039E+02</pdfrwt>
<pdfrwt beam="2">  1       -1 0.13471866E-01 0.81135039E+02</pdfrwt>
<totfact> 0.11770400E+05</totfact>
</mgrwt>
</event>
<event>
 8    1  0.2433467E-020  0.7923440E+02  0.7818608E-02  0.1331238E+00
         -1   -1    0    0    0  501 -0.00000000000E+00  0.00000000000E+00  0.21968214669E+02  0.21968215247E+02  0.50400000000E-02 0.  1.
          2   -1    0    0  501    0  0.00000000000E+00 -0.00000000000E+00 -0.71445157717E+02  0.71445157763E+02  0.25500000000E-02 0. -1.
         24    2    1    2    0    0  0.88817841970E-15 -0.35527136788E-14 -0.49476943048E+02  0.93413373010E+02  0.79234401390E+02 0.  0.
         66    2    3    3    0    0 -0.38452393364E+01  0.21301818492E+02 -0.63837114970E+02  0.67436863654E+02  0.19999988036E+01 0.  0.
        -13    1    3    3    0    0  0.38452393364E+01 -0.21301818492E+02  0.14360171922E+02  0.25976509356E+02  0.10566000000E+00 0.  1.
         13    1    4    4    0    0 -0.16200026375E+01  0.64279726544E+01 -0.21769695825E+02  0.22756846472E+02  0.10566000000E+00 0. -1.
        -13    1    4    4    0    0 -0.28223869531E+00  0.32995943633E+01 -0.87966330250E+01  0.93999413964E+01  0.10566000000E+00 0.  1.
         14    1    4    4    0    0 -0.19429980036E+01  0.11574251475E+02 -0.33270786120E+02  0.35280075786E+02  0.00000000000E+00 0. -1.
<mgrwt>
<rscale>  0 0.79234401E+02</rscale>
<asrwt>0</asrwt>
<pdfrwt beam="1">  1        2 0.10991563E-01 0.79234401E+02</pdfrwt>
<pdfrwt beam="2">  1       -1 0.33797254E-02 0.79234401E+02</pdfrwt>
<totfact> 0.16654990E+05</totfact>
</mgrwt>
</event>
<event>
 8    1  0.2433467E-020  0.7488086E+02  0.7818608E-02  0.1344240E+00
          2   -1    0    0  501    0  0.00000000000E+00  0.00000000000E+00  0.21641496680E+03  0.21641496681E+03  0.25500000000E-02 0. -1.
         -1   -1    0    0    0  501 -0.00000000000E+00 -0.00000000000E+00 -0.64773034911E+01  0.64773054519E+01  0.50400000000E-02 0.  1.
         24    2    1    2    0    0 -0.17763568394E-14  0.00000000000E+00  0.20993766331E+03  0.22289227227E+03  0.74880855769E+02 0.  0.
         66    2    3    3    0    0 -0.65941611038E+01 -0.82078607803E+01  0.21190929012E+03  0.21218011023E+03  0.19999995609E+01 0.  0.
        -13    1    3    3    0    0  0.65941611038E+01  0.82078607803E+01 -0.19716268097E+01  0.10712162040E+02  0.10566000000E+00 0.  1.
         13    1    4    4    0    0 -0.11130640389E+00  0.33597067552E-01  0.16519957025E+01  0.16594492204E+01  0.10566000000E+00 0. -1.
        -13    1    4    4    0    0 -0.16145170645E+01 -0.17471598627E+01  0.41426888826E+02  0.41495270993E+02  0.10566000000E+00 0.  1.
         14    1    4    4    0    0 -0.48683376354E+01 -0.64942979851E+01  0.16883040559E+03  0.16902539001E+03  0.00000000000E+00 0. -1.
<mgrwt>
<rscale>  0 0.74880856E+02</rscale>
<asrwt>0</asrwt>
<pdfrwt beam="1">  1        2 0.33294608E-01 0.74880856E+02</pdfrwt>
<pdfrwt beam="2">  1       -1 0.99650844E-03 0.74880856E+02</pdfrwt>
<totfact> 0.26975281E+05</totfact>
</mgrwt>
</event>
<event>
 8    1  0.2433467E-020  0.7569204E+02  0.7818608E-02  0.1341741E+00
          2   -1    0    0  501    0  0.00000000000E+00  0.00000000000E+00  0.68401882875E+02  0.68401882923E+02  0.25500000000E-02 0. -1.
         -1   -1    0    0    0  501 -0.00000000000E+00 -0.00000000000E+00 -0.20939790984E+02  0.20939791590E+02  0.50400000000E-02 0.  1.
         24    2    1    2    0    0 -0.35527136788E-14  0.17763568394E-14  0.47462091892E+02  0.89341674513E+02  0.75692038142E+02 0.  0.
         66    2    3    3    0    0  0.26571889378E+02  0.14427684658E+02  0.50561951784E+02  0.58946877506E+02  0.20000024388E+01 0.  0.
        -13    1    3    3    0    0 -0.26571889378E+02 -0.14427684658E+02 -0.30998598924E+01  0.30394797007E+02  0.10566000000E+00 0.  1.
         13    1    4    4    0    0  0.19995696949E+01  0.11992651323E+01  0.44410209750E+01  0.50170057961E+01  0.10566000000E+00 0.  1.
        -13    1    4    4    0    0  0.18116512441E+02  0.10479519210E+02  0.34072509872E+02  0.39987190935E+02  0.10566000000E+00 0. -1.
         14    1    4    4    0    0  0.64558072419E+01  0.27489003158E+01  0.12048420937E+02  0.13942680774E+02  0.00000000000E+00 0. -1.
<mgrwt>
<rscale>  0 0.75692038E+02</rscale>
<asrwt>0</asrwt>
<pdfrwt beam="1">  1        2 0.10523367E-01 0.75692038E+02</pdfrwt>
<pdfrwt beam="2">  1       -1 0.32215063E-02 0.75692038E+02</pdfrwt>
<totfact> 0.18643480E+05</totfact>
</mgrwt>
</event>
<event>
 8    1  0.3274709E-020  0.8020085E+02  0.7818608E-02  0.1328482E+00
         -1   -1    0    0    0  501 -0.00000000000E+00  0.00000000000E+00  0.18873819616E+01  0.18873886909E+01  0.50400000000E-02 0.  1.
          2   -1    0    0  501    0  0.00000000000E+00 -0.00000000000E+00 -0.85199571494E+03  0.85199571494E+03  0.25500000000E-02 0. -1.
         24    2    1    2    0    0 -0.35527136788E-14  0.00000000000E+00 -0.85010833298E+03  0.85388310364E+03  0.80200853322E+02 0.  0.
         66    2    3    3    0    0  0.30965564796E+02  0.12822763160E+01 -0.69582397420E+03  0.69651670010E+03  0.20000005842E+01 0.  0.
        -13    1    3    3    0    0 -0.30965564796E+02 -0.12822763160E+01 -0.15428435878E+03  0.15736640354E+03  0.10566000000E+00 0.  1.
         13    1    4    4    0    0  0.16889064360E+02  0.82569372786E+00 -0.38801386118E+03  0.38838214415E+03  0.10566000000E+00 0. -1.
        -13    1    4    4    0    0  0.45464720040E+01 -0.42400983614E-01 -0.11124596204E+03  0.11133888557E+03  0.10566000000E+00 0.  1.
        -14    1    4    4    0    0  0.95300284322E+01  0.49898357171E+00 -0.19656415099E+03  0.19679567038E+03  0.00000000000E+00 0.  1.
<mgrwt>
<rscale>  0 0.80200853E+02</rscale>
<asrwt>0</asrwt>
<pdfrwt beam="1">  1        2 0.13107596E+00 0.80200853E+02</pdfrwt>
<pdfrwt beam="2">  1       -1 0.29036765E-03 0.80200853E+02</pdfrwt>
<totfact> 0.34481476E+05</totfact>
</mgrwt>
</event>
<event>
 8    1  0.2433467E-020  0.8025387E+02  0.7818608E-02  0.1328333E+00
          2   -1    0    0  501    0  0.00000000000E+00  0.00000000000E+00  0.17917506049E+04  0.17917506049E+04  0.25500000000E-02 0. -1.
         -1   -1    0    0    0  501 -0.00000000000E+00 -0.00000000000E+00 -0.89865089662E+00  0.89866502970E+00  0.50400000000E-02 0.  1.
         24    2    1    2    0    0  0.17763568394E-14  0.00000000000E+00  0.17908519540E+04  0.17926492699E+04  0.80253871111E+02 0.  0.
         66    2    3    3    0    0  0.14140359307E+02  0.70403237551E+01  0.17193279846E+04  0.17194017084E+04  0.19999989590E+01 0.  0.
        -13    1    3    3    0    0 -0.14140359307E+02 -0.70403237551E+01  0.71523969370E+02  0.73247561586E+02  0.10566000000E+00 0.  1.
         13    1    4    4    0    0  0.66045391263E+01  0.24448669501E+01  0.76239901260E+03  0.76243154636E+03  0.10566000000E+00 0. -1.
        -13    1    4    4    0    0  0.55246354108E+00  0.63036050680E+00  0.99247255915E+02  0.99250851589E+02  0.10566000000E+00 0.  1.
         14    1    4    4    0    0  0.69833566399E+01  0.39650962981E+01  0.85768171613E+03  0.85771931041E+03  0.00000000000E+00 0. -1.
<mgrwt>
<rscale>  0 0.80253871E+02</rscale>
<asrwt>0</asrwt>
<pdfrwt beam="1">  1        2 0.27565256E+00 0.80253871E+02</pdfrwt>
<pdfrwt beam="2">  1       -1 0.13825577E-03 0.80253871E+02</pdfrwt>
<totfact> 0.30065105E+05</totfact>
</mgrwt>
</event>
<event>
 8    1  0.2433467E-020  0.7870102E+02  0.7818608E-02  0.1332779E+00
         -1   -1    0    0    0  501 -0.00000000000E+00  0.00000000000E+00  0.11761032132E+02  0.11761033212E+02  0.50400000000E-02 0.  1.
          2   -1    0    0  501    0  0.00000000000E+00 -0.00000000000E+00 -0.13166043487E+03  0.13166043490E+03  0.25500000000E-02 0. -1.
         24    2    1    2    0    0 -0.35527136788E-14 -0.35527136788E-14 -0.11989940274E+03  0.14342146811E+03  0.78701021194E+02 0.  0.
         66    2    3    3    0    0  0.19074070343E+02 -0.27743160229E+02 -0.97020974569E+02  0.10271598029E+03  0.20000003938E+01 0.  0.
        -13    1    3    3    0    0 -0.19074070343E+02  0.27743160229E+02 -0.22878428170E+02  0.40705487818E+02  0.10566000000E+00 0.  1.
         13    1    4    4    0    0  0.11759995562E+02 -0.17375607756E+02 -0.61818795905E+02  0.65282340121E+02  0.10566000000E+00 0. -1.
        -13    1    4    4    0    0  0.13653476569E+01 -0.14115206500E+01 -0.48578038113E+01  0.52408001941E+01  0.10566000000E+00 0.  1.
        -14    1    4    4    0    0  0.59487271246E+01 -0.89560318228E+01 -0.30344374853E+02  0.32192839975E+02  0.00000000000E+00 0.  1.
<mgrwt>
<rscale>  0 0.78701021E+02</rscale>
<asrwt>0</asrwt>
<pdfrwt beam="1">  1        2 0.20255451E-01 0.78701021E+02</pdfrwt>
<pdfrwt beam="2">  1       -1 0.18093897E-02 0.78701021E+02</pdfrwt>
<totfact> 0.20076702E+05</totfact>
</mgrwt>
</event>
<event>
 8    1  0.2433467E-020  0.8244709E+02  0.7818608E-02  0.1322247E+00
          2   -1    0    0  501    0  0.00000000000E+00  0.00000000000E+00  0.40105027059E+03  0.40105027059E+03  0.25500000000E-02 0. -1.
         -1   -1    0    0    0  501 -0.00000000000E+00 -0.00000000000E+00 -0.42373238490E+01  0.42373268464E+01  0.50400000000E-02 0.  1.
         24    2    1    2    0    0  0.00000000000E+00 -0.17763568394E-14  0.39681294674E+03  0.40528759744E+03  0.82447085704E+02 0.  0.
         66    2    3    3    0    0 -0.25134012341E+02 -0.14929570268E+02  0.34122856342E+03  0.34248436920E+03  0.20000018760E+01 0.  0.
        -13    1    3    3    0    0  0.25134012341E+02  0.14929570268E+02  0.55584383316E+02  0.62803228240E+02  0.10566000000E+00 0.  1.
         13    1    4    4    0    0 -0.13139418527E+01 -0.73413468465E+00  0.13667550492E+02  0.13750581712E+02  0.10566000000E+00 0.  1.
        -13    1    4    4    0    0 -0.68509561615E+01 -0.38559928878E+01  0.88940240656E+02  0.89287075512E+02  0.10566000000E+00 0. -1.
         14    1    4    4    0    0 -0.16969114327E+02 -0.10339442695E+02  0.23862077227E+03  0.23944671198E+03  0.00000000000E+00 0. -1.
<mgrwt>
<rscale>  0 0.82447086E+02</rscale>
<asrwt>0</asrwt>
<pdfrwt beam="1">  1        2 0.61700076E-01 0.82447086E+02</pdfrwt>
<pdfrwt beam="2">  1       -1 0.65189585E-03 0.82447086E+02</pdfrwt>
<totfact> 0.26136110E+05</totfact>
</mgrwt>
</event>
<event>
 8    1  0.2433467E-020  0.7811177E+02  0.7818608E-02  0.1334497E+00
          2   -1    0    0  501    0  0.00000000000E+00  0.00000000000E+00  0.23399954650E+03  0.23399954651E+03  0.25500000000E-02 0. -1.
         -1   -1    0    0    0  501 -0.00000000000E+00 -0.00000000000E+00 -0.65186528427E+01  0.65186547911E+01  0.50400000000E-02 0.  1.
         24    2    1    2    0    0  0.71054273576E-14  0.00000000000E+00  0.22748089366E+03  0.24051820131E+03  0.78111767230E+02 0.  0.
         66    2    3    3    0    0 -0.33749228620E+02  0.19261275089E+02  0.10256431314E+03  0.10969706233E+03  0.20000008802E+01 0.  0.
        -13    1    3    3    0    0  0.33749228620E+02 -0.19261275089E+02  0.12491658052E+03  0.13082113898E+03  0.10566000000E+00 0.  1.
         13    1    4    4    0    0 -0.11462038233E+02  0.70262147755E+01  0.35526619187E+02  0.37985495250E+02  0.10566000000E+00 0. -1.
        -13    1    4    4    0    0 -0.44968133783E+01  0.30858100401E+01  0.14991038598E+02  0.15952615975E+02  0.10566000000E+00 0.  1.
        -14    1    4    4    0    0 -0.17790377008E+02  0.91492502732E+01  0.52046655351E+02  0.55758951102E+02  0.00000000000E+00 0.  1.
<mgrwt>
<rscale>  0 0.78111767E+02</rscale>
<asrwt>0</asrwt>
<pdfrwt beam="1">  1        2 0.35999934E-01 0.78111767E+02</pdfrwt>
<pdfrwt beam="2">  1       -1 0.10028697E-02 0.78111767E+02</pdfrwt>
<totfact> 0.24821843E+05</totfact>
</mgrwt>
</event>
<event>
 8    1  0.2433467E-020  0.7925305E+02  0.7818608E-02  0.1331185E+00
         -1   -1    0    0    0  501 -0.00000000000E+00  0.00000000000E+00  0.51091992278E+02  0.51091992527E+02  0.50400000000E-02 0.  1.
          2   -1    0    0  501    0  0.00000000000E+00 -0.00000000000E+00 -0.30734003485E+02  0.30734003591E+02  0.25500000000E-02 0. -1.
         24    2    1    2    0    0  0.22204460493E-15  0.00000000000E+00  0.20357988794E+02  0.81825996117E+02  0.79253049991E+02 0.  0.
         66    2    3    3    0    0  0.12614187239E+01 -0.37276503911E+02 -0.35555460845E+01  0.37520271482E+02  0.19999857691E+01 0.  0.
        -13    1    3    3    0    0 -0.12614187239E+01  0.37276503911E+02  0.23913534878E+02  0.44305724635E+02  0.10566000000E+00 0.  1.
         13    1    4    4    0    0 -0.59055114643E-01 -0.11632015619E+02 -0.72470766585E+00  0.11655197986E+02  0.10566000000E+00 0. -1.
        -13    1    4    4    0    0  0.20523210933E+00 -0.37463377268E+01 -0.85581308046E+00  0.38497722849E+01  0.10566000000E+00 0.  1.
         14    1    4    4    0    0  0.11152417292E+01 -0.21898150566E+02 -0.19750253382E+01  0.22015301211E+02  0.00000000000E+00 0. -1.
<mgrwt>
<rscale>  0 0.79253050E+02</rscale>
<asrwt>0</asrwt>
<pdfrwt beam="1">  1        2 0.47283082E-02 0.79253050E+02</pdfrwt>
<pdfrwt beam="2">  1       -1 0.78603066E-02 0.79253050E+02</pdfrwt>
<totfact> 0.13879071E+05</totfact>
</mgrwt>
</event>
<event>
 8    1  0.2433467E-020  0.8116700E+02  0.7818608E-02  0.1325772E+00
         -1   -1    0    0    0  501 -0.00000000000E+00  0.00000000000E+00  0.21727642408E+01  0.21727700862E+01  0.50400000000E-02 0.  1.
          2   -1    0    0  501    0  0.00000000000E+00 -0.00000000000E+00 -0.75802906335E+03  0.75802906335E+03  0.25500000000E-02 0. -1.
         24    2    1    2    0    0 -0.71054273576E-14  0.00000000000E+00 -0.75585629911E+03  0.76020183344E+03  0.81167004769E+02 0.  0.
         66    2    3    3    0    0  0.36009613476E+02 -0.52612474095E+01 -0.54586740504E+03  0.54708280618E+03  0.19999845018E+01 0.  0.
        -13    1    3    3    0    0 -0.36009613476E+02  0.52612474095E+01 -0.20998889406E+03  0.21311902726E+03  0.10566000000E+00 0.  1.
         13    1    4    4    0    0  0.49293346033E+01 -0.56048376414E+00 -0.67266508415E+02  0.67449290582E+02  0.10566000000E+00 0. -1.
        -13    1    4    4    0    0  0.95659463585E+01 -0.10679849692E+01 -0.15251157636E+03  0.15281505164E+03  0.10566000000E+00 0.  1.
         14    1    4    4    0    0  0.21514332514E+02 -0.36327786762E+01 -0.32608932027E+03  0.32681846395E+03  0.00000000000E+00 0. -1.
<mgrwt>
<rscale>  0 0.81167005E+02</rscale>
<asrwt>0</asrwt>
<pdfrwt beam="1">  1        2 0.11661964E+00 0.81167005E+02</pdfrwt>
<pdfrwt beam="2">  1       -1 0.33427248E-03 0.81167005E+02</pdfrwt>
<totfact> 0.32767405E+05</totfact>
</mgrwt>
</event>
<event>
 8    1  0.2433467E-020  0.7662421E+02  0.7818608E-02  0.1338914E+00
          2   -1    0    0  501    0  0.00000000000E+00  0.00000000000E+00  0.78450227111E+01  0.78450231255E+01  0.25500000000E-02 0. -1.
         -1   -1    0    0    0  501 -0.00000000000E+00 -0.00000000000E+00 -0.18710175139E+03  0.18710175146E+03  0.50400000000E-02 0.  1.
         24    2    1    2    0    0  0.00000000000E+00  0.00000000000E+00 -0.17925672868E+03  0.19494677458E+03  0.76624213822E+02 0.  0.
         66    2    3    3    0    0 -0.26684613288E+02  0.15369194404E+02 -0.31810580388E+02  0.44319225533E+02  0.20000010757E+01 0.  0.
        -13    1    3    3    0    0  0.26684613288E+02 -0.15369194404E+02 -0.14744614829E+03  0.15062754905E+03  0.10566000000E+00 0.  1.
         13    1    4    4    0    0 -0.59510165466E+01  0.32208154033E+01 -0.59803661564E+01  0.90312896753E+01  0.10566000000E+00 0. -1.
        -13    1    4    4    0    0 -0.13957293125E+02  0.82436810022E+01 -0.17926055929E+02  0.24168552978E+02  0.10566000000E+00 0.  1.
         14    1    4    4    0    0 -0.67763036165E+01  0.39046979989E+01 -0.79041583019E+01  0.11119382880E+02  0.00000000000E+00 0. -1.
<mgrwt>
<rscale>  0 0.76624214E+02</rscale>
<asrwt>0</asrwt>
<pdfrwt beam="1">  1        2 0.12069267E-02 0.76624214E+02</pdfrwt>
<pdfrwt beam="2">  1       -1 0.28784882E-01 0.76624214E+02</pdfrwt>
<totfact> 0.11334587E+05</totfact>
</mgrwt>
</event>
<event>
 8    1  0.2433467E-020  0.8206120E+02  0.7818608E-02  0.1323302E+00
          2   -1    0    0  501    0  0.00000000000E+00  0.00000000000E+00  0.62226407884E+02  0.62226407937E+02  0.25500000000E-02 0. -1.
         -1   -1    0    0    0  501 -0.00000000000E+00 -0.00000000000E+00 -0.27054591369E+02  0.27054591839E+02  0.50400000000E-02 0.  1.
         24    2    1    2    0    0  0.00000000000E+00  0.00000000000E+00  0.35171816515E+02  0.89280999775E+02  0.82061198163E+02 0.  0.
         66    2    3    3    0    0 -0.24827418553E+02  0.23696082948E+01  0.53009876477E+02  0.58617938892E+02  0.20000000958E+01 0.  0.
        -13    1    3    3    0    0  0.24827418553E+02 -0.23696082948E+01 -0.17838059962E+02  0.30663060883E+02  0.10566000000E+00 0.  1.
         13    1    4    4    0    0 -0.17085343147E+02  0.18405082052E+01  0.35207172864E+02  0.39177194974E+02  0.10566000000E+00 0. -1.
        -13    1    4    4    0    0 -0.31145030515E+01 -0.18148253848E+00  0.67141840297E+01  0.74043565817E+01  0.10566000000E+00 0.  1.
         14    1    4    4    0    0 -0.46275723544E+01  0.71058262806E+00  0.11088519584E+02  0.12036387337E+02  0.00000000000E+00 0. -1.
<mgrwt>
<rscale>  0 0.82061198E+02</rscale>
<asrwt>0</asrwt>
<pdfrwt beam="1">  1        2 0.95732935E-02 0.82061198E+02</pdfrwt>
<pdfrwt beam="2">  1       -1 0.41622449E-02 0.82061198E+02</pdfrwt>
<totfact> 0.14648348E+05</totfact>
</mgrwt>
</event>
<event>
 8    1  0.2433467E-020  0.8007944E+02  0.7818608E-02  0.1328826E+00
          2   -1    0    0  501    0  0.00000000000E+00  0.00000000000E+00  0.67335344525E+02  0.67335344573E+02  0.25500000000E-02 0. -1.
         -1   -1    0    0    0  501 -0.00000000000E+00 -0.00000000000E+00 -0.23808882993E+02  0.23808883526E+02  0.50400000000E-02 0.  1.
         24    2    1    2    0    0 -0.35527136788E-14  0.00000000000E+00  0.43526461532E+02  0.91144228100E+02  0.80079444693E+02 0.  0.
         66    2    3    3    0    0 -0.29916232881E+02  0.11155457653E+02  0.49228895455E+02  0.58710385559E+02  0.19999998800E+01 0.  0.
        -13    1    3    3    0    0  0.29916232881E+02 -0.11155457653E+02 -0.57024339230E+01  0.32433842540E+02  0.10566000000E+00 0.  1.
         13    1    4    4    0    0 -0.12870308383E+02  0.52660139973E+01  0.20494549909E+02  0.24767185575E+02  0.10566000000E+00 0. -1.
        -13    1    4    4    0    0 -0.23554107616E+01  0.11208272888E+01  0.37164444675E+01  0.45417328392E+01  0.10566000000E+00 0.  1.
         14    1    4    4    0    0 -0.14690513737E+02  0.47686163667E+01  0.25017901078E+02  0.29401467145E+02  0.00000000000E+00 0. -1.
<mgrwt>
<rscale>  0 0.80079445E+02</rscale>
<asrwt>0</asrwt>
<pdfrwt beam="1">  1        2 0.10359284E-01 0.80079445E+02</pdfrwt>
<pdfrwt beam="2">  1       -1 0.36629052E-02 0.80079445E+02</pdfrwt>
<totfact> 0.15952309E+05</totfact>
</mgrwt>
</event>
<event>
 8    1  0.2433467E-020  0.7244219E+02  0.7818608E-02  0.1351980E+00
          2   -1    0    0  501    0  0.00000000000E+00  0.00000000000E+00  0.91258594958E+03  0.91258594958E+03  0.25500000000E-02 0. -1.
         -1   -1    0    0    0  501 -0.00000000000E+00 -0.00000000000E+00 -0.14376330330E+01  0.14376418675E+01  0.50400000000E-02 0.  1.
         24    2    1    2    0    0  0.00000000000E+00  0.35527136788E-14  0.91114831655E+03  0.91402359145E+03  0.72442190626E+02 0.  0.
         66    2    3    3    0    0  0.14724172328E+02  0.21495080017E+02  0.77289389735E+03  0.77333551339E+03  0.20000002228E+01 0.  0.
        -13    1    3    3    0    0 -0.14724172328E+02 -0.21495080017E+02  0.13825441920E+03  0.14068807806E+03  0.10566000000E+00 0.  1.
         13    1    4    4    0    0  0.63724071445E+00  0.12481578262E+01  0.36873513605E+02  0.36900286494E+02  0.10566000000E+00 0. -1.
        -13    1    4    4    0    0  0.34140213124E+00  0.94150668318E+00  0.34226645770E+02  0.34241457839E+02  0.10566000000E+00 0.  1.
         14    1    4    4    0    0  0.13745529483E+02  0.19305415507E+02  0.70179373797E+03  0.70219376906E+03  0.00000000000E+00 0. -1.
<mgrwt>
<rscale>  0 0.72442191E+02</rscale>
<asrwt>0</asrwt>
<pdfrwt beam="1">  1        2 0.14039824E+00 0.72442191E+02</pdfrwt>
<pdfrwt beam="2">  1       -1 0.22117437E-03 0.72442191E+02</pdfrwt>
<totfact> 0.45225433E+05</totfact>
</mgrwt>
</event>
<event>
 8    1  0.2433467E-020  0.8191309E+02  0.7818608E-02  0.1323708E+00
          2   -1    0    0  501    0  0.00000000000E+00  0.00000000000E+00  0.15648283783E+02  0.15648283990E+02  0.25500000000E-02 0. -1.
         -1   -1    0    0    0  501 -0.00000000000E+00 -0.00000000000E+00 -0.10719631557E+03  0.10719631569E+03  0.50400000000E-02 0.  1.
         24    2    1    2    0    0  0.00000000000E+00  0.35527136788E-14 -0.91548031791E+02  0.12284459968E+03  0.81913085318E+02 0.  0.
         66    2    3    3    0    0  0.22389177766E+02 -0.24736032021E+02 -0.10239590939E+02  0.34957056316E+02  0.20000006232E+01 0.  0.
        -13    1    3    3    0    0 -0.22389177766E+02  0.24736032021E+02 -0.81308440852E+02  0.87887543366E+02  0.10566000000E+00 0.  1.
         13    1    4    4    0    0  0.88207919239E+01 -0.10041472803E+02 -0.49301492590E+01  0.14246230448E+02  0.10566000000E+00 0. -1.
        -13    1    4    4    0    0  0.32755646927E+01 -0.31047262583E+01 -0.10302129686E+01  0.46304591556E+01  0.10566000000E+00 0.  1.
         14    1    4    4    0    0  0.10292821149E+02 -0.11589832960E+02 -0.42792287112E+01  0.16080366713E+02  0.00000000000E+00 0. -1.
<mgrwt>
<rscale>  0 0.81913085E+02</rscale>
<asrwt>0</asrwt>
<pdfrwt beam="1">  1        2 0.24074284E-02 0.81913085E+02</pdfrwt>
<pdfrwt beam="2">  1       -1 0.16491740E-01 0.81913085E+02</pdfrwt>
<totfact> 0.11006124E+05</totfact>
</mgrwt>
</event>
<event>
 8    1  0.2433467E-020  0.8126490E+02  0.7818608E-02  0.1325500E+00
          2   -1    0    0  501    0  0.00000000000E+00  0.00000000000E+00  0.21833307322E+03  0.21833307323E+03  0.25500000000E-02 0. -1.
         -1   -1    0    0    0  501 -0.00000000000E+00 -0.00000000000E+00 -0.75618224907E+01  0.75618241703E+01  0.50400000000E-02 0.  1.
         24    2    1    2    0    0  0.00000000000E+00  0.00000000000E+00  0.21077125073E+03  0.22589489740E+03  0.81264903492E+02 0.  0.
         66    2    3    3    0    0 -0.18730987223E+02  0.17917832100E+02  0.19233956970E+03  0.19408866187E+03  0.20000005809E+01 0.  0.
        -13    1    3    3    0    0  0.18730987223E+02 -0.17917832100E+02  0.18431681023E+02  0.31806235534E+02  0.10566000000E+00 0.  1.
         13    1    4    4    0    0 -0.12950307541E+02  0.11796491696E+02  0.13242518248E+03  0.13357884488E+03  0.10566000000E+00 0. -1.
        -13    1    4    4    0    0 -0.16099684247E+00  0.19943804866E+00  0.12703368973E+01  0.13002366657E+01  0.10566000000E+00 0.  1.
         14    1    4    4    0    0 -0.56196828393E+01  0.59219023557E+01  0.58644050329E+02  0.59209580320E+02  0.00000000000E+00 0. -1.
<mgrwt>
<rscale>  0 0.81264903E+02</rscale>
<asrwt>0</asrwt>
<pdfrwt beam="1">  1        2 0.33589702E-01 0.81264903E+02</pdfrwt>
<pdfrwt beam="2">  1       -1 0.11633575E-02 0.81264903E+02</pdfrwt>
<totfact> 0.21824410E+05</totfact>
</mgrwt>
</event>
<event>
 8    1  0.2433467E-020  0.8513110E+02  0.7818608E-02  0.1315090E+00
         -1   -1    0    0    0  501 -0.00000000000E+00  0.00000000000E+00  0.11463806600E+01  0.11463917390E+01  0.50400000000E-02 0.  1.
          2   -1    0    0  501    0  0.00000000000E+00 -0.00000000000E+00 -0.15804674159E+04  0.15804674159E+04  0.25500000000E-02 0. -1.
         24    2    1    2    0    0  0.00000000000E+00  0.00000000000E+00 -0.15793210352E+04  0.15816138076E+04  0.85131099893E+02 0.  0.
         66    2    3    3    0    0  0.15951135579E+02 -0.18737244006E+01 -0.15219754654E+04  0.15220615187E+04  0.19999927092E+01 0.  0.
        -13    1    3    3    0    0 -0.15951135579E+02  0.18737244006E+01 -0.57345569834E+02  0.59552288898E+02  0.10566000000E+00 0.  1.
         13    1    4    4    0    0  0.11679987503E+02 -0.11821244302E+01 -0.10584396249E+04  0.10585047332E+04  0.10566000000E+00 0. -1.
        -13    1    4    4    0    0  0.13519931224E+01 -0.32780829048E+00 -0.11326945190E+03  0.11327804395E+03  0.10566000000E+00 0.  1.
         14    1    4    4    0    0  0.29191549530E+01 -0.36379167987E+00 -0.35026638857E+03  0.35027874154E+03  0.00000000000E+00 0. -1.
<mgrwt>
<rscale>  0 0.85131100E+02</rscale>
<asrwt>0</asrwt>
<pdfrwt beam="1">  1        2 0.24314709E+00 0.85131100E+02</pdfrwt>
<pdfrwt beam="2">  1       -1 0.17636837E-03 0.85131100E+02</pdfrwt>
<totfact> 0.27666052E+05</totfact>
</mgrwt>
</event>
<event>
 8    1  0.2433467E-020  0.8054772E+02  0.7818608E-02  0.1327504E+00
         -1   -1    0    0    0  501 -0.00000000000E+00  0.00000000000E+00  0.51044139220E+02  0.51044139468E+02  0.50400000000E-02 0.  1.
          2   -1    0    0  501    0  0.00000000000E+00 -0.00000000000E+00 -0.31776099384E+02  0.31776099487E+02  0.25500000000E-02 0. -1.
         24    2    1    2    0    0  0.35527136788E-14 -0.35527136788E-14  0.19268039835E+02  0.82820238955E+02  0.80547716426E+02 0.  0.
         66    2    3    3    0    0 -0.31325135050E+02  0.18864952510E+02  0.26931917097E+02  0.45458538006E+02  0.19999999990E+01 0.  0.
        -13    1    3    3    0    0  0.31325135050E+02 -0.18864952510E+02 -0.76638772622E+01  0.37361700949E+02  0.10566000000E+00 0.  1.
         13    1    4    4    0    0 -0.10250338191E+02  0.67054802678E+01  0.86211061033E+01  0.14978902935E+02  0.10566000000E+00 0. -1.
        -13    1    4    4    0    0 -0.18563540134E+02  0.11178866763E+02  0.16215895954E+02  0.27065449008E+02  0.10566000000E+00 0.  1.
        -14    1    4    4    0    0 -0.25112567251E+01  0.98060547970E+00  0.20949150403E+01  0.34141860629E+01  0.00000000000E+00 0.  1.
<mgrwt>
<rscale>  0 0.80547716E+02</rscale>
<asrwt>0</asrwt>
<pdfrwt beam="1">  1        2 0.48886307E-02 0.80547716E+02</pdfrwt>
<pdfrwt beam="2">  1       -1 0.78529445E-02 0.80547716E+02</pdfrwt>
<totfact> 0.13352008E+05</totfact>
</mgrwt>
</event>
<event>
 8    1  0.2433467E-020  0.7636653E+02  0.7818608E-02  0.1339691E+00
         -1   -1    0    0    0  501 -0.00000000000E+00  0.00000000000E+00  0.24090153449E+01  0.24090206171E+01  0.50400000000E-02 0.  1.
          2   -1    0    0  501    0  0.00000000000E+00 -0.00000000000E+00 -0.60521003847E+03  0.60521003847E+03  0.25500000000E-02 0. -1.
         24    2    1    2    0    0  0.35527136788E-14 -0.17763568394E-14 -0.60280102312E+03  0.60761905909E+03  0.76366533847E+02 0.  0.
         66    2    3    3    0    0  0.30544288496E+02 -0.10857437391E+02 -0.46175405084E+03  0.46289484874E+03  0.20000048242E+01 0.  0.
        -13    1    3    3    0    0 -0.30544288496E+02  0.10857437391E+02 -0.14104697229E+03  0.14472421035E+03  0.10566000000E+00 0.  1.
         13    1    4    4    0    0  0.25426059837E+02 -0.84615027775E+01 -0.37574121132E+03  0.37669556753E+03  0.10566000000E+00 0. -1.
        -13    1    4    4    0    0  0.10314589807E+01 -0.63352915866E+00 -0.18998292260E+02  0.19037109541E+02  0.10566000000E+00 0.  1.
        -14    1    4    4    0    0  0.40867696790E+01 -0.17624054550E+01 -0.67014547254E+02  0.67162171667E+02  0.00000000000E+00 0.  1.
<mgrwt>
<rscale>  0 0.76366534E+02</rscale>
<asrwt>0</asrwt>
<pdfrwt beam="1">  1        2 0.93109116E-01 0.76366534E+02</pdfrwt>
<pdfrwt beam="2">  1       -1 0.37061863E-03 0.76366534E+02</pdfrwt>
<totfact> 0.36375470E+05</totfact>
</mgrwt>
</event>
<event>
 8    1  0.2433467E-020  0.8351004E+02  0.7818608E-02  0.1319376E+00
          2   -1    0    0  501    0  0.00000000000E+00  0.00000000000E+00  0.21725569940E+03  0.21725569941E+03  0.25500000000E-02 0. -1.
         -1   -1    0    0    0  501 -0.00000000000E+00 -0.00000000000E+00 -0.80250207343E+01  0.80250223170E+01  0.50400000000E-02 0.  1.
         24    2    1    2    0    0  0.00000000000E+00  0.17763568394E-14  0.20923067866E+03  0.22528072173E+03  0.83510039451E+02 0.  0.
         66    2    3    3    0    0 -0.25272053628E+02 -0.14193939136E+02  0.18566449490E+03  0.18792405186E+03  0.19999993279E+01 0.  0.
        -13    1    3    3    0    0  0.25272053628E+02  0.14193939136E+02  0.23566183764E+02  0.37356669873E+02  0.10566000000E+00 0.  1.
         13    1    4    4    0    0 -0.18209189614E+02 -0.10876733673E+02  0.13471939489E+03  0.13637890030E+03  0.10566000000E+00 0. -1.
        -13    1    4    4    0    0 -0.40997866236E+00 -0.80567866898E-01  0.22035511204E+01  0.22453007060E+01  0.10566000000E+00 0.  1.
         14    1    4    4    0    0 -0.66528853519E+01 -0.32366375959E+01  0.48741548885E+02  0.49299850853E+02  0.00000000000E+00 0. -1.
<mgrwt>
<rscale>  0 0.83510039E+02</rscale>
<asrwt>0</asrwt>
<pdfrwt beam="1">  1        2 0.33423959E-01 0.83510039E+02</pdfrwt>
<pdfrwt beam="2">  1       -1 0.12346185E-02 0.83510039E+02</pdfrwt>
<totfact> 0.20272348E+05</totfact>
</mgrwt>
</event>
<event>
 8    1  0.2433467E-020  0.8002424E+02  0.7818608E-02  0.1328983E+00
         -1   -1    0    0    0  501 -0.00000000000E+00  0.00000000000E+00  0.22088991653E+02  0.22088992228E+02  0.50400000000E-02 0.  1.
          2   -1    0    0  501    0  0.00000000000E+00 -0.00000000000E+00 -0.72478169512E+02  0.72478169556E+02  0.25500000000E-02 0. -1.
         24    2    1    2    0    0  0.71054273576E-14  0.00000000000E+00 -0.50389177859E+02  0.94567161784E+02  0.80024239095E+02 0.  0.
         66    2    3    3    0    0 -0.35334750011E+02 -0.11013931411E+02 -0.43097555627E+02  0.56844089769E+02  0.19999992908E+01 0.  0.
        -13    1    3    3    0    0  0.35334750011E+02  0.11013931411E+02 -0.72916222312E+01  0.37723072015E+02  0.10566000000E+00 0.  1.
         13    1    4    4    0    0 -0.20577227138E+02 -0.57893066747E+01 -0.24730115080E+02  0.32688348144E+02  0.10566000000E+00 0. -1.
        -13    1    4    4    0    0 -0.58369847958E+01 -0.25423018205E+01 -0.71259827909E+01  0.95563845059E+01  0.10566000000E+00 0.  1.
        -14    1    4    4    0    0 -0.89205380769E+01 -0.26823229163E+01 -0.11241457757E+02  0.14599357120E+02  0.00000000000E+00 0.  1.
<mgrwt>
<rscale>  0 0.80024239E+02</rscale>
<asrwt>0</asrwt>
<pdfrwt beam="1">  1        2 0.11150488E-01 0.80024239E+02</pdfrwt>
<pdfrwt beam="2">  1       -1 0.33983065E-02 0.80024239E+02</pdfrwt>
<totfact> 0.16271842E+05</totfact>
</mgrwt>
</event>
<event>
 8    1  0.2433467E-020  0.8056057E+02  0.7818608E-02  0.1327468E+00
          2   -1    0    0  501    0  0.00000000000E+00  0.00000000000E+00  0.42342313515E+03  0.42342313515E+03  0.25500000000E-02 0. -1.
         -1   -1    0    0    0  501 -0.00000000000E+00 -0.00000000000E+00 -0.38318662241E+01  0.38318695386E+01  0.50400000000E-02 0.  1.
         24    2    1    2    0    0  0.00000000000E+00  0.17763568394E-14  0.41959126892E+03  0.42725500469E+03  0.80560573974E+02 0.  0.
         66    2    3    3    0    0  0.94734029144E+01  0.11672253180E+02  0.40797481853E+03  0.40825658526E+03  0.19999997083E+01 0.  0.
        -13    1    3    3    0    0 -0.94734029144E+01 -0.11672253180E+02  0.11616450393E+02  0.18998419430E+02  0.10566000000E+00 0.  1.
         13    1    4    4    0    0  0.88662283860E+01  0.11201111452E+02  0.38389669442E+03  0.38416241103E+03  0.10566000000E+00 0. -1.
        -13    1    4    4    0    0  0.66526279093E-01  0.27507355968E+00  0.91035484943E+01  0.91085591853E+01  0.10566000000E+00 0. -1.
         14    1    4    4    0    0  0.54064824931E+00  0.19606816864E+00  0.14974575619E+02  0.14985615043E+02  0.00000000000E+00 0. -1.
<mgrwt>
<rscale>  0 0.80560574E+02</rscale>
<asrwt>0</asrwt>
<pdfrwt beam="1">  1        2 0.65142061E-01 0.80560574E+02</pdfrwt>
<pdfrwt beam="2">  1       -1 0.58951777E-03 0.80560574E+02</pdfrwt>
<totfact> 0.28295728E+05</totfact>
</mgrwt>
</event>
<event>
 8    1  0.2433467E-020  0.8057136E+02  0.7818608E-02  0.1327438E+00
          2   -1    0    0  501    0  0.00000000000E+00  0.00000000000E+00  0.51141171393E+03  0.51141171394E+03  0.25500000000E-02 0. -1.
         -1   -1    0    0    0  501 -0.00000000000E+00 -0.00000000000E+00 -0.31734408405E+01  0.31734448427E+01  0.50400000000E-02 0.  1.
         24    2    1    2    0    0  0.00000000000E+00  0.00000000000E+00  0.50823827309E+03  0.51458515878E+03  0.80571355969E+02 0.  0.
         66    2    3    3    0    0 -0.25343842545E+01 -0.24759436779E+02  0.45638970210E+03  0.45707221858E+03  0.19999993310E+01 0.  0.
        -13    1    3    3    0    0  0.25343842545E+01  0.24759436779E+02  0.51848570989E+02  0.57512940203E+02  0.10566000000E+00 0.  1.
         13    1    4    4    0    0 -0.17197519118E+01 -0.84128911010E+01  0.15682300882E+03  0.15705795600E+03  0.10566000000E+00 0. -1.
        -13    1    4    4    0    0 -0.78103975223E-01 -0.65812693179E+01  0.11648485551E+03  0.11667069869E+03  0.10566000000E+00 0.  1.
         14    1    4    4    0    0 -0.73652836751E+00 -0.97652763602E+01  0.18308183777E+03  0.18334356388E+03  0.00000000000E+00 0. -1.
<mgrwt>
<rscale>  0 0.80571356E+02</rscale>
<asrwt>0</asrwt>
<pdfrwt beam="1">  1        2 0.78678759E-01 0.80571356E+02</pdfrwt>
<pdfrwt beam="2">  1       -1 0.48822177E-03 0.80571356E+02</pdfrwt>
<totfact> 0.30105979E+05</totfact>
</mgrwt>
</event>
<event>
 8    1  0.2433467E-020  0.7843285E+02  0.7818608E-02  0.1333559E+00
         -1   -1    0    0    0  501 -0.00000000000E+00  0.00000000000E+00  0.32845650905E+02  0.32845651291E+02  0.50400000000E-02 0.  1.
          2   -1    0    0  501    0  0.00000000000E+00 -0.00000000000E+00 -0.46822884868E+02  0.46822884938E+02  0.25500000000E-02 0. -1.
         24    2    1    2    0    0 -0.88817841970E-15  0.00000000000E+00 -0.13977233964E+02  0.79668536229E+02  0.78432854058E+02 0.  0.
         66    2    3    3    0    0  0.60956727010E+01 -0.34452099223E+02  0.10943446486E+02  0.36713258967E+02  0.19999991000E+01 0.  0.
        -13    1    3    3    0    0 -0.60956727010E+01  0.34452099223E+02 -0.24920680450E+02  0.42955277262E+02  0.10566000000E+00 0.  1.
         13    1    4    4    0    0  0.43778607915E+01 -0.21168222782E+02  0.67454322395E+01  0.22644454973E+02  0.10566000000E+00 0. -1.
        -13    1    4    4    0    0  0.70816541460E+00 -0.53137204872E+01  0.12045694784E+01  0.54953867320E+01  0.10566000000E+00 0.  1.
         14    1    4    4    0    0  0.10096464949E+01 -0.79701559539E+01  0.29934447678E+01  0.85734172622E+01  0.00000000000E+00 0. -1.
<mgrwt>
<rscale>  0 0.78432854E+02</rscale>
<asrwt>0</asrwt>
<pdfrwt beam="1">  1        2 0.72035208E-02 0.78432854E+02</pdfrwt>
<pdfrwt beam="2">  1       -1 0.50531771E-02 0.78432854E+02</pdfrwt>
<totfact> 0.15554383E+05</totfact>
</mgrwt>
</event>
<event>
 8    1  0.2433467E-020  0.7826833E+02  0.7818608E-02  0.1334039E+00
         -1   -1    0    0    0  501 -0.00000000000E+00  0.00000000000E+00  0.11254220863E+02  0.11254221992E+02  0.50400000000E-02 0.  1.
          2   -1    0    0  501    0  0.00000000000E+00 -0.00000000000E+00 -0.13608073124E+03  0.13608073126E+03  0.25500000000E-02 0. -1.
         24    2    1    2    0    0 -0.35527136788E-14  0.71054273576E-14 -0.12482651037E+03  0.14733495325E+03  0.78268325381E+02 0.  0.
         66    2    3    3    0    0  0.15720537255E+02 -0.34555669379E+02 -0.80137575718E+02  0.88697579313E+02  0.19999890668E+01 0.  0.
        -13    1    3    3    0    0 -0.15720537255E+02  0.34555669379E+02 -0.44688934657E+02  0.58637373941E+02  0.10566000000E+00 0.  1.
         13    1    4    4    0    0  0.69218799311E+01 -0.15630671295E+02 -0.34247482458E+02  0.38277036531E+02  0.10566000000E+00 0.  1.
        -13    1    4    4    0    0  0.62517195580E+01 -0.14322981346E+02 -0.34478539215E+02  0.37855153183E+02  0.10566000000E+00 0. -1.
        -14    1    4    4    0    0  0.25469377663E+01 -0.46020167381E+01 -0.11411554045E+02  0.12565389599E+02  0.00000000000E+00 0.  1.
<mgrwt>
<rscale>  0 0.78268325E+02</rscale>
<asrwt>0</asrwt>
<pdfrwt beam="1">  1        2 0.20935496E-01 0.78268325E+02</pdfrwt>
<pdfrwt beam="2">  1       -1 0.17314188E-02 0.78268325E+02</pdfrwt>
<totfact> 0.20582232E+05</totfact>
</mgrwt>
</event>
<event>
 8    1  0.2433467E-020  0.7864191E+02  0.7818608E-02  0.1332950E+00
          2   -1    0    0  501    0  0.00000000000E+00  0.00000000000E+00  0.10871016305E+02  0.10871016604E+02  0.25500000000E-02 0. -1.
         -1   -1    0    0    0  501 -0.00000000000E+00 -0.00000000000E+00 -0.14222565510E+03  0.14222565519E+03  0.50400000000E-02 0.  1.
         24    2    1    2    0    0  0.00000000000E+00  0.35527136788E-14 -0.13135463879E+03  0.15309667179E+03  0.78641908555E+02 0.  0.
         66    2    3    3    0    0  0.11772741974E+02  0.20182201813E+02 -0.42128291291E+01  0.23825756067E+02  0.19999998195E+01 0.  0.
        -13    1    3    3    0    0 -0.11772741974E+02 -0.20182201813E+02 -0.12714180966E+03  0.12927091572E+03  0.10566000000E+00 0.  1.
         13    1    4    4    0    0  0.17669348133E+01  0.26635541365E+01 -0.70059927023E+00  0.32739246548E+01  0.10566000000E+00 0. -1.
        -13    1    4    4    0    0  0.33617382080E+01  0.51137249619E+01 -0.17749322837E+01  0.63728341742E+01  0.10566000000E+00 0.  1.
        -14    1    4    4    0    0  0.66440689530E+01  0.12404922715E+02 -0.17372975752E+01  0.14178997238E+02  0.00000000000E+00 0.  1.
<mgrwt>
<rscale>  0 0.78641909E+02</rscale>
<asrwt>0</asrwt>
<pdfrwt beam="1">  1        2 0.16724642E-02 0.78641909E+02</pdfrwt>
<pdfrwt beam="2">  1       -1 0.21880869E-01 0.78641909E+02</pdfrwt>
<totfact> 0.11415232E+05</totfact>
</mgrwt>
</event>
<event>
 8    1  0.2433467E-020  0.7936349E+02  0.7818608E-02  0.1330868E+00
          2   -1    0    0  501    0  0.00000000000E+00  0.00000000000E+00  0.16117292213E+03  0.16117292215E+03  0.25500000000E-02 0. -1.
         -1   -1    0    0    0  501 -0.00000000000E+00 -0.00000000000E+00 -0.97698846426E+01  0.97698859426E+01  0.50400000000E-02 0.  1.
         24    2    1    2    0    0  0.00000000000E+00  0.00000000000E+00  0.15140303748E+03  0.17094280809E+03  0.79363492099E+02 0.  0.
         66    2    3    3    0    0 -0.20282889237E+02 -0.33840011803E+02  0.84390427889E+02  0.93178786823E+02  0.20000000060E+01 0.  0.
        -13    1    3    3    0    0  0.20282889237E+02  0.33840011803E+02  0.67012609596E+02  0.77764021267E+02  0.10566000000E+00 0.  1.
         13    1    4    4    0    0 -0.69865200092E+01 -0.11262792079E+02  0.29774528669E+02  0.32591343463E+02  0.10566000000E+00 0. -1.
        -13    1    4    4    0    0 -0.12557440216E+02 -0.20712302935E+02  0.50313037813E+02  0.55839965398E+02  0.10566000000E+00 0.  1.
        -14    1    4    4    0    0 -0.73892901206E+00 -0.18649167886E+01  0.43028614075E+01  0.47474779626E+01  0.00000000000E+00 0.  1.
<mgrwt>
<rscale>  0 0.79363492E+02</rscale>
<asrwt>0</asrwt>
<pdfrwt beam="1">  1        2 0.24795833E-01 0.79363492E+02</pdfrwt>
<pdfrwt beam="2">  1       -1 0.15030594E-02 0.79363492E+02</pdfrwt>
<totfact> 0.20942426E+05</totfact>
</mgrwt>
</event>
<event>
 8    1  0.2433467E-020  0.7972787E+02  0.7818608E-02  0.1329825E+00
         -1   -1    0    0    0  501 -0.00000000000E+00  0.00000000000E+00  0.27458438995E+01  0.27458485250E+01  0.50400000000E-02 0.  1.
          2   -1    0    0  501    0  0.00000000000E+00 -0.00000000000E+00 -0.57874089397E+03  0.57874089398E+03  0.25500000000E-02 0. -1.
         24    2    1    2    0    0  0.00000000000E+00 -0.17763568394E-14 -0.57599505007E+03  0.58148674250E+03  0.79727874663E+02 0.  0.
         66    2    3    3    0    0  0.36230278322E+02  0.12976362106E+02 -0.36330710462E+03  0.36534513997E+03  0.19999977401E+01 0.  0.
        -13    1    3    3    0    0 -0.36230278322E+02 -0.12976362106E+02 -0.21268794545E+03  0.21614160253E+03  0.10566000000E+00 0.  1.
         13    1    4    4    0    0  0.20920411351E+01  0.72984452548E+00 -0.18664597311E+02  0.18795948126E+02  0.10566000000E+00 0.  1.
        -13    1    4    4    0    0  0.12508132213E+01  0.16937880414E+00 -0.11519541734E+02  0.11588970131E+02  0.10566000000E+00 0. -1.
         14    1    4    4    0    0  0.32887423966E+02  0.12077138777E+02 -0.33312296558E+03  0.33496022172E+03  0.00000000000E+00 0. -1.
<mgrwt>
<rscale>  0 0.79727875E+02</rscale>
<asrwt>0</asrwt>
<pdfrwt beam="1">  1        2 0.89036964E-01 0.79727875E+02</pdfrwt>
<pdfrwt beam="2">  1       -1 0.42243834E-03 0.79727875E+02</pdfrwt>
<totfact> 0.32120196E+05</totfact>
</mgrwt>
</event>
<event>
 8    1  0.2433467E-020  0.8118773E+02  0.7818608E-02  0.1325714E+00
          2   -1    0    0  501    0  0.00000000000E+00  0.00000000000E+00  0.12094904629E+04  0.12094904629E+04  0.25500000000E-02 0. -1.
         -1   -1    0    0    0  501 -0.00000000000E+00 -0.00000000000E+00 -0.13624383296E+01  0.13624476517E+01  0.50400000000E-02 0.  1.
         24    2    1    2    0    0  0.35527136788E-14 -0.27755575616E-16  0.12081280246E+04  0.12108529106E+04  0.81187728418E+02 0.  0.
         66    2    3    3    0    0 -0.19373876921E+02 -0.22325914946E+00  0.11360252858E+04  0.11361922580E+04  0.19999985642E+01 0.  0.
        -13    1    3    3    0    0  0.19373876921E+02  0.22325914946E+00  0.72102738726E+02  0.74660652605E+02  0.10566000000E+00 0.  1.
         13    1    4    4    0    0 -0.11882102238E+02 -0.26127717575E-01  0.74959763872E+03  0.74969181413E+03  0.10566000000E+00 0. -1.
        -13    1    4    4    0    0 -0.25230780220E+01  0.12011335008E-01  0.13508081099E+03  0.13510441417E+03  0.10566000000E+00 0.  1.
         14    1    4    4    0    0 -0.49686966609E+01 -0.20914276689E+00  0.25134683615E+03  0.25139602966E+03  0.00000000000E+00 0. -1.
<mgrwt>
<rscale>  0 0.81187728E+02</rscale>
<asrwt>0</asrwt>
<pdfrwt beam="1">  1        2 0.18607568E+00 0.81187728E+02</pdfrwt>
<pdfrwt beam="2">  1       -1 0.20960636E-03 0.81187728E+02</pdfrwt>
<totfact> 0.33691430E+05</totfact>
</mgrwt>
</event>
<event>
 8    1  0.2433467E-020  0.7423806E+02  0.7818608E-02  0.1346247E+00
          2   -1    0    0  501    0  0.00000000000E+00  0.00000000000E+00  0.47418917270E+03  0.47418917271E+03  0.25500000000E-02 0. -1.
         -1   -1    0    0    0  501 -0.00000000000E+00 -0.00000000000E+00 -0.29056364083E+01  0.29056407794E+01  0.50400000000E-02 0.  1.
         24    2    1    2    0    0  0.35527136788E-14  0.17763568394E-14  0.47128353629E+03  0.47709481349E+03  0.74238059484E+02 0.  0.
         66    2    3    3    0    0  0.18545729132E+02  0.11468125099E+02  0.42864697949E+03  0.42920588886E+03  0.20000100294E+01 0.  0.
        -13    1    3    3    0    0 -0.18545729132E+02 -0.11468125099E+02  0.42636556800E+02  0.47888924629E+02  0.10566000000E+00 0.  1.
         13    1    4    4    0    0  0.36290929749E+01  0.18905176371E+01  0.89944200292E+02  0.90037296178E+02  0.10566000000E+00 0.  1.
        -13    1    4    4    0    0  0.38100247395E+01  0.30315581563E+01  0.97308304035E+02  0.97430097154E+02  0.10566000000E+00 0. -1.
         14    1    4    4    0    0  0.11106611418E+02  0.65460493051E+01  0.24139447516E+03  0.24173849552E+03  0.00000000000E+00 0. -1.
<mgrwt>
<rscale>  0 0.74238059E+02</rscale>
<asrwt>0</asrwt>
<pdfrwt beam="1">  1        2 0.72952078E-01 0.74238059E+02</pdfrwt>
<pdfrwt beam="2">  1       -1 0.44702195E-03 0.74238059E+02</pdfrwt>
<totfact> 0.36348397E+05</totfact>
</mgrwt>
</event>
<event>
 8    1  0.2433467E-020  0.7768188E+02  0.7818608E-02  0.1335762E+00
         -1   -1    0    0    0  501 -0.00000000000E+00  0.00000000000E+00  0.16578844338E+01  0.16578920947E+01  0.50400000000E-02 0.  1.
          2   -1    0    0  501    0  0.00000000000E+00 -0.00000000000E+00 -0.90996403005E+03  0.90996403006E+03  0.25500000000E-02 0. -1.
         24    2    1    2    0    0  0.00000000000E+00  0.00000000000E+00 -0.90830614562E+03  0.91162192215E+03  0.77681881911E+02 0.  0.
         66    2    3    3    0    0 -0.40402107812E+01  0.17765778232E+02 -0.85666294891E+03  0.85685900486E+03  0.20000008077E+01 0.  0.
        -13    1    3    3    0    0  0.40402107812E+01 -0.17765778232E+02 -0.51643196710E+02  0.54762917287E+02  0.10566000000E+00 0.  1.
         13    1    4    4    0    0 -0.19712878181E+01  0.12397749656E+02 -0.58536250199E+03  0.58549710509E+03  0.10566000000E+00 0. -1.
        -13    1    4    4    0    0 -0.15555840788E+01  0.44614846659E+01 -0.22719967250E+03  0.22724882185E+03  0.10566000000E+00 0.  1.
         14    1    4    4    0    0 -0.51333888424E+00  0.90654391088E+00 -0.44100774424E+02  0.44113077919E+02  0.00000000000E+00 0. -1.
<mgrwt>
<rscale>  0 0.77681882E+02</rscale>
<asrwt>0</asrwt>
<pdfrwt beam="1">  1        2 0.13999407E+00 0.77681882E+02</pdfrwt>
<pdfrwt beam="2">  1       -1 0.25506046E-03 0.77681882E+02</pdfrwt>
<totfact> 0.37759287E+05</totfact>
</mgrwt>
</event>
<event>
 8    1  0.2433467E-020  0.7970214E+02  0.7818608E-02  0.1329899E+00
          2   -1    0    0  501    0  0.00000000000E+00  0.00000000000E+00  0.94195250124E+02  0.94195250158E+02  0.25500000000E-02 0. -1.
         -1   -1    0    0    0  501 -0.00000000000E+00 -0.00000000000E+00 -0.16859742189E+02  0.16859742943E+02  0.50400000000E-02 0.  1.
         24    2    1    2    0    0  0.00000000000E+00 -0.44408920985E-15  0.77335507935E+02  0.11105499310E+03  0.79702137394E+02 0.  0.
         66    2    3    3    0    0 -0.17852304075E+02  0.34606128493E+01  0.88062020911E+02  0.89942204400E+02  0.20000008158E+01 0.  0.
        -13    1    3    3    0    0  0.17852304075E+02 -0.34606128493E+01 -0.10726512976E+02  0.21112788701E+02  0.10566000000E+00 0.  1.
         13    1    4    4    0    0 -0.58392835444E+01  0.10555405278E+01  0.26786536609E+02  0.27436127745E+02  0.10566000000E+00 0. -1.
        -13    1    4    4    0    0 -0.20780698876E+01 -0.98162652733E-02  0.86664753992E+01  0.89127678472E+01  0.10566000000E+00 0.  1.
         14    1    4    4    0    0 -0.99349506430E+01  0.24148885868E+01  0.52609008903E+02  0.53593308807E+02  0.00000000000E+00 0. -1.
<mgrwt>
<rscale>  0 0.79702137E+02</rscale>
<asrwt>0</asrwt>
<pdfrwt beam="1">  1        2 0.14491577E-01 0.79702137E+02</pdfrwt>
<pdfrwt beam="2">  1       -1 0.25938065E-02 0.79702137E+02</pdfrwt>
<totfact> 0.17610219E+05</totfact>
</mgrwt>
</event>
<event>
 8    1  0.2433467E-020  0.8057569E+02  0.7818608E-02  0.1327426E+00
         -1   -1    0    0    0  501 -0.00000000000E+00  0.00000000000E+00  0.13846307224E+02  0.13846308141E+02  0.50400000000E-02 0.  1.
          2   -1    0    0  501    0  0.00000000000E+00 -0.00000000000E+00 -0.11722332811E+03  0.11722332814E+03  0.25500000000E-02 0. -1.
         24    2    1    2    0    0  0.00000000000E+00 -0.17763568394E-14 -0.10337702089E+03  0.13106963628E+03  0.80575685584E+02 0.  0.
         66    2    3    3    0    0 -0.31318089050E+02 -0.10347536406E+02 -0.89282177447E+02  0.95200847802E+02  0.20000003039E+01 0.  0.
        -13    1    3    3    0    0  0.31318089050E+02  0.10347536406E+02 -0.14094843444E+02  0.35868788481E+02  0.10566000000E+00 0.  1.
         13    1    4    4    0    0 -0.37162110987E+01 -0.16288543246E+01 -0.10804296702E+02  0.11541550268E+02  0.10566000000E+00 0. -1.
        -13    1    4    4    0    0 -0.15445427486E+02 -0.41121965241E+01 -0.43567670844E+02  0.46407159979E+02  0.10566000000E+00 0.  1.
        -14    1    4    4    0    0 -0.12156450465E+02 -0.46064855574E+01 -0.34910209901E+02  0.37252137555E+02  0.00000000000E+00 0.  1.
<mgrwt>
<rscale>  0 0.80575686E+02</rscale>
<asrwt>0</asrwt>
<pdfrwt beam="1">  1        2 0.18034358E-01 0.80575686E+02</pdfrwt>
<pdfrwt beam="2">  1       -1 0.21302013E-02 0.80575686E+02</pdfrwt>
<totfact> 0.18204890E+05</totfact>
</mgrwt>
</event>
<event>
 8    1  0.2433467E-020  0.8072004E+02  0.7818608E-02  0.1327020E+00
          2   -1    0    0  501    0  0.00000000000E+00  0.00000000000E+00  0.91272423437E+02  0.91272423472E+02  0.25500000000E-02 0. -1.
         -1   -1    0    0    0  501 -0.00000000000E+00 -0.00000000000E+00 -0.17846913717E+02  0.17846914429E+02  0.50400000000E-02 0.  1.
         24    2    1    2    0    0 -0.35527136788E-14  0.71054273576E-14  0.73425509720E+02  0.10911933790E+03  0.80720037329E+02 0.  0.
         66    2    3    3    0    0 -0.27581110477E+02  0.27277966406E+02  0.51674025713E+02  0.64645263128E+02  0.20000012843E+01 0.  0.
        -13    1    3    3    0    0  0.27581110477E+02 -0.27277966406E+02  0.21751484006E+02  0.44474074773E+02  0.10566000000E+00 0.  1.
         13    1    4    4    0    0 -0.12735134463E+01  0.10117686056E+01  0.24112481952E+01  0.29104628676E+01  0.10566000000E+00 0.  1.
        -13    1    4    4    0    0 -0.19454868207E+02  0.20262419494E+02  0.37669183910E+02  0.46989744851E+02  0.10566000000E+00 0. -1.
         14    1    4    4    0    0 -0.68527288235E+01  0.60037783059E+01  0.11593593608E+02  0.14745055409E+02  0.00000000000E+00 0. -1.
<mgrwt>
<rscale>  0 0.80720037E+02</rscale>
<asrwt>0</asrwt>
<pdfrwt beam="1">  1        2 0.14041911E-01 0.80720037E+02</pdfrwt>
<pdfrwt beam="2">  1       -1 0.27456791E-02 0.80720037E+02</pdfrwt>
<totfact> 0.16874849E+05</totfact>
</mgrwt>
</event>
<event>
 8    1  0.2433467E-020  0.8742148E+02  0.7818608E-02  0.1309219E+00
          2   -1    0    0  501    0  0.00000000000E+00  0.00000000000E+00  0.28432827427E+03  0.28432827428E+03  0.25500000000E-02 0. -1.
         -1   -1    0    0    0  501 -0.00000000000E+00 -0.00000000000E+00 -0.67197975359E+01  0.67197994260E+01  0.50400000000E-02 0.  1.
         24    2    1    2    0    0 -0.35527136788E-14  0.00000000000E+00  0.27760847674E+03  0.29104807371E+03  0.87421478220E+02 0.  0.
         66    2    3    3    0    0  0.25493480322E+02  0.33481728779E+01  0.25646553266E+03  0.25775899068E+03  0.20000086902E+01 0.  0.
        -13    1    3    3    0    0 -0.25493480322E+02 -0.33481728779E+01  0.21142944078E+02  0.33289083029E+02  0.10566000000E+00 0.  1.
         13    1    4    4    0    0  0.75877783899E+01  0.11123730719E+01  0.76798903361E+02  0.77180920416E+02  0.10566000000E+00 0. -1.
        -13    1    4    4    0    0  0.45397901805E+01  0.11214013373E+01  0.51188323003E+02  0.51401583747E+02  0.10566000000E+00 0. -1.
        -14    1    4    4    0    0  0.13365911752E+02  0.11143984687E+01  0.12847830629E+03  0.12917648652E+03  0.00000000000E+00 0.  1.
<mgrwt>
<rscale>  0 0.87421478E+02</rscale>
<asrwt>0</asrwt>
<pdfrwt beam="1">  1        2 0.43742808E-01 0.87421478E+02</pdfrwt>
<pdfrwt beam="2">  1       -1 0.10338152E-02 0.87421478E+02</pdfrwt>
<totfact> 0.19790894E+05</totfact>
</mgrwt>
</event>
<event>
 8    1  0.2433467E-020  0.8665588E+02  0.7818608E-02  0.1311158E+00
         -1   -1    0    0    0  501 -0.00000000000E+00  0.00000000000E+00  0.24627305534E+02  0.24627306050E+02  0.50400000000E-02 0.  1.
          2   -1    0    0  501    0  0.00000000000E+00 -0.00000000000E+00 -0.76228824041E+02  0.76228824084E+02  0.25500000000E-02 0. -1.
         24    2    1    2    0    0  0.00000000000E+00  0.00000000000E+00 -0.51601518507E+02  0.10085613013E+03  0.86655884240E+02 0.  0.
         66    2    3    3    0    0 -0.16143508288E+02  0.33424950735E+02 -0.51773326347E+02  0.63736312334E+02  0.19999993646E+01 0.  0.
        -13    1    3    3    0    0  0.16143508288E+02 -0.33424950735E+02  0.17180784026E+00  0.37119817799E+02  0.10566000000E+00 0.  1.
         13    1    4    4    0    0 -0.84348601458E+01  0.16958290295E+02 -0.26875026338E+02  0.32878696448E+02  0.10566000000E+00 0. -1.
        -13    1    4    4    0    0 -0.16207791716E+01  0.48022117577E+01 -0.70829940397E+01  0.87102314258E+01  0.10566000000E+00 0.  1.
         14    1    4    4    0    0 -0.60878689711E+01  0.11664448682E+02 -0.17815305969E+02  0.22147384461E+02  0.00000000000E+00 0. -1.
<mgrwt>
<rscale>  0 0.86655884E+02</rscale>
<asrwt>0</asrwt>
<pdfrwt beam="1">  1        2 0.11727511E-01 0.86655884E+02</pdfrwt>
<pdfrwt beam="2">  1       -1 0.37888163E-02 0.86655884E+02</pdfrwt>
<totfact> 0.13276447E+05</totfact>
</mgrwt>
</event>
<event>
 8    1  0.2433467E-020  0.8041910E+02  0.7818608E-02  0.1327866E+00
          2   -1    0    0  501    0  0.00000000000E+00  0.00000000000E+00  0.50120293330E+03  0.50120293330E+03  0.25500000000E-02 0. -1.
         -1   -1    0    0    0  501 -0.00000000000E+00 -0.00000000000E+00 -0.32258530843E+01  0.32258570215E+01  0.50400000000E-02 0.  1.
         24    2    1    2    0    0  0.71054273576E-14 -0.11102230246E-15  0.49797708021E+03  0.50442879033E+03  0.80419102778E+02 0.  0.
         66    2    3    3    0    0  0.39632672314E+02 -0.59989406553E+00  0.29060445345E+03  0.29330198937E+03  0.20000037224E+01 0.  0.
        -13    1    3    3    0    0 -0.39632672314E+02  0.59989406553E+00  0.20737262676E+03  0.21112680095E+03  0.10566000000E+00 0.  1.
         13    1    4    4    0    0  0.10398436091E+02 -0.16308891045E+00  0.75770318404E+02  0.76480758274E+02  0.10566000000E+00 0. -1.
        -13    1    4    4    0    0  0.76586227253E+01 -0.60660376323E+00  0.52367904099E+02  0.52928546304E+02  0.10566000000E+00 0.  1.
        -14    1    4    4    0    0  0.21575613498E+02  0.16979860815E+00  0.16246623095E+03  0.16389268479E+03  0.00000000000E+00 0.  1.
<mgrwt>
<rscale>  0 0.80419103E+02</rscale>
<asrwt>0</asrwt>
<pdfrwt beam="1">  1        2 0.77108143E-01 0.80419103E+02</pdfrwt>
<pdfrwt beam="2">  1       -1 0.49628540E-03 0.80419103E+02</pdfrwt>
<totfact> 0.30062369E+05</totfact>
</mgrwt>
</event>
<event>
 8    1  0.2433467E-020  0.7909974E+02  0.7818608E-02  0.1331626E+00
          2   -1    0    0  501    0  0.00000000000E+00  0.00000000000E+00  0.20395541530E+03  0.20395541532E+03  0.25500000000E-02 0. -1.
         -1   -1    0    0    0  501 -0.00000000000E+00 -0.00000000000E+00 -0.76692832580E+01  0.76692849140E+01  0.50400000000E-02 0.  1.
         24    2    1    2    0    0  0.00000000000E+00 -0.44408920985E-15  0.19628613204E+03  0.21162470023E+03  0.79099735243E+02 0.  0.
         66    2    3    3    0    0  0.16040976378E+02  0.21481842188E+01  0.19467875758E+03  0.19536055453E+03  0.19999986257E+01 0.  0.
        -13    1    3    3    0    0 -0.16040976378E+02 -0.21481842188E+01  0.16073744597E+01  0.16264145698E+02  0.10566000000E+00 0.  1.
         13    1    4    4    0    0  0.90379566493E+01  0.19928865772E+01  0.10548572887E+03  0.10589101197E+03  0.10566000000E+00 0. -1.
        -13    1    4    4    0    0  0.68692292864E+01  0.98194276521E-01  0.86417095044E+02  0.86689800051E+02  0.10566000000E+00 0.  1.
        -14    1    4    4    0    0  0.13379044262E+00  0.57103365041E-01  0.27759336754E+01  0.27797425145E+01  0.00000000000E+00 0.  1.
<mgrwt>
<rscale>  0 0.79099735E+02</rscale>
<asrwt>0</asrwt>
<pdfrwt beam="1">  1        2 0.31377753E-01 0.79099735E+02</pdfrwt>
<pdfrwt beam="2">  1       -1 0.11798900E-02 0.79099735E+02</pdfrwt>
<totfact> 0.22881955E+05</totfact>
</mgrwt>
</event>
<event>
 8    1  0.2433467E-020  0.8139655E+02  0.7818608E-02  0.1325134E+00
         -1   -1    0    0    0  501 -0.00000000000E+00  0.00000000000E+00  0.34997239698E+03  0.34997239702E+03  0.50400000000E-02 0.  1.
          2   -1    0    0  501    0  0.00000000000E+00 -0.00000000000E+00 -0.47327998480E+01  0.47328005350E+01  0.25500000000E-02 0. -1.
         24    2    1    2    0    0 -0.17763568394E-14  0.00000000000E+00  0.34523959714E+03  0.35470519755E+03  0.81396546254E+02 0.  0.
         66    2    3    3    0    0 -0.15088711174E+02  0.37112623605E+02  0.14211747114E+03  0.14766987383E+03  0.19999997101E+01 0.  0.
        -13    1    3    3    0    0  0.15088711174E+02 -0.37112623605E+02  0.20312212600E+03  0.20703532372E+03  0.10566000000E+00 0.  1.
         13    1    4    4    0    0 -0.40909923120E+01  0.83226297707E+01  0.32825166129E+02  0.34110190264E+02  0.10566000000E+00 0. -1.
        -13    1    4    4    0    0 -0.31276357229E+01  0.85759556280E+01  0.30673149830E+02  0.32002849946E+02  0.10566000000E+00 0.  1.
        -14    1    4    4    0    0 -0.78700831388E+01  0.20214038206E+02  0.78619155178E+02  0.81556833620E+02  0.00000000000E+00 0.  1.
<mgrwt>
<rscale>  0 0.81396546E+02</rscale>
<asrwt>0</asrwt>
<pdfrwt beam="1">  1        2 0.72812298E-03 0.81396546E+02</pdfrwt>
<pdfrwt beam="2">  1       -1 0.53841917E-01 0.81396546E+02</pdfrwt>
<totfact> 0.77359748E+04</totfact>
</mgrwt>
</event>
<event>
 8    1  0.2433467E-020  0.8045814E+02  0.7818608E-02  0.1327756E+00
         -1   -1    0    0    0  501 -0.00000000000E+00  0.00000000000E+00  0.34932878099E+02  0.34932878463E+02  0.50400000000E-02 0.  1.
          2   -1    0    0  501    0  0.00000000000E+00 -0.00000000000E+00 -0.46328221578E+02  0.46328221648E+02  0.25500000000E-02 0. -1.
         24    2    1    2    0    0  0.22204460493E-15 -0.71054273576E-14 -0.11395343479E+02  0.81261100110E+02  0.80458141528E+02 0.  0.
         66    2    3    3    0    0  0.19229215700E+01 -0.35743843918E+02  0.12785950062E+02  0.38063112579E+02  0.20000036941E+01 0.  0.
        -13    1    3    3    0    0 -0.19229215700E+01  0.35743843918E+02 -0.24181293541E+02  0.43197987531E+02  0.10566000000E+00 0.  1.
         13    1    4    4    0    0  0.30722407646E+00 -0.84645769199E+01  0.22157835054E+01  0.87558157612E+01  0.10566000000E+00 0. -1.
        -13    1    4    4    0    0  0.80384876250E+00 -0.11877021922E+02  0.42886257596E+01  0.12653588325E+02  0.10566000000E+00 0.  1.
        -14    1    4    4    0    0  0.81184873105E+00 -0.15402245077E+02  0.62815407970E+01  0.16653708492E+02  0.00000000000E+00 0.  1.
<mgrwt>
<rscale>  0 0.80458142E+02</rscale>
<asrwt>0</asrwt>
<pdfrwt beam="1">  1        2 0.71274187E-02 0.80458142E+02</pdfrwt>
<pdfrwt beam="2">  1       -1 0.53742890E-02 0.80458142E+02</pdfrwt>
<totfact> 0.14470736E+05</totfact>
</mgrwt>
</event>
<event>
 8    1  0.2433467E-020  0.7778719E+02  0.7818608E-02  0.1335451E+00
         -1   -1    0    0    0  501 -0.00000000000E+00  0.00000000000E+00  0.56468021299E+01  0.56468043791E+01  0.50400000000E-02 0.  1.
          2   -1    0    0  501    0  0.00000000000E+00 -0.00000000000E+00 -0.26788813412E+03  0.26788813413E+03  0.25500000000E-02 0. -1.
         24    2    1    2    0    0 -0.71054273576E-14  0.88817841970E-15 -0.26224133199E+03  0.27353493851E+03  0.77787186493E+02 0.  0.
         66    2    3    3    0    0  0.33699097909E+02 -0.70143482005E+01 -0.19468626609E+03  0.19771588831E+03  0.20000014325E+01 0.  0.
        -13    1    3    3    0    0 -0.33699097909E+02  0.70143482005E+01 -0.67555065901E+02  0.75819050201E+02  0.10566000000E+00 0.  1.
         13    1    4    4    0    0  0.17879925371E+02 -0.37530365705E+01 -0.10145278960E+03  0.10308470641E+03  0.10566000000E+00 0. -1.
        -13    1    4    4    0    0  0.47996195482E+01 -0.58877687447E+00 -0.30515400792E+02  0.30896340488E+02  0.10566000000E+00 0.  1.
        -14    1    4    4    0    0  0.11019552990E+02 -0.26725347555E+01 -0.62718075705E+02  0.63734841415E+02  0.00000000000E+00 0.  1.
<mgrwt>
<rscale>  0 0.77787186E+02</rscale>
<asrwt>0</asrwt>
<pdfrwt beam="1">  1        2 0.41213549E-01 0.77787186E+02</pdfrwt>
<pdfrwt beam="2">  1       -1 0.86873917E-03 0.77787186E+02</pdfrwt>
<totfact> 0.26338010E+05</totfact>
</mgrwt>
</event>
<event>
 8    1  0.2433467E-020  0.7603920E+02  0.7818608E-02  0.1340683E+00
         -1   -1    0    0    0  501 -0.00000000000E+00  0.00000000000E+00  0.10808795375E+02  0.10808796551E+02  0.50400000000E-02 0.  1.
          2   -1    0    0  501    0  0.00000000000E+00 -0.00000000000E+00 -0.13373273578E+03  0.13373273581E+03  0.25500000000E-02 0. -1.
         24    2    1    2    0    0 -0.71054273576E-14  0.17763568394E-14 -0.12292394041E+03  0.14454153236E+03  0.76039196807E+02 0.  0.
         66    2    3    3    0    0  0.23656815996E+02 -0.12432016882E+02 -0.11283821328E+03  0.11597699066E+03  0.19999997881E+01 0.  0.
        -13    1    3    3    0    0 -0.23656815996E+02  0.12432016882E+02 -0.10085727130E+02  0.28564541702E+02  0.10566000000E+00 0.  1.
         13    1    4    4    0    0  0.18116442182E+02 -0.95608051813E+01 -0.87635714186E+02  0.89998022411E+02  0.10566000000E+00 0. -1.
        -13    1    4    4    0    0  0.19638950957E+01 -0.10246687813E+01 -0.72918309004E+01  0.76216003552E+01  0.10566000000E+00 0.  1.
        -14    1    4    4    0    0  0.35764787183E+01 -0.18465429196E+01 -0.17910668193E+02  0.18357367891E+02  0.00000000000E+00 0.  1.
<mgrwt>
<rscale>  0 0.76039197E+02</rscale>
<asrwt>0</asrwt>
<pdfrwt beam="1">  1        2 0.20574266E-01 0.76039197E+02</pdfrwt>
<pdfrwt beam="2">  1       -1 0.16628918E-02 0.76039197E+02</pdfrwt>
<totfact> 0.22099860E+05</totfact>
</mgrwt>
</event>
<event>
 8    1  0.2433467E-020  0.7986594E+02  0.7818608E-02  0.1329432E+00
         -1   -1    0    0    0  501 -0.00000000000E+00  0.00000000000E+00  0.26087491881E+02  0.26087492368E+02  0.50400000000E-02 0.  1.
          2   -1    0    0  501    0  0.00000000000E+00 -0.00000000000E+00 -0.61126694982E+02  0.61126695036E+02  0.25500000000E-02 0. -1.
         24    2    1    2    0    0  0.00000000000E+00 -0.35527136788E-14 -0.35039203101E+02  0.87214187404E+02  0.79865942244E+02 0.  0.
         66    2    3    3    0    0  0.23662339306E+02  0.31821746724E+02 -0.22427252200E+02  0.45601661218E+02  0.19999996669E+01 0.  0.
        -13    1    3    3    0    0 -0.23662339306E+02 -0.31821746724E+02 -0.12611950902E+02  0.41612526186E+02  0.10566000000E+00 0.  1.
         13    1    4    4    0    0  0.30688260762E+01  0.40475797325E+01 -0.30023671867E+01  0.59013530598E+01  0.10566000000E+00 0. -1.
        -13    1    4    4    0    0  0.12152910277E+02  0.17298518573E+02 -0.11068417286E+02  0.23863214332E+02  0.10566000000E+00 0.  1.
        -14    1    4    4    0    0  0.84406029526E+01  0.10475648418E+02 -0.83564677265E+01  0.15837093826E+02  0.00000000000E+00 0.  1.
<mgrwt>
<rscale>  0 0.79865942E+02</rscale>
<asrwt>0</asrwt>
<pdfrwt beam="1">  1        2 0.94041069E-02 0.79865942E+02</pdfrwt>
<pdfrwt beam="2">  1       -1 0.40134604E-02 0.79865942E+02</pdfrwt>
<totfact> 0.15704882E+05</totfact>
</mgrwt>
</event>
<event>
 8    1  0.2433467E-020  0.7970917E+02  0.7818608E-02  0.1329879E+00
         -1   -1    0    0    0  501 -0.00000000000E+00  0.00000000000E+00  0.30328052966E+02  0.30328053385E+02  0.50400000000E-02 0.  1.
          2   -1    0    0  501    0  0.00000000000E+00 -0.00000000000E+00 -0.52373548563E+02  0.52373548625E+02  0.25500000000E-02 0. -1.
         24    2    1    2    0    0  0.35527136788E-14  0.17763568394E-14 -0.22045495597E+02  0.82701602010E+02  0.79709165715E+02 0.  0.
         66    2    3    3    0    0 -0.26064438896E+02 -0.11994679605E+02 -0.39692043385E+02  0.49017197211E+02  0.20000001342E+01 0.  0.
        -13    1    3    3    0    0  0.26064438896E+02  0.11994679605E+02  0.17646547788E+02  0.33684404799E+02  0.10566000000E+00 0.  1.
         13    1    4    4    0    0 -0.83104305093E+01 -0.39597626185E+01 -0.11427329086E+02  0.14674399112E+02  0.10566000000E+00 0. -1.
        -13    1    4    4    0    0 -0.14517718608E+02 -0.61964466338E+01 -0.22909902901E+02  0.27821483056E+02  0.10566000000E+00 0.  1.
        -14    1    4    4    0    0 -0.32362897785E+01 -0.18384703525E+01 -0.53548113989E+01  0.65213150426E+01  0.00000000000E+00 0.  1.
<mgrwt>
<rscale>  0 0.79709166E+02</rscale>
<asrwt>0</asrwt>
<pdfrwt beam="1">  1        2 0.80574690E-02 0.79709166E+02</pdfrwt>
<pdfrwt beam="2">  1       -1 0.46658543E-02 0.79709166E+02</pdfrwt>
<totfact> 0.15246752E+05</totfact>
</mgrwt>
</event>
<event>
 8    1  0.2433467E-020  0.7906291E+02  0.7818608E-02  0.1331732E+00
          2   -1    0    0  501    0  0.00000000000E+00  0.00000000000E+00  0.26015035322E+03  0.26015035324E+03  0.25500000000E-02 0. -1.
         -1   -1    0    0    0  501 -0.00000000000E+00 -0.00000000000E+00 -0.60070481615E+01  0.60070502758E+01  0.50400000000E-02 0.  1.
         24    2    1    2    0    0  0.00000000000E+00  0.00000000000E+00  0.25414330506E+03  0.26615740351E+03  0.79062911256E+02 0.  0.
         66    2    3    3    0    0 -0.16916766089E+02 -0.35466944360E+02  0.14088910716E+03  0.14627994265E+03  0.19999967780E+01 0.  0.
        -13    1    3    3    0    0  0.16916766089E+02  0.35466944360E+02  0.11325419790E+03  0.11987746087E+03  0.10566000000E+00 0.  1.
         13    1    4    4    0    0 -0.53419791073E+00 -0.10613927385E+01  0.44658433966E+01  0.46224282831E+01  0.10566000000E+00 0. -1.
        -13    1    4    4    0    0 -0.12676951091E+02 -0.28295398599E+02  0.11084655892E+03  0.11510128348E+03  0.10566000000E+00 0.  1.
        -14    1    4    4    0    0 -0.37056170864E+01 -0.61101530228E+01  0.25576704848E+02  0.26556230885E+02  0.00000000000E+00 0.  1.
<mgrwt>
<rscale>  0 0.79062911E+02</rscale>
<asrwt>0</asrwt>
<pdfrwt beam="1">  1        2 0.40023134E-01 0.79062911E+02</pdfrwt>
<pdfrwt beam="2">  1       -1 0.92416136E-03 0.79062911E+02</pdfrwt>
<totfact> 0.24973074E+05</totfact>
</mgrwt>
</event>
<event>
 8    1  0.2433467E-020  0.7862966E+02  0.7818608E-02  0.1332986E+00
         -1   -1    0    0    0  501 -0.00000000000E+00  0.00000000000E+00  0.58589774182E+01  0.58589795860E+01  0.50400000000E-02 0.  1.
          2   -1    0    0  501    0  0.00000000000E+00 -0.00000000000E+00 -0.26380975778E+03  0.26380975779E+03  0.25500000000E-02 0. -1.
         24    2    1    2    0    0  0.35527136788E-14 -0.35527136788E-14 -0.25795078036E+03  0.26966873737E+03  0.78629656173E+02 0.  0.
         66    2    3    3    0    0 -0.24096854861E+02  0.28842307412E+02 -0.16832926087E+03  0.17248558539E+03  0.19999974684E+01 0.  0.
        -13    1    3    3    0    0  0.24096854861E+02 -0.28842307412E+02 -0.89621519486E+02  0.97183151986E+02  0.10566000000E+00 0.  1.
         13    1    4    4    0    0 -0.47866547786E+01  0.48038265541E+01 -0.32206090123E+02  0.32912493351E+02  0.10566000000E+00 0.  1.
        -13    1    4    4    0    0 -0.14928211603E+01  0.18866027655E+01 -0.11253531070E+02  0.11508297467E+02  0.10566000000E+00 0. -1.
        -14    1    4    4    0    0 -0.17817378922E+02  0.22151878092E+02 -0.12486963968E+03  0.12806479457E+03  0.00000000000E+00 0.  1.
<mgrwt>
<rscale>  0 0.78629656E+02</rscale>
<asrwt>0</asrwt>
<pdfrwt beam="1">  1        2 0.40586107E-01 0.78629656E+02</pdfrwt>
<pdfrwt beam="2">  1       -1 0.90138152E-03 0.78629656E+02</pdfrwt>
<totfact> 0.25463636E+05</totfact>
</mgrwt>
</event>
<event>
 8    1  0.2433467E-020  0.7975021E+02  0.7818608E-02  0.1329762E+00
         -1   -1    0    0    0  501 -0.00000000000E+00  0.00000000000E+00  0.27680497524E+01  0.27680543408E+01  0.50400000000E-02 0.  1.
          2   -1    0    0  501    0  0.00000000000E+00 -0.00000000000E+00 -0.57441976594E+03  0.57441976594E+03  0.25500000000E-02 0. -1.
         24    2    1    2    0    0  0.00000000000E+00  0.00000000000E+00 -0.57165171618E+03  0.57718782028E+03  0.79750205434E+02 0.  0.
         66    2    3    3    0    0  0.35453011550E+02  0.10959397319E+02 -0.39113371169E+03  0.39289515758E+03  0.20000018824E+01 0.  0.
        -13    1    3    3    0    0 -0.35453011550E+02 -0.10959397319E+02 -0.18051800449E+03  0.18429266271E+03  0.10566000000E+00 0.  1.
         13    1    4    4    0    0  0.74816361904E+01  0.30747978533E+01 -0.87340946991E+02  0.87714773255E+02  0.10566000000E+00 0. -1.
        -13    1    4    4    0    0  0.15170457086E+02  0.42796531413E+01 -0.16822898318E+03  0.16896585497E+03  0.10566000000E+00 0.  1.
         14    1    4    4    0    0  0.12800918274E+02  0.36049463241E+01 -0.13556378152E+03  0.13621452935E+03  0.00000000000E+00 0. -1.
<mgrwt>
<rscale>  0 0.79750205E+02</rscale>
<asrwt>0</asrwt>
<pdfrwt beam="1">  1        2 0.88372177E-01 0.79750205E+02</pdfrwt>
<pdfrwt beam="2">  1       -1 0.42585462E-03 0.79750205E+02</pdfrwt>
<totfact> 0.32027401E+05</totfact>
</mgrwt>
</event>
<event>
 8    1  0.2433467E-020  0.7828971E+02  0.7818608E-02  0.1333976E+00
          2   -1    0    0  501    0  0.00000000000E+00  0.00000000000E+00  0.44867047432E+02  0.44867047505E+02  0.25500000000E-02 0. -1.
         -1   -1    0    0    0  501 -0.00000000000E+00 -0.00000000000E+00 -0.34152448282E+02  0.34152448654E+02  0.50400000000E-02 0.  1.
         24    2    1    2    0    0  0.35527136788E-14  0.35527136788E-14  0.10714599150E+02  0.79019496159E+02  0.78289706464E+02 0.  0.
         66    2    3    3    0    0  0.24471096543E+02  0.30382054550E+02  0.24336136450E+01  0.39138552216E+02  0.19999973686E+01 0.  0.
        -13    1    3    3    0    0 -0.24471096543E+02 -0.30382054550E+02  0.82809855054E+01  0.39880943942E+02  0.10566000000E+00 0.  1.
         13    1    4    4    0    0  0.11602163721E+02  0.15704747782E+02  0.94670912406E+00  0.19548829328E+02  0.10566000000E+00 0. -1.
        -13    1    4    4    0    0  0.89400267973E+01  0.97100140711E+01  0.10832007400E+01  0.13243599974E+02  0.10566000000E+00 0.  1.
        -14    1    4    4    0    0  0.39289060252E+01  0.49672926975E+01  0.40370378099E+00  0.63461229140E+01  0.00000000000E+00 0.  1.
<mgrwt>
<rscale>  0 0.78289706E+02</rscale>
<asrwt>0</asrwt>
<pdfrwt beam="1">  1        2 0.69026227E-02 0.78289706E+02</pdfrwt>
<pdfrwt beam="2">  1       -1 0.52542229E-02 0.78289706E+02</pdfrwt>
<totfact> 0.15492939E+05</totfact>
</mgrwt>
</event>
<event>
 8    1  0.2433467E-020  0.8103638E+02  0.7818608E-02  0.1326136E+00
          2   -1    0    0  501    0  0.00000000000E+00  0.00000000000E+00  0.65915259966E+03  0.65915259966E+03  0.25500000000E-02 0. -1.
         -1   -1    0    0    0  501 -0.00000000000E+00 -0.00000000000E+00 -0.24906552678E+01  0.24906603672E+01  0.50400000000E-02 0.  1.
         24    2    1    2    0    0  0.00000000000E+00  0.00000000000E+00  0.65666194439E+03  0.66164326003E+03  0.81036376603E+02 0.  0.
         66    2    3    3    0    0  0.28467632506E+01  0.32751669305E+02  0.52156161121E+03  0.52260050728E+03  0.20000041695E+01 0.  0.
        -13    1    3    3    0    0 -0.28467632506E+01 -0.32751669305E+02  0.13510033318E+03  0.13904275275E+03  0.10566000000E+00 0.  1.
         13    1    4    4    0    0  0.20015834048E+01  0.22033961965E+02  0.35347994805E+03  0.35417169093E+03  0.10566000000E+00 0. -1.
        -13    1    4    4    0    0  0.13287719923E+00  0.53608505729E+01  0.76415465693E+02  0.76603465563E+02  0.10566000000E+00 0.  1.
         14    1    4    4    0    0  0.71230264663E+00  0.53568567671E+01  0.91666197466E+02  0.91825350788E+02  0.00000000000E+00 0. -1.
<mgrwt>
<rscale>  0 0.81036377E+02</rscale>
<asrwt>0</asrwt>
<pdfrwt beam="1">  1        2 0.10140822E+00 0.81036377E+02</pdfrwt>
<pdfrwt beam="2">  1       -1 0.38317766E-03 0.81036377E+02</pdfrwt>
<totfact> 0.31887286E+05</totfact>
</mgrwt>
</event>
<event>
 8    1  0.2433467E-020  0.8201884E+02  0.7818608E-02  0.1323418E+00
         -1   -1    0    0    0  501 -0.00000000000E+00  0.00000000000E+00  0.12839772982E+02  0.12839773971E+02  0.50400000000E-02 0.  1.
          2   -1    0    0  501    0  0.00000000000E+00 -0.00000000000E+00 -0.13098147837E+03  0.13098147839E+03  0.25500000000E-02 0. -1.
         24    2    1    2    0    0  0.00000000000E+00  0.00000000000E+00 -0.11814170538E+03  0.14382125236E+03  0.82018839787E+02 0.  0.
         66    2    3    3    0    0 -0.36412209068E+02  0.30298724612E+01 -0.91663622310E+02  0.98697764646E+02  0.19999987019E+01 0.  0.
        -13    1    3    3    0    0  0.36412209068E+02 -0.30298724612E+01 -0.26478083075E+02  0.45123487717E+02  0.10566000000E+00 0.  1.
         13    1    4    4    0    0 -0.13721931929E+02  0.14259161497E+01 -0.35835326237E+02  0.38399302380E+02  0.10566000000E+00 0.  1.
        -13    1    4    4    0    0 -0.17292379294E+01  0.20533526151E+00 -0.34979554848E+01  0.39088723431E+01  0.10566000000E+00 0. -1.
         14    1    4    4    0    0 -0.20961039210E+02  0.13986210500E+01 -0.52330340588E+02  0.56389589923E+02  0.00000000000E+00 0. -1.
<mgrwt>
<rscale>  0 0.82018840E+02</rscale>
<asrwt>0</asrwt>
<pdfrwt beam="1">  1        2 0.20150996E-01 0.82018840E+02</pdfrwt>
<pdfrwt beam="2">  1       -1 0.19753499E-02 0.82018840E+02</pdfrwt>
<totfact> 0.17957840E+05</totfact>
</mgrwt>
</event>
<event>
 8    1  0.2433467E-020  0.7947494E+02  0.7818608E-02  0.1330548E+00
          2   -1    0    0  501    0  0.00000000000E+00  0.00000000000E+00  0.13827502910E+02  0.13827503145E+02  0.25500000000E-02 0. -1.
         -1   -1    0    0    0  501 -0.00000000000E+00 -0.00000000000E+00 -0.11419753122E+03  0.11419753133E+03  0.50400000000E-02 0.  1.
         24    2    1    2    0    0  0.35527136788E-14 -0.35527136788E-14 -0.10037002831E+03  0.12802503447E+03  0.79474944915E+02 0.  0.
         66    2    3    3    0    0 -0.31109630113E+02  0.23276799003E+02 -0.63445922530E+02  0.74424482152E+02  0.20000000790E+01 0.  0.
        -13    1    3    3    0    0  0.31109630113E+02 -0.23276799003E+02 -0.36924105777E+02  0.53600552320E+02  0.10566000000E+00 0.  1.
         13    1    4    4    0    0 -0.11062963734E+02  0.73570936679E+01 -0.22182740192E+02  0.25857322372E+02  0.10566000000E+00 0. -1.
        -13    1    4    4    0    0 -0.18776980613E+02  0.14627619789E+02 -0.38449039836E+02  0.45220372510E+02  0.10566000000E+00 0.  1.
         14    1    4    4    0    0 -0.12696857667E+01  0.12920855460E+01 -0.28141425022E+01  0.33467872695E+01  0.00000000000E+00 0. -1.
<mgrwt>
<rscale>  0 0.79474945E+02</rscale>
<asrwt>0</asrwt>
<pdfrwt beam="1">  1        2 0.21273082E-02 0.79474945E+02</pdfrwt>
<pdfrwt beam="2">  1       -1 0.17568850E-01 0.79474945E+02</pdfrwt>
<totfact> 0.11704622E+05</totfact>
</mgrwt>
</event>
<event>
 8    1  0.2433467E-020  0.7948437E+02  0.7818608E-02  0.1330521E+00
          2   -1    0    0  501    0  0.00000000000E+00  0.00000000000E+00  0.17694921509E+02  0.17694921692E+02  0.25500000000E-02 0. -1.
         -1   -1    0    0    0  501 -0.00000000000E+00 -0.00000000000E+00 -0.89259583812E+02  0.89259583955E+02  0.50400000000E-02 0.  1.
         24    2    1    2    0    0 -0.88817841970E-15  0.00000000000E+00 -0.71564662304E+02  0.10695450565E+03  0.79484371970E+02 0.  0.
         66    2    3    3    0    0  0.47220283133E+01 -0.33749594111E+02 -0.83564525547E+01  0.35144885137E+02  0.19999994806E+01 0.  0.
        -13    1    3    3    0    0 -0.47220283133E+01  0.33749594111E+02 -0.63208209749E+02  0.71809620510E+02  0.10566000000E+00 0.  1.
         13    1    4    4    0    0  0.10816662555E+01 -0.76034533384E+01 -0.20558817568E+01  0.79511205746E+01  0.10566000000E+00 0. -1.
        -13    1    4    4    0    0  0.13090660437E+00 -0.61004606134E+01 -0.15208212071E+01  0.62894210715E+01  0.10566000000E+00 0.  1.
        -14    1    4    4    0    0  0.35094554535E+01 -0.20045680159E+02 -0.47797495908E+01  0.20904343491E+02  0.00000000000E+00 0.  1.
<mgrwt>
<rscale>  0 0.79484372E+02</rscale>
<asrwt>0</asrwt>
<pdfrwt beam="1">  1        2 0.27222957E-02 0.79484372E+02</pdfrwt>
<pdfrwt beam="2">  1       -1 0.13732244E-01 0.79484372E+02</pdfrwt>
<totfact> 0.12336580E+05</totfact>
</mgrwt>
</event>
<event>
 8    1  0.2433467E-020  0.7450172E+02  0.7818608E-02  0.1345421E+00
         -1   -1    0    0    0  501 -0.00000000000E+00  0.00000000000E+00  0.22121777473E+01  0.22121834886E+01  0.50400000000E-02 0.  1.
          2   -1    0    0  501    0  0.00000000000E+00 -0.00000000000E+00 -0.62726640925E+03  0.62726640926E+03  0.25500000000E-02 0. -1.
         24    2    1    2    0    0  0.35527136788E-14  0.00000000000E+00 -0.62505423151E+03  0.62947859275E+03  0.74501720807E+02 0.  0.
         66    2    3    3    0    0  0.28751612017E+02 -0.29754959136E+01 -0.51092293675E+03  0.51174383842E+03  0.20000237825E+01 0.  0.
        -13    1    3    3    0    0 -0.28751612017E+02  0.29754959136E+01 -0.11413129476E+03  0.11773475433E+03  0.10566000000E+00 0.  1.
         13    1    4    4    0    0  0.65693908207E+01  0.48379432009E-01 -0.12132088689E+03  0.12149867487E+03  0.10566000000E+00 0. -1.
        -13    1    4    4    0    0  0.11875939320E+02 -0.18833627300E+01 -0.21091226948E+03  0.21125477881E+03  0.10566000000E+00 0.  1.
         14    1    4    4    0    0  0.10306281876E+02 -0.11405126157E+01 -0.17868978038E+03  0.17899038473E+03  0.00000000000E+00 0. -1.
<mgrwt>
<rscale>  0 0.74501721E+02</rscale>
<asrwt>0</asrwt>
<pdfrwt beam="1">  1        2 0.96502383E-01 0.74501721E+02</pdfrwt>
<pdfrwt beam="2">  1       -1 0.34033598E-03 0.74501721E+02</pdfrwt>
<totfact> 0.39152707E+05</totfact>
</mgrwt>
</event>
<event>
 8    1  0.2433467E-020  0.8048597E+02  0.7818608E-02  0.1327678E+00
         -1   -1    0    0    0  501 -0.00000000000E+00  0.00000000000E+00  0.20908886000E+01  0.20908946744E+01  0.50400000000E-02 0.  1.
          2   -1    0    0  501    0  0.00000000000E+00 -0.00000000000E+00 -0.77454889915E+03  0.77454889915E+03  0.25500000000E-02 0. -1.
         24    2    1    2    0    0 -0.17763568394E-14  0.00000000000E+00 -0.77245801054E+03  0.77663979382E+03  0.80485969555E+02 0.  0.
         66    2    3    3    0    0 -0.91715177788E+01 -0.40757350781E+01 -0.76226835071E+03  0.76233704282E+03  0.20000002618E+01 0.  0.
        -13    1    3    3    0    0  0.91715177788E+01  0.40757350781E+01 -0.10189659836E+02  0.14302751008E+02  0.10566000000E+00 0.  1.
         13    1    4    4    0    0 -0.15828182568E+01 -0.45492971731E+00 -0.10478786381E+03  0.10480085802E+03  0.10566000000E+00 0. -1.
        -13    1    4    4    0    0 -0.36844764625E+01 -0.11725494947E+01 -0.34577870782E+03  0.34580034150E+03  0.10566000000E+00 0.  1.
        -14    1    4    4    0    0 -0.39042230596E+01 -0.24482558661E+01 -0.31170177908E+03  0.31173584330E+03  0.00000000000E+00 0.  1.
<mgrwt>
<rscale>  0 0.80485970E+02</rscale>
<asrwt>0</asrwt>
<pdfrwt beam="1">  1        2 0.11916114E+00 0.80485970E+02</pdfrwt>
<pdfrwt beam="2">  1       -1 0.32167626E-03 0.80485970E+02</pdfrwt>
<totfact> 0.33632666E+05</totfact>
</mgrwt>
</event>
<event>
 8    1  0.2433467E-020  0.8024532E+02  0.7818608E-02  0.1328357E+00
         -1   -1    0    0    0  501 -0.00000000000E+00  0.00000000000E+00  0.24410342235E+01  0.24410394265E+01  0.50400000000E-02 0.  1.
          2   -1    0    0  501    0  0.00000000000E+00 -0.00000000000E+00 -0.65948532732E+03  0.65948532732E+03  0.25500000000E-02 0. -1.
         24    2    1    2    0    0  0.00000000000E+00  0.00000000000E+00 -0.65704429309E+03  0.66192636675E+03  0.80245323291E+02 0.  0.
         66    2    3    3    0    0  0.33045609800E+02 -0.30090971672E+01 -0.51441603129E+03  0.51548901079E+03  0.19999994787E+01 0.  0.
        -13    1    3    3    0    0 -0.33045609800E+02  0.30090971672E+01 -0.14262826180E+03  0.14643735596E+03  0.10566000000E+00 0.  1.
         13    1    4    4    0    0  0.42621822283E+01 -0.27230994349E+00 -0.68786784699E+02  0.68919324310E+02  0.10566000000E+00 0. -1.
        -13    1    4    4    0    0  0.17982739307E+02 -0.21084334922E+01 -0.26724769224E+03  0.26786034529E+03  0.10566000000E+00 0.  1.
        -14    1    4    4    0    0  0.10800688264E+02 -0.62835373148E+00 -0.17838155435E+03  0.17870934119E+03  0.00000000000E+00 0.  1.
<mgrwt>
<rscale>  0 0.80245323E+02</rscale>
<asrwt>0</asrwt>
<pdfrwt beam="1">  1        2 0.10145914E+00 0.80245323E+02</pdfrwt>
<pdfrwt beam="2">  1       -1 0.37554465E-03 0.80245323E+02</pdfrwt>
<totfact> 0.32715948E+05</totfact>
</mgrwt>
</event>
<event>
 8    1  0.2433467E-020  0.7958022E+02  0.7818608E-02  0.1330247E+00
          2   -1    0    0  501    0  0.00000000000E+00  0.00000000000E+00  0.46954562555E+03  0.46954562556E+03  0.25500000000E-02 0. -1.
         -1   -1    0    0    0  501 -0.00000000000E+00 -0.00000000000E+00 -0.33718808854E+01  0.33718846521E+01  0.50400000000E-02 0.  1.
         24    2    1    2    0    0 -0.35527136788E-14  0.00000000000E+00  0.46617374466E+03  0.47291751021E+03  0.79580218947E+02 0.  0.
         66    2    3    3    0    0  0.15128228038E+02  0.70717032816E+01  0.44769471207E+03  0.44801052162E+03  0.19999992247E+01 0.  0.
        -13    1    3    3    0    0 -0.15128228038E+02 -0.70717032816E+01  0.18479032596E+02  0.24906988590E+02  0.10566000000E+00 0.  1.
         13    1    4    4    0    0  0.10363911028E+02  0.49940071947E+01  0.30088583173E+03  0.30110570512E+03  0.10566000000E+00 0. -1.
        -13    1    4    4    0    0  0.14945408695E+01  0.54627688602E+00  0.59381930230E+02  0.59403340586E+02  0.10566000000E+00 0.  1.
        -14    1    4    4    0    0  0.32697761411E+01  0.15314192008E+01  0.87426950111E+02  0.87501475910E+02  0.00000000000E+00 0.  1.
<mgrwt>
<rscale>  0 0.79580219E+02</rscale>
<asrwt>0</asrwt>
<pdfrwt beam="1">  1        2 0.72237793E-01 0.79580219E+02</pdfrwt>
<pdfrwt beam="2">  1       -1 0.51875116E-03 0.79580219E+02</pdfrwt>
<totfact> 0.30249463E+05</totfact>
</mgrwt>
</event>
<event>
 8    1  0.2433467E-020  0.8104596E+02  0.7818608E-02  0.1326109E+00
          2   -1    0    0  501    0  0.00000000000E+00  0.00000000000E+00  0.10611766212E+04  0.10611766212E+04  0.25500000000E-02 0. -1.
         -1   -1    0    0    0  501 -0.00000000000E+00 -0.00000000000E+00 -0.15474405472E+01  0.15474487548E+01  0.50400000000E-02 0.  1.
         24    2    1    2    0    0  0.00000000000E+00  0.17763568394E-14  0.10596291807E+04  0.10627240700E+04  0.81045964594E+02 0.  0.
         66    2    3    3    0    0 -0.15305884915E+02  0.98903737560E+01  0.10043738410E+04  0.10045411401E+04  0.20000012777E+01 0.  0.
        -13    1    3    3    0    0  0.15305884915E+02 -0.98903737560E+01  0.55255339667E+02  0.58182929901E+02  0.10566000000E+00 0.  1.
         13    1    4    4    0    0 -0.95684056621E+01  0.59301641534E+01  0.63713264233E+03  0.63723208984E+03  0.10566000000E+00 0. -1.
        -13    1    4    4    0    0 -0.23389330709E+01  0.19481365245E+01  0.18488726797E+03  0.18491235455E+03  0.10566000000E+00 0.  1.
         14    1    4    4    0    0 -0.33985461819E+01  0.20120730781E+01  0.18235393069E+03  0.18239669567E+03  0.00000000000E+00 0. -1.
<mgrwt>
<rscale>  0 0.81045965E+02</rscale>
<asrwt>0</asrwt>
<pdfrwt beam="1">  1        2 0.16325775E+00 0.81045965E+02</pdfrwt>
<pdfrwt beam="2">  1       -1 0.23806869E-03 0.81045965E+02</pdfrwt>
<totfact> 0.34102816E+05</totfact>
</mgrwt>
</event>
<event>
 8    1  0.2433467E-020  0.7988242E+02  0.7818608E-02  0.1329385E+00
          2   -1    0    0  501    0  0.00000000000E+00  0.00000000000E+00  0.14124739235E+02  0.14124739466E+02  0.25500000000E-02 0. -1.
         -1   -1    0    0    0  501 -0.00000000000E+00 -0.00000000000E+00 -0.11294369720E+03  0.11294369731E+03  0.50400000000E-02 0.  1.
         24    2    1    2    0    0  0.00000000000E+00  0.00000000000E+00 -0.98818957962E+02  0.12706843677E+03  0.79882420918E+02 0.  0.
         66    2    3    3    0    0  0.89943746494E+01 -0.27792651218E+02 -0.61698472822E+01  0.29923189280E+02  0.20000010322E+01 0.  0.
        -13    1    3    3    0    0 -0.89943746494E+01  0.27792651218E+02 -0.92649110679E+02  0.97145247495E+02  0.10566000000E+00 0.  1.
         13    1    4    4    0    0  0.56643772281E+01 -0.16742911100E+02 -0.41787430560E+01  0.18162689753E+02  0.10566000000E+00 0. -1.
        -13    1    4    4    0    0  0.23342111134E+01 -0.59347717651E+01 -0.11912267147E+01  0.64884699697E+01  0.10566000000E+00 0.  1.
        -14    1    4    4    0    0  0.99578630784E+00 -0.51149683529E+01 -0.79987751153E+00  0.52720295575E+01  0.00000000000E+00 0.  1.
<mgrwt>
<rscale>  0 0.79882421E+02</rscale>
<asrwt>0</asrwt>
<pdfrwt beam="1">  1        2 0.21730369E-02 0.79882421E+02</pdfrwt>
<pdfrwt beam="2">  1       -1 0.17375953E-01 0.79882421E+02</pdfrwt>
<totfact> 0.11584202E+05</totfact>
</mgrwt>
</event>
<event>
 8    1  0.2433467E-020  0.7985083E+02  0.7818608E-02  0.1329475E+00
         -1   -1    0    0    0  501 -0.00000000000E+00  0.00000000000E+00  0.66410840267E+02  0.66410840458E+02  0.50400000000E-02 0.  1.
          2   -1    0    0  501    0  0.00000000000E+00 -0.00000000000E+00 -0.24002691812E+02  0.24002691947E+02  0.25500000000E-02 0. -1.
         24    2    1    2    0    0  0.00000000000E+00  0.00000000000E+00  0.42408148455E+02  0.90413532405E+02  0.79850834602E+02 0.  0.
         66    2    3    3    0    0  0.33151180880E+01  0.17506264870E+02 -0.19206412757E+02  0.26274428615E+02  0.19999976003E+01 0.  0.
        -13    1    3    3    0    0 -0.33151180880E+01 -0.17506264870E+02  0.61614561212E+02  0.64139103790E+02  0.10566000000E+00 0.  1.
         13    1    4    4    0    0  0.14209438776E+01  0.59413876777E+01 -0.69635804287E+01  0.92640048285E+01  0.10566000000E+00 0. -1.
        -13    1    4    4    0    0  0.17485972839E+01  0.66200071359E+01 -0.66858919427E+01  0.95704964367E+01  0.10566000000E+00 0.  1.
        -14    1    4    4    0    0  0.14557692653E+00  0.49448700565E+01 -0.55569403856E+01  0.74399273496E+01  0.00000000000E+00 0.  1.
<mgrwt>
<rscale>  0 0.79850835E+02</rscale>
<asrwt>0</asrwt>
<pdfrwt beam="1">  1        2 0.36927218E-02 0.79850835E+02</pdfrwt>
<pdfrwt beam="2">  1       -1 0.10217052E-01 0.79850835E+02</pdfrwt>
<totfact> 0.12944790E+05</totfact>
</mgrwt>
</event>
<event>
 8    1  0.2433467E-020  0.7973864E+02  0.7818608E-02  0.1329795E+00
          2   -1    0    0  501    0  0.00000000000E+00  0.00000000000E+00  0.12816667856E+04  0.12816667856E+04  0.25500000000E-02 0. -1.
         -1   -1    0    0    0  501 -0.00000000000E+00 -0.00000000000E+00 -0.12402256703E+01  0.12402359110E+01  0.50400000000E-02 0.  1.
         24    2    1    2    0    0  0.35527136788E-14  0.00000000000E+00  0.12804265600E+04  0.12829070215E+04  0.79738638536E+02 0.  0.
         66    2    3    3    0    0  0.22460045979E+02  0.93260611818E+01  0.11484048261E+04  0.11486640386E+04  0.19999951174E+01 0.  0.
        -13    1    3    3    0    0 -0.22460045979E+02 -0.93260611818E+01  0.13202173386E+03  0.13424298290E+03  0.10566000000E+00 0.  1.
         13    1    4    4    0    0  0.67772228643E+01  0.29400684800E+01  0.37059593110E+03  0.37066956992E+03  0.10566000000E+00 0. -1.
        -13    1    4    4    0    0  0.12035630754E+02  0.51530894774E+01  0.57510315932E+03  0.57525217580E+03  0.10566000000E+00 0.  1.
        -14    1    4    4    0    0  0.36471923610E+01  0.12329032243E+01  0.20270573568E+03  0.20274229292E+03  0.00000000000E+00 0.  1.
<mgrwt>
<rscale>  0 0.79738639E+02</rscale>
<asrwt>0</asrwt>
<pdfrwt beam="1">  1        2 0.19717836E+00 0.79738639E+02</pdfrwt>
<pdfrwt beam="2">  1       -1 0.19080585E-03 0.79738639E+02</pdfrwt>
<totfact> 0.35004689E+05</totfact>
</mgrwt>
</event>
<event>
 8    1  0.2433467E-020  0.8618927E+02  0.7818608E-02  0.1312351E+00
         -1   -1    0    0    0  501 -0.00000000000E+00  0.00000000000E+00  0.10020070570E+03  0.10020070583E+03  0.50400000000E-02 0.  1.
          2   -1    0    0  501    0  0.00000000000E+00 -0.00000000000E+00 -0.18534277418E+02  0.18534277593E+02  0.25500000000E-02 0. -1.
         24    2    1    2    0    0  0.35527136788E-14  0.00000000000E+00  0.81666428284E+02  0.11873498342E+03  0.86189272995E+02 0.  0.
         66    2    3    3    0    0 -0.23901136291E+02  0.92074401336E+01 -0.68487101280E+01  0.26588457921E+02  0.19999985934E+01 0.  0.
        -13    1    3    3    0    0  0.23901136291E+02 -0.92074401336E+01  0.88515138412E+02  0.92146525501E+02  0.10566000000E+00 0.  1.
         13    1    4    4    0    0 -0.10670878674E+02  0.42985121597E+01 -0.26838821022E+01  0.11813519612E+02  0.10566000000E+00 0. -1.
        -13    1    4    4    0    0 -0.58667671627E+01  0.21059811433E+01 -0.25310126368E+01  0.67283952411E+01  0.10566000000E+00 0.  1.
        -14    1    4    4    0    0 -0.73634904543E+01  0.28029468306E+01 -0.16338153890E+01  0.80465430671E+01  0.00000000000E+00 0.  1.
<mgrwt>
<rscale>  0 0.86189273E+02</rscale>
<asrwt>0</asrwt>
<pdfrwt beam="1">  1        2 0.28514273E-02 0.86189273E+02</pdfrwt>
<pdfrwt beam="2">  1       -1 0.15415493E-01 0.86189273E+02</pdfrwt>
<totfact> 0.98400372E+04</totfact>
</mgrwt>
</event>
<event>
 8    1  0.2433467E-020  0.7950469E+02  0.7818608E-02  0.1330463E+00
         -1   -1    0    0    0  501 -0.00000000000E+00  0.00000000000E+00  0.48107607938E+01  0.48107634339E+01  0.50400000000E-02 0.  1.
          2   -1    0    0  501    0  0.00000000000E+00 -0.00000000000E+00 -0.32848201642E+03  0.32848201643E+03  0.25500000000E-02 0. -1.
         24    2    1    2    0    0  0.71054273576E-14  0.55511151231E-16 -0.32367125563E+03  0.33329277986E+03  0.79504687854E+02 0.  0.
         66    2    3    3    0    0  0.33524122425E+02 -0.28993266329E+00 -0.25128912338E+03  0.25352351838E+03  0.19999991860E+01 0.  0.
        -13    1    3    3    0    0 -0.33524122425E+02  0.28993266329E+00 -0.72382132246E+02  0.79769261485E+02  0.10566000000E+00 0.  1.
         13    1    4    4    0    0  0.51167385254E+01 -0.50655760135E+00 -0.39533853352E+02  0.39866957981E+02  0.10566000000E+00 0. -1.
        -13    1    4    4    0    0  0.91642137895E+01 -0.47558250280E+00 -0.66120187027E+02  0.66754020775E+02  0.10566000000E+00 0.  1.
        -14    1    4    4    0    0  0.19243170110E+02  0.69220744086E+00 -0.14563508300E+03  0.14690253962E+03  0.00000000000E+00 0.  1.
<mgrwt>
<rscale>  0 0.79504688E+02</rscale>
<asrwt>0</asrwt>
<pdfrwt beam="1">  1        2 0.50535677E-01 0.79504688E+02</pdfrwt>
<pdfrwt beam="2">  1       -1 0.74011751E-03 0.79504688E+02</pdfrwt>
<totfact> 0.26775186E+05</totfact>
</mgrwt>
</event>
<event>
 8    1  0.2433467E-020  0.8053426E+02  0.7818608E-02  0.1327542E+00
         -1   -1    0    0    0  501 -0.00000000000E+00  0.00000000000E+00  0.14115103365E+03  0.14115103374E+03  0.50400000000E-02 0.  1.
          2   -1    0    0  501    0  0.00000000000E+00 -0.00000000000E+00 -0.11487283061E+02  0.11487283344E+02  0.25500000000E-02 0. -1.
         24    2    1    2    0    0  0.00000000000E+00  0.00000000000E+00  0.12966375059E+03  0.15263831709E+03  0.80534263674E+02 0.  0.
         66    2    3    3    0    0 -0.27975737618E+01  0.36208880954E+02  0.32014972219E+02  0.48454803224E+02  0.20000075988E+01 0.  0.
        -13    1    3    3    0    0  0.27975737618E+01 -0.36208880954E+02  0.97648778375E+02  0.10418351386E+03  0.10566000000E+00 0.  1.
         13    1    4    4    0    0 -0.24061051058E+01  0.28130165746E+02  0.24885540187E+02  0.37635048042E+02  0.10566000000E+00 0. -1.
        -13    1    4    4    0    0 -0.34132885845E+00  0.71961945981E+01  0.59404618291E+01  0.93381996585E+01  0.10566000000E+00 0.  1.
        -14    1    4    4    0    0 -0.50139797550E-01  0.88252060970E+00  0.11889702026E+01  0.14815555233E+01  0.00000000000E+00 0.  1.
<mgrwt>
<rscale>  0 0.80534264E+02</rscale>
<asrwt>0</asrwt>
<pdfrwt beam="1">  1        2 0.17672744E-02 0.80534264E+02</pdfrwt>
<pdfrwt beam="2">  1       -1 0.21715543E-01 0.80534264E+02</pdfrwt>
<totfact> 0.10770733E+05</totfact>
</mgrwt>
</event>
<event>
 8    1  0.2433467E-020  0.8051060E+02  0.7818608E-02  0.1327609E+00
          2   -1    0    0  501    0  0.00000000000E+00  0.00000000000E+00  0.62190416739E+02  0.62190416792E+02  0.25500000000E-02 0. -1.
         -1   -1    0    0    0  501 -0.00000000000E+00 -0.00000000000E+00 -0.26056892276E+02  0.26056892763E+02  0.50400000000E-02 0.  1.
         24    2    1    2    0    0  0.00000000000E+00  0.00000000000E+00  0.36133524464E+02  0.88247309555E+02  0.80510595908E+02 0.  0.
         66    2    3    3    0    0  0.27041093247E+02  0.10620267567E+02  0.48581518194E+02  0.56640751388E+02  0.20000001458E+01 0.  0.
        -13    1    3    3    0    0 -0.27041093247E+02 -0.10620267567E+02 -0.12447993731E+02  0.31606558166E+02  0.10566000000E+00 0.  1.
         13    1    4    4    0    0  0.50437061675E+00  0.34848025372E+00  0.10617286557E+01  0.12305527133E+01  0.10566000000E+00 0. -1.
        -13    1    4    4    0    0  0.25007698733E+02  0.93826063647E+01  0.45036189815E+02  0.52361129240E+02  0.10566000000E+00 0.  1.
        -14    1    4    4    0    0  0.15290238965E+01  0.88918094833E+00  0.24835997235E+01  0.30490694354E+01  0.00000000000E+00 0.  1.
<mgrwt>
<rscale>  0 0.80510596E+02</rscale>
<asrwt>0</asrwt>
<pdfrwt beam="1">  1        2 0.95677564E-02 0.80510596E+02</pdfrwt>
<pdfrwt beam="2">  1       -1 0.40087527E-02 0.80510596E+02</pdfrwt>
<totfact> 0.15427309E+05</totfact>
</mgrwt>
</event>
<event>
 8    1  0.2433467E-020  0.7938827E+02  0.7818608E-02  0.1330796E+00
         -1   -1    0    0    0  501 -0.00000000000E+00  0.00000000000E+00  0.22954077427E+03  0.22954077433E+03  0.50400000000E-02 0.  1.
          2   -1    0    0  501    0  0.00000000000E+00 -0.00000000000E+00 -0.68642452835E+01  0.68642457571E+01  0.25500000000E-02 0. -1.
         24    2    1    2    0    0  0.88817841970E-15  0.00000000000E+00  0.22267652899E+03  0.23640502009E+03  0.79388267136E+02 0.  0.
         66    2    3    3    0    0  0.70766258763E+01 -0.36638594285E+02  0.71329034422E+02  0.80525128820E+02  0.19999987289E+01 0.  0.
        -13    1    3    3    0    0 -0.70766258763E+01  0.36638594285E+02  0.15134749457E+03  0.15587989126E+03  0.10566000000E+00 0.  1.
         13    1    4    4    0    0  0.29462571297E+01 -0.13566969102E+02  0.24764476375E+02  0.28390729752E+02  0.10566000000E+00 0. -1.
        -13    1    4    4    0    0  0.18944614669E+01 -0.12163815228E+02  0.24685530893E+02  0.27585031895E+02  0.10566000000E+00 0.  1.
         14    1    4    4    0    0  0.22359072798E+01 -0.10907809956E+02  0.21879027154E+02  0.24549367173E+02  0.00000000000E+00 0. -1.
<mgrwt>
<rscale>  0 0.79388267E+02</rscale>
<asrwt>0</asrwt>
<pdfrwt beam="1">  1        2 0.10560378E-02 0.79388267E+02</pdfrwt>
<pdfrwt beam="2">  1       -1 0.35313964E-01 0.79388267E+02</pdfrwt>
<totfact> 0.97237114E+04</totfact>
</mgrwt>
</event>
<event>
 8    1  0.2433467E-020  0.7916382E+02  0.7818608E-02  0.1331441E+00
         -1   -1    0    0    0  501 -0.00000000000E+00  0.00000000000E+00  0.18789767704E+03  0.18789767710E+03  0.50400000000E-02 0.  1.
          2   -1    0    0  501    0  0.00000000000E+00 -0.00000000000E+00 -0.83381957565E+01  0.83381961464E+01  0.25500000000E-02 0. -1.
         24    2    1    2    0    0  0.00000000000E+00  0.88817841970E-15  0.17955948128E+03  0.19623587325E+03  0.79163821490E+02 0.  0.
         66    2    3    3    0    0 -0.33786987211E+02 -0.40968921394E+01  0.39866053253E+02  0.52456145792E+02  0.19999998539E+01 0.  0.
        -13    1    3    3    0    0  0.33786987211E+02  0.40968921394E+01  0.13969342803E+03  0.14377972746E+03  0.10566000000E+00 0.  1.
         13    1    4    4    0    0 -0.73396977113E+01 -0.14073270026E+01  0.94726086669E+01  0.12066201174E+02  0.10566000000E+00 0.  1.
        -13    1    4    4    0    0 -0.14485458024E+02 -0.15692358394E+01  0.15965393041E+02  0.21614715688E+02  0.10566000000E+00 0. -1.
        -14    1    4    4    0    0 -0.11961831475E+02 -0.11203292974E+01  0.14428051544E+02  0.18775228929E+02  0.00000000000E+00 0.  1.
<mgrwt>
<rscale>  0 0.79163821E+02</rscale>
<asrwt>0</asrwt>
<pdfrwt beam="1">  1        2 0.12827995E-02 0.79163821E+02</pdfrwt>
<pdfrwt beam="2">  1       -1 0.28907333E-01 0.79163821E+02</pdfrwt>
<totfact> 0.10421133E+05</totfact>
</mgrwt>
</event>
<event>
 8    1  0.2433467E-020  0.7962662E+02  0.7818608E-02  0.1330114E+00
         -1   -1    0    0    0  501 -0.00000000000E+00  0.00000000000E+00  0.10411554425E+02  0.10411555645E+02  0.50400000000E-02 0.  1.
          2   -1    0    0  501    0  0.00000000000E+00 -0.00000000000E+00 -0.15224428790E+03  0.15224428792E+03  0.25500000000E-02 0. -1.
         24    2    1    2    0    0  0.35527136788E-14  0.71054273576E-14 -0.14183273348E+03  0.16265584357E+03  0.79626623446E+02 0.  0.
         66    2    3    3    0    0  0.31966791246E+02  0.23338039723E+02 -0.62649547740E+02  0.74131677895E+02  0.19999987038E+01 0.  0.
        -13    1    3    3    0    0 -0.31966791246E+02 -0.23338039723E+02 -0.79183185737E+02  0.88524165674E+02  0.10566000000E+00 0.  1.
         13    1    4    4    0    0  0.18637204114E+02  0.14316324520E+02 -0.37554868548E+02  0.44302165192E+02  0.10566000000E+00 0.  1.
        -13    1    4    4    0    0  0.42109541994E+01  0.31206480246E+01 -0.89192685994E+01  0.10345776711E+02  0.10566000000E+00 0. -1.
        -14    1    4    4    0    0  0.91186329323E+01  0.59010671787E+01 -0.16175410592E+02  0.19483735993E+02  0.00000000000E+00 0.  1.
<mgrwt>
<rscale>  0 0.79626623E+02</rscale>
<asrwt>0</asrwt>
<pdfrwt beam="1">  1        2 0.23422197E-01 0.79626623E+02</pdfrwt>
<pdfrwt beam="2">  1       -1 0.16017778E-02 0.79626623E+02</pdfrwt>
<totfact> 0.20377548E+05</totfact>
</mgrwt>
</event>
<event>
 8    1  0.2433467E-020  0.7784014E+02  0.7818608E-02  0.1335295E+00
         -1   -1    0    0    0  501 -0.00000000000E+00  0.00000000000E+00  0.43288707961E+02  0.43288708254E+02  0.50400000000E-02 0.  1.
          2   -1    0    0  501    0  0.00000000000E+00 -0.00000000000E+00 -0.34992306871E+02  0.34992306964E+02  0.25500000000E-02 0. -1.
         24    2    1    2    0    0 -0.35527136788E-14  0.00000000000E+00  0.82964010896E+01  0.78281015219E+02  0.77840137928E+02 0.  0.
         66    2    3    3    0    0  0.25332955628E+02  0.67540471605E+01 -0.24741409351E+02  0.36104198404E+02  0.20000029721E+01 0.  0.
        -13    1    3    3    0    0 -0.25332955628E+02 -0.67540471605E+01  0.33037810440E+02  0.42176816814E+02  0.10566000000E+00 0.  1.
         13    1    4    4    0    0  0.67988013567E+01  0.17403333408E+01 -0.59659780410E+01  0.92117597692E+01  0.10566000000E+00 0. -1.
        -13    1    4    4    0    0  0.16923881042E+02  0.41769912875E+01 -0.17204192122E+02  0.24492047614E+02  0.10566000000E+00 0.  1.
        -14    1    4    4    0    0  0.16102732293E+01  0.83672253225E+00 -0.15712391879E+01  0.24003910212E+01  0.00000000000E+00 0.  1.
<mgrwt>
<rscale>  0 0.77840138E+02</rscale>
<asrwt>0</asrwt>
<pdfrwt beam="1">  1        2 0.53834319E-02 0.77840138E+02</pdfrwt>
<pdfrwt beam="2">  1       -1 0.66598013E-02 0.77840138E+02</pdfrwt>
<totfact> 0.14968309E+05</totfact>
</mgrwt>
</event>
<event>
 8    1  0.2433467E-020  0.8368468E+02  0.7818608E-02  0.1318909E+00
          2   -1    0    0  501    0  0.00000000000E+00  0.00000000000E+00  0.25528736438E+03  0.25528736440E+03  0.25500000000E-02 0. -1.
         -1   -1    0    0    0  501 -0.00000000000E+00 -0.00000000000E+00 -0.68580805679E+01  0.68580824199E+01  0.50400000000E-02 0.  1.
         24    2    1    2    0    0  0.35527136788E-14 -0.71054273576E-14  0.24842928382E+03  0.26214544682E+03  0.83684683362E+02 0.  0.
         66    2    3    3    0    0 -0.20414628694E+02  0.34316706697E+02  0.16320749021E+03  0.16803296787E+03  0.20000021902E+01 0.  0.
        -13    1    3    3    0    0  0.20414628694E+02 -0.34316706697E+02  0.85221793606E+02  0.94112478942E+02  0.10566000000E+00 0.  1.
         13    1    4    4    0    0 -0.15528328776E+02  0.24872336541E+02  0.12172761426E+03  0.12520936609E+03  0.10566000000E+00 0. -1.
        -13    1    4    4    0    0 -0.12648170167E+01  0.28133624891E+01  0.12352645872E+02  0.12732391552E+02  0.10566000000E+00 0.  1.
         14    1    4    4    0    0 -0.36214829011E+01  0.66310076671E+01  0.29127230081E+02  0.30091210233E+02  0.00000000000E+00 0. -1.
<mgrwt>
<rscale>  0 0.83684683E+02</rscale>
<asrwt>0</asrwt>
<pdfrwt beam="1">  1        2 0.39274972E-01 0.83684683E+02</pdfrwt>
<pdfrwt beam="2">  1       -1 0.10550896E-02 0.83684683E+02</pdfrwt>
<totfact> 0.21358398E+05</totfact>
</mgrwt>
</event>
<event>
 8    1  0.2433467E-020  0.7984587E+02  0.7818608E-02  0.1329489E+00
         -1   -1    0    0    0  501 -0.00000000000E+00  0.00000000000E+00  0.15742853361E+01  0.15742934037E+01  0.50400000000E-02 0.  1.
          2   -1    0    0  501    0  0.00000000000E+00 -0.00000000000E+00 -0.10124192700E+04  0.10124192700E+04  0.25500000000E-02 0. -1.
         24    2    1    2    0    0  0.00000000000E+00  0.00000000000E+00 -0.10108449847E+04  0.10139935634E+04  0.79845874098E+02 0.  0.
         66    2    3    3    0    0  0.14764298466E+02  0.54363746056E+01 -0.97135737664E+03  0.97148684594E+03  0.20000023442E+01 0.  0.
        -13    1    3    3    0    0 -0.14764298466E+02 -0.54363746056E+01 -0.39487608018E+02  0.42506717458E+02  0.10566000000E+00 0.  1.
         13    1    4    4    0    0  0.59885891727E+00  0.10420098880E+00 -0.24358807646E+02  0.24366619869E+02  0.10566000000E+00 0.  1.
        -13    1    4    4    0    0  0.42402536952E+00  0.13543586446E-01 -0.32931123821E+02  0.32934025886E+02  0.10566000000E+00 0. -1.
         14    1    4    4    0    0  0.13741414179E+02  0.53186300303E+01 -0.91406744517E+03  0.91418620018E+03  0.00000000000E+00 0. -1.
<mgrwt>
<rscale>  0 0.79845874E+02</rscale>
<asrwt>0</asrwt>
<pdfrwt beam="1">  1        2 0.15575629E+00 0.79845874E+02</pdfrwt>
<pdfrwt beam="2">  1       -1 0.24219918E-03 0.79845874E+02</pdfrwt>
<totfact> 0.35424364E+05</totfact>
</mgrwt>
</event>
<event>
 8    1  0.2433467E-020  0.8400780E+02  0.7818608E-02  0.1318048E+00
         -1   -1    0    0    0  501 -0.00000000000E+00  0.00000000000E+00  0.15187606725E+02  0.15187607561E+02  0.50400000000E-02 0.  1.
          2   -1    0    0  501    0  0.00000000000E+00 -0.00000000000E+00 -0.11616889902E+03  0.11616889905E+03  0.25500000000E-02 0. -1.
         24    2    1    2    0    0  0.17763568394E-14  0.00000000000E+00 -0.10098129230E+03  0.13135650661E+03  0.84007799846E+02 0.  0.
         66    2    3    3    0    0 -0.12543947628E+02  0.34003743412E+02 -0.17397039865E+02  0.40252480317E+02  0.19999968674E+01 0.  0.
        -13    1    3    3    0    0  0.12543947628E+02 -0.34003743412E+02 -0.83584252434E+02  0.91104026294E+02  0.10566000000E+00 0.  1.
         13    1    4    4    0    0 -0.76102579077E+01  0.20427048225E+02 -0.10170046568E+02  0.24054549171E+02  0.10566000000E+00 0. -1.
        -13    1    4    4    0    0 -0.20571616796E+01  0.74229967728E+01 -0.38468329602E+01  0.86105797206E+01  0.10566000000E+00 0.  1.
        -14    1    4    4    0    0 -0.28765280411E+01  0.61536984147E+01 -0.33801603366E+01  0.75873514253E+01  0.00000000000E+00 0.  1.
<mgrwt>
<rscale>  0 0.84007800E+02</rscale>
<asrwt>0</asrwt>
<pdfrwt beam="1">  1        2 0.17872138E-01 0.84007800E+02</pdfrwt>
<pdfrwt beam="2">  1       -1 0.23365550E-02 0.84007800E+02</pdfrwt>
<totfact> 0.16237498E+05</totfact>
</mgrwt>
</event>
<event>
 8    1  0.2433467E-020  0.7889942E+02  0.7818608E-02  0.1332204E+00
         -1   -1    0    0    0  501 -0.00000000000E+00  0.00000000000E+00  0.85973769192E+00  0.85975246467E+00  0.50400000000E-02 0.  1.
          2   -1    0    0  501    0  0.00000000000E+00 -0.00000000000E+00 -0.18101641120E+04  0.18101641120E+04  0.25500000000E-02 0. -1.
         24    2    1    2    0    0  0.17763568394E-14  0.00000000000E+00 -0.18093043743E+04  0.18110238644E+04  0.78899421903E+02 0.  0.
         66    2    3    3    0    0  0.99018200690E+01  0.11905550461E+02 -0.17374332337E+04  0.17375033898E+04  0.19999949987E+01 0.  0.
        -13    1    3    3    0    0 -0.99018200690E+01 -0.11905550461E+02 -0.71871140612E+02  0.73520474627E+02  0.10566000000E+00 0.  1.
         13    1    4    4    0    0  0.38297916809E+01  0.49303085973E+01 -0.77284551550E+03  0.77287073773E+03  0.10566000000E+00 0. -1.
        -13    1    4    4    0    0  0.38255569681E+01  0.42701867779E+01 -0.64962666320E+03  0.64965196997E+03  0.10566000000E+00 0.  1.
        -14    1    4    4    0    0  0.22464714201E+01  0.27050550856E+01 -0.31496105497E+03  0.31498068211E+03  0.00000000000E+00 0.  1.
<mgrwt>
<rscale>  0 0.78899422E+02</rscale>
<asrwt>0</asrwt>
<pdfrwt beam="1">  1        2 0.27848374E+00 0.78899422E+02</pdfrwt>
<pdfrwt beam="2">  1       -1 0.13226992E-03 0.78899422E+02</pdfrwt>
<totfact> 0.31205614E+05</totfact>
</mgrwt>
</event>
<event>
 8    1  0.2433467E-020  0.8087272E+02  0.7818608E-02  0.1326593E+00
         -1   -1    0    0    0  501 -0.00000000000E+00  0.00000000000E+00  0.20134140264E+03  0.20134140271E+03  0.50400000000E-02 0.  1.
          2   -1    0    0  501    0  0.00000000000E+00 -0.00000000000E+00 -0.81210278492E+01  0.81210282495E+01  0.25500000000E-02 0. -1.
         24    2    1    2    0    0  0.00000000000E+00  0.00000000000E+00  0.19322037480E+03  0.20946243096E+03  0.80872719420E+02 0.  0.
         66    2    3    3    0    0  0.32593292528E+02  0.18901383822E+02  0.58823776213E+02  0.69884345633E+02  0.20000221058E+01 0.  0.
        -13    1    3    3    0    0 -0.32593292528E+02 -0.18901383822E+02  0.13439659858E+03  0.13957808532E+03  0.10566000000E+00 0.  1.
         13    1    4    4    0    0  0.19233640076E+02  0.11173196241E+02  0.33053633823E+02  0.39841273797E+02  0.10566000000E+00 0. -1.
        -13    1    4    4    0    0  0.21598278550E+01  0.11126888988E+01  0.38341197270E+01  0.45403271981E+01  0.10566000000E+00 0.  1.
         14    1    4    4    0    0  0.11199824597E+02  0.66154986826E+01  0.21936022662E+02  0.25502744638E+02  0.00000000000E+00 0. -1.
<mgrwt>
<rscale>  0 0.80872719E+02</rscale>
<asrwt>0</asrwt>
<pdfrwt beam="1">  1        2 0.12493891E-02 0.80872719E+02</pdfrwt>
<pdfrwt beam="2">  1       -1 0.30975597E-01 0.80872719E+02</pdfrwt>
<totfact> 0.96693617E+04</totfact>
</mgrwt>
</event>
<event>
 8    1  0.2433467E-020  0.8247877E+02  0.7818608E-02  0.1322161E+00
         -1   -1    0    0    0  501 -0.00000000000E+00  0.00000000000E+00  0.11818372753E+03  0.11818372764E+03  0.50400000000E-02 0.  1.
          2   -1    0    0  501    0  0.00000000000E+00 -0.00000000000E+00 -0.14390193031E+02  0.14390193257E+02  0.25500000000E-02 0. -1.
         24    2    1    2    0    0  0.00000000000E+00  0.35527136788E-14  0.10379353450E+03  0.13257392090E+03  0.82478765132E+02 0.  0.
         66    2    3    3    0    0  0.22688774594E+02 -0.24979497722E+02  0.13892390836E+02  0.36547973386E+02  0.20000091087E+01 0.  0.
        -13    1    3    3    0    0 -0.22688774594E+02  0.24979497722E+02  0.89901143666E+02  0.96025947511E+02  0.10566000000E+00 0.  1.
         13    1    4    4    0    0  0.16530880540E+02 -0.18463754548E+02  0.94186042820E+01  0.26512289869E+02  0.10566000000E+00 0. -1.
        -13    1    4    4    0    0  0.27466576101E+01 -0.25465587327E+01  0.17464611793E+01  0.41340512929E+01  0.10566000000E+00 0.  1.
         14    1    4    4    0    0  0.34112364446E+01 -0.39691844412E+01  0.27273253751E+01  0.59016322243E+01  0.00000000000E+00 0. -1.
<mgrwt>
<rscale>  0 0.82478765E+02</rscale>
<asrwt>0</asrwt>
<pdfrwt beam="1">  1        2 0.22138759E-02 0.82478765E+02</pdfrwt>
<pdfrwt beam="2">  1       -1 0.18182112E-01 0.82478765E+02</pdfrwt>
<totfact> 0.10582227E+05</totfact>
</mgrwt>
</event>
<event>
 8    1  0.2433467E-020  0.8055229E+02  0.7818608E-02  0.1327491E+00
          2   -1    0    0  501    0  0.00000000000E+00  0.00000000000E+00  0.84740432014E+02  0.84740432053E+02  0.25500000000E-02 0. -1.
         -1   -1    0    0    0  501 -0.00000000000E+00 -0.00000000000E+00 -0.19142782994E+02  0.19142783657E+02  0.50400000000E-02 0.  1.
         24    2    1    2    0    0  0.00000000000E+00  0.00000000000E+00  0.65597649021E+02  0.10388321571E+03  0.80552287051E+02 0.  0.
         66    2    3    3    0    0 -0.19973763639E+02  0.19844010980E+02  0.69915432053E+02  0.75398300052E+02  0.20000014921E+01 0.  0.
        -13    1    3    3    0    0  0.19973763639E+02 -0.19844010980E+02 -0.43177830324E+01  0.28484915657E+02  0.10566000000E+00 0.  1.
         13    1    4    4    0    0 -0.88160787980E+01  0.86532066550E+01  0.31082264269E+02  0.33447265164E+02  0.10566000000E+00 0. -1.
        -13    1    4    4    0    0 -0.28432104547E+01  0.37915175266E+01  0.11666406528E+02  0.12592682644E+02  0.10566000000E+00 0.  1.
         14    1    4    4    0    0 -0.83144743858E+01  0.73992867982E+01  0.27166761255E+02  0.29358352245E+02  0.00000000000E+00 0. -1.
<mgrwt>
<rscale>  0 0.80552287E+02</rscale>
<asrwt>0</asrwt>
<pdfrwt beam="1">  1        2 0.13036990E-01 0.80552287E+02</pdfrwt>
<pdfrwt beam="2">  1       -1 0.29450436E-02 0.80552287E+02</pdfrwt>
<totfact> 0.16636180E+05</totfact>
</mgrwt>
</event>
<event>
 8    1  0.2433467E-020  0.8043610E+02  0.7818608E-02  0.1327818E+00
         -1   -1    0    0    0  501 -0.00000000000E+00  0.00000000000E+00  0.25668026522E+01  0.25668076003E+01  0.50400000000E-02 0.  1.
          2   -1    0    0  501    0  0.00000000000E+00 -0.00000000000E+00 -0.63015744051E+03  0.63015744052E+03  0.25500000000E-02 0. -1.
         24    2    1    2    0    0  0.00000000000E+00  0.00000000000E+00 -0.62759063786E+03  0.63272424812E+03  0.80436095296E+02 0.  0.
         66    2    3    3    0    0  0.25034712362E+02 -0.37512556207E+01 -0.55956934811E+03  0.56014521695E+03  0.19999966888E+01 0.  0.
        -13    1    3    3    0    0 -0.25034712362E+02  0.37512556207E+01 -0.68021289746E+02  0.72579031163E+02  0.10566000000E+00 0.  1.
         13    1    4    4    0    0  0.44014536826E+01 -0.16988647909E+00 -0.91729198098E+02  0.91834953061E+02  0.10566000000E+00 0. -1.
        -13    1    4    4    0    0  0.88214780727E+00  0.73562054613E-01 -0.19198513039E+02  0.19219200375E+02  0.10566000000E+00 0.  1.
        -14    1    4    4    0    0  0.19751110873E+02 -0.36549311962E+01 -0.44864163697E+03  0.44909106352E+03  0.00000000000E+00 0.  1.
<mgrwt>
<rscale>  0 0.80436095E+02</rscale>
<asrwt>0</asrwt>
<pdfrwt beam="1">  1        2 0.96947175E-01 0.80436095E+02</pdfrwt>
<pdfrwt beam="2">  1       -1 0.39489360E-03 0.80436095E+02</pdfrwt>
<totfact> 0.32136483E+05</totfact>
</mgrwt>
</event>
<event>
 8    1  0.2433467E-020  0.7942756E+02  0.7818608E-02  0.1330684E+00
         -1   -1    0    0    0  501 -0.00000000000E+00  0.00000000000E+00  0.74226334609E+02  0.74226334780E+02  0.50400000000E-02 0.  1.
          2   -1    0    0  501    0  0.00000000000E+00 -0.00000000000E+00 -0.21248313773E+02  0.21248313926E+02  0.25500000000E-02 0. -1.
         24    2    1    2    0    0  0.00000000000E+00  0.00000000000E+00  0.52978020836E+02  0.95474648707E+02  0.79427563566E+02 0.  0.
         66    2    3    3    0    0  0.35680802747E+01 -0.33123213366E+02  0.57687363571E+00  0.33379803088E+02  0.20000026095E+01 0.  0.
        -13    1    3    3    0    0 -0.35680802747E+01  0.33123213366E+02  0.52401147200E+02  0.62094845619E+02  0.10566000000E+00 0.  1.
         13    1    4    4    0    0  0.73040397995E+00 -0.59471339028E+01  0.44708996997E+00  0.60094047217E+01  0.10566000000E+00 0. -1.
        -13    1    4    4    0    0  0.15599798549E+01 -0.17342079551E+02 -0.63763704682E+00  0.17424092669E+02  0.10566000000E+00 0.  1.
        -14    1    4    4    0    0  0.12776964399E+01 -0.98339999119E+01  0.76742071255E+00  0.99463056966E+01  0.00000000000E+00 0.  1.
<mgrwt>
<rscale>  0 0.79427564E+02</rscale>
<asrwt>0</asrwt>
<pdfrwt beam="1">  1        2 0.32689713E-02 0.79427564E+02</pdfrwt>
<pdfrwt beam="2">  1       -1 0.11419436E-01 0.79427564E+02</pdfrwt>
<totfact> 0.12828619E+05</totfact>
</mgrwt>
</event>
<event>
 8    1  0.2433467E-020  0.8205581E+02  0.7818608E-02  0.1323317E+00
         -1   -1    0    0    0  501 -0.00000000000E+00  0.00000000000E+00  0.31590608006E+01  0.31590648210E+01  0.50400000000E-02 0.  1.
          2   -1    0    0  501    0  0.00000000000E+00 -0.00000000000E+00 -0.53284440142E+03  0.53284440143E+03  0.25500000000E-02 0. -1.
         24    2    1    2    0    0  0.00000000000E+00  0.00000000000E+00 -0.52968534062E+03  0.53600346625E+03  0.82055808825E+02 0.  0.
         66    2    3    3    0    0 -0.10429518447E+02 -0.29014795379E+02 -0.44156804948E+03  0.44264768781E+03  0.19999990128E+01 0.  0.
        -13    1    3    3    0    0  0.10429518447E+02  0.29014795379E+02 -0.88117291148E+02  0.93355778445E+02  0.10566000000E+00 0.  1.
         13    1    4    4    0    0 -0.43824099041E+01 -0.12727757077E+02 -0.18676368635E+03  0.18724819631E+03  0.10566000000E+00 0. -1.
        -13    1    4    4    0    0 -0.29970159482E+01 -0.77491589165E+01 -0.11225866079E+03  0.11256575702E+03  0.10566000000E+00 0.  1.
        -14    1    4    4    0    0 -0.30500925947E+01 -0.85378793857E+01 -0.14254570233E+03  0.14283373447E+03  0.00000000000E+00 0.  1.
<mgrwt>
<rscale>  0 0.82055809E+02</rscale>
<asrwt>0</asrwt>
<pdfrwt beam="1">  1        2 0.81975990E-01 0.82055809E+02</pdfrwt>
<pdfrwt beam="2">  1       -1 0.48601009E-03 0.82055809E+02</pdfrwt>
<totfact> 0.29073981E+05</totfact>
</mgrwt>
</event>
<event>
 8    1  0.2433467E-020  0.8026130E+02  0.7818608E-02  0.1328312E+00
         -1   -1    0    0    0  501 -0.00000000000E+00  0.00000000000E+00  0.78538717630E+02  0.78538717792E+02  0.50400000000E-02 0.  1.
          2   -1    0    0  501    0  0.00000000000E+00 -0.00000000000E+00 -0.20505417619E+02  0.20505417778E+02  0.25500000000E-02 0. -1.
         24    2    1    2    0    0  0.00000000000E+00  0.00000000000E+00  0.58033300010E+02  0.99044135570E+02  0.80261303756E+02 0.  0.
         66    2    3    3    0    0 -0.35266192772E+02 -0.17162082372E+02  0.18693632552E+02  0.43493599805E+02  0.19999754960E+01 0.  0.
        -13    1    3    3    0    0  0.35266192772E+02  0.17162082372E+02  0.39339667458E+02  0.55550535765E+02  0.10566000000E+00 0.  1.
         13    1    4    4    0    0 -0.18127287709E+00 -0.12725025756E+00  0.88664141684E-02  0.24555067281E+00  0.10566000000E+00 0.  1.
        -13    1    4    4    0    0 -0.79117138499E+01 -0.37590327625E+01  0.43052034656E+01  0.97607112583E+01  0.10566000000E+00 0. -1.
         14    1    4    4    0    0 -0.27173206045E+02 -0.13275799352E+02  0.14379562672E+02  0.33487337874E+02  0.00000000000E+00 0. -1.
<mgrwt>
<rscale>  0 0.80261304E+02</rscale>
<asrwt>0</asrwt>
<pdfrwt beam="1">  1        2 0.31546797E-02 0.80261304E+02</pdfrwt>
<pdfrwt beam="2">  1       -1 0.12082880E-01 0.80261304E+02</pdfrwt>
<totfact> 0.12362267E+05</totfact>
</mgrwt>
</event>
<event>
 8    1  0.2433467E-020  0.7776904E+02  0.7818608E-02  0.1335504E+00
          2   -1    0    0  501    0  0.00000000000E+00  0.00000000000E+00  0.48655683207E+02  0.48655683274E+02  0.25500000000E-02 0. -1.
         -1   -1    0    0    0  501 -0.00000000000E+00 -0.00000000000E+00 -0.31075629252E+02  0.31075629660E+02  0.50400000000E-02 0.  1.
         24    2    1    2    0    0 -0.35527136788E-14  0.00000000000E+00  0.17580053956E+02  0.79731312934E+02  0.77769042460E+02 0.  0.
         66    2    3    3    0    0  0.31781674845E+02  0.13169019640E+02  0.27321149498E+02  0.43976620366E+02  0.19999986798E+01 0.  0.
        -13    1    3    3    0    0 -0.31781674845E+02 -0.13169019640E+02 -0.97410955428E+01  0.35754692568E+02  0.10566000000E+00 0.  1.
         13    1    4    4    0    0  0.11965055336E+02  0.45451996932E+01  0.10540893331E+02  0.16581404816E+02  0.10566000000E+00 0. -1.
        -13    1    4    4    0    0  0.11177274132E+02  0.55197640101E+01  0.10034390149E+02  0.16003105994E+02  0.10566000000E+00 0.  1.
        -14    1    4    4    0    0  0.86393453766E+01  0.31040559362E+01  0.67458660193E+01  0.11392109556E+02  0.00000000000E+00 0.  1.
<mgrwt>
<rscale>  0 0.77769042E+02</rscale>
<asrwt>0</asrwt>
<pdfrwt beam="1">  1        2 0.74854897E-02 0.77769042E+02</pdfrwt>
<pdfrwt beam="2">  1       -1 0.47808661E-02 0.77769042E+02</pdfrwt>
<totfact> 0.16050397E+05</totfact>
</mgrwt>
</event>
<event>
 8    1  0.2433467E-020  0.7400883E+02  0.7818608E-02  0.1346968E+00
          2   -1    0    0  501    0  0.00000000000E+00  0.00000000000E+00  0.10687025447E+03  0.10687025450E+03  0.25500000000E-02 0. -1.
         -1   -1    0    0    0  501 -0.00000000000E+00 -0.00000000000E+00 -0.12812982916E+02  0.12812983908E+02  0.50400000000E-02 0.  1.
         24    2    1    2    0    0  0.00000000000E+00  0.00000000000E+00  0.94057271549E+02  0.11968323840E+03  0.74008832064E+02 0.  0.
         66    2    3    3    0    0 -0.67309951124E+01  0.34443855513E+02  0.65896687334E+02  0.74686403568E+02  0.19999996363E+01 0.  0.
        -13    1    3    3    0    0  0.67309951124E+01 -0.34443855513E+02  0.28160584216E+02  0.44996834836E+02  0.10566000000E+00 0.  1.
         13    1    4    4    0    0 -0.26486076779E+01  0.14047889743E+02  0.28815369582E+02  0.32166675567E+02  0.10566000000E+00 0. -1.
        -13    1    4    4    0    0 -0.39767458981E+01  0.19377962236E+02  0.35334804388E+02  0.40495425587E+02  0.10566000000E+00 0.  1.
        -14    1    4    4    0    0 -0.10564153644E+00  0.10180035346E+01  0.17465133641E+01  0.20243024136E+01  0.00000000000E+00 0.  1.
<mgrwt>
<rscale>  0 0.74008832E+02</rscale>
<asrwt>0</asrwt>
<pdfrwt beam="1">  1        2 0.16441577E-01 0.74008832E+02</pdfrwt>
<pdfrwt beam="2">  1       -1 0.19712282E-02 0.74008832E+02</pdfrwt>
<totfact> 0.22219911E+05</totfact>
</mgrwt>
</event>
<event>
 8    1  0.2433467E-020  0.8088950E+02  0.7818608E-02  0.1326546E+00
          2   -1    0    0  501    0  0.00000000000E+00  0.00000000000E+00  0.21387702259E+02  0.21387702411E+02  0.25500000000E-02 0. -1.
         -1   -1    0    0    0  501 -0.00000000000E+00 -0.00000000000E+00 -0.76482169740E+02  0.76482169906E+02  0.50400000000E-02 0.  1.
         24    2    1    2    0    0  0.00000000000E+00 -0.17763568394E-14 -0.55094467481E+02  0.97869872317E+02  0.80889502164E+02 0.  0.
         66    2    3    3    0    0  0.37611954886E+02 -0.14245226056E+02 -0.22696098128E+02  0.46224435767E+02  0.19999939944E+01 0.  0.
        -13    1    3    3    0    0 -0.37611954886E+02  0.14245226056E+02 -0.32398369353E+02  0.51645436550E+02  0.10566000000E+00 0.  1.
         13    1    4    4    0    0  0.25908378019E+02 -0.10466041071E+02 -0.15653638971E+02  0.32028575435E+02  0.10566000000E+00 0. -1.
        -13    1    4    4    0    0  0.11496046521E+02 -0.36618849509E+01 -0.70128715001E+01  0.13955644654E+02  0.10566000000E+00 0.  1.
        -14    1    4    4    0    0  0.20753034585E+00 -0.11730003376E+00 -0.29587656459E-01  0.24021567764E+00  0.00000000000E+00 0.  1.
<mgrwt>
<rscale>  0 0.80889502E+02</rscale>
<asrwt>0</asrwt>
<pdfrwt beam="1">  1        2 0.32904158E-02 0.80889502E+02</pdfrwt>
<pdfrwt beam="2">  1       -1 0.11766488E-01 0.80889502E+02</pdfrwt>
<totfact> 0.12192362E+05</totfact>
</mgrwt>
</event>
<event>
 8    1  0.2433467E-020  0.8035844E+02  0.7818608E-02  0.1328037E+00
         -1   -1    0    0    0  501 -0.00000000000E+00  0.00000000000E+00  0.59046675553E+01  0.59046697063E+01  0.50400000000E-02 0.  1.
          2   -1    0    0  501    0  0.00000000000E+00 -0.00000000000E+00 -0.27340564747E+03  0.27340564748E+03  0.25500000000E-02 0. -1.
         24    2    1    2    0    0  0.88817841970E-15  0.00000000000E+00 -0.26750097991E+03  0.27931031719E+03  0.80358440953E+02 0.  0.
         66    2    3    3    0    0  0.44681737591E+01 -0.29060526896E+02 -0.22888771638E+03  0.23077709058E+03  0.20000064972E+01 0.  0.
        -13    1    3    3    0    0 -0.44681737591E+01  0.29060526896E+02 -0.38613263529E+02  0.48533226604E+02  0.10566000000E+00 0.  1.
         13    1    4    4    0    0  0.24930686598E+01 -0.11768871987E+02 -0.95535270742E+02  0.96289775464E+02  0.10566000000E+00 0. -1.
        -13    1    4    4    0    0  0.15768075298E+00 -0.52766310365E+01 -0.39294072479E+02  0.39647231862E+02  0.10566000000E+00 0.  1.
        -14    1    4    4    0    0  0.18174243463E+01 -0.12015023872E+02 -0.94058373163E+02  0.94840083255E+02  0.00000000000E+00 0.  1.
<mgrwt>
<rscale>  0 0.80358441E+02</rscale>
<asrwt>0</asrwt>
<pdfrwt beam="1">  1        2 0.42062398E-01 0.80358441E+02</pdfrwt>
<pdfrwt beam="2">  1       -1 0.90841077E-03 0.80358441E+02</pdfrwt>
<totfact> 0.24363776E+05</totfact>
</mgrwt>
</event>
<event>
 8    1  0.2433467E-020  0.8863937E+02  0.7818608E-02  0.1306181E+00
          2   -1    0    0  501    0  0.00000000000E+00  0.00000000000E+00  0.33333076592E+03  0.33333076593E+03  0.25500000000E-02 0. -1.
         -1   -1    0    0    0  501 -0.00000000000E+00 -0.00000000000E+00 -0.58927477193E+01  0.58927498746E+01  0.50400000000E-02 0.  1.
         24    2    1    2    0    0  0.00000000000E+00  0.00000000000E+00  0.32743801820E+03  0.33922351580E+03  0.88639369985E+02 0.  0.
         66    2    3    3    0    0  0.41776892365E+02  0.14011539170E+02  0.18117077007E+03  0.18646307915E+03  0.19999986373E+01 0.  0.
        -13    1    3    3    0    0 -0.41776892365E+02 -0.14011539170E+02  0.14626724813E+03  0.15276043665E+03  0.10566000000E+00 0.  1.
         13    1    4    4    0    0  0.11393580080E+02  0.42861456323E+01  0.50203161725E+02  0.51658042187E+02  0.10566000000E+00 0. -1.
        -13    1    4    4    0    0  0.14993834498E+02  0.51524524848E+01  0.67809974098E+02  0.69638829619E+02  0.10566000000E+00 0.  1.
        -14    1    4    4    0    0  0.15389477787E+02  0.45729410530E+01  0.63157634246E+02  0.65166207347E+02  0.00000000000E+00 0.  1.
<mgrwt>
<rscale>  0 0.88639370E+02</rscale>
<asrwt>0</asrwt>
<pdfrwt beam="1">  1        2 0.51281683E-01 0.88639370E+02</pdfrwt>
<pdfrwt beam="2">  1       -1 0.90657627E-03 0.88639370E+02</pdfrwt>
<totfact> 0.20219421E+05</totfact>
</mgrwt>
</event>
<event>
 8    1  0.2433467E-020  0.8606717E+02  0.7818608E-02  0.1312665E+00
          2   -1    0    0  501    0  0.00000000000E+00  0.00000000000E+00  0.23183306185E+03  0.23183306186E+03  0.25500000000E-02 0. -1.
         -1   -1    0    0    0  501 -0.00000000000E+00 -0.00000000000E+00 -0.79880299505E+01  0.79880315404E+01  0.50400000000E-02 0.  1.
         24    2    1    2    0    0  0.71054273576E-14  0.17763568394E-14  0.22384503190E+03  0.23982109341E+03  0.86067174553E+02 0.  0.
         66    2    3    3    0    0  0.35554048262E+02 -0.11854385664E+02  0.17078050183E+03  0.17485593103E+03  0.20000005800E+01 0.  0.
        -13    1    3    3    0    0 -0.35554048262E+02  0.11854385664E+02  0.53064530066E+02  0.64965162375E+02  0.10566000000E+00 0.  1.
         13    1    4    4    0    0  0.24208781732E+02 -0.76790210120E+01  0.11747323433E+03  0.12018737215E+03  0.10566000000E+00 0. -1.
        -13    1    4    4    0    0  0.10741102647E+01 -0.57805429698E+00  0.45853970812E+01  0.47460394076E+01  0.10566000000E+00 0.  1.
        -14    1    4    4    0    0  0.10271156265E+02 -0.35973103554E+01  0.48721870425E+02  0.49922519473E+02  0.00000000000E+00 0.  1.
<mgrwt>
<rscale>  0 0.86067175E+02</rscale>
<asrwt>0</asrwt>
<pdfrwt beam="1">  1        2 0.35666626E-01 0.86067175E+02</pdfrwt>
<pdfrwt beam="2">  1       -1 0.12289278E-02 0.86067175E+02</pdfrwt>
<totfact> 0.19153827E+05</totfact>
</mgrwt>
</event>
<event>
 8    1  0.2433467E-020  0.7739582E+02  0.7818608E-02  0.1336608E+00
          2   -1    0    0  501    0  0.00000000000E+00  0.00000000000E+00  0.39398148837E+03  0.39398148838E+03  0.25500000000E-02 0. -1.
         -1   -1    0    0    0  501 -0.00000000000E+00 -0.00000000000E+00 -0.38010101870E+01  0.38010135284E+01  0.50400000000E-02 0.  1.
         24    2    1    2    0    0  0.00000000000E+00  0.00000000000E+00  0.39018047818E+03  0.39778250191E+03  0.77395822032E+02 0.  0.
         66    2    3    3    0    0 -0.77978592398E+00 -0.38255644712E+02  0.16641049761E+03  0.17076462202E+03  0.20000001206E+01 0.  0.
        -13    1    3    3    0    0  0.77978592398E+00  0.38255644712E+02  0.22376998057E+03  0.22701787989E+03  0.10566000000E+00 0.  1.
         13    1    4    4    0    0 -0.41532947193E+00 -0.13077543140E+02  0.53893039062E+02  0.55458682427E+02  0.10566000000E+00 0. -1.
        -13    1    4    4    0    0  0.28544277355E+00 -0.16145339027E+02  0.71752100256E+02  0.73546777666E+02  0.10566000000E+00 0.  1.
         14    1    4    4    0    0 -0.64989922559E+00 -0.90327625448E+01  0.40765358291E+02  0.41759161926E+02  0.00000000000E+00 0. -1.
<mgrwt>
<rscale>  0 0.77395822E+02</rscale>
<asrwt>0</asrwt>
<pdfrwt beam="1">  1        2 0.60612477E-01 0.77395822E+02</pdfrwt>
<pdfrwt beam="2">  1       -1 0.58477164E-03 0.77395822E+02</pdfrwt>
<totfact> 0.30637747E+05</totfact>
</mgrwt>
</event>
<event>
 8    1  0.2433467E-020  0.8086043E+02  0.7818608E-02  0.1326627E+00
          2   -1    0    0  501    0  0.00000000000E+00  0.00000000000E+00  0.93761214390E+02  0.93761214425E+02  0.25500000000E-02 0. -1.
         -1   -1    0    0    0  501 -0.00000000000E+00 -0.00000000000E+00 -0.17433673680E+02  0.17433674409E+02  0.50400000000E-02 0.  1.
         24    2    1    2    0    0  0.00000000000E+00  0.00000000000E+00  0.76327540710E+02  0.11119488883E+03  0.80860434280E+02 0.  0.
         66    2    3    3    0    0 -0.16942580092E+02  0.36419526993E+02  0.44207069498E+02  0.59763684283E+02  0.19999997439E+01 0.  0.
        -13    1    3    3    0    0  0.16942580092E+02 -0.36419526993E+02  0.32120471212E+02  0.51431204550E+02  0.10566000000E+00 0.  1.
         13    1    4    4    0    0 -0.29500214227E+01  0.75409796950E+01  0.93241917486E+01  0.12349927812E+02  0.10566000000E+00 0. -1.
        -13    1    4    4    0    0 -0.27168781176E+01  0.55923479053E+01  0.74720155063E+01  0.97210062011E+01  0.10566000000E+00 0.  1.
        -14    1    4    4    0    0 -0.11275680551E+02  0.23286199393E+02  0.27410862243E+02  0.37692750271E+02  0.00000000000E+00 0.  1.
<mgrwt>
<rscale>  0 0.80860434E+02</rscale>
<asrwt>0</asrwt>
<pdfrwt beam="1">  1        2 0.14424802E-01 0.80860434E+02</pdfrwt>
<pdfrwt beam="2">  1       -1 0.26821037E-02 0.80860434E+02</pdfrwt>
<totfact> 0.16919804E+05</totfact>
</mgrwt>
</event>
<event>
 8    1  0.2433467E-020  0.7913615E+02  0.7818608E-02  0.1331521E+00
          2   -1    0    0  501    0  0.00000000000E+00  0.00000000000E+00  0.93642847347E+02  0.93642847382E+02  0.25500000000E-02 0. -1.
         -1   -1    0    0    0  501 -0.00000000000E+00 -0.00000000000E+00 -0.16719190218E+02  0.16719190978E+02  0.50400000000E-02 0.  1.
         24    2    1    2    0    0  0.00000000000E+00  0.17763568394E-14  0.76923657129E+02  0.11036203836E+03  0.79136151567E+02 0.  0.
         66    2    3    3    0    0 -0.13058352657E+02  0.98298619417E+01  0.88700676971E+02  0.90216167312E+02  0.19999973380E+01 0.  0.
        -13    1    3    3    0    0  0.13058352657E+02 -0.98298619417E+01 -0.11777019842E+02  0.20145871048E+02  0.10566000000E+00 0.  1.
         13    1    4    4    0    0 -0.16632142706E+01  0.17069795270E+01  0.15223640085E+02  0.15409427059E+02  0.10566000000E+00 0. -1.
        -13    1    4    4    0    0 -0.13495761945E+01  0.60871086427E+00  0.68491927142E+01  0.70081730638E+01  0.10566000000E+00 0.  1.
         14    1    4    4    0    0 -0.10045562191E+02  0.75141715505E+01  0.66627844172E+02  0.67798567189E+02  0.00000000000E+00 0. -1.
<mgrwt>
<rscale>  0 0.79136152E+02</rscale>
<asrwt>0</asrwt>
<pdfrwt beam="1">  1        2 0.14406592E-01 0.79136152E+02</pdfrwt>
<pdfrwt beam="2">  1       -1 0.25721832E-02 0.79136152E+02</pdfrwt>
<totfact> 0.17921133E+05</totfact>
</mgrwt>
</event>
<event>
 8    1  0.2433467E-020  0.8054931E+02  0.7818608E-02  0.1327500E+00
          2   -1    0    0  501    0  0.00000000000E+00  0.00000000000E+00  0.11532430346E+02  0.11532430628E+02  0.25500000000E-02 0. -1.
         -1   -1    0    0    0  501 -0.00000000000E+00 -0.00000000000E+00 -0.14065099168E+03  0.14065099178E+03  0.50400000000E-02 0.  1.
         24    2    1    2    0    0 -0.35527136788E-14  0.35527136788E-14 -0.12911856134E+03  0.15218342240E+03  0.80549308949E+02 0.  0.
         66    2    3    3    0    0  0.13645470789E+02 -0.21416382243E+02 -0.55994497561E+01  0.26080914927E+02  0.19999961139E+01 0.  0.
        -13    1    3    3    0    0 -0.13645470789E+02  0.21416382243E+02 -0.12351911158E+03  0.12610250748E+03  0.10566000000E+00 0.  1.
         13    1    4    4    0    0  0.39782693209E+01 -0.51111992064E+01 -0.19317569842E+01  0.67597213847E+01  0.10566000000E+00 0. -1.
        -13    1    4    4    0    0  0.85532758733E+01 -0.14697388131E+02 -0.31116635049E+01  0.17287722806E+02  0.10566000000E+00 0.  1.
        -14    1    4    4    0    0  0.11139255943E+01 -0.16077949061E+01 -0.55602926700E+00  0.20334707364E+01  0.00000000000E+00 0.  1.
<mgrwt>
<rscale>  0 0.80549309E+02</rscale>
<asrwt>0</asrwt>
<pdfrwt beam="1">  1        2 0.17742202E-02 0.80549309E+02</pdfrwt>
<pdfrwt beam="2">  1       -1 0.21638613E-01 0.80549309E+02</pdfrwt>
<totfact> 0.10775116E+05</totfact>
</mgrwt>
</event>
<event>
 8    1  0.2433467E-020  0.8023693E+02  0.7818608E-02  0.1328380E+00
         -1   -1    0    0    0  501 -0.00000000000E+00  0.00000000000E+00  0.10945711510E+02  0.10945712671E+02  0.50400000000E-02 0.  1.
          2   -1    0    0  501    0  0.00000000000E+00 -0.00000000000E+00 -0.14704307568E+03  0.14704307571E+03  0.25500000000E-02 0. -1.
         24    2    1    2    0    0  0.00000000000E+00 -0.17763568394E-14 -0.13609736417E+03  0.15798878838E+03  0.80236928641E+02 0.  0.
         66    2    3    3    0    0  0.35341484056E+02 -0.10282489862E+02 -0.36787867564E+02  0.52077800401E+02  0.20000004087E+01 0.  0.
        -13    1    3    3    0    0 -0.35341484056E+02  0.10282489862E+02 -0.99309496609E+02  0.10591098798E+03  0.10566000000E+00 0.  1.
         13    1    4    4    0    0  0.32320808017E+02 -0.96753487384E+01 -0.33668437550E+02  0.47663632417E+02  0.10566000000E+00 0. -1.
        -13    1    4    4    0    0  0.22843663528E+00 -0.97614304809E-01 -0.40541719572E+00  0.48707184997E+00  0.10566000000E+00 0. -1.
        -14    1    4    4    0    0  0.27922394043E+01 -0.50952681846E+00 -0.27140128181E+01  0.39270961341E+01  0.00000000000E+00 0.  1.
<mgrwt>
<rscale>  0 0.80236929E+02</rscale>
<asrwt>0</asrwt>
<pdfrwt beam="1">  1        2 0.22622010E-01 0.80236929E+02</pdfrwt>
<pdfrwt beam="2">  1       -1 0.16839558E-02 0.80236929E+02</pdfrwt>
<totfact> 0.19746653E+05</totfact>
</mgrwt>
</event>
<event>
 8    1  0.2433467E-020  0.8003479E+02  0.7818608E-02  0.1328953E+00
         -1   -1    0    0    0  501 -0.00000000000E+00  0.00000000000E+00  0.35229966541E+01  0.35230002592E+01  0.50400000000E-02 0.  1.
          2   -1    0    0  501    0  0.00000000000E+00 -0.00000000000E+00 -0.45455368599E+03  0.45455368599E+03  0.25500000000E-02 0. -1.
         24    2    1    2    0    0  0.00000000000E+00  0.00000000000E+00 -0.45103068933E+03  0.45807668625E+03  0.80034790990E+02 0.  0.
         66    2    3    3    0    0  0.14070614414E+02 -0.21585151383E+02 -0.40071218990E+03  0.40154471742E+03  0.20000022298E+01 0.  0.
        -13    1    3    3    0    0 -0.14070614414E+02  0.21585151383E+02 -0.50318499437E+02  0.56531968830E+02  0.10566000000E+00 0.  1.
         13    1    4    4    0    0  0.64671561485E+01 -0.90839533560E+01 -0.16810171464E+03  0.16847118432E+03  0.10566000000E+00 0.  1.
        -13    1    4    4    0    0  0.72108585565E+01 -0.11382220347E+02 -0.21713954397E+03  0.21755722038E+03  0.10566000000E+00 0. -1.
         14    1    4    4    0    0  0.39259970951E+00 -0.11189776793E+01 -0.15470931285E+02  0.15516312719E+02  0.00000000000E+00 0. -1.
<mgrwt>
<rscale>  0 0.80034791E+02</rscale>
<asrwt>0</asrwt>
<pdfrwt beam="1">  1        2 0.69931290E-01 0.80034791E+02</pdfrwt>
<pdfrwt beam="2">  1       -1 0.54200012E-03 0.80034791E+02</pdfrwt>
<totfact> 0.29484400E+05</totfact>
</mgrwt>
</event>
<event>
 8    1  0.2433467E-020  0.8006422E+02  0.7818608E-02  0.1328869E+00
          2   -1    0    0  501    0  0.00000000000E+00  0.00000000000E+00  0.16107199475E+02  0.16107199676E+02  0.25500000000E-02 0. -1.
         -1   -1    0    0    0  501 -0.00000000000E+00 -0.00000000000E+00 -0.99494004854E+02  0.99494004982E+02  0.50400000000E-02 0.  1.
         24    2    1    2    0    0 -0.35527136788E-14  0.00000000000E+00 -0.83386805380E+02  0.11560120466E+03  0.80064219268E+02 0.  0.
         66    2    3    3    0    0 -0.24568868326E+02  0.18464445655E+02 -0.47385946670E+01  0.31161183007E+02  0.20000007047E+01 0.  0.
        -13    1    3    3    0    0  0.24568868326E+02 -0.18464445655E+02 -0.78648210712E+02  0.84440021651E+02  0.10566000000E+00 0.  1.
         13    1    4    4    0    0 -0.28449954774E+01  0.27882903386E+01 -0.75662945937E+00  0.40561329432E+01  0.10566000000E+00 0. -1.
        -13    1    4    4    0    0 -0.12138245056E+02  0.81089151624E+01 -0.22355754179E+01  0.14768224661E+02  0.10566000000E+00 0.  1.
         14    1    4    4    0    0 -0.95856277928E+01  0.75672401537E+01 -0.17463897898E+01  0.12336825403E+02  0.00000000000E+00 0. -1.
<mgrwt>
<rscale>  0 0.80064219E+02</rscale>
<asrwt>0</asrwt>
<pdfrwt beam="1">  1        2 0.24780308E-02 0.80064219E+02</pdfrwt>
<pdfrwt beam="2">  1       -1 0.15306770E-01 0.80064219E+02</pdfrwt>
<totfact> 0.11842177E+05</totfact>
</mgrwt>
</event>
<event>
 8    1  0.2433467E-020  0.8061796E+02  0.7818608E-02  0.1327307E+00
          2   -1    0    0  501    0  0.00000000000E+00  0.00000000000E+00  0.22881769298E+03  0.22881769299E+03  0.25500000000E-02 0. -1.
         -1   -1    0    0    0  501 -0.00000000000E+00 -0.00000000000E+00 -0.71009087478E+01  0.71009105364E+01  0.50400000000E-02 0.  1.
         24    2    1    2    0    0  0.88817841970E-15  0.35527136788E-14  0.22171678423E+03  0.23591860353E+03  0.80617957563E+02 0.  0.
         66    2    3    3    0    0  0.59050258804E+01  0.22959881410E+02  0.20623758626E+03  0.20760531656E+03  0.19999983928E+01 0.  0.
        -13    1    3    3    0    0 -0.59050258804E+01 -0.22959881410E+02  0.15479197970E+02  0.28313286966E+02  0.10566000000E+00 0.  1.
         13    1    4    4    0    0  0.21190622095E+01  0.60156678584E+01  0.60186927919E+02  0.60524012927E+02  0.10566000000E+00 0. -1.
        -13    1    4    4    0    0  0.17802921807E+01  0.78279224008E+01  0.64150663119E+02  0.64651098614E+02  0.10566000000E+00 0.  1.
        -14    1    4    4    0    0  0.20056714901E+01  0.91162911505E+01  0.81899995225E+02  0.82430205024E+02  0.00000000000E+00 0.  1.
<mgrwt>
<rscale>  0 0.80617958E+02</rscale>
<asrwt>0</asrwt>
<pdfrwt beam="1">  1        2 0.35202713E-01 0.80617958E+02</pdfrwt>
<pdfrwt beam="2">  1       -1 0.10924479E-02 0.80617958E+02</pdfrwt>
<totfact> 0.22662619E+05</totfact>
</mgrwt>
</event>
<event>
 8    1  0.2433467E-020  0.7992078E+02  0.7818608E-02  0.1329276E+00
         -1   -1    0    0    0  501 -0.00000000000E+00  0.00000000000E+00  0.40307429743E+02  0.40307430058E+02  0.50400000000E-02 0.  1.
          2   -1    0    0  501    0  0.00000000000E+00 -0.00000000000E+00 -0.39616338491E+02  0.39616338573E+02  0.25500000000E-02 0. -1.
         24    2    1    2    0    0  0.00000000000E+00  0.00000000000E+00  0.69109125226E+00  0.79923768631E+02  0.79920780683E+02 0.  0.
         66    2    3    3    0    0 -0.53650525566E+01  0.19190593220E+02 -0.34264277075E+02  0.39687571047E+02  0.19999887662E+01 0.  0.
        -13    1    3    3    0    0  0.53650525566E+01 -0.19190593220E+02  0.34955368327E+02  0.40236197584E+02  0.10566000000E+00 0.  1.
         13    1    4    4    0    0 -0.30281689268E+01  0.10168519394E+02 -0.19488840721E+02  0.22189967787E+02  0.10566000000E+00 0. -1.
        -13    1    4    4    0    0 -0.43860341108E+00  0.13361892148E+01 -0.16623414920E+01  0.21799811562E+01  0.10566000000E+00 0.  1.
         14    1    4    4    0    0 -0.18982802187E+01  0.76858846109E+01 -0.13113094862E+02  0.15317622104E+02  0.00000000000E+00 0. -1.
<mgrwt>
<rscale>  0 0.79920781E+02</rscale>
<asrwt>0</asrwt>
<pdfrwt beam="1">  1        2 0.60948213E-02 0.79920781E+02</pdfrwt>
<pdfrwt beam="2">  1       -1 0.62011431E-02 0.79920781E+02</pdfrwt>
<totfact> 0.14266094E+05</totfact>
</mgrwt>
</event>
<event>
 8    1  0.2433467E-020  0.7826526E+02  0.7818608E-02  0.1334048E+00
          2   -1    0    0  501    0  0.00000000000E+00  0.00000000000E+00  0.13642980670E+04  0.13642980670E+04  0.25500000000E-02 0. -1.
         -1   -1    0    0    0  501 -0.00000000000E+00 -0.00000000000E+00 -0.11224490399E+01  0.11224603551E+01  0.50400000000E-02 0.  1.
         24    2    1    2    0    0  0.00000000000E+00  0.00000000000E+00  0.13631756180E+04  0.13654205274E+04  0.78265261312E+02 0.  0.
         66    2    3    3    0    0 -0.13080597598E+02 -0.47015812171E+01  0.13197444765E+04  0.13198191885E+04  0.19999984864E+01 0.  0.
        -13    1    3    3    0    0  0.13080597598E+02  0.47015812171E+01  0.43431141456E+02  0.45601338924E+02  0.10566000000E+00 0.  1.
         13    1    4    4    0    0 -0.74992631869E+00  0.14720267849E-01  0.65895560509E+02  0.65899913998E+02  0.10566000000E+00 0. -1.
        -13    1    4    4    0    0 -0.18431952776E+01 -0.45794458974E+00  0.22720912212E+03  0.22721708435E+03  0.10566000000E+00 0.  1.
         14    1    4    4    0    0 -0.10487476002E+02 -0.42583568952E+01  0.10266397939E+04  0.10267021901E+04  0.00000000000E+00 0. -1.
<mgrwt>
<rscale>  0 0.78265261E+02</rscale>
<asrwt>0</asrwt>
<pdfrwt beam="1">  1        2 0.20989182E+00 0.78265261E+02</pdfrwt>
<pdfrwt beam="2">  1       -1 0.17268550E-03 0.78265261E+02</pdfrwt>
<totfact> 0.36253100E+05</totfact>
</mgrwt>
</event>
<event>
 8    1  0.2433467E-020  0.7990566E+02  0.7818608E-02  0.1329319E+00
         -1   -1    0    0    0  501 -0.00000000000E+00  0.00000000000E+00  0.13100278632E+03  0.13100278642E+03  0.50400000000E-02 0.  1.
          2   -1    0    0  501    0  0.00000000000E+00 -0.00000000000E+00 -0.12184690525E+02  0.12184690792E+02  0.25500000000E-02 0. -1.
         24    2    1    2    0    0 -0.71054273576E-14  0.00000000000E+00  0.11881809579E+03  0.14318747721E+03  0.79905655250E+02 0.  0.
         66    2    3    3    0    0  0.39065191173E+02  0.15988442901E+00  0.44657497122E+02  0.59366714364E+02  0.20000001834E+01 0.  0.
        -13    1    3    3    0    0 -0.39065191173E+02 -0.15988442901E+00  0.74160598671E+02  0.83820762843E+02  0.10566000000E+00 0.  1.
         13    1    4    4    0    0  0.16844956593E+02  0.91666777217E-01  0.20621994319E+02  0.26627782092E+02  0.10566000000E+00 0. -1.
        -13    1    4    4    0    0  0.15137025782E+02 -0.53698822508E-01  0.16762173731E+02  0.22585704889E+02  0.10566000000E+00 0.  1.
        -14    1    4    4    0    0  0.70832087979E+01  0.12191647430E+00  0.72733290718E+01  0.10153227383E+02  0.00000000000E+00 0.  1.
<mgrwt>
<rscale>  0 0.79905655E+02</rscale>
<asrwt>0</asrwt>
<pdfrwt beam="1">  1        2 0.18745678E-02 0.79905655E+02</pdfrwt>
<pdfrwt beam="2">  1       -1 0.20154275E-01 0.79905655E+02</pdfrwt>
<totfact> 0.11186509E+05</totfact>
</mgrwt>
</event>
<event>
 8    1  0.2433467E-020  0.7955671E+02  0.7818608E-02  0.1330314E+00
          2   -1    0    0  501    0  0.00000000000E+00  0.00000000000E+00  0.17056200533E+03  0.17056200535E+03  0.25500000000E-02 0. -1.
         -1   -1    0    0    0  501 -0.00000000000E+00 -0.00000000000E+00 -0.92770812570E+01  0.92770826260E+01  0.50400000000E-02 0.  1.
         24    2    1    2    0    0  0.00000000000E+00  0.00000000000E+00  0.16128492407E+03  0.17983908797E+03  0.79556714553E+02 0.  0.
         66    2    3    3    0    0  0.35359078205E+01  0.11838114317E+02  0.16610570726E+03  0.16657655770E+03  0.19999989257E+01 0.  0.
        -13    1    3    3    0    0 -0.35359078205E+01 -0.11838114317E+02 -0.48207831885E+01  0.13262530275E+02  0.10566000000E+00 0.  1.
         13    1    4    4    0    0  0.19002275180E+01  0.66560606761E+01  0.85286180444E+02  0.85566685965E+02  0.10566000000E+00 0. -1.
        -13    1    4    4    0    0  0.37837514421E+00  0.26183306110E+01  0.33652516805E+02  0.33756508621E+02  0.10566000000E+00 0.  1.
         14    1    4    4    0    0  0.12573051583E+01  0.25637230303E+01  0.47167010011E+02  0.47253363112E+02  0.00000000000E+00 0. -1.
<mgrwt>
<rscale>  0 0.79556715E+02</rscale>
<asrwt>0</asrwt>
<pdfrwt beam="1">  1        2 0.26240307E-01 0.79556715E+02</pdfrwt>
<pdfrwt beam="2">  1       -1 0.14272435E-02 0.79556715E+02</pdfrwt>
<totfact> 0.21201750E+05</totfact>
</mgrwt>
</event>
<event>
 8    1  0.2433467E-020  0.7947692E+02  0.7818608E-02  0.1330542E+00
          2   -1    0    0  501    0  0.00000000000E+00  0.00000000000E+00  0.51036397294E+01  0.51036403665E+01  0.25500000000E-02 0. -1.
         -1   -1    0    0    0  501 -0.00000000000E+00 -0.00000000000E+00 -0.30941545282E+03  0.30941545286E+03  0.50400000000E-02 0.  1.
         24    2    1    2    0    0  0.17763568394E-14  0.71054273576E-14 -0.30431181309E+03  0.31451909323E+03  0.79476917518E+02 0.  0.
         66    2    3    3    0    0  0.14080088499E+02  0.34697692799E+02 -0.20459721853E+03  0.20800528985E+03  0.19999993062E+01 0.  0.
        -13    1    3    3    0    0 -0.14080088499E+02 -0.34697692799E+02 -0.99714594558E+02  0.10651380338E+03  0.10566000000E+00 0.  1.
         13    1    4    4    0    0  0.18474264199E+01  0.49054045976E+01 -0.27058640391E+02  0.27561878791E+02  0.10566000000E+00 0. -1.
        -13    1    4    4    0    0  0.83287777243E+01  0.21943915577E+02 -0.13122535301E+03  0.13330794578E+03  0.10566000000E+00 0.  1.
        -14    1    4    4    0    0  0.39038843544E+01  0.78483726251E+01 -0.46313225125E+02  0.47135465282E+02  0.00000000000E+00 0.  1.
<mgrwt>
<rscale>  0 0.79476918E+02</rscale>
<asrwt>0</asrwt>
<pdfrwt beam="1">  1        2 0.78517564E-03 0.79476918E+02</pdfrwt>
<pdfrwt beam="2">  1       -1 0.47602363E-01 0.79476918E+02</pdfrwt>
<totfact> 0.86791352E+04</totfact>
</mgrwt>
</event>
<event>
 8    1  0.2433467E-020  0.7952602E+02  0.7818608E-02  0.1330402E+00
          2   -1    0    0  501    0  0.00000000000E+00  0.00000000000E+00  0.11678597720E+03  0.11678597723E+03  0.25500000000E-02 0. -1.
         -1   -1    0    0    0  501 -0.00000000000E+00 -0.00000000000E+00 -0.13538412608E+02  0.13538413546E+02  0.50400000000E-02 0.  1.
         24    2    1    2    0    0  0.00000000000E+00  0.00000000000E+00  0.10324756459E+03  0.13032439077E+03  0.79526016098E+02 0.  0.
         66    2    3    3    0    0 -0.56855314351E+01  0.21450768422E+02  0.10567671081E+03  0.10800012933E+03  0.19999986414E+01 0.  0.
        -13    1    3    3    0    0  0.56855314351E+01 -0.21450768422E+02 -0.24291462168E+01  0.22324261443E+02  0.10566000000E+00 0.  1.
         13    1    4    4    0    0 -0.37076839710E+01  0.11930629907E+02  0.60000189617E+02  0.61287199059E+02  0.10566000000E+00 0. -1.
        -13    1    4    4    0    0 -0.19605397489E+01  0.74552457742E+01  0.36899543400E+02  0.37696311131E+02  0.10566000000E+00 0.  1.
        -14    1    4    4    0    0 -0.17307715250E-01  0.20648927415E+01  0.87769777891E+01  0.90166191392E+01  0.00000000000E+00 0.  1.
<mgrwt>
<rscale>  0 0.79526016E+02</rscale>
<asrwt>0</asrwt>
<pdfrwt beam="1">  1        2 0.17967073E-01 0.79526016E+02</pdfrwt>
<pdfrwt beam="2">  1       -1 0.20828328E-02 0.79526016E+02</pdfrwt>
<totfact> 0.18832335E+05</totfact>
</mgrwt>
</event>
<event>
 8    1  0.2433467E-020  0.8011063E+02  0.7818608E-02  0.1328738E+00
         -1   -1    0    0    0  501 -0.00000000000E+00  0.00000000000E+00  0.68675643478E+01  0.68675661972E+01  0.50400000000E-02 0.  1.
          2   -1    0    0  501    0  0.00000000000E+00 -0.00000000000E+00 -0.23362402257E+03  0.23362402259E+03  0.25500000000E-02 0. -1.
         24    2    1    2    0    0  0.88817841970E-15  0.00000000000E+00 -0.22675645823E+03  0.24049158879E+03  0.80110629314E+02 0.  0.
         66    2    3    3    0    0  0.55667637653E+01 -0.30371674157E+02 -0.18992567202E+03  0.19242969716E+03  0.20000018469E+01 0.  0.
        -13    1    3    3    0    0 -0.55667637653E+01  0.30371674157E+02 -0.36830786209E+02  0.48061891626E+02  0.10566000000E+00 0.  1.
         13    1    4    4    0    0  0.51958181869E+00 -0.64682125355E+01 -0.42705417504E+02  0.43195735749E+02  0.10566000000E+00 0. -1.
        -13    1    4    4    0    0  0.29566451431E+01 -0.14762699744E+02 -0.90730081395E+02  0.91970853471E+02  0.10566000000E+00 0. -1.
         14    1    4    4    0    0  0.20905368035E+01 -0.91407618773E+01 -0.56490173119E+02  0.57263107939E+02  0.00000000000E+00 0. -1.
<mgrwt>
<rscale>  0 0.80110629E+02</rscale>
<asrwt>0</asrwt>
<pdfrwt beam="1">  1        2 0.35942151E-01 0.80110629E+02</pdfrwt>
<pdfrwt beam="2">  1       -1 0.10565487E-02 0.80110629E+02</pdfrwt>
<totfact> 0.23213415E+05</totfact>
</mgrwt>
</event>
<event>
 8    1  0.2433467E-020  0.8059839E+02  0.7818608E-02  0.1327362E+00
          2   -1    0    0  501    0  0.00000000000E+00  0.00000000000E+00  0.58940188318E+03  0.58940188319E+03  0.25500000000E-02 0. -1.
         -1   -1    0    0    0  501 -0.00000000000E+00 -0.00000000000E+00 -0.27553759024E+01  0.27553805119E+01  0.50400000000E-02 0.  1.
         24    2    1    2    0    0  0.00000000000E+00  0.00000000000E+00  0.58664650728E+03  0.59215726370E+03  0.80598389864E+02 0.  0.
         66    2    3    3    0    0 -0.17209943577E+02 -0.26929053285E+02  0.47356721104E+03  0.47464856415E+03  0.20000010828E+01 0.  0.
        -13    1    3    3    0    0  0.17209943577E+02  0.26929053285E+02  0.11307929624E+03  0.11750869955E+03  0.10566000000E+00 0.  1.
         13    1    4    4    0    0 -0.10880510852E+02 -0.15524313995E+02  0.28446004416E+03  0.28509106919E+03  0.10566000000E+00 0. -1.
        -13    1    4    4    0    0 -0.21355268176E+01 -0.43687664926E+01  0.72577127067E+02  0.72739928051E+02  0.10566000000E+00 0.  1.
         14    1    4    4    0    0 -0.41939059074E+01 -0.70359727972E+01  0.11653003981E+03  0.11681756691E+03  0.00000000000E+00 0. -1.
<mgrwt>
<rscale>  0 0.80598390E+02</rscale>
<asrwt>0</asrwt>
<pdfrwt beam="1">  1        2 0.90677293E-01 0.80598390E+02</pdfrwt>
<pdfrwt beam="2">  1       -1 0.42390397E-03 0.80598390E+02</pdfrwt>
<totfact> 0.31388109E+05</totfact>
</mgrwt>
</event>
<event>
 8    1  0.2433467E-020  0.8193423E+02  0.7818608E-02  0.1323650E+00
         -1   -1    0    0    0  501 -0.00000000000E+00  0.00000000000E+00  0.19521993540E+01  0.19522058599E+01  0.50400000000E-02 0.  1.
          2   -1    0    0  501    0  0.00000000000E+00 -0.00000000000E+00 -0.85969783174E+03  0.85969783175E+03  0.25500000000E-02 0. -1.
         24    2    1    2    0    0  0.17763568394E-14  0.35527136788E-14 -0.85774563239E+03  0.86165003761E+03  0.81934226214E+02 0.  0.
         66    2    3    3    0    0  0.15780090898E+02  0.20289574855E+02 -0.76427163901E+03  0.76470635953E+03  0.19999989789E+01 0.  0.
        -13    1    3    3    0    0 -0.15780090898E+02 -0.20289574855E+02 -0.93473993382E+02  0.96943678079E+02  0.10566000000E+00 0.  1.
         13    1    4    4    0    0  0.11826339988E+02  0.14914135770E+02 -0.56833116945E+03  0.56864982467E+03  0.10566000000E+00 0. -1.
        -13    1    4    4    0    0  0.30451643428E+01  0.37728422004E+01 -0.15231777451E+03  0.15239495713E+03  0.10566000000E+00 0.  1.
         14    1    4    4    0    0  0.90858656766E+00  0.16025968846E+01 -0.43622695049E+02  0.43661577728E+02  0.00000000000E+00 0. -1.
<mgrwt>
<rscale>  0 0.81934226E+02</rscale>
<asrwt>0</asrwt>
<pdfrwt beam="1">  1        2 0.13226090E+00 0.81934226E+02</pdfrwt>
<pdfrwt beam="2">  1       -1 0.30033955E-03 0.81934226E+02</pdfrwt>
<totfact> 0.32657124E+05</totfact>
</mgrwt>
</event>
<event>
 8    1  0.2433467E-020  0.8041589E+02  0.7818608E-02  0.1327875E+00
         -1   -1    0    0    0  501 -0.00000000000E+00  0.00000000000E+00  0.91914804355E+01  0.91914818173E+01  0.50400000000E-02 0.  1.
          2   -1    0    0  501    0  0.00000000000E+00 -0.00000000000E+00 -0.17588884326E+03  0.17588884328E+03  0.25500000000E-02 0. -1.
         24    2    1    2    0    0 -0.71054273576E-14 -0.17763568394E-14 -0.16669736282E+03  0.18508032509E+03  0.80415893733E+02 0.  0.
         66    2    3    3    0    0  0.36776861791E+02  0.13904278918E+02 -0.64308761636E+02  0.75402144253E+02  0.19999998792E+01 0.  0.
        -13    1    3    3    0    0 -0.36776861791E+02 -0.13904278918E+02 -0.10238860119E+03  0.10967818084E+03  0.10566000000E+00 0.  1.
         13    1    4    4    0    0  0.22400948326E+01  0.49178364818E+00 -0.37264300081E+01  0.43769076591E+01  0.10566000000E+00 0. -1.
        -13    1    4    4    0    0  0.24886189053E+02  0.98753133978E+01 -0.42720709139E+02  0.50417401496E+02  0.10566000000E+00 0.  1.
         14    1    4    4    0    0  0.96505779054E+01  0.35371818723E+01 -0.17861622489E+02  0.20607835098E+02  0.00000000000E+00 0. -1.
<mgrwt>
<rscale>  0 0.80415894E+02</rscale>
<asrwt>0</asrwt>
<pdfrwt beam="1">  1        2 0.27059820E-01 0.80415894E+02</pdfrwt>
<pdfrwt beam="2">  1       -1 0.14140742E-02 0.80415894E+02</pdfrwt>
<totfact> 0.20821136E+05</totfact>
</mgrwt>
</event>
<event>
 8    1  0.2433467E-020  0.8128220E+02  0.7818608E-02  0.1325452E+00
          2   -1    0    0  501    0  0.00000000000E+00  0.00000000000E+00  0.34014130529E+03  0.34014130530E+03  0.25500000000E-02 0. -1.
         -1   -1    0    0    0  501 -0.00000000000E+00 -0.00000000000E+00 -0.48559193627E+01  0.48559219783E+01  0.50400000000E-02 0.  1.
         24    2    1    2    0    0  0.00000000000E+00  0.00000000000E+00  0.33528538592E+03  0.34499722727E+03  0.81282204774E+02 0.  0.
         66    2    3    3    0    0 -0.20181038772E+01 -0.98651276021E+01  0.33475595019E+03  0.33491333159E+03  0.20000005817E+01 0.  0.
        -13    1    3    3    0    0  0.20181038772E+01  0.98651276021E+01  0.52943572840E+00  0.10083895680E+02  0.10566000000E+00 0.  1.
         13    1    4    4    0    0  0.74486764985E-01 -0.30212630998E+01  0.11249156567E+03  0.11253220468E+03  0.10566000000E+00 0. -1.
        -13    1    4    4    0    0 -0.58214640333E+00 -0.31290337517E+01  0.92554245446E+02  0.92609012849E+02  0.10566000000E+00 0.  1.
        -14    1    4    4    0    0 -0.15104442389E+01 -0.37148307506E+01  0.12971013908E+03  0.12977211407E+03  0.00000000000E+00 0.  1.
<mgrwt>
<rscale>  0 0.81282205E+02</rscale>
<asrwt>0</asrwt>
<pdfrwt beam="1">  1        2 0.52329424E-01 0.81282205E+02</pdfrwt>
<pdfrwt beam="2">  1       -1 0.74706484E-03 0.81282205E+02</pdfrwt>
<totfact> 0.25587254E+05</totfact>
</mgrwt>
</event>
<event>
 8    1  0.2433467E-020  0.7828492E+02  0.7818608E-02  0.1333990E+00
          2   -1    0    0  501    0  0.00000000000E+00  0.00000000000E+00  0.16308023596E+04  0.16308023596E+04  0.25500000000E-02 0. -1.
         -1   -1    0    0    0  501 -0.00000000000E+00 -0.00000000000E+00 -0.93948913920E+00  0.93950265794E+00  0.50400000000E-02 0.  1.
         24    2    1    2    0    0  0.00000000000E+00 -0.88817841970E-15  0.16298628704E+04  0.16317418622E+04  0.78284919012E+02 0.  0.
         66    2    3    3    0    0  0.13128204218E+02 -0.58364167206E+01  0.15738130476E+04  0.15738798945E+04  0.20000036783E+01 0.  0.
        -13    1    3    3    0    0 -0.13128204218E+02  0.58364167206E+01  0.56049822873E+02  0.57861967770E+02  0.10566000000E+00 0.  1.
         13    1    4    4    0    0  0.27115720486E+01 -0.12459448530E+01  0.31371013094E+03  0.31372434145E+03  0.10566000000E+00 0. -1.
        -13    1    4    4    0    0  0.17370467914E+01 -0.14806350807E+00  0.16581807228E+03  0.16582727011E+03  0.10566000000E+00 0.  1.
        -14    1    4    4    0    0  0.86795853782E+01 -0.44424083595E+01  0.10942848443E+04  0.10943282829E+04  0.00000000000E+00 0.  1.
<mgrwt>
<rscale>  0 0.78284919E+02</rscale>
<asrwt>0</asrwt>
<pdfrwt beam="1">  1        2 0.25089481E+00 0.78284919E+02</pdfrwt>
<pdfrwt beam="2">  1       -1 0.14453660E-03 0.78284919E+02</pdfrwt>
<totfact> 0.33906401E+05</totfact>
</mgrwt>
</event>
<event>
 8    1  0.2433467E-020  0.8048454E+02  0.7818608E-02  0.1327682E+00
         -1   -1    0    0    0  501 -0.00000000000E+00  0.00000000000E+00  0.69574922768E+01  0.69574941023E+01  0.50400000000E-02 0.  1.
          2   -1    0    0  501    0  0.00000000000E+00 -0.00000000000E+00 -0.23276203427E+03  0.23276203428E+03  0.25500000000E-02 0. -1.
         24    2    1    2    0    0 -0.17763568394E-14  0.44408920985E-15 -0.22580454199E+03  0.23971952839E+03  0.80484539540E+02 0.  0.
         66    2    3    3    0    0 -0.12686619960E+02  0.34783184128E+01 -0.22616819675E+03  0.22655926874E+03  0.20000023613E+01 0.  0.
        -13    1    3    3    0    0  0.12686619960E+02 -0.34783184128E+01  0.36365475423E+00  0.13160259641E+02  0.10566000000E+00 0.  1.
         13    1    4    4    0    0 -0.22976419987E+01  0.29564653723E+00 -0.39626761501E+02  0.39694558275E+02  0.10566000000E+00 0. -1.
        -13    1    4    4    0    0 -0.84445725101E+00  0.53185327497E+00 -0.24727557766E+02  0.24747914116E+02  0.10566000000E+00 0.  1.
        -14    1    4    4    0    0 -0.95445207107E+01  0.26508186006E+01 -0.16181387748E+03  0.16211679635E+03  0.00000000000E+00 0.  1.
<mgrwt>
<rscale>  0 0.80484540E+02</rscale>
<asrwt>0</asrwt>
<pdfrwt beam="1">  1        2 0.35809538E-01 0.80484540E+02</pdfrwt>
<pdfrwt beam="2">  1       -1 0.10703838E-02 0.80484540E+02</pdfrwt>
<totfact> 0.22900416E+05</totfact>
</mgrwt>
</event>
<event>
 8    1  0.2433467E-020  0.8005652E+02  0.7818608E-02  0.1328891E+00
          2   -1    0    0  501    0  0.00000000000E+00  0.00000000000E+00  0.12320049852E+04  0.12320049852E+04  0.25500000000E-02 0. -1.
         -1   -1    0    0    0  501 -0.00000000000E+00 -0.00000000000E+00 -0.13005267329E+01  0.13005364988E+01  0.50400000000E-02 0.  1.
         24    2    1    2    0    0  0.00000000000E+00  0.00000000000E+00  0.12307044585E+04  0.12333055217E+04  0.80056516090E+02 0.  0.
         66    2    3    3    0    0  0.18590578446E+01 -0.11871364465E+02  0.12035431530E+04  0.12036047966E+04  0.19999943365E+01 0.  0.
        -13    1    3    3    0    0 -0.18590578446E+01  0.11871364465E+02  0.27161305470E+02  0.29700725062E+02  0.10566000000E+00 0.  1.
         13    1    4    4    0    0  0.13429182262E+01 -0.71993890803E+01  0.74769276441E+03  0.74772863777E+03  0.10566000000E+00 0. -1.
        -13    1    4    4    0    0  0.71245605471E+00 -0.23852631472E+01  0.20119281272E+03  0.20120824071E+03  0.10566000000E+00 0.  1.
        -14    1    4    4    0    0 -0.19631643633E+00 -0.22867122373E+01  0.25465757586E+03  0.25466791816E+03  0.00000000000E+00 0.  1.
<mgrwt>
<rscale>  0 0.80056516E+02</rscale>
<asrwt>0</asrwt>
<pdfrwt beam="1">  1        2 0.18953895E+00 0.80056516E+02</pdfrwt>
<pdfrwt beam="2">  1       -1 0.20008208E-03 0.80056516E+02</pdfrwt>
<totfact> 0.34860574E+05</totfact>
</mgrwt>
</event>
<event>
 8    1  0.2433467E-020  0.7964398E+02  0.7818608E-02  0.1330065E+00
         -1   -1    0    0    0  501 -0.00000000000E+00  0.00000000000E+00  0.12832737427E+02  0.12832738416E+02  0.50400000000E-02 0.  1.
          2   -1    0    0  501    0  0.00000000000E+00 -0.00000000000E+00 -0.12357386426E+03  0.12357386429E+03  0.25500000000E-02 0. -1.
         24    2    1    2    0    0 -0.35527136788E-14  0.00000000000E+00 -0.11074112683E+03  0.13640660270E+03  0.79643983380E+02 0.  0.
         66    2    3    3    0    0 -0.23460751100E+02 -0.42520041577E+01 -0.10997859853E+03  0.11255122606E+03  0.19999927673E+01 0.  0.
        -13    1    3    3    0    0  0.23460751100E+02  0.42520041577E+01 -0.76252830579E+00  0.23855376647E+02  0.10566000000E+00 0.  1.
         13    1    4    4    0    0 -0.10330160780E+02 -0.14932350703E+01 -0.45304407850E+02  0.46491316473E+02  0.10566000000E+00 0. -1.
        -13    1    4    4    0    0 -0.12727424750E+02 -0.28553846195E+01 -0.62802376085E+02  0.64142732777E+02  0.10566000000E+00 0.  1.
        -14    1    4    4    0    0 -0.40316557010E+00  0.96615532074E-01 -0.18718145928E+01  0.19171768066E+01  0.00000000000E+00 0.  1.
<mgrwt>
<rscale>  0 0.79643983E+02</rscale>
<asrwt>0</asrwt>
<pdfrwt beam="1">  1        2 0.19011363E-01 0.79643983E+02</pdfrwt>
<pdfrwt beam="2">  1       -1 0.19742675E-02 0.79643983E+02</pdfrwt>
<totfact> 0.19077678E+05</totfact>
</mgrwt>
</event>
<event>
 8    1  0.2433467E-020  0.8005032E+02  0.7818608E-02  0.1328909E+00
          2   -1    0    0  501    0  0.00000000000E+00  0.00000000000E+00  0.15696859498E+03  0.15696859500E+03  0.25500000000E-02 0. -1.
         -1   -1    0    0    0  501 -0.00000000000E+00 -0.00000000000E+00 -0.10205946839E+02  0.10205948083E+02  0.50400000000E-02 0.  1.
         24    2    1    2    0    0  0.17763568394E-14  0.35527136788E-14  0.14676264814E+03  0.16717454309E+03  0.80050315216E+02 0.  0.
         66    2    3    3    0    0  0.15909176460E+02  0.16600781692E+02  0.14178145197E+03  0.14364772163E+03  0.19999899405E+01 0.  0.
        -13    1    3    3    0    0 -0.15909176460E+02 -0.16600781692E+02  0.49811961778E+01  0.23526821456E+02  0.10566000000E+00 0.  1.
         13    1    4    4    0    0  0.27812747050E+01  0.33573044475E+01  0.24469968908E+02  0.24855533076E+02  0.10566000000E+00 0. -1.
        -13    1    4    4    0    0  0.29001887418E+01  0.35899780769E+01  0.26841001315E+02  0.27235079455E+02  0.10566000000E+00 0.  1.
         14    1    4    4    0    0  0.10227713013E+02  0.96534991675E+01  0.90470481744E+02  0.91557109100E+02  0.00000000000E+00 0. -1.
<mgrwt>
<rscale>  0 0.80050315E+02</rscale>
<asrwt>0</asrwt>
<pdfrwt beam="1">  1        2 0.24149015E-01 0.80050315E+02</pdfrwt>
<pdfrwt beam="2">  1       -1 0.15701457E-02 0.80050315E+02</pdfrwt>
<totfact> 0.20293350E+05</totfact>
</mgrwt>
</event>
<event>
 8    1  0.2433467E-020  0.7747905E+02  0.7818608E-02  0.1336362E+00
         -1   -1    0    0    0  501 -0.00000000000E+00  0.00000000000E+00  0.45973264714E+01  0.45973292341E+01  0.50400000000E-02 0.  1.
          2   -1    0    0  501    0  0.00000000000E+00 -0.00000000000E+00 -0.32643982955E+03  0.32643982956E+03  0.25500000000E-02 0. -1.
         24    2    1    2    0    0 -0.71054273576E-14  0.00000000000E+00 -0.32184250308E+03  0.33103715879E+03  0.77479053392E+02 0.  0.
         66    2    3    3    0    0 -0.38529561132E+02 -0.13983781056E+01 -0.17599050243E+03  0.18017530212E+03  0.20000014007E+01 0.  0.
        -13    1    3    3    0    0  0.38529561132E+02  0.13983781056E+01 -0.14585200064E+03  0.15086185667E+03  0.10566000000E+00 0.  1.
         13    1    4    4    0    0 -0.14176663479E+02 -0.68546608891E+00 -0.62156353103E+02  0.63756341224E+02  0.10566000000E+00 0. -1.
        -13    1    4    4    0    0 -0.11370977109E+02 -0.26525630960E-02 -0.55645832193E+02  0.56795853123E+02  0.10566000000E+00 0.  1.
        -14    1    4    4    0    0 -0.12981920543E+02 -0.71025945357E+00 -0.58188317134E+02  0.59623107772E+02  0.00000000000E+00 0.  1.
<mgrwt>
<rscale>  0 0.77479053E+02</rscale>
<asrwt>0</asrwt>
<pdfrwt beam="1">  1        2 0.50221494E-01 0.77479053E+02</pdfrwt>
<pdfrwt beam="2">  1       -1 0.70728147E-03 0.77479053E+02</pdfrwt>
<totfact> 0.28579551E+05</totfact>
</mgrwt>
</event>
<event>
 8    1  0.2433467E-020  0.8093325E+02  0.7818608E-02  0.1326424E+00
         -1   -1    0    0    0  501 -0.00000000000E+00  0.00000000000E+00  0.13995612307E+01  0.13995703055E+01  0.50400000000E-02 0.  1.
          2   -1    0    0  501    0  0.00000000000E+00 -0.00000000000E+00 -0.11700399162E+04  0.11700399162E+04  0.25500000000E-02 0. -1.
         24    2    1    2    0    0  0.35527136788E-14 -0.17763568394E-14 -0.11686403550E+04  0.11714394865E+04  0.80933252054E+02 0.  0.
         66    2    3    3    0    0  0.10461087948E+02 -0.12579539736E+02 -0.11199970002E+04  0.11201182794E+04  0.20000001198E+01 0.  0.
        -13    1    3    3    0    0 -0.10461087948E+02  0.12579539736E+02 -0.48643354718E+02  0.51321207150E+02  0.10566000000E+00 0.  1.
         13    1    4    4    0    0  0.85814960930E-01 -0.20312875361E+00 -0.10539793568E+02  0.10542629557E+02  0.10566000000E+00 0. -1.
        -13    1    4    4    0    0  0.16468178050E+01 -0.22020903651E+01 -0.15704739978E+03  0.15707150649E+03  0.10566000000E+00 0.  1.
        -14    1    4    4    0    0  0.87284551821E+01 -0.10174320618E+02 -0.95240980690E+03  0.95250414330E+03  0.00000000000E+00 0.  1.
<mgrwt>
<rscale>  0 0.80933252E+02</rscale>
<asrwt>0</asrwt>
<pdfrwt beam="1">  1        2 0.18000536E+00 0.80933252E+02</pdfrwt>
<pdfrwt beam="2">  1       -1 0.21531875E-03 0.80933252E+02</pdfrwt>
<totfact> 0.34082651E+05</totfact>
</mgrwt>
</event>
<event>
 8    1  0.2433467E-020  0.7876575E+02  0.7818608E-02  0.1332591E+00
         -1   -1    0    0    0  501 -0.00000000000E+00  0.00000000000E+00  0.25451512271E+01  0.25451562173E+01  0.50400000000E-02 0.  1.
          2   -1    0    0  501    0  0.00000000000E+00 -0.00000000000E+00 -0.60939769455E+03  0.60939769455E+03  0.25500000000E-02 0. -1.
         24    2    1    2    0    0 -0.35527136788E-14  0.35527136788E-14 -0.60685254332E+03  0.61194285077E+03  0.78765749372E+02 0.  0.
         66    2    3    3    0    0 -0.28914754142E+02  0.20278929385E+02 -0.43856946277E+03  0.43999371774E+03  0.19999994060E+01 0.  0.
        -13    1    3    3    0    0  0.28914754142E+02 -0.20278929385E+02 -0.16828308055E+03  0.17194913303E+03  0.10566000000E+00 0.  1.
         13    1    4    4    0    0 -0.19335336474E+02  0.13882840408E+02 -0.29835575028E+03  0.29930378111E+03  0.10566000000E+00 0. -1.
        -13    1    4    4    0    0 -0.10511711402E+01  0.39313691468E+00 -0.12061808747E+02  0.12114367986E+02  0.10566000000E+00 0.  1.
        -14    1    4    4    0    0 -0.85282465278E+01  0.60029520629E+01 -0.12815190374E+03  0.12857556865E+03  0.00000000000E+00 0.  1.
<mgrwt>
<rscale>  0 0.78765749E+02</rscale>
<asrwt>0</asrwt>
<pdfrwt beam="1">  1        2 0.93753375E-01 0.78765749E+02</pdfrwt>
<pdfrwt beam="2">  1       -1 0.39156260E-03 0.78765749E+02</pdfrwt>
<totfact> 0.33634346E+05</totfact>
</mgrwt>
</event>
<event>
 8    1  0.2433467E-020  0.8038575E+02  0.7818608E-02  0.1327960E+00
         -1   -1    0    0    0  501 -0.00000000000E+00  0.00000000000E+00  0.18762434050E+03  0.18762434057E+03  0.50400000000E-02 0.  1.
          2   -1    0    0  501    0  0.00000000000E+00 -0.00000000000E+00 -0.86101161001E+01  0.86101164778E+01  0.25500000000E-02 0. -1.
         24    2    1    2    0    0  0.00000000000E+00  0.00000000000E+00  0.17901422440E+03  0.19623445705E+03  0.80385754923E+02 0.  0.
         66    2    3    3    0    0 -0.39147112391E+02  0.39664859637E+01  0.69845860566E+02  0.80191481189E+02  0.19999994188E+01 0.  0.
        -13    1    3    3    0    0  0.39147112391E+02 -0.39664859637E+01  0.10916836384E+03  0.11604297586E+03  0.10566000000E+00 0.  1.
         13    1    4    4    0    0 -0.12950244220E+02  0.11348474983E+01  0.22615767260E+02  0.26086026854E+02  0.10566000000E+00 0. -1.
        -13    1    4    4    0    0 -0.22483107778E+02  0.19450370564E+01  0.39859682566E+02  0.45804789736E+02  0.10566000000E+00 0.  1.
        -14    1    4    4    0    0 -0.37137603923E+01  0.88660140903E+00  0.73704107393E+01  0.83006645985E+01  0.00000000000E+00 0.  1.
<mgrwt>
<rscale>  0 0.80385755E+02</rscale>
<asrwt>0</asrwt>
<pdfrwt beam="1">  1        2 0.13246333E-02 0.80385755E+02</pdfrwt>
<pdfrwt beam="2">  1       -1 0.28865283E-01 0.80385755E+02</pdfrwt>
<totfact> 0.10027476E+05</totfact>
</mgrwt>
</event>
<event>
 8    1  0.2433467E-020  0.7746174E+02  0.7818608E-02  0.1336413E+00
          2   -1    0    0  501    0  0.00000000000E+00  0.00000000000E+00  0.12929531843E+03  0.12929531846E+03  0.25500000000E-02 0. -1.
         -1   -1    0    0    0  501 -0.00000000000E+00 -0.00000000000E+00 -0.11601969863E+02  0.11601970958E+02  0.50400000000E-02 0.  1.
         24    2    1    2    0    0 -0.22204460493E-15  0.17763568394E-14  0.11769334857E+03  0.14089728941E+03  0.77461744539E+02 0.  0.
         66    2    3    3    0    0 -0.11066230724E+01  0.15124095913E+02  0.12365883422E+03  0.12460124465E+03  0.19999990637E+01 0.  0.
        -13    1    3    3    0    0  0.11066230724E+01 -0.15124095913E+02 -0.59654856517E+01  0.16296044763E+02  0.10566000000E+00 0.  1.
         13    1    4    4    0    0 -0.60097630991E+00  0.82302114623E+01  0.70296443746E+02  0.70779225205E+02  0.10566000000E+00 0. -1.
        -13    1    4    4    0    0  0.28450237089E+00  0.15866196275E+01  0.10145067766E+02  0.10272870458E+02  0.10566000000E+00 0.  1.
        -14    1    4    4    0    0 -0.79014913339E+00  0.53072648232E+01  0.43217322708E+02  0.43549148988E+02  0.00000000000E+00 0.  1.
<mgrwt>
<rscale>  0 0.77461745E+02</rscale>
<asrwt>0</asrwt>
<pdfrwt beam="1">  1        2 0.19891589E-01 0.77461745E+02</pdfrwt>
<pdfrwt beam="2">  1       -1 0.17849184E-02 0.77461745E+02</pdfrwt>
<totfact> 0.20824336E+05</totfact>
</mgrwt>
</event>
<event>
 8    1  0.2433467E-020  0.7927798E+02  0.7818608E-02  0.1331113E+00
         -1   -1    0    0    0  501 -0.00000000000E+00  0.00000000000E+00  0.32075751268E+01  0.32075790864E+01  0.50400000000E-02 0.  1.
          2   -1    0    0  501    0  0.00000000000E+00 -0.00000000000E+00 -0.48985557502E+03  0.48985557503E+03  0.25500000000E-02 0. -1.
         24    2    1    2    0    0  0.35527136788E-14  0.35527136788E-14 -0.48664799989E+03  0.49306315411E+03  0.79277980195E+02 0.  0.
         66    2    3    3    0    0  0.24809833240E+02  0.30610118993E+02 -0.26892291351E+03  0.27180147281E+03  0.19999996693E+01 0.  0.
        -13    1    3    3    0    0 -0.24809833240E+02 -0.30610118993E+02 -0.21772508638E+03  0.22126168131E+03  0.10566000000E+00 0.  1.
         13    1    4    4    0    0  0.15414836529E+02  0.19737710938E+02 -0.17584756360E+03  0.17762198965E+03  0.10566000000E+00 0. -1.
        -13    1    4    4    0    0  0.51094913339E+01  0.62621646662E+01 -0.51617531599E+02  0.52246553383E+02  0.10566000000E+00 0.  1.
         14    1    4    4    0    0  0.42855053771E+01  0.46102433886E+01 -0.41457818313E+02  0.41932929777E+02  0.00000000000E+00 0. -1.
<mgrwt>
<rscale>  0 0.79277980E+02</rscale>
<asrwt>0</asrwt>
<pdfrwt beam="1">  1        2 0.75362337E-01 0.79277980E+02</pdfrwt>
<pdfrwt beam="2">  1       -1 0.49347379E-03 0.79277980E+02</pdfrwt>
<totfact> 0.30975086E+05</totfact>
</mgrwt>
</event>
<event>
 8    1  0.2433467E-020  0.7920095E+02  0.7818608E-02  0.1331334E+00
         -1   -1    0    0    0  501 -0.00000000000E+00  0.00000000000E+00  0.13621567578E+01  0.13621660818E+01  0.50400000000E-02 0.  1.
          2   -1    0    0  501    0  0.00000000000E+00 -0.00000000000E+00 -0.11512568183E+04  0.11512568183E+04  0.25500000000E-02 0. -1.
         24    2    1    2    0    0  0.44408920985E-15 -0.35527136788E-14 -0.11498946616E+04  0.11526189844E+04  0.79200950251E+02 0.  0.
         66    2    3    3    0    0  0.20382035892E+01  0.25528995686E+02 -0.10143990925E+04  0.10147242989E+04  0.19999977480E+01 0.  0.
        -13    1    3    3    0    0 -0.20382035892E+01 -0.25528995686E+02 -0.13549556905E+03  0.13789468551E+03  0.10566000000E+00 0.  1.
         13    1    4    4    0    0  0.79658059103E+00  0.31608995837E+01 -0.13446730365E+03  0.13450685017E+03  0.10566000000E+00 0. -1.
        -13    1    4    4    0    0  0.63120418933E+00  0.13863738795E+02 -0.52751346505E+03  0.52769600022E+03  0.10566000000E+00 0.  1.
         14    1    4    4    0    0  0.61041880880E+00  0.85043573075E+01 -0.35241832380E+03  0.35252144850E+03  0.00000000000E+00 0. -1.
<mgrwt>
<rscale>  0 0.79200950E+02</rscale>
<asrwt>0</asrwt>
<pdfrwt beam="1">  1        2 0.17711566E+00 0.79200950E+02</pdfrwt>
<pdfrwt beam="2">  1       -1 0.20956422E-03 0.79200950E+02</pdfrwt>
<totfact> 0.36097966E+05</totfact>
</mgrwt>
</event>
<event>
 8    1  0.2433467E-020  0.8035154E+02  0.7818608E-02  0.1328057E+00
          2   -1    0    0  501    0  0.00000000000E+00  0.00000000000E+00  0.12805181054E+04  0.12805181054E+04  0.25500000000E-02 0. -1.
         -1   -1    0    0    0  501 -0.00000000000E+00 -0.00000000000E+00 -0.12604946491E+01  0.12605047251E+01  0.50400000000E-02 0.  1.
         24    2    1    2    0    0 -0.35527136788E-14  0.00000000000E+00  0.12792576107E+04  0.12817786101E+04  0.80351544580E+02 0.  0.
         66    2    3    3    0    0 -0.19070804045E+02  0.14641698414E+02  0.11529819102E+04  0.11532343041E+04  0.19999994534E+01 0.  0.
        -13    1    3    3    0    0  0.19070804045E+02 -0.14641698414E+02  0.12627570057E+03  0.12854430605E+03  0.10566000000E+00 0.  1.
         13    1    4    4    0    0 -0.21340752097E+01  0.19318631233E+01  0.11847698588E+03  0.11851199821E+03  0.10566000000E+00 0. -1.
        -13    1    4    4    0    0 -0.12224191995E+02  0.91725754122E+01  0.77183890233E+03  0.77199020028E+03  0.10566000000E+00 0.  1.
        -14    1    4    4    0    0 -0.47125368402E+01  0.35372598786E+01  0.26266602195E+03  0.26273210557E+03  0.00000000000E+00 0.  1.
<mgrwt>
<rscale>  0 0.80351545E+02</rscale>
<asrwt>0</asrwt>
<pdfrwt beam="1">  1        2 0.19700310E+00 0.80351545E+02</pdfrwt>
<pdfrwt beam="2">  1       -1 0.19392272E-03 0.80351545E+02</pdfrwt>
<totfact> 0.34320906E+05</totfact>
</mgrwt>
</event>
<event>
 8    1  0.2433467E-020  0.8022710E+02  0.7818608E-02  0.1328408E+00
          2   -1    0    0  501    0  0.00000000000E+00  0.00000000000E+00  0.30221917734E+03  0.30221917735E+03  0.25500000000E-02 0. -1.
         -1   -1    0    0    0  501 -0.00000000000E+00 -0.00000000000E+00 -0.53242707302E+01  0.53242731156E+01  0.50400000000E-02 0.  1.
         24    2    1    2    0    0 -0.71054273576E-14  0.00000000000E+00  0.29689490661E+03  0.30754345047E+03  0.80227104858E+02 0.  0.
         66    2    3    3    0    0  0.32989870705E+02 -0.50825981823E+01  0.23364874680E+03  0.23602944996E+03  0.19999987281E+01 0.  0.
        -13    1    3    3    0    0 -0.32989870705E+02  0.50825981823E+01  0.63246159811E+02  0.71514000505E+02  0.10566000000E+00 0.  1.
         13    1    4    4    0    0  0.53722573811E+01 -0.21969121932E+00  0.39706241535E+02  0.40068768317E+02  0.10566000000E+00 0. -1.
        -13    1    4    4    0    0  0.14526302987E+01 -0.28816960629E+00  0.94672938380E+01  0.95830054345E+01  0.10566000000E+00 0.  1.
         14    1    4    4    0    0  0.26164983025E+02 -0.45747373566E+01  0.18447521143E+03  0.18637767621E+03  0.00000000000E+00 0. -1.
<mgrwt>
<rscale>  0 0.80227105E+02</rscale>
<asrwt>0</asrwt>
<pdfrwt beam="1">  1        2 0.46495264E-01 0.80227105E+02</pdfrwt>
<pdfrwt beam="2">  1       -1 0.81911867E-03 0.80227105E+02</pdfrwt>
<totfact> 0.25373309E+05</totfact>
</mgrwt>
</event>
<event>
 8    1  0.2433467E-020  0.8042513E+02  0.7818608E-02  0.1327849E+00
          2   -1    0    0  501    0  0.00000000000E+00  0.00000000000E+00  0.45853779422E+02  0.45853779493E+02  0.25500000000E-02 0. -1.
         -1   -1    0    0    0  501 -0.00000000000E+00 -0.00000000000E+00 -0.35265365152E+02  0.35265365512E+02  0.50400000000E-02 0.  1.
         24    2    1    2    0    0 -0.35527136788E-14  0.35527136788E-14  0.10588414270E+02  0.81119145005E+02  0.80425127725E+02 0.  0.
         66    2    3    3    0    0  0.20704002326E+02  0.30922498953E+02  0.20600366404E+02  0.42582058928E+02  0.19999981858E+01 0.  0.
        -13    1    3    3    0    0 -0.20704002326E+02 -0.30922498953E+02 -0.10011952134E+02  0.38537086078E+02  0.10566000000E+00 0.  1.
         13    1    4    4    0    0  0.12783306564E+01  0.19736393496E+01  0.17958719335E+01  0.29606927545E+01  0.10566000000E+00 0.  1.
        -13    1    4    4    0    0  0.14455657184E+02  0.21086397900E+02  0.13429040241E+02  0.28878235522E+02  0.10566000000E+00 0. -1.
         14    1    4    4    0    0  0.49700144856E+01  0.78624617031E+01  0.53754542296E+01  0.10743130651E+02  0.00000000000E+00 0. -1.
<mgrwt>
<rscale>  0 0.80425128E+02</rscale>
<asrwt>0</asrwt>
<pdfrwt beam="1">  1        2 0.70544276E-02 0.80425128E+02</pdfrwt>
<pdfrwt beam="2">  1       -1 0.54254408E-02 0.80425128E+02</pdfrwt>
<totfact> 0.14455311E+05</totfact>
</mgrwt>
</event>
<event>
 8    1  0.2433467E-020  0.7753690E+02  0.7818608E-02  0.1336190E+00
         -1   -1    0    0    0  501 -0.00000000000E+00  0.00000000000E+00  0.12106799804E+03  0.12106799815E+03  0.50400000000E-02 0.  1.
          2   -1    0    0  501    0  0.00000000000E+00 -0.00000000000E+00 -0.12414449670E+02  0.12414449932E+02  0.25500000000E-02 0. -1.
         24    2    1    2    0    0  0.00000000000E+00  0.00000000000E+00  0.10865354837E+03  0.13348244808E+03  0.77536896839E+02 0.  0.
         66    2    3    3    0    0  0.37188354772E+01  0.19590759664E+02 -0.28211611157E+01  0.20238244603E+02  0.19999982623E+01 0.  0.
        -13    1    3    3    0    0 -0.37188354772E+01 -0.19590759664E+02  0.11147470949E+03  0.11324420348E+03  0.10566000000E+00 0.  1.
         13    1    4    4    0    0  0.22227415513E+00  0.25221863163E+01 -0.14807105450E+00  0.25384874801E+01  0.10566000000E+00 0. -1.
        -13    1    4    4    0    0  0.27573377711E+01  0.11234516600E+02 -0.23868557616E+01  0.11812092079E+02  0.10566000000E+00 0.  1.
        -14    1    4    4    0    0  0.73922355090E+00  0.58340567482E+01 -0.28623429959E+00  0.58876650443E+01  0.00000000000E+00 0.  1.
<mgrwt>
<rscale>  0 0.77536897E+02</rscale>
<asrwt>0</asrwt>
<pdfrwt beam="1">  1        2 0.19099154E-02 0.77536897E+02</pdfrwt>
<pdfrwt beam="2">  1       -1 0.18625845E-01 0.77536897E+02</pdfrwt>
<totfact> 0.12289107E+05</totfact>
</mgrwt>
</event>
<event>
 8    1  0.2433467E-020  0.7990327E+02  0.7818608E-02  0.1329326E+00
         -1   -1    0    0    0  501 -0.00000000000E+00  0.00000000000E+00  0.32079943320E+02  0.32079943716E+02  0.50400000000E-02 0.  1.
          2   -1    0    0  501    0  0.00000000000E+00 -0.00000000000E+00 -0.49754855195E+02  0.49754855260E+02  0.25500000000E-02 0. -1.
         24    2    1    2    0    0  0.00000000000E+00  0.00000000000E+00 -0.17674911875E+02  0.81834798976E+02  0.79903265351E+02 0.  0.
         66    2    3    3    0    0 -0.29392414852E+02 -0.26360968522E+02 -0.14929125421E+02  0.42257466834E+02  0.20000012762E+01 0.  0.
        -13    1    3    3    0    0  0.29392414852E+02  0.26360968522E+02 -0.27457864540E+01  0.39577332143E+02  0.10566000000E+00 0.  1.
         13    1    4    4    0    0 -0.10389750811E+02 -0.86272710036E+01 -0.54730153346E+01  0.14571952092E+02  0.10566000000E+00 0. -1.
        -13    1    4    4    0    0 -0.18616081552E+02 -0.17298981249E+02 -0.94195454901E+01  0.27102624336E+02  0.10566000000E+00 0.  1.
        -14    1    4    4    0    0 -0.38658248894E+00 -0.43471626927E+00 -0.36564596575E-01  0.58289040587E+00  0.00000000000E+00 0.  1.
<mgrwt>
<rscale>  0 0.79903265E+02</rscale>
<asrwt>0</asrwt>
<pdfrwt beam="1">  1        2 0.76545932E-02 0.79903265E+02</pdfrwt>
<pdfrwt beam="2">  1       -1 0.49353759E-02 0.79903265E+02</pdfrwt>
<totfact> 0.14976590E+05</totfact>
</mgrwt>
</event>
<event>
 8    1  0.2433467E-020  0.8100179E+02  0.7818608E-02  0.1326232E+00
         -1   -1    0    0    0  501 -0.00000000000E+00  0.00000000000E+00  0.38035931167E+01  0.38035964559E+01  0.50400000000E-02 0.  1.
          2   -1    0    0  501    0  0.00000000000E+00 -0.00000000000E+00 -0.43125583138E+03  0.43125583138E+03  0.25500000000E-02 0. -1.
         24    2    1    2    0    0  0.00000000000E+00  0.00000000000E+00 -0.42745223826E+03  0.43505942784E+03  0.81001788617E+02 0.  0.
         66    2    3    3    0    0 -0.19985840501E+02 -0.94704238909E+01 -0.39593124641E+03  0.39655349530E+03  0.20000012948E+01 0.  0.
        -13    1    3    3    0    0  0.19985840501E+02  0.94704238909E+01 -0.31520991849E+02  0.38505932535E+02  0.10566000000E+00 0.  1.
         13    1    4    4    0    0 -0.14937057580E+02 -0.68433209794E+01 -0.30482798691E+03  0.30527046942E+03  0.10566000000E+00 0. -1.
        -13    1    4    4    0    0 -0.42029555722E+01 -0.24291774210E+01 -0.76459748943E+02  0.76613772332E+02  0.10566000000E+00 0.  1.
         14    1    4    4    0    0 -0.84582734806E+00 -0.19792549044E+00 -0.14643510557E+02  0.14669253554E+02  0.00000000000E+00 0. -1.
<mgrwt>
<rscale>  0 0.81001789E+02</rscale>
<asrwt>0</asrwt>
<pdfrwt beam="1">  1        2 0.66347012E-01 0.81001789E+02</pdfrwt>
<pdfrwt beam="2">  1       -1 0.58516877E-03 0.81001789E+02</pdfrwt>
<totfact> 0.28070530E+05</totfact>
</mgrwt>
</event>
<event>
 8    1  0.2433467E-020  0.7980695E+02  0.7818608E-02  0.1329600E+00
         -1   -1    0    0    0  501 -0.00000000000E+00  0.00000000000E+00  0.36350291634E+02  0.36350291984E+02  0.50400000000E-02 0.  1.
          2   -1    0    0  501    0  0.00000000000E+00 -0.00000000000E+00 -0.43803975579E+02  0.43803975653E+02  0.25500000000E-02 0. -1.
         24    2    1    2    0    0  0.00000000000E+00  0.00000000000E+00 -0.74536839448E+01  0.80154267637E+02  0.79806949673E+02 0.  0.
         66    2    3    3    0    0 -0.33194637583E+02 -0.93719870103E+01 -0.23830378025E+02  0.41971478611E+02  0.19999988060E+01 0.  0.
        -13    1    3    3    0    0  0.33194637583E+02  0.93719870103E+01  0.16376694080E+02  0.38182789026E+02  0.10566000000E+00 0.  1.
         13    1    4    4    0    0 -0.11365583816E+02 -0.28928033587E+01 -0.80359664801E+01  0.14217338993E+02  0.10566000000E+00 0. -1.
        -13    1    4    4    0    0 -0.14990012320E+02 -0.47968396910E+01 -0.10145866223E+02  0.18725915353E+02  0.10566000000E+00 0.  1.
        -14    1    4    4    0    0 -0.68390414475E+01 -0.16823439606E+01 -0.56485453221E+01  0.90282242649E+01  0.00000000000E+00 0.  1.
<mgrwt>
<rscale>  0 0.79806950E+02</rscale>
<asrwt>0</asrwt>
<pdfrwt beam="1">  1        2 0.67390731E-02 0.79806950E+02</pdfrwt>
<pdfrwt beam="2">  1       -1 0.55923526E-02 0.79806950E+02</pdfrwt>
<totfact> 0.14623557E+05</totfact>
</mgrwt>
</event>
<event>
 8    1  0.2433467E-020  0.8007781E+02  0.7818608E-02  0.1328831E+00
         -1   -1    0    0    0  501 -0.00000000000E+00  0.00000000000E+00  0.87223920568E+01  0.87223935129E+01  0.50400000000E-02 0.  1.
          2   -1    0    0  501    0  0.00000000000E+00 -0.00000000000E+00 -0.18379289941E+03  0.18379289943E+03  0.25500000000E-02 0. -1.
         24    2    1    2    0    0  0.00000000000E+00 -0.44408920985E-15 -0.17507050735E+03  0.19251529294E+03  0.80077808856E+02 0.  0.
         66    2    3    3    0    0 -0.39822068390E+02 -0.36596796318E+01 -0.90919641783E+02  0.99345717832E+02  0.20000009023E+01 0.  0.
        -13    1    3    3    0    0  0.39822068390E+02  0.36596796318E+01 -0.84150865570E+02  0.93169575109E+02  0.10566000000E+00 0.  1.
         13    1    4    4    0    0 -0.22047387254E+02 -0.15601338015E+01 -0.49620312574E+02  0.54320418686E+02  0.10566000000E+00 0. -1.
        -13    1    4    4    0    0 -0.74162807881E+01 -0.12657460805E+01 -0.18353301791E+02  0.19835780412E+02  0.10566000000E+00 0.  1.
        -14    1    4    4    0    0 -0.10358400348E+02 -0.83379974971E+00 -0.22946027418E+02  0.25189518734E+02  0.00000000000E+00 0.  1.
<mgrwt>
<rscale>  0 0.80077809E+02</rscale>
<asrwt>0</asrwt>
<pdfrwt beam="1">  1        2 0.28275828E-01 0.80077809E+02</pdfrwt>
<pdfrwt beam="2">  1       -1 0.13419067E-02 0.80077809E+02</pdfrwt>
<totfact> 0.21370989E+05</totfact>
</mgrwt>
</event>
<event>
 8    1  0.2433467E-020  0.7773553E+02  0.7818608E-02  0.1335603E+00
          2   -1    0    0  501    0  0.00000000000E+00  0.00000000000E+00  0.48120199388E+02  0.48120199456E+02  0.25500000000E-02 0. -1.
         -1   -1    0    0    0  501 -0.00000000000E+00 -0.00000000000E+00 -0.31394364383E+02  0.31394364787E+02  0.50400000000E-02 0.  1.
         24    2    1    2    0    0 -0.35527136788E-14  0.00000000000E+00  0.16725835006E+02  0.79514564243E+02  0.77735528365E+02 0.  0.
         66    2    3    3    0    0  0.22149373660E+02 -0.16488784657E+02  0.36310699716E+02  0.45661161715E+02  0.20000005733E+01 0.  0.
        -13    1    3    3    0    0 -0.22149373660E+02  0.16488784657E+02 -0.19584864710E+02  0.33853402528E+02  0.10566000000E+00 0.  1.
         13    1    4    4    0    0  0.14462688745E+02 -0.10511325159E+02  0.23367810424E+02  0.29423171997E+02  0.10566000000E+00 0. -1.
        -13    1    4    4    0    0  0.82985977579E+00 -0.91964811373E+00  0.21936289162E+01  0.25214265324E+01  0.10566000000E+00 0.  1.
        -14    1    4    4    0    0  0.68568251393E+01 -0.50578113841E+01  0.10749260376E+02  0.13716563185E+02  0.00000000000E+00 0.  1.
<mgrwt>
<rscale>  0 0.77735528E+02</rscale>
<asrwt>0</asrwt>
<pdfrwt beam="1">  1        2 0.74031076E-02 0.77735528E+02</pdfrwt>
<pdfrwt beam="2">  1       -1 0.48299023E-02 0.77735528E+02</pdfrwt>
<totfact> 0.16031544E+05</totfact>
</mgrwt>
</event>
<event>
 8    1  0.2433467E-020  0.7978713E+02  0.7818608E-02  0.1329657E+00
         -1   -1    0    0    0  501 -0.00000000000E+00  0.00000000000E+00  0.72722755577E+02  0.72722755752E+02  0.50400000000E-02 0.  1.
          2   -1    0    0  501    0  0.00000000000E+00 -0.00000000000E+00 -0.21884438564E+02  0.21884438713E+02  0.25500000000E-02 0. -1.
         24    2    1    2    0    0  0.00000000000E+00 -0.17763568394E-14  0.50838317013E+02  0.94607194464E+02  0.79787134099E+02 0.  0.
         66    2    3    3    0    0  0.32712649850E+02 -0.12592122075E+02  0.29117751127E+01  0.35230064346E+02  0.20000002302E+01 0.  0.
        -13    1    3    3    0    0 -0.32712649850E+02  0.12592122075E+02  0.47926541901E+02  0.59377130119E+02  0.10566000000E+00 0.  1.
         13    1    4    4    0    0  0.85493731542E+01 -0.27487343979E+01  0.10720223035E+01  0.90447619082E+01  0.10566000000E+00 0. -1.
        -13    1    4    4    0    0  0.77963624242E+01 -0.37414482420E+01  0.84855904270E+00  0.86898169418E+01  0.10566000000E+00 0.  1.
         14    1    4    4    0    0  0.16366914272E+02 -0.61019394347E+01  0.99119376643E+00  0.17495485496E+02  0.00000000000E+00 0. -1.
<mgrwt>
<rscale>  0 0.79787134E+02</rscale>
<asrwt>0</asrwt>
<pdfrwt beam="1">  1        2 0.33668367E-02 0.79787134E+02</pdfrwt>
<pdfrwt beam="2">  1       -1 0.11188116E-01 0.79787134E+02</pdfrwt>
<totfact> 0.12738820E+05</totfact>
</mgrwt>
</event>
<event>
 8    1  0.2433467E-020  0.8033623E+02  0.7818608E-02  0.1328100E+00
         -1   -1    0    0    0  501 -0.00000000000E+00  0.00000000000E+00  0.19740370343E+02  0.19740370986E+02  0.50400000000E-02 0.  1.
          2   -1    0    0  501    0  0.00000000000E+00 -0.00000000000E+00 -0.81734919157E+02  0.81734919197E+02  0.25500000000E-02 0. -1.
         24    2    1    2    0    0 -0.17763568394E-14  0.88817841970E-15 -0.61994548815E+02  0.10147529018E+03  0.80336233637E+02 0.  0.
         66    2    3    3    0    0  0.13213268262E+02 -0.46689914696E+01 -0.78532418304E+02  0.79798061790E+02  0.20000003325E+01 0.  0.
        -13    1    3    3    0    0 -0.13213268262E+02  0.46689914696E+01  0.16537869489E+02  0.21677228393E+02  0.10566000000E+00 0.  1.
         13    1    4    4    0    0  0.78972458376E+01 -0.26860090689E+01 -0.47578410106E+02  0.48304217299E+02  0.10566000000E+00 0. -1.
        -13    1    4    4    0    0  0.60418610106E+00  0.91076562615E-01 -0.23605047939E+01  0.24405906462E+01  0.10566000000E+00 0.  1.
        -14    1    4    4    0    0  0.47118363238E+01 -0.20740589632E+01 -0.28593503404E+02  0.29053253846E+02  0.00000000000E+00 0.  1.
<mgrwt>
<rscale>  0 0.80336234E+02</rscale>
<asrwt>0</asrwt>
<pdfrwt beam="1">  1        2 0.12574603E-01 0.80336234E+02</pdfrwt>
<pdfrwt beam="2">  1       -1 0.30369802E-02 0.80336234E+02</pdfrwt>
<totfact> 0.16599616E+05</totfact>
</mgrwt>
</event>
<event>
 8    1  0.2433467E-020  0.7616714E+02  0.7818608E-02  0.1340294E+00
          2   -1    0    0  501    0  0.00000000000E+00  0.00000000000E+00  0.82718885764E+03  0.82718885764E+03  0.25500000000E-02 0. -1.
         -1   -1    0    0    0  501 -0.00000000000E+00 -0.00000000000E+00 -0.17533544444E+01  0.17533616881E+01  0.50400000000E-02 0.  1.
         24    2    1    2    0    0  0.00000000000E+00  0.00000000000E+00  0.82543550319E+03  0.82894221933E+03  0.76167138947E+02 0.  0.
         66    2    3    3    0    0  0.80928965347E+01  0.15523723091E+02  0.78076229636E+03  0.78096110299E+03  0.20000011244E+01 0.  0.
        -13    1    3    3    0    0 -0.80928965347E+01 -0.15523723091E+02  0.44673206833E+02  0.47981116345E+02  0.10566000000E+00 0.  1.
         13    1    4    4    0    0  0.15079585633E+01  0.25482143776E+01  0.12224353290E+03  0.12227943341E+03  0.10566000000E+00 0. -1.
        -13    1    4    4    0    0  0.25969421051E+01  0.35810326896E+01  0.18454865656E+03  0.18460169475E+03  0.10566000000E+00 0.  1.
         14    1    4    4    0    0  0.39879958663E+01  0.93944760238E+01  0.47397010690E+03  0.47407997482E+03  0.00000000000E+00 0. -1.
<mgrwt>
<rscale>  0 0.76167139E+02</rscale>
<asrwt>0</asrwt>
<pdfrwt beam="1">  1        2 0.12725981E+00 0.76167139E+02</pdfrwt>
<pdfrwt beam="2">  1       -1 0.26974744E-03 0.76167139E+02</pdfrwt>
<totfact> 0.39242080E+05</totfact>
</mgrwt>
</event>
<event>
 8    1  0.2433467E-020  0.7835004E+02  0.7818608E-02  0.1333800E+00
         -1   -1    0    0    0  501 -0.00000000000E+00  0.00000000000E+00  0.20985408229E+01  0.20985468751E+01  0.50400000000E-02 0.  1.
          2   -1    0    0  501    0  0.00000000000E+00 -0.00000000000E+00 -0.73130810656E+03  0.73130810657E+03  0.25500000000E-02 0. -1.
         24    2    1    2    0    0  0.17763568394E-14 -0.35527136788E-14 -0.72920956574E+03  0.73340665344E+03  0.78350038589E+02 0.  0.
         66    2    3    3    0    0 -0.14058939857E+02  0.30643466360E+02 -0.55111644344E+03  0.55215035095E+03  0.19999995705E+01 0.  0.
        -13    1    3    3    0    0  0.14058939857E+02 -0.30643466360E+02 -0.17809312230E+03  0.18125630249E+03  0.10566000000E+00 0.  1.
         13    1    4    4    0    0 -0.14906401449E+01  0.28789171700E+01 -0.47955468512E+02  0.48065042352E+02  0.10566000000E+00 0. -1.
        -13    1    4    4    0    0 -0.23002763756E+01  0.49151422692E+01 -0.99149047130E+02  0.99297505536E+02  0.10566000000E+00 0.  1.
        -14    1    4    4    0    0 -0.10268023336E+02  0.22849406921E+02 -0.40401192780E+03  0.40478780306E+03  0.00000000000E+00 0.  1.
<mgrwt>
<rscale>  0 0.78350039E+02</rscale>
<asrwt>0</asrwt>
<pdfrwt beam="1">  1        2 0.11250874E+00 0.78350039E+02</pdfrwt>
<pdfrwt beam="2">  1       -1 0.32285348E-03 0.78350039E+02</pdfrwt>
<totfact> 0.35653775E+05</totfact>
</mgrwt>
</event>
<event>
 8    1  0.2433467E-020  0.7874010E+02  0.7818608E-02  0.1332665E+00
         -1   -1    0    0    0  501 -0.00000000000E+00  0.00000000000E+00  0.34653890306E+02  0.34653890672E+02  0.50400000000E-02 0.  1.
          2   -1    0    0  501    0  0.00000000000E+00 -0.00000000000E+00 -0.44728051017E+02  0.44728051090E+02  0.25500000000E-02 0. -1.
         24    2    1    2    0    0  0.00000000000E+00  0.35527136788E-14 -0.10074160711E+02  0.79381941762E+02  0.78740103911E+02 0.  0.
         66    2    3    3    0    0 -0.30797854139E+02  0.24382763138E+02 -0.27930047935E+01  0.39431305305E+02  0.20000011106E+01 0.  0.
        -13    1    3    3    0    0  0.30797854139E+02 -0.24382763138E+02 -0.72811559178E+01  0.39950636457E+02  0.10566000000E+00 0.  1.
         13    1    4    4    0    0 -0.54133281182E+00  0.30969218532E+00  0.31137849030E-01  0.63331198003E+00  0.10566000000E+00 0. -1.
        -13    1    4    4    0    0 -0.50327130249E+01  0.40627393195E+01 -0.10364410413E+01  0.65512918754E+01  0.10566000000E+00 0.  1.
         14    1    4    4    0    0 -0.25223808302E+02  0.20010331634E+02 -0.17877016012E+01  0.32246701449E+02  0.00000000000E+00 0. -1.
<mgrwt>
<rscale>  0 0.78740104E+02</rscale>
<asrwt>0</asrwt>
<pdfrwt beam="1">  1        2 0.68812387E-02 0.78740104E+02</pdfrwt>
<pdfrwt beam="2">  1       -1 0.53313677E-02 0.78740104E+02</pdfrwt>
<totfact> 0.15241128E+05</totfact>
</mgrwt>
</event>
<event>
 8    1  0.2433467E-020  0.8099608E+02  0.7818608E-02  0.1326248E+00
         -1   -1    0    0    0  501 -0.00000000000E+00  0.00000000000E+00  0.22531128974E+03  0.22531128979E+03  0.50400000000E-02 0.  1.
          2   -1    0    0  501    0  0.00000000000E+00 -0.00000000000E+00 -0.72792240452E+01  0.72792244918E+01  0.25500000000E-02 0. -1.
         24    2    1    2    0    0  0.00000000000E+00  0.00000000000E+00  0.21803206569E+03  0.23259051428E+03  0.80996084261E+02 0.  0.
         66    2    3    3    0    0  0.39056847747E+02  0.64659862234E+01  0.84912821459E+02  0.93709303594E+02  0.19999995535E+01 0.  0.
        -13    1    3    3    0    0 -0.39056847747E+02 -0.64659862234E+01  0.13311924423E+03  0.13888121069E+03  0.10566000000E+00 0.  1.
         13    1    4    4    0    0  0.29633251532E+02  0.51491412059E+01  0.65023417670E+02  0.71642859107E+02  0.10566000000E+00 0. -1.
        -13    1    4    4    0    0  0.67824118284E+01  0.55678642716E+00  0.14405570814E+02  0.15932443499E+02  0.10566000000E+00 0.  1.
         14    1    4    4    0    0  0.26411843871E+01  0.76005859029E+00  0.54838329745E+01  0.61340009879E+01  0.00000000000E+00 0. -1.
<mgrwt>
<rscale>  0 0.80996084E+02</rscale>
<asrwt>0</asrwt>
<pdfrwt beam="1">  1        2 0.11198807E-02 0.80996084E+02</pdfrwt>
<pdfrwt beam="2">  1       -1 0.34663273E-01 0.80996084E+02</pdfrwt>
<totfact> 0.92954503E+04</totfact>
</mgrwt>
</event>
<event>
 8    1  0.2433467E-020  0.8653624E+02  0.7818608E-02  0.1311463E+00
          2   -1    0    0  501    0  0.00000000000E+00  0.00000000000E+00  0.26497743704E+04  0.26497743704E+04  0.25500000000E-02 0. -1.
         -1   -1    0    0    0  501 -0.00000000000E+00 -0.00000000000E+00 -0.70651544638E+00  0.70653342283E+00  0.50400000000E-02 0.  1.
         24    2    1    2    0    0  0.17763568394E-14  0.88817841970E-15  0.26490678549E+04  0.26504809038E+04  0.86536243201E+02 0.  0.
         66    2    3    3    0    0  0.86254337347E+01 -0.62756015742E+01  0.26088445561E+04  0.26088671294E+04  0.19999999595E+01 0.  0.
        -13    1    3    3    0    0 -0.86254337347E+01  0.62756015742E+01  0.40223298881E+02  0.41613774392E+02  0.10566000000E+00 0.  1.
         13    1    4    4    0    0  0.47733156925E+01 -0.31312814024E+01  0.13483463192E+04  0.13483584083E+04  0.10566000000E+00 0. -1.
        -13    1    4    4    0    0  0.21462672008E+00 -0.18267796824E-01  0.24402396731E+02  0.24403576144E+02  0.10566000000E+00 0. -1.
        -14    1    4    4    0    0  0.36374913222E+01 -0.31260523750E+01  0.12360958401E+04  0.12361051450E+04  0.00000000000E+00 0.  1.
<mgrwt>
<rscale>  0 0.86536243E+02</rscale>
<asrwt>0</asrwt>
<pdfrwt beam="1">  1        2 0.40766172E+00 0.86536243E+02</pdfrwt>
<pdfrwt beam="2">  1       -1 0.10869497E-03 0.86536243E+02</pdfrwt>
<totfact> 0.15404780E+05</totfact>
</mgrwt>
</event>
<event>
 8    1  0.2649386E-020  0.7663885E+02  0.7818608E-02  0.1338870E+00
         -1   -1    0    0    0  501 -0.00000000000E+00  0.00000000000E+00  0.16417295115E+01  0.16417372477E+01  0.50400000000E-02 0.  1.
          2   -1    0    0  501    0  0.00000000000E+00 -0.00000000000E+00 -0.89440727166E+03  0.89440727166E+03  0.25500000000E-02 0. -1.
         24    2    1    2    0    0  0.00000000000E+00  0.00000000000E+00 -0.89276554215E+03  0.89604900891E+03  0.76638848657E+02 0.  0.
         66    2    3    3    0    0  0.12724899807E+02  0.11997380446E+02 -0.84498364632E+03  0.84516697922E+03  0.20000000374E+01 0.  0.
        -13    1    3    3    0    0 -0.12724899807E+02 -0.11997380446E+02 -0.47781895823E+02  0.50882029687E+02  0.10566000000E+00 0.  1.
         13    1    4    4    0    0  0.38598635797E+01  0.32008898276E+01 -0.24838984059E+03  0.24844047238E+03  0.10566000000E+00 0. -1.
        -13    1    4    4    0    0  0.49825094132E+01  0.48334352604E+01 -0.36717640102E+03  0.36724202936E+03  0.10566000000E+00 0.  1.
        -14    1    4    4    0    0  0.38825268137E+01  0.39630553578E+01 -0.22941740471E+03  0.22948447749E+03  0.00000000000E+00 0.  1.
<mgrwt>
<rscale>  0 0.76638849E+02</rscale>
<asrwt>0</asrwt>
<pdfrwt beam="1">  1        2 0.13760073E+00 0.76638849E+02</pdfrwt>
<pdfrwt beam="2">  1       -1 0.25257508E-03 0.76638849E+02</pdfrwt>
<totfact> 0.39030135E+05</totfact>
</mgrwt>
</event>
<event>
 8    1  0.2433467E-020  0.8037044E+02  0.7818608E-02  0.1328003E+00
         -1   -1    0    0    0  501 -0.00000000000E+00  0.00000000000E+00  0.51928497457E+02  0.51928497701E+02  0.50400000000E-02 0.  1.
          2   -1    0    0  501    0  0.00000000000E+00 -0.00000000000E+00 -0.31097607459E+02  0.31097607564E+02  0.25500000000E-02 0. -1.
         24    2    1    2    0    0  0.35527136788E-14  0.00000000000E+00  0.20830889998E+02  0.83026105265E+02  0.80370443431E+02 0.  0.
         66    2    3    3    0    0 -0.29242524643E+02  0.27033784642E+02  0.50643454413E+01  0.40194506522E+02  0.20000000599E+01 0.  0.
        -13    1    3    3    0    0  0.29242524643E+02 -0.27033784642E+02  0.15766544556E+02  0.42831598743E+02  0.10566000000E+00 0.  1.
         13    1    4    4    0    0 -0.39385432669E+01  0.35629130574E+01  0.41793088302E+00  0.53284428099E+01  0.10566000000E+00 0. -1.
        -13    1    4    4    0    0 -0.91261980845E-01  0.20304806120E+00  0.42179033628E-01  0.25000074157E+00  0.10566000000E+00 0.  1.
         14    1    4    4    0    0 -0.25212719395E+02  0.23267823523E+02  0.46042355247E+01  0.34616062971E+02  0.00000000000E+00 0. -1.
<mgrwt>
<rscale>  0 0.80370443E+02</rscale>
<asrwt>0</asrwt>
<pdfrwt beam="1">  1        2 0.47842473E-02 0.80370443E+02</pdfrwt>
<pdfrwt beam="2">  1       -1 0.79889997E-02 0.80370443E+02</pdfrwt>
<totfact> 0.13377039E+05</totfact>
</mgrwt>
</event>
<event>
 8    1  0.2433467E-020  0.7775779E+02  0.7818608E-02  0.1335538E+00
         -1   -1    0    0    0  501 -0.00000000000E+00  0.00000000000E+00  0.24843110276E+02  0.24843110787E+02  0.50400000000E-02 0.  1.
          2   -1    0    0  501    0  0.00000000000E+00 -0.00000000000E+00 -0.60844573539E+02  0.60844573593E+02  0.25500000000E-02 0. -1.
         24    2    1    2    0    0 -0.35527136788E-14  0.00000000000E+00 -0.36001463263E+02  0.85687684380E+02  0.77757789946E+02 0.  0.
         66    2    3    3    0    0 -0.21584122583E+02 -0.17595907861E+02 -0.47869471633E+02  0.55416392570E+02  0.19999824726E+01 0.  0.
        -13    1    3    3    0    0  0.21584122583E+02  0.17595907861E+02  0.11868008370E+02  0.30271291810E+02  0.10566000000E+00 0.  1.
         13    1    4    4    0    0 -0.13536342207E+02 -0.11574773396E+02 -0.29498008324E+02  0.34457968580E+02  0.10566000000E+00 0. -1.
        -13    1    4    4    0    0 -0.70264263297E+00 -0.27878981007E+00 -0.14253503218E+01  0.16168543544E+01  0.10566000000E+00 0.  1.
         14    1    4    4    0    0 -0.73451377433E+01 -0.57423446548E+01 -0.16946112987E+02  0.19341569636E+02  0.00000000000E+00 0. -1.
<mgrwt>
<rscale>  0 0.77757790E+02</rscale>
<asrwt>0</asrwt>
<pdfrwt beam="1">  1        2 0.93607036E-02 0.77757790E+02</pdfrwt>
<pdfrwt beam="2">  1       -1 0.38220170E-02 0.77757790E+02</pdfrwt>
<totfact> 0.16869311E+05</totfact>
</mgrwt>
</event>
<event>
 8    1  0.2433467E-020  0.8000857E+02  0.7818608E-02  0.1329027E+00
          2   -1    0    0  501    0  0.00000000000E+00  0.00000000000E+00  0.57274162426E+03  0.57274162426E+03  0.25500000000E-02 0. -1.
         -1   -1    0    0    0  501 -0.00000000000E+00 -0.00000000000E+00 -0.27941768581E+01  0.27941814036E+01  0.50400000000E-02 0.  1.
         24    2    1    2    0    0  0.00000000000E+00  0.11102230246E-15  0.56994744740E+03  0.57553580567E+03  0.80008567087E+02 0.  0.
         66    2    3    3    0    0 -0.16749378728E+02  0.98014044454E+00  0.54618801357E+03  0.54644931012E+03  0.20000011110E+01 0.  0.
        -13    1    3    3    0    0  0.16749378728E+02 -0.98014044454E+00  0.23759433832E+02  0.29086495545E+02  0.10566000000E+00 0.  1.
         13    1    4    4    0    0 -0.79834333450E+01  0.10253611382E+01  0.25515038610E+03  0.25527733402E+03  0.10566000000E+00 0. -1.
        -13    1    4    4    0    0 -0.10045714417E+01  0.22026147860E+00  0.25859469236E+02  0.25880127358E+02  0.10566000000E+00 0. -1.
         14    1    4    4    0    0 -0.77613739408E+01 -0.26548217226E+00  0.26517815823E+03  0.26529184874E+03  0.00000000000E+00 0. -1.
<mgrwt>
<rscale>  0 0.80008567E+02</rscale>
<asrwt>0</asrwt>
<pdfrwt beam="1">  1        2 0.88114199E-01 0.80008567E+02</pdfrwt>
<pdfrwt beam="2">  1       -1 0.42987321E-03 0.80008567E+02</pdfrwt>
<totfact> 0.31731995E+05</totfact>
</mgrwt>
</event>
<event>
 8    1  0.2433467E-020  0.8084007E+02  0.7818608E-02  0.1326684E+00
         -1   -1    0    0    0  501 -0.00000000000E+00  0.00000000000E+00  0.21850653837E+03  0.21850653843E+03  0.50400000000E-02 0.  1.
          2   -1    0    0  501    0  0.00000000000E+00 -0.00000000000E+00 -0.74770273726E+01  0.74770278075E+01  0.25500000000E-02 0. -1.
         24    2    1    2    0    0  0.71054273576E-14 -0.34694469520E-16  0.21102951100E+03  0.22598356623E+03  0.80840074819E+02 0.  0.
         66    2    3    3    0    0  0.36788381675E+02 -0.50828388132E-01  0.58937444550E+02  0.69505467288E+02  0.20000007943E+01 0.  0.
        -13    1    3    3    0    0 -0.36788381675E+02  0.50828388132E-01  0.15209206645E+03  0.15647809895E+03  0.10566000000E+00 0.  1.
         13    1    4    4    0    0  0.21009650343E+02 -0.50781687140E-01  0.32538161201E+02  0.38731783908E+02  0.10566000000E+00 0. -1.
        -13    1    4    4    0    0  0.26682538878E+01 -0.31240468693E+00  0.40590351498E+01  0.48686862583E+01  0.10566000000E+00 0. -1.
        -14    1    4    4    0    0  0.13110477443E+02  0.31235798594E+00  0.22340248199E+02  0.25904997122E+02  0.00000000000E+00 0.  1.
<mgrwt>
<rscale>  0 0.80840075E+02</rscale>
<asrwt>0</asrwt>
<pdfrwt beam="1">  1        2 0.11503122E-02 0.80840075E+02</pdfrwt>
<pdfrwt beam="2">  1       -1 0.33616384E-01 0.80840075E+02</pdfrwt>
<totfact> 0.94347826E+04</totfact>
</mgrwt>
</event>
<event>
 8    1  0.2433467E-020  0.8418108E+02  0.7818608E-02  0.1317588E+00
         -1   -1    0    0    0  501 -0.00000000000E+00  0.00000000000E+00  0.25562106898E+01  0.25562156584E+01  0.50400000000E-02 0.  1.
          2   -1    0    0  501    0  0.00000000000E+00 -0.00000000000E+00 -0.69306174332E+03  0.69306174332E+03  0.25500000000E-02 0. -1.
         24    2    1    2    0    0  0.00000000000E+00 -0.35527136788E-14 -0.69050553263E+03  0.69561795898E+03  0.84181080219E+02 0.  0.
         66    2    3    3    0    0  0.89953541287E+00  0.25177653296E+02 -0.62382339718E+03  0.62433512977E+03  0.19999991384E+01 0.  0.
        -13    1    3    3    0    0 -0.89953541287E+00 -0.25177653296E+02 -0.66682135443E+02  0.71282829213E+02  0.10566000000E+00 0.  1.
         13    1    4    4    0    0  0.12002805756E+00  0.17789079908E+01 -0.54967296156E+02  0.54996306522E+02  0.10566000000E+00 0. -1.
        -13    1    4    4    0    0  0.63351872138E-01  0.14645701143E+01 -0.42537553904E+02  0.42562937343E+02  0.10566000000E+00 0.  1.
         14    1    4    4    0    0  0.71615548318E+00  0.21934175190E+02 -0.52631854712E+03  0.52677588590E+03  0.00000000000E+00 0. -1.
<mgrwt>
<rscale>  0 0.84181080E+02</rscale>
<asrwt>0</asrwt>
<pdfrwt beam="1">  1        2 0.10662473E+00 0.84181080E+02</pdfrwt>
<pdfrwt beam="2">  1       -1 0.39326412E-03 0.84181080E+02</pdfrwt>
<totfact> 0.29225282E+05</totfact>
</mgrwt>
</event>
<event>
 8    1  0.2433467E-020  0.7926033E+02  0.7818608E-02  0.1331164E+00
         -1   -1    0    0    0  501 -0.00000000000E+00  0.00000000000E+00  0.22904873303E+02  0.22904873857E+02  0.50400000000E-02 0.  1.
          2   -1    0    0  501    0  0.00000000000E+00 -0.00000000000E+00 -0.68568375317E+02  0.68568375364E+02  0.25500000000E-02 0. -1.
         24    2    1    2    0    0  0.00000000000E+00  0.00000000000E+00 -0.45663502014E+02  0.91473249221E+02  0.79260329969E+02 0.  0.
         66    2    3    3    0    0  0.86983033856E+01 -0.17429804691E+02 -0.62642754006E+02  0.65632104982E+02  0.20000003832E+01 0.  0.
        -13    1    3    3    0    0 -0.86983033856E+01  0.17429804691E+02  0.16979251992E+02  0.25841144239E+02  0.10566000000E+00 0.  1.
         13    1    4    4    0    0  0.57494890717E+01 -0.98559935313E+01 -0.36079251324E+02  0.37840729026E+02  0.10566000000E+00 0. -1.
        -13    1    4    4    0    0  0.14135089675E+01 -0.40342937074E+01 -0.15246854018E+02  0.15835127243E+02  0.10566000000E+00 0.  1.
         14    1    4    4    0    0  0.15353053464E+01 -0.35395174522E+01 -0.11316648664E+02  0.11956248713E+02  0.00000000000E+00 0. -1.
<mgrwt>
<rscale>  0 0.79260330E+02</rscale>
<asrwt>0</asrwt>
<pdfrwt beam="1">  1        2 0.10548981E-01 0.79260330E+02</pdfrwt>
<pdfrwt beam="2">  1       -1 0.35238267E-02 0.79260330E+02</pdfrwt>
<totfact> 0.16474633E+05</totfact>
</mgrwt>
</event>
<event>
 8    1  0.2433467E-020  0.8035045E+02  0.7818608E-02  0.1328060E+00
          2   -1    0    0  501    0  0.00000000000E+00  0.00000000000E+00  0.14182443952E+03  0.14182443955E+03  0.25500000000E-02 0. -1.
         -1   -1    0    0    0  501 -0.00000000000E+00 -0.00000000000E+00 -0.11380608846E+02  0.11380609962E+02  0.50400000000E-02 0.  1.
         24    2    1    2    0    0  0.00000000000E+00 -0.35527136788E-14  0.13044383068E+03  0.15320504951E+03  0.80350446377E+02 0.  0.
         66    2    3    3    0    0  0.16082347223E+02  0.21098875286E+02  0.12272476184E+03  0.12557536225E+03  0.20000007447E+01 0.  0.
        -13    1    3    3    0    0 -0.16082347223E+02 -0.21098875286E+02  0.77190688332E+01  0.27629687262E+02  0.10566000000E+00 0.  1.
         13    1    4    4    0    0  0.10269530109E+02  0.13039802950E+02  0.75231450293E+02  0.77040781323E+02  0.10566000000E+00 0. -1.
        -13    1    4    4    0    0  0.38311648115E+01  0.44148146557E+01  0.28534647442E+02  0.29127404294E+02  0.10566000000E+00 0.  1.
        -14    1    4    4    0    0  0.19816523020E+01  0.36442576804E+01  0.18958664109E+02  0.19407176629E+02  0.00000000000E+00 0.  1.
<mgrwt>
<rscale>  0 0.80350446E+02</rscale>
<asrwt>0</asrwt>
<pdfrwt beam="1">  1        2 0.21819144E-01 0.80350446E+02</pdfrwt>
<pdfrwt beam="2">  1       -1 0.17508631E-02 0.80350446E+02</pdfrwt>
<totfact> 0.19447318E+05</totfact>
</mgrwt>
</event>
<event>
 8    1  0.2744046E-020  0.7843276E+02  0.7818608E-02  0.1333559E+00
         -1   -1    0    0    0  501 -0.00000000000E+00  0.00000000000E+00  0.16153570680E+01  0.16153649305E+01  0.50400000000E-02 0.  1.
          2   -1    0    0  501    0  0.00000000000E+00 -0.00000000000E+00 -0.95206238464E+03  0.95206238465E+03  0.25500000000E-02 0. -1.
         24    2    1    2    0    0  0.00000000000E+00 -0.17763568394E-14 -0.95044702758E+03  0.95367774958E+03  0.78432759813E+02 0.  0.
         66    2    3    3    0    0 -0.28422108467E+02 -0.12990108186E+02 -0.76310590415E+03  0.76374811300E+03  0.20000001588E+01 0.  0.
        -13    1    3    3    0    0  0.28422108467E+02  0.12990108186E+02 -0.18734112343E+03  0.18992963658E+03  0.10566000000E+00 0.  1.
         13    1    4    4    0    0 -0.22162606199E+02 -0.99056020088E+01 -0.59093320718E+03  0.59143162629E+03  0.10566000000E+00 0. -1.
        -13    1    4    4    0    0 -0.53867137099E+01 -0.23247621666E+01 -0.14748772078E+03  0.14760440423E+03  0.10566000000E+00 0.  1.
        -14    1    4    4    0    0 -0.87278855857E+00 -0.75974401093E+00 -0.24684976191E+02  0.24712082478E+02  0.00000000000E+00 0.  1.
<mgrwt>
<rscale>  0 0.78432760E+02</rscale>
<asrwt>0</asrwt>
<pdfrwt beam="1">  1        2 0.14647069E+00 0.78432760E+02</pdfrwt>
<pdfrwt beam="2">  1       -1 0.24851784E-03 0.78432760E+02</pdfrwt>
<totfact> 0.36979382E+05</totfact>
</mgrwt>
</event>
<event>
 8    1  0.2433467E-020  0.8083729E+02  0.7818608E-02  0.1326692E+00
         -1   -1    0    0    0  501 -0.00000000000E+00  0.00000000000E+00  0.35952111406E+02  0.35952111760E+02  0.50400000000E-02 0.  1.
          2   -1    0    0  501    0  0.00000000000E+00 -0.00000000000E+00 -0.45440077546E+02  0.45440077618E+02  0.25500000000E-02 0. -1.
         24    2    1    2    0    0  0.00000000000E+00  0.00000000000E+00 -0.94879661400E+01  0.81392189378E+02  0.80837287128E+02 0.  0.
         66    2    3    3    0    0  0.14772671957E+02 -0.32980002030E+02 -0.22919302170E+02  0.42839312413E+02  0.19999763555E+01 0.  0.
        -13    1    3    3    0    0 -0.14772671957E+02  0.32980002030E+02  0.13431336030E+02  0.38552876964E+02  0.10566000000E+00 0.  1.
         13    1    4    4    0    0  0.91925659432E+00 -0.20352592647E+01 -0.18652650529E+01  0.29116474227E+01  0.10566000000E+00 0.  1.
        -13    1    4    4    0    0  0.35575717051E+01 -0.91883879235E+01 -0.58998820224E+01  0.11484884021E+02  0.10566000000E+00 0.  1.
         14    1    4    4    0    0  0.10295843658E+02 -0.21756354842E+02 -0.15154155095E+02  0.28442780969E+02  0.00000000000E+00 0. -1.
<mgrwt>
<rscale>  0 0.80837287E+02</rscale>
<asrwt>0</asrwt>
<pdfrwt beam="1">  1        2 0.69907812E-02 0.80837287E+02</pdfrwt>
<pdfrwt beam="2">  1       -1 0.55310941E-02 0.80837287E+02</pdfrwt>
<totfact> 0.14225884E+05</totfact>
</mgrwt>
</event>
<event>
 8    1  0.2433467E-020  0.8464691E+02  0.7818608E-02  0.1316359E+00
          2   -1    0    0  501    0  0.00000000000E+00  0.00000000000E+00  0.17029701306E+03  0.17029701308E+03  0.25500000000E-02 0. -1.
         -1   -1    0    0    0  501 -0.00000000000E+00 -0.00000000000E+00 -0.10518531677E+02  0.10518532885E+02  0.50400000000E-02 0.  1.
         24    2    1    2    0    0 -0.88817841970E-15 -0.35527136788E-14  0.15977848138E+03  0.18081554596E+03  0.84646905136E+02 0.  0.
         66    2    3    3    0    0 -0.69645780026E+01 -0.13771468975E+02  0.16406278933E+03  0.16479914302E+03  0.19999988613E+01 0.  0.
        -13    1    3    3    0    0  0.69645780026E+01  0.13771468975E+02 -0.42843079447E+01  0.16016402938E+02  0.10566000000E+00 0.  1.
         13    1    4    4    0    0 -0.70188114824E+00 -0.16334527620E+01  0.24382853894E+02  0.24447812441E+02  0.10566000000E+00 0. -1.
        -13    1    4    4    0    0 -0.11813639074E+01 -0.30867169319E+01  0.30255973234E+02  0.30436138429E+02  0.10566000000E+00 0.  1.
        -14    1    4    4    0    0 -0.50813329469E+01 -0.90512992812E+01  0.10942396220E+03  0.10991519215E+03  0.00000000000E+00 0.  1.
<mgrwt>
<rscale>  0 0.84646905E+02</rscale>
<asrwt>0</asrwt>
<pdfrwt beam="1">  1        2 0.26199541E-01 0.84646905E+02</pdfrwt>
<pdfrwt beam="2">  1       -1 0.16182357E-02 0.84646905E+02</pdfrwt>
<totfact> 0.17974809E+05</totfact>
</mgrwt>
</event>
<event>
 8    1  0.2433467E-020  0.8412784E+02  0.7818608E-02  0.1317729E+00
         -1   -1    0    0    0  501 -0.00000000000E+00  0.00000000000E+00  0.16459892038E+02  0.16459892810E+02  0.50400000000E-02 0.  1.
          2   -1    0    0  501    0  0.00000000000E+00 -0.00000000000E+00 -0.10749603692E+03  0.10749603695E+03  0.25500000000E-02 0. -1.
         24    2    1    2    0    0 -0.35527136788E-14 -0.71054273576E-14 -0.91036144879E+02  0.12395592976E+03  0.84127836341E+02 0.  0.
         66    2    3    3    0    0  0.16762245482E+02  0.38194390553E+02 -0.37805256386E+02  0.56329581363E+02  0.19999956963E+01 0.  0.
        -13    1    3    3    0    0 -0.16762245482E+02 -0.38194390553E+02 -0.53230888492E+02  0.67626348393E+02  0.10566000000E+00 0.  1.
         13    1    4    4    0    0  0.89227544466E+00  0.14917160918E+01 -0.15150162585E+01  0.23082050747E+01  0.10566000000E+00 0. -1.
        -13    1    4    4    0    0  0.30065953852E+01  0.85508071468E+01 -0.83346120498E+01  0.12313928728E+02  0.10566000000E+00 0.  1.
         14    1    4    4    0    0  0.12863374652E+02  0.28151867314E+02 -0.27955628078E+02  0.41707447560E+02  0.00000000000E+00 0. -1.
<mgrwt>
<rscale>  0 0.84127836E+02</rscale>
<asrwt>0</asrwt>
<pdfrwt beam="1">  1        2 0.16537851E-01 0.84127836E+02</pdfrwt>
<pdfrwt beam="2">  1       -1 0.25322912E-02 0.84127836E+02</pdfrwt>
<totfact> 0.15809404E+05</totfact>
</mgrwt>
</event>
<event>
 8    1  0.2433467E-020  0.8062219E+02  0.7818608E-02  0.1327295E+00
          2   -1    0    0  501    0  0.00000000000E+00  0.00000000000E+00  0.27337871203E+01  0.27337883095E+01  0.25500000000E-02 0. -1.
         -1   -1    0    0    0  501 -0.00000000000E+00 -0.00000000000E+00 -0.59440765341E+03  0.59440765343E+03  0.50400000000E-02 0.  1.
         24    2    1    2    0    0  0.00000000000E+00  0.00000000000E+00 -0.59167386628E+03  0.59714144174E+03  0.80622189217E+02 0.  0.
         66    2    3    3    0    0  0.28185029349E+02 -0.21809749920E+02 -0.43516095373E+03  0.43662239604E+03  0.20000002226E+01 0.  0.
        -13    1    3    3    0    0 -0.28185029349E+02  0.21809749920E+02 -0.15651291256E+03  0.16051904570E+03  0.10566000000E+00 0.  1.
         13    1    4    4    0    0  0.18231375404E+02 -0.13461430267E+02 -0.26785727175E+03  0.26881428970E+03  0.10566000000E+00 0. -1.
        -13    1    4    4    0    0  0.55757703177E+00 -0.41591538839E+00 -0.85582647277E+01  0.85871378783E+01  0.10566000000E+00 0. -1.
         14    1    4    4    0    0  0.93960769137E+01 -0.79324042645E+01 -0.15874541725E+03  0.15922096845E+03  0.00000000000E+00 0. -1.
<mgrwt>
<rscale>  0 0.80622189E+02</rscale>
<asrwt>0</asrwt>
<pdfrwt beam="1">  1        2 0.42058320E-03 0.80622189E+02</pdfrwt>
<pdfrwt beam="2">  1       -1 0.91447229E-01 0.80622189E+02</pdfrwt>
<totfact> 0.58243924E+04</totfact>
</mgrwt>
</event>
<event>
 8    1  0.2549137E-020  0.8217493E+02  0.7818608E-02  0.1322990E+00
         -1   -1    0    0    0  501 -0.00000000000E+00  0.00000000000E+00  0.13360801660E+01  0.13360896720E+01  0.50400000000E-02 0.  1.
          2   -1    0    0  501    0  0.00000000000E+00 -0.00000000000E+00 -0.12635273949E+04  0.12635273949E+04  0.25500000000E-02 0. -1.
         24    2    1    2    0    0  0.00000000000E+00  0.00000000000E+00 -0.12621913147E+04  0.12648634846E+04  0.82174933041E+02 0.  0.
         66    2    3    3    0    0  0.14827720841E+02 -0.41664362541E+01 -0.12173794540E+04  0.12174785237E+04  0.19999995310E+01 0.  0.
        -13    1    3    3    0    0 -0.14827720841E+02  0.41664362541E+01 -0.44811860685E+02  0.47384960889E+02  0.10566000000E+00 0.  1.
         13    1    4    4    0    0  0.79021073710E+01 -0.22467033954E+01 -0.67974427449E+03  0.67979392527E+03  0.10566000000E+00 0. -1.
        -13    1    4    4    0    0  0.66469703280E+01 -0.16039221347E+01 -0.51605956728E+03  0.51610487589E+03  0.10566000000E+00 0.  1.
        -14    1    4    4    0    0  0.27864314149E+00 -0.31581072393E+00 -0.21575612284E+02  0.21579722516E+02  0.00000000000E+00 0.  1.
<mgrwt>
<rscale>  0 0.82174933E+02</rscale>
<asrwt>0</asrwt>
<pdfrwt beam="1">  1        2 0.19438788E+00 0.82174933E+02</pdfrwt>
<pdfrwt beam="2">  1       -1 0.20555254E-03 0.82174933E+02</pdfrwt>
<totfact> 0.32448806E+05</totfact>
</mgrwt>
</event>
<event>
 8    1  0.2433467E-020  0.7856720E+02  0.7818608E-02  0.1333167E+00
          2   -1    0    0  501    0  0.00000000000E+00  0.00000000000E+00  0.83091981468E+03  0.83091981469E+03  0.25500000000E-02 0. -1.
         -1   -1    0    0    0  501 -0.00000000000E+00 -0.00000000000E+00 -0.18572168427E+01  0.18572236813E+01  0.50400000000E-02 0.  1.
         24    2    1    2    0    0  0.00000000000E+00  0.00000000000E+00  0.82906259784E+03  0.83277703837E+03  0.78567197326E+02 0.  0.
         66    2    3    3    0    0 -0.30646615426E+02 -0.13586236943E+02  0.63135070179E+03  0.63224323604E+03  0.19999999018E+01 0.  0.
        -13    1    3    3    0    0  0.30646615426E+02  0.13586236943E+02  0.19771189605E+03  0.20053380233E+03  0.10566000000E+00 0.  1.
         13    1    4    4    0    0 -0.21737476480E+02 -0.93447510172E+01  0.44849156316E+03  0.44911528102E+03  0.10566000000E+00 0. -1.
        -13    1    4    4    0    0 -0.68073353613E+01 -0.36845047085E+01  0.14466993210E+03  0.14487689881E+03  0.10566000000E+00 0.  1.
         14    1    4    4    0    0 -0.21018035843E+01 -0.55698121731E+00  0.38189206528E+02  0.38251056216E+02  0.00000000000E+00 0. -1.
<mgrwt>
<rscale>  0 0.78567197E+02</rscale>
<asrwt>0</asrwt>
<pdfrwt beam="1">  1        2 0.12783398E+00 0.78567197E+02</pdfrwt>
<pdfrwt beam="2">  1       -1 0.28572584E-03 0.78567197E+02</pdfrwt>
<totfact> 0.36239234E+05</totfact>
</mgrwt>
</event>
<event>
 8    1  0.2433467E-020  0.7914037E+02  0.7818608E-02  0.1331509E+00
          2   -1    0    0  501    0  0.00000000000E+00  0.00000000000E+00  0.87512403505E+01  0.87512407220E+01  0.25500000000E-02 0. -1.
         -1   -1    0    0    0  501 -0.00000000000E+00 -0.00000000000E+00 -0.17892314179E+03  0.17892314186E+03  0.50400000000E-02 0.  1.
         24    2    1    2    0    0  0.00000000000E+00 -0.35527136788E-14 -0.17017190144E+03  0.18767438258E+03  0.79140367944E+02 0.  0.
         66    2    3    3    0    0  0.24223101965E+02 -0.30346008678E+02 -0.67369483032E+02  0.77783585397E+02  0.20000004530E+01 0.  0.
        -13    1    3    3    0    0 -0.24223101965E+02  0.30346008678E+02 -0.10280241841E+03  0.10989079719E+03  0.10566000000E+00 0.  1.
         13    1    4    4    0    0  0.15624984289E+02 -0.20894584056E+02 -0.45062004007E+02  0.52070328845E+02  0.10566000000E+00 0. -1.
        -13    1    4    4    0    0  0.13440098040E+01 -0.15453368271E+01 -0.32540544808E+01  0.38463570898E+01  0.10566000000E+00 0.  1.
         14    1    4    4    0    0  0.72541078718E+01 -0.79060877956E+01 -0.19053424544E+02  0.21866899462E+02  0.00000000000E+00 0. -1.
<mgrwt>
<rscale>  0 0.79140368E+02</rscale>
<asrwt>0</asrwt>
<pdfrwt beam="1">  1        2 0.13463448E-02 0.79140368E+02</pdfrwt>
<pdfrwt beam="2">  1       -1 0.27526635E-01 0.79140368E+02</pdfrwt>
<totfact> 0.10575931E+05</totfact>
</mgrwt>
</event>
<event>
 8    1  0.2433467E-020  0.7823983E+02  0.7818608E-02  0.1334122E+00
         -1   -1    0    0    0  501 -0.00000000000E+00  0.00000000000E+00  0.36619476499E+01  0.36619511182E+01  0.50400000000E-02 0.  1.
          2   -1    0    0  501    0  0.00000000000E+00 -0.00000000000E+00 -0.41791069152E+03  0.41791069153E+03  0.25500000000E-02 0. -1.
         24    2    1    2    0    0  0.00000000000E+00  0.00000000000E+00 -0.41424874387E+03  0.42157264265E+03  0.78239831477E+02 0.  0.
         66    2    3    3    0    0 -0.21767874992E+01  0.34421877962E+02 -0.30643150501E+03  0.30837294192E+03  0.19999889797E+01 0.  0.
        -13    1    3    3    0    0  0.21767874992E+01 -0.34421877962E+02 -0.10781723886E+03  0.11319970073E+03  0.10566000000E+00 0.  1.
         13    1    4    4    0    0 -0.15082668404E+01  0.11026142855E+02 -0.99013005615E+02  0.99636525130E+02  0.10566000000E+00 0. -1.
        -13    1    4    4    0    0 -0.53017878042E-01  0.13021113802E+01 -0.13027694692E+02  0.13093139348E+02  0.10566000000E+00 0. -1.
        -14    1    4    4    0    0 -0.61550278070E+00  0.22093623727E+02 -0.19439080471E+03  0.19564327744E+03  0.00000000000E+00 0.  1.
<mgrwt>
<rscale>  0 0.78239831E+02</rscale>
<asrwt>0</asrwt>
<pdfrwt beam="1">  1        2 0.64293915E-01 0.78239831E+02</pdfrwt>
<pdfrwt beam="2">  1       -1 0.56337716E-03 0.78239831E+02</pdfrwt>
<totfact> 0.30400490E+05</totfact>
</mgrwt>
</event>
<event>
 8    1  0.2433467E-020  0.7980600E+02  0.7818608E-02  0.1329603E+00
         -1   -1    0    0    0  501 -0.00000000000E+00  0.00000000000E+00  0.16781629652E+02  0.16781630408E+02  0.50400000000E-02 0.  1.
          2   -1    0    0  501    0  0.00000000000E+00 -0.00000000000E+00 -0.94880491858E+02  0.94880491892E+02  0.25500000000E-02 0. -1.
         24    2    1    2    0    0  0.00000000000E+00  0.00000000000E+00 -0.78098862206E+02  0.11166212230E+03  0.79805997762E+02 0.  0.
         66    2    3    3    0    0 -0.18582510806E+02  0.10914547798E+02 -0.86020296188E+02  0.88701343964E+02  0.20000008145E+01 0.  0.
        -13    1    3    3    0    0  0.18582510806E+02 -0.10914547798E+02  0.79214339812E+01  0.22960778337E+02  0.10566000000E+00 0.  1.
         13    1    4    4    0    0 -0.76906959822E+01  0.39980937196E+01 -0.33671560721E+02  0.34769479770E+02  0.10566000000E+00 0. -1.
        -13    1    4    4    0    0 -0.98581427583E+01  0.65987300753E+01 -0.48846830564E+02  0.50266790602E+02  0.10566000000E+00 0.  1.
        -14    1    4    4    0    0 -0.10336720659E+01  0.31772400261E+00 -0.35019049028E+01  0.36650735914E+01  0.00000000000E+00 0.  1.
<mgrwt>
<rscale>  0 0.79805998E+02</rscale>
<asrwt>0</asrwt>
<pdfrwt beam="1">  1        2 0.14596998E-01 0.79805998E+02</pdfrwt>
<pdfrwt beam="2">  1       -1 0.25817893E-02 0.79805998E+02</pdfrwt>
<totfact> 0.17583687E+05</totfact>
</mgrwt>
</event>
<event>
 8    1  0.2433467E-020  0.7981255E+02  0.7818608E-02  0.1329584E+00
          2   -1    0    0  501    0  0.00000000000E+00  0.00000000000E+00  0.19353808751E+04  0.19353808751E+04  0.25500000000E-02 0. -1.
         -1   -1    0    0    0  501 -0.00000000000E+00 -0.00000000000E+00 -0.82283339775E+00  0.82284883305E+00  0.50400000000E-02 0.  1.
         24    2    1    2    0    0  0.17763568394E-14 -0.17763568394E-14  0.19345580417E+04  0.19362037239E+04  0.79812554550E+02 0.  0.
         66    2    3    3    0    0  0.14391492361E+02 -0.87675078093E+01  0.18447606778E+04  0.18448387308E+04  0.19999998237E+01 0.  0.
        -13    1    3    3    0    0 -0.14391492361E+02  0.87675078093E+01  0.89797363908E+02  0.91364993157E+02  0.10566000000E+00 0.  1.
         13    1    4    4    0    0  0.31118471682E+01 -0.21638433124E+01  0.37163682210E+03  0.37165616437E+03  0.10566000000E+00 0. -1.
        -13    1    4    4    0    0  0.46323202981E+01 -0.34789070603E+01  0.68214426757E+03  0.68216887508E+03  0.10566000000E+00 0. -1.
         14    1    4    4    0    0  0.66473248947E+01 -0.31247574366E+01  0.79097958810E+03  0.79101369130E+03  0.00000000000E+00 0. -1.
<mgrwt>
<rscale>  0 0.79812555E+02</rscale>
<asrwt>0</asrwt>
<pdfrwt beam="1">  1        2 0.29775389E+00 0.79812555E+02</pdfrwt>
<pdfrwt beam="2">  1       -1 0.12658967E-03 0.79812555E+02</pdfrwt>
<totfact> 0.28757614E+05</totfact>
</mgrwt>
</event>
<event>
 8    1  0.2433467E-020  0.8063277E+02  0.7818608E-02  0.1327265E+00
         -1   -1    0    0    0  501 -0.00000000000E+00  0.00000000000E+00  0.21247166775E+01  0.21247226551E+01  0.50400000000E-02 0.  1.
          2   -1    0    0  501    0  0.00000000000E+00 -0.00000000000E+00 -0.76500016534E+03  0.76500016535E+03  0.25500000000E-02 0. -1.
         24    2    1    2    0    0 -0.17763568394E-14  0.00000000000E+00 -0.76287544867E+03  0.76712488800E+03  0.80632770113E+02 0.  0.
         66    2    3    3    0    0 -0.11164921739E+02 -0.23600096707E+02 -0.67363660001E+03  0.67414530252E+03  0.20000006636E+01 0.  0.
        -13    1    3    3    0    0  0.11164921739E+02  0.23600096707E+02 -0.89238848661E+02  0.92979585482E+02  0.10566000000E+00 0.  1.
         13    1    4    4    0    0 -0.15882893127E+01 -0.39128018081E+01 -0.96245856214E+02  0.96338510905E+02  0.10566000000E+00 0. -1.
        -13    1    4    4    0    0 -0.36678558261E+01 -0.82244881273E+01 -0.24994704757E+03  0.25010924239E+03  0.10566000000E+00 0.  1.
         14    1    4    4    0    0 -0.59087766006E+01 -0.11462806772E+02 -0.32744369622E+03  0.32769754923E+03  0.00000000000E+00 0. -1.
<mgrwt>
<rscale>  0 0.80632770E+02</rscale>
<asrwt>0</asrwt>
<pdfrwt beam="1">  1        2 0.11769211E+00 0.80632770E+02</pdfrwt>
<pdfrwt beam="2">  1       -1 0.32688056E-03 0.80632770E+02</pdfrwt>
<totfact> 0.33394756E+05</totfact>
</mgrwt>
</event>
<event>
 8    1  0.2433467E-020  0.7929548E+02  0.7818608E-02  0.1331063E+00
         -1   -1    0    0    0  501 -0.00000000000E+00  0.00000000000E+00  0.66690960111E+02  0.66690960301E+02  0.50400000000E-02 0.  1.
          2   -1    0    0  501    0  0.00000000000E+00 -0.00000000000E+00 -0.23570557001E+02  0.23570557139E+02  0.25500000000E-02 0. -1.
         24    2    1    2    0    0 -0.35527136788E-14  0.35527136788E-14  0.43120403110E+02  0.90261517440E+02  0.79295475068E+02 0.  0.
         66    2    3    3    0    0  0.28779139600E+02 -0.11483155763E+02 -0.65361244798E+01  0.31730468938E+02  0.19999983600E+01 0.  0.
        -13    1    3    3    0    0 -0.28779139600E+02  0.11483155763E+02  0.49656527590E+02  0.58531048502E+02  0.10566000000E+00 0.  1.
         13    1    4    4    0    0  0.19897674801E+02 -0.87251698071E+01 -0.44140113093E+01  0.22170717411E+02  0.10566000000E+00 0. -1.
        -13    1    4    4    0    0  0.30794467713E+01 -0.97564569862E+00 -0.44365269751E+00  0.32623409843E+01  0.10566000000E+00 0.  1.
        -14    1    4    4    0    0  0.58020180282E+01 -0.17823402572E+01 -0.16784604730E+01  0.62974105434E+01  0.00000000000E+00 0.  1.
<mgrwt>
<rscale>  0 0.79295475E+02</rscale>
<asrwt>0</asrwt>
<pdfrwt beam="1">  1        2 0.36262395E-02 0.79295475E+02</pdfrwt>
<pdfrwt beam="2">  1       -1 0.10260148E-01 0.79295475E+02</pdfrwt>
<totfact> 0.13156509E+05</totfact>
</mgrwt>
</event>
<event>
 8    1  0.2433467E-020  0.7987228E+02  0.7818608E-02  0.1329414E+00
          2   -1    0    0  501    0  0.00000000000E+00  0.00000000000E+00  0.16991602666E+02  0.16991602858E+02  0.25500000000E-02 0. -1.
         -1   -1    0    0    0  501 -0.00000000000E+00 -0.00000000000E+00 -0.93863741496E+02  0.93863741631E+02  0.50400000000E-02 0.  1.
         24    2    1    2    0    0  0.00000000000E+00  0.00000000000E+00 -0.76872138829E+02  0.11085534449E+03  0.79872283513E+02 0.  0.
         66    2    3    3    0    0  0.38463122234E+02 -0.87348827062E+01 -0.29997221127E+02  0.49593782139E+02  0.20000009227E+01 0.  0.
        -13    1    3    3    0    0 -0.38463122234E+02  0.87348827062E+01 -0.46874917702E+02  0.61261562349E+02  0.10566000000E+00 0.  1.
         13    1    4    4    0    0  0.19665871260E+02 -0.41526335826E+01 -0.15667545087E+02  0.25484779599E+02  0.10566000000E+00 0. -1.
        -13    1    4    4    0    0  0.83871086659E+01 -0.14145033755E+01 -0.61923194660E+01  0.10521425568E+02  0.10566000000E+00 0.  1.
         14    1    4    4    0    0  0.10410142307E+02 -0.31677457481E+01 -0.81373565736E+01  0.13587576973E+02  0.00000000000E+00 0. -1.
<mgrwt>
<rscale>  0 0.79872284E+02</rscale>
<asrwt>0</asrwt>
<pdfrwt beam="1">  1        2 0.26140928E-02 0.79872284E+02</pdfrwt>
<pdfrwt beam="2">  1       -1 0.14440575E-01 0.79872284E+02</pdfrwt>
<totfact> 0.12061207E+05</totfact>
</mgrwt>
</event>
<event>
 8    1  0.2433467E-020  0.7971721E+02  0.7818608E-02  0.1329856E+00
          2   -1    0    0  501    0  0.00000000000E+00  0.00000000000E+00  0.16043618671E+02  0.16043618873E+02  0.25500000000E-02 0. -1.
         -1   -1    0    0    0  501 -0.00000000000E+00 -0.00000000000E+00 -0.99024304206E+02  0.99024304334E+02  0.50400000000E-02 0.  1.
         24    2    1    2    0    0 -0.71054273576E-14  0.00000000000E+00 -0.82980685535E+02  0.11506792321E+03  0.79717205040E+02 0.  0.
         66    2    3    3    0    0 -0.36780829324E+02  0.37783980219E+01 -0.20126131480E+02  0.42144594794E+02  0.20000011568E+01 0.  0.
        -13    1    3    3    0    0  0.36780829324E+02 -0.37783980219E+01 -0.62854554056E+02  0.72923328414E+02  0.10566000000E+00 0.  1.
         13    1    4    4    0    0 -0.21041843467E+01  0.72114328938E-01 -0.11235964678E+01  0.23888125291E+01  0.10566000000E+00 0. -1.
        -13    1    4    4    0    0 -0.24382871685E+02  0.21029394336E+01 -0.14060943478E+02  0.28225309234E+02  0.10566000000E+00 0.  1.
        -14    1    4    4    0    0 -0.10293773293E+02  0.16033442593E+01 -0.49415915340E+01  0.11530473031E+02  0.00000000000E+00 0.  1.
<mgrwt>
<rscale>  0 0.79717205E+02</rscale>
<asrwt>0</asrwt>
<pdfrwt beam="1">  1        2 0.24682491E-02 0.79717205E+02</pdfrwt>
<pdfrwt beam="2">  1       -1 0.15234508E-01 0.79717205E+02</pdfrwt>
<totfact> 0.11983156E+05</totfact>
</mgrwt>
</event>
<event>
 8    1  0.2433467E-020  0.7927698E+02  0.7818608E-02  0.1331116E+00
         -1   -1    0    0    0  501 -0.00000000000E+00  0.00000000000E+00  0.82781608009E+01  0.82781623352E+01  0.50400000000E-02 0.  1.
          2   -1    0    0  501    0  0.00000000000E+00 -0.00000000000E+00 -0.18980180367E+03  0.18980180369E+03  0.25500000000E-02 0. -1.
         24    2    1    2    0    0  0.00000000000E+00 -0.17763568394E-14 -0.18152364287E+03  0.19807996602E+03  0.79276982908E+02 0.  0.
         66    2    3    3    0    0  0.26557892138E+02  0.13687661823E+02 -0.15580805755E+03  0.15865946104E+03  0.20000144332E+01 0.  0.
        -13    1    3    3    0    0 -0.26557892138E+02 -0.13687661823E+02 -0.25715585318E+02  0.39420504985E+02  0.10566000000E+00 0.  1.
         13    1    4    4    0    0  0.94633092917E+01  0.50458129915E+01 -0.58353637419E+02  0.59331042597E+02  0.10566000000E+00 0. -1.
        -13    1    4    4    0    0  0.86959778757E+01  0.42594671911E+01 -0.52713015528E+02  0.53595114162E+02  0.10566000000E+00 0.  1.
         14    1    4    4    0    0  0.83986049705E+01  0.43823816406E+01 -0.44741404605E+02  0.45733304280E+02  0.00000000000E+00 0. -1.
<mgrwt>
<rscale>  0 0.79276983E+02</rscale>
<asrwt>0</asrwt>
<pdfrwt beam="1">  1        2 0.29200274E-01 0.79276983E+02</pdfrwt>
<pdfrwt beam="2">  1       -1 0.12735635E-02 0.79276983E+02</pdfrwt>
<totfact> 0.22188769E+05</totfact>
</mgrwt>
</event>
<event>
 8    1  0.2433467E-020  0.7905471E+02  0.7818608E-02  0.1331756E+00
         -1   -1    0    0    0  501 -0.00000000000E+00  0.00000000000E+00  0.83730611465E+01  0.83730626634E+01  0.50400000000E-02 0.  1.
          2   -1    0    0  501    0  0.00000000000E+00 -0.00000000000E+00 -0.18659983164E+03  0.18659983166E+03  0.25500000000E-02 0. -1.
         24    2    1    2    0    0  0.00000000000E+00  0.00000000000E+00 -0.17822677050E+03  0.19497289432E+03  0.79054713961E+02 0.  0.
         66    2    3    3    0    0 -0.71116150245E+01 -0.20151873661E+02 -0.17110699849E+03  0.17244789937E+03  0.19999956732E+01 0.  0.
        -13    1    3    3    0    0  0.71116150245E+01  0.20151873661E+02 -0.71197720022E+01  0.22524994955E+02  0.10566000000E+00 0.  1.
         13    1    4    4    0    0 -0.37448935740E+01 -0.11341587114E+02 -0.96806056317E+02  0.97540143171E+02  0.10566000000E+00 0. -1.
        -13    1    4    4    0    0 -0.22637883276E+01 -0.41725470223E+01 -0.37085704027E+02  0.37388440640E+02  0.10566000000E+00 0.  1.
        -14    1    4    4    0    0 -0.11029331230E+01 -0.46377395250E+01 -0.37215238151E+02  0.37519315559E+02  0.00000000000E+00 0.  1.
<mgrwt>
<rscale>  0 0.79054714E+02</rscale>
<asrwt>0</asrwt>
<pdfrwt beam="1">  1        2 0.28707663E-01 0.79054714E+02</pdfrwt>
<pdfrwt beam="2">  1       -1 0.12881635E-02 0.79054714E+02</pdfrwt>
<totfact> 0.22223882E+05</totfact>
</mgrwt>
</event>
<event>
 8    1  0.2433467E-020  0.7860472E+02  0.7818608E-02  0.1333058E+00
          2   -1    0    0  501    0  0.00000000000E+00  0.00000000000E+00  0.30672594641E+02  0.30672594747E+02  0.25500000000E-02 0. -1.
         -1   -1    0    0    0  501 -0.00000000000E+00 -0.00000000000E+00 -0.50360112151E+02  0.50360112404E+02  0.50400000000E-02 0.  1.
         24    2    1    2    0    0  0.17763568394E-14  0.00000000000E+00 -0.19687517510E+02  0.81032707151E+02  0.78604715396E+02 0.  0.
         66    2    3    3    0    0 -0.11214724176E+02  0.10907489606E+02  0.27289457529E+02  0.31519166419E+02  0.19999979161E+01 0.  0.
        -13    1    3    3    0    0  0.11214724176E+02 -0.10907489606E+02 -0.46976975040E+02  0.49513540731E+02  0.10566000000E+00 0.  1.
         13    1    4    4    0    0 -0.19689481554E+01  0.24311723900E+01  0.65334029459E+01  0.72445754960E+01  0.10566000000E+00 0. -1.
        -13    1    4    4    0    0 -0.68488264497E+01  0.58054250481E+01  0.14201080418E+02  0.16801524716E+02  0.10566000000E+00 0.  1.
         14    1    4    4    0    0 -0.23969495709E+01  0.26708921682E+01  0.65549741658E+01  0.74730662070E+01  0.00000000000E+00 0. -1.
<mgrwt>
<rscale>  0 0.78604715E+02</rscale>
<asrwt>0</asrwt>
<pdfrwt beam="1">  1        2 0.47188607E-02 0.78604715E+02</pdfrwt>
<pdfrwt beam="2">  1       -1 0.77477096E-02 0.78604715E+02</pdfrwt>
<totfact> 0.14195625E+05</totfact>
</mgrwt>
</event>
<event>
 8    1  0.2433467E-020  0.7959684E+02  0.7818608E-02  0.1330199E+00
         -1   -1    0    0    0  501 -0.00000000000E+00  0.00000000000E+00  0.16200107028E+02  0.16200107812E+02  0.50400000000E-02 0.  1.
          2   -1    0    0  501    0  0.00000000000E+00 -0.00000000000E+00 -0.97771839344E+02  0.97771839377E+02  0.25500000000E-02 0. -1.
         24    2    1    2    0    0 -0.35527136788E-14  0.17763568394E-14 -0.81571732315E+02  0.11397194719E+03  0.79596841854E+02 0.  0.
         66    2    3    3    0    0 -0.30085314690E+02  0.10162259117E+02 -0.75102000837E+02  0.81564135480E+02  0.19999991361E+01 0.  0.
        -13    1    3    3    0    0  0.30085314690E+02 -0.10162259117E+02 -0.64697314787E+01  0.32407811709E+02  0.10566000000E+00 0.  1.
         13    1    4    4    0    0 -0.37934419179E+01  0.11533742091E+01 -0.10287868990E+02  0.11025964177E+02  0.10566000000E+00 0. -1.
        -13    1    4    4    0    0 -0.77496040078E+00  0.69371237394E-01 -0.21966958772E+01  0.23328122093E+01  0.10566000000E+00 0.  1.
         14    1    4    4    0    0 -0.25516912371E+02  0.89395136705E+01 -0.62617435970E+02  0.68205359093E+02  0.00000000000E+00 0. -1.
<mgrwt>
<rscale>  0 0.79596842E+02</rscale>
<asrwt>0</asrwt>
<pdfrwt beam="1">  1        2 0.15041821E-01 0.79596842E+02</pdfrwt>
<pdfrwt beam="2">  1       -1 0.24923243E-02 0.79596842E+02</pdfrwt>
<totfact> 0.17854966E+05</totfact>
</mgrwt>
</event>
<event>
 8    1  0.2433467E-020  0.7941786E+02  0.7818608E-02  0.1330712E+00
          2   -1    0    0  501    0  0.00000000000E+00  0.00000000000E+00  0.11649138867E+03  0.11649138870E+03  0.25500000000E-02 0. -1.
         -1   -1    0    0    0  501 -0.00000000000E+00 -0.00000000000E+00 -0.13535756962E+02  0.13535757901E+02  0.50400000000E-02 0.  1.
         24    2    1    2    0    0  0.35527136788E-14  0.00000000000E+00  0.10295563171E+03  0.13002714660E+03  0.79417861670E+02 0.  0.
         66    2    3    3    0    0  0.27192166792E+02 -0.28443434512E+02  0.43105769791E+02  0.58399916880E+02  0.20000001657E+01 0.  0.
        -13    1    3    3    0    0 -0.27192166792E+02  0.28443434512E+02  0.59849861916E+02  0.71627229718E+02  0.10566000000E+00 0.  1.
         13    1    4    4    0    0  0.11186616700E+02 -0.11821638078E+02  0.17830415367E+02  0.24141797701E+02  0.10566000000E+00 0. -1.
        -13    1    4    4    0    0  0.14080501978E+02 -0.15278243806E+02  0.22651371143E+02  0.30737290844E+02  0.10566000000E+00 0.  1.
        -14    1    4    4    0    0  0.19250481145E+01 -0.13435526278E+01  0.26239832818E+01  0.35208283358E+01  0.00000000000E+00 0.  1.
<mgrwt>
<rscale>  0 0.79417862E+02</rscale>
<asrwt>0</asrwt>
<pdfrwt beam="1">  1        2 0.17921752E-01 0.79417862E+02</pdfrwt>
<pdfrwt beam="2">  1       -1 0.20824243E-02 0.79417862E+02</pdfrwt>
<totfact> 0.18886693E+05</totfact>
</mgrwt>
</event>
<event>
 8    1  0.2433467E-020  0.8022758E+02  0.7818608E-02  0.1328407E+00
          2   -1    0    0  501    0  0.00000000000E+00  0.00000000000E+00  0.88842043754E+02  0.88842043791E+02  0.25500000000E-02 0. -1.
         -1   -1    0    0    0  501 -0.00000000000E+00 -0.00000000000E+00 -0.18112100139E+02  0.18112100840E+02  0.50400000000E-02 0.  1.
         24    2    1    2    0    0  0.00000000000E+00  0.00000000000E+00  0.70729943615E+02  0.10695414463E+03  0.80227577115E+02 0.  0.
         66    2    3    3    0    0  0.36526780391E+02  0.14721090187E+02  0.45380496595E+02  0.60119095679E+02  0.20000030076E+01 0.  0.
        -13    1    3    3    0    0 -0.36526780391E+02 -0.14721090187E+02  0.25349447020E+02  0.46835048951E+02  0.10566000000E+00 0.  1.
         13    1    4    4    0    0  0.10482207790E+02  0.48226534868E+01  0.13588897512E+02  0.17827057144E+02  0.10566000000E+00 0. -1.
        -13    1    4    4    0    0  0.11089759414E+02  0.38109536379E+01  0.12629719298E+02  0.17234474319E+02  0.10566000000E+00 0.  1.
        -14    1    4    4    0    0  0.14954813187E+02  0.60874830625E+01  0.19161879785E+02  0.25057564215E+02  0.00000000000E+00 0.  1.
<mgrwt>
<rscale>  0 0.80227577E+02</rscale>
<asrwt>0</asrwt>
<pdfrwt beam="1">  1        2 0.13668007E-01 0.80227577E+02</pdfrwt>
<pdfrwt beam="2">  1       -1 0.27864771E-02 0.80227577E+02</pdfrwt>
<totfact> 0.17030459E+05</totfact>
</mgrwt>
</event>
<event>
 8    1  0.2433467E-020  0.8000694E+02  0.7818608E-02  0.1329032E+00
          2   -1    0    0  501    0  0.00000000000E+00  0.00000000000E+00  0.52842549909E+03  0.52842549909E+03  0.25500000000E-02 0. -1.
         -1   -1    0    0    0  501 -0.00000000000E+00 -0.00000000000E+00 -0.30283858437E+01  0.30283900376E+01  0.50400000000E-02 0.  1.
         24    2    1    2    0    0  0.17763568394E-14  0.00000000000E+00  0.52539711324E+03  0.53145388913E+03  0.80006935123E+02 0.  0.
         66    2    3    3    0    0 -0.15883486999E+02  0.22122037630E+02  0.45727632447E+03  0.45809093707E+03  0.19999987172E+01 0.  0.
        -13    1    3    3    0    0  0.15883486999E+02 -0.22122037630E+02  0.68120788767E+02  0.73362952056E+02  0.10566000000E+00 0.  1.
         13    1    4    4    0    0 -0.10993437437E+02  0.16061527145E+02  0.32205782703E+03  0.32264544540E+03  0.10566000000E+00 0. -1.
        -13    1    4    4    0    0 -0.34727175737E+01  0.47045551007E+01  0.96010294878E+02  0.96188255482E+02  0.10566000000E+00 0.  1.
        -14    1    4    4    0    0 -0.14173319891E+01  0.13559553846E+01  0.39208202567E+02  0.39257236193E+02  0.00000000000E+00 0.  1.
<mgrwt>
<rscale>  0 0.80006935E+02</rscale>
<asrwt>0</asrwt>
<pdfrwt beam="1">  1        2 0.81296289E-01 0.80006935E+02</pdfrwt>
<pdfrwt beam="2">  1       -1 0.46590550E-03 0.80006935E+02</pdfrwt>
<totfact> 0.30976637E+05</totfact>
</mgrwt>
</event>
<event>
 8    1  0.2433467E-020  0.7877335E+02  0.7818608E-02  0.1332569E+00
          2   -1    0    0  501    0  0.00000000000E+00  0.00000000000E+00  0.11650961149E+02  0.11650961428E+02  0.25500000000E-02 0. -1.
         -1   -1    0    0    0  501 -0.00000000000E+00 -0.00000000000E+00 -0.13314869788E+03  0.13314869798E+03  0.50400000000E-02 0.  1.
         24    2    1    2    0    0  0.00000000000E+00  0.00000000000E+00 -0.12149773673E+03  0.14479965940E+03  0.78773354203E+02 0.  0.
         66    2    3    3    0    0 -0.28727337397E+02 -0.14848862996E+02 -0.19539014824E+02  0.37835456123E+02  0.19999983993E+01 0.  0.
        -13    1    3    3    0    0  0.28727337397E+02  0.14848862996E+02 -0.10195872191E+03  0.10696420328E+03  0.10566000000E+00 0.  1.
         13    1    4    4    0    0 -0.18693074979E+02 -0.94528613243E+01 -0.13502984021E+02  0.24922467392E+02  0.10566000000E+00 0. -1.
        -13    1    4    4    0    0 -0.36423785799E+01 -0.23052269738E+01 -0.24386771065E+01  0.49537160986E+01  0.10566000000E+00 0.  1.
         14    1    4    4    0    0 -0.63918838378E+01 -0.30907746976E+01 -0.35973536960E+01  0.79592726327E+01  0.00000000000E+00 0. -1.
<mgrwt>
<rscale>  0 0.78773354E+02</rscale>
<asrwt>0</asrwt>
<pdfrwt beam="1">  1        2 0.17924557E-02 0.78773354E+02</pdfrwt>
<pdfrwt beam="2">  1       -1 0.20484414E-01 0.78773354E+02</pdfrwt>
<totfact> 0.11550831E+05</totfact>
</mgrwt>
</event>
<event>
 8    1  0.2433467E-020  0.8085615E+02  0.7818608E-02  0.1326639E+00
          2   -1    0    0  501    0  0.00000000000E+00  0.00000000000E+00  0.50687857313E+02  0.50687857377E+02  0.25500000000E-02 0. -1.
         -1   -1    0    0    0  501 -0.00000000000E+00 -0.00000000000E+00 -0.32244985857E+02  0.32244986250E+02  0.50400000000E-02 0.  1.
         24    2    1    2    0    0 -0.44408920985E-15  0.00000000000E+00  0.18442871456E+02  0.82932843627E+02  0.80856150320E+02 0.  0.
         66    2    3    3    0    0 -0.38621081189E+01 -0.17197866165E+02  0.46516583452E+02  0.49784284850E+02  0.20000005598E+01 0.  0.
        -13    1    3    3    0    0  0.38621081189E+01  0.17197866165E+02 -0.28073711996E+02  0.33148558777E+02  0.10566000000E+00 0.  1.
         13    1    4    4    0    0 -0.20182286469E+01 -0.11100424964E+02  0.27735009560E+02  0.29942187638E+02  0.10566000000E+00 0. -1.
        -13    1    4    4    0    0 -0.90102682086E+00 -0.21010354090E+01  0.63335639811E+01  0.67343445012E+01  0.10566000000E+00 0.  1.
         14    1    4    4    0    0 -0.94285265113E+00 -0.39964057921E+01  0.12448009911E+02  0.13107752710E+02  0.00000000000E+00 0. -1.
<mgrwt>
<rscale>  0 0.80856150E+02</rscale>
<asrwt>0</asrwt>
<pdfrwt beam="1">  1        2 0.77981318E-02 0.80856150E+02</pdfrwt>
<pdfrwt beam="2">  1       -1 0.49607672E-02 0.80856150E+02</pdfrwt>
<totfact> 0.14556775E+05</totfact>
</mgrwt>
</event>
<event>
 8    1  0.2608789E-020  0.7975990E+02  0.7818608E-02  0.1329734E+00
          2   -1    0    0  501    0  0.00000000000E+00  0.00000000000E+00  0.14278880498E+03  0.14278880501E+03  0.25500000000E-02 0. -1.
         -1   -1    0    0    0  501 -0.00000000000E+00 -0.00000000000E+00 -0.11138200973E+02  0.11138202114E+02  0.50400000000E-02 0.  1.
         24    2    1    2    0    0  0.35527136788E-14  0.35527136788E-14  0.13165060401E+03  0.15392700712E+03  0.79759902110E+02 0.  0.
         66    2    3    3    0    0 -0.16791431562E+02 -0.18170284272E+02  0.12616702517E+03  0.12858549561E+03  0.20000095859E+01 0.  0.
        -13    1    3    3    0    0  0.16791431562E+02  0.18170284272E+02  0.54835788429E+01  0.25341511506E+02  0.10566000000E+00 0.  1.
         13    1    4    4    0    0 -0.11612669774E+02 -0.11857218868E+02  0.83889898991E+02  0.85515928665E+02  0.10566000000E+00 0.  1.
        -13    1    4    4    0    0 -0.46817156726E+01 -0.53661284275E+01  0.35344923560E+02  0.36055354407E+02  0.10566000000E+00 0. -1.
        -14    1    4    4    0    0 -0.49704611531E+00 -0.94693697647E+00  0.69322026148E+01  0.70142125410E+01  0.00000000000E+00 0.  1.
<mgrwt>
<rscale>  0 0.79759902E+02</rscale>
<asrwt>0</asrwt>
<pdfrwt beam="1">  1        2 0.21967510E-01 0.79759902E+02</pdfrwt>
<pdfrwt beam="2">  1       -1 0.17135694E-02 0.79759902E+02</pdfrwt>
<totfact> 0.19874860E+05</totfact>
</mgrwt>
</event>
<event>
 8    1  0.2433467E-020  0.7805363E+02  0.7818608E-02  0.1334667E+00
          2   -1    0    0  501    0  0.00000000000E+00  0.00000000000E+00  0.49386339331E+02  0.49386339396E+02  0.25500000000E-02 0. -1.
         -1   -1    0    0    0  501 -0.00000000000E+00 -0.00000000000E+00 -0.30840354674E+02  0.30840355086E+02  0.50400000000E-02 0.  1.
         24    2    1    2    0    0  0.00000000000E+00  0.71054273576E-14  0.18545984657E+02  0.80226694482E+02  0.78053628747E+02 0.  0.
         66    2    3    3    0    0 -0.63267150082E+01 -0.35067713416E+02  0.25573352249E+02  0.43906357117E+02  0.20000007527E+01 0.  0.
        -13    1    3    3    0    0  0.63267150082E+01  0.35067713416E+02 -0.70273675918E+01  0.36320337365E+02  0.10566000000E+00 0.  1.
         13    1    4    4    0    0 -0.31523967026E+01 -0.17320431866E+02  0.13503492720E+02  0.22187619175E+02  0.10566000000E+00 0. -1.
        -13    1    4    4    0    0 -0.22023986511E+01 -0.12779111806E+02  0.81517494387E+01  0.15317259589E+02  0.10566000000E+00 0.  1.
        -14    1    4    4    0    0 -0.97191965446E+00 -0.49681697439E+01  0.39181100903E+01  0.64014783526E+01  0.00000000000E+00 0.  1.
<mgrwt>
<rscale>  0 0.78053629E+02</rscale>
<asrwt>0</asrwt>
<pdfrwt beam="1">  1        2 0.75978983E-02 0.78053629E+02</pdfrwt>
<pdfrwt beam="2">  1       -1 0.47446700E-02 0.78053629E+02</pdfrwt>
<totfact> 0.15941765E+05</totfact>
</mgrwt>
</event>
<event>
 8    1  0.2433467E-020  0.8473369E+02  0.7818608E-02  0.1316130E+00
         -1   -1    0    0    0  501 -0.00000000000E+00  0.00000000000E+00  0.47657415678E+03  0.47657415681E+03  0.50400000000E-02 0.  1.
          2   -1    0    0  501    0  0.00000000000E+00 -0.00000000000E+00 -0.37663593475E+01  0.37663602107E+01  0.25500000000E-02 0. -1.
         24    2    1    2    0    0 -0.71054273576E-14 -0.44408920985E-15  0.47280779743E+03  0.48034051702E+03  0.84733694452E+02 0.  0.
         66    2    3    3    0    0  0.40480868378E+02  0.38063094251E+01  0.30355120961E+03  0.30626871465E+03  0.20000045264E+01 0.  0.
        -13    1    3    3    0    0 -0.40480868378E+02 -0.38063094251E+01  0.16925658782E+03  0.17407180237E+03  0.10566000000E+00 0.  1.
         13    1    4    4    0    0  0.63276078118E+01  0.10614816469E+01  0.47309905855E+02  0.47743101281E+02  0.10566000000E+00 0. -1.
        -13    1    4    4    0    0  0.67296190993E+01  0.74881476335E+00  0.54517019749E+02  0.54936009167E+02  0.10566000000E+00 0.  1.
        -14    1    4    4    0    0  0.27423641467E+02  0.19960130148E+01  0.20172428401E+03  0.20358960420E+03  0.00000000000E+00 0.  1.
<mgrwt>
<rscale>  0 0.84733694E+02</rscale>
<asrwt>0</asrwt>
<pdfrwt beam="1">  1        2 0.57943999E-03 0.84733694E+02</pdfrwt>
<pdfrwt beam="2">  1       -1 0.73319098E-01 0.84733694E+02</pdfrwt>
<totfact> 0.59288060E+04</totfact>
</mgrwt>
</event>
<event>
 8    1  0.2433467E-020  0.7870537E+02  0.7818608E-02  0.1332766E+00
          2   -1    0    0  501    0  0.00000000000E+00  0.00000000000E+00  0.69125951313E+03  0.69125951314E+03  0.25500000000E-02 0. -1.
         -1   -1    0    0    0  501 -0.00000000000E+00 -0.00000000000E+00 -0.22403045207E+01  0.22403101899E+01  0.50400000000E-02 0.  1.
         24    2    1    2    0    0  0.00000000000E+00  0.00000000000E+00  0.68901920861E+03  0.69349982333E+03  0.78705369059E+02 0.  0.
         66    2    3    3    0    0  0.15034479385E+02  0.19331215365E+02  0.61587135708E+03  0.61636130632E+03  0.20000007100E+01 0.  0.
        -13    1    3    3    0    0 -0.15034479385E+02 -0.19331215365E+02  0.73147851533E+02  0.77138517006E+02  0.10566000000E+00 0.  1.
         13    1    4    4    0    0  0.63301886044E+01  0.74242735688E+01  0.23983277195E+03  0.24003116629E+03  0.10566000000E+00 0. -1.
        -13    1    4    4    0    0  0.77969867442E+00  0.15606407665E+01  0.37243951609E+02  0.37284938315E+02  0.10566000000E+00 0.  1.
        -14    1    4    4    0    0  0.79245921061E+01  0.10346301029E+02  0.33879463352E+03  0.33904520172E+03  0.00000000000E+00 0.  1.
<mgrwt>
<rscale>  0 0.78705369E+02</rscale>
<asrwt>0</asrwt>
<pdfrwt beam="1">  1        2 0.10634770E+00 0.78705369E+02</pdfrwt>
<pdfrwt beam="2">  1       -1 0.34466239E-03 0.78705369E+02</pdfrwt>
<totfact> 0.34798662E+05</totfact>
</mgrwt>
</event>
<event>
 8    1  0.2433467E-020  0.8020331E+02  0.7818608E-02  0.1328475E+00
          2   -1    0    0  501    0  0.00000000000E+00  0.00000000000E+00  0.41322673873E+02  0.41322673951E+02  0.25500000000E-02 0. -1.
         -1   -1    0    0    0  501 -0.00000000000E+00 -0.00000000000E+00 -0.38916711790E+02  0.38916712116E+02  0.50400000000E-02 0.  1.
         24    2    1    2    0    0  0.17763568394E-14  0.00000000000E+00  0.24059620830E+01  0.80239386068E+02  0.80203306808E+02 0.  0.
         66    2    3    3    0    0 -0.88161368436E+01 -0.39075876353E+02  0.24246285826E+01  0.40181179741E+02  0.19999999993E+01 0.  0.
        -13    1    3    3    0    0  0.88161368436E+01  0.39075876353E+02 -0.18666499665E-01  0.40058206327E+02  0.10566000000E+00 0.  1.
         13    1    4    4    0    0 -0.24264003371E+01 -0.11040117626E+02  0.60025088092E+00  0.11320030077E+02  0.10566000000E+00 0. -1.
        -13    1    4    4    0    0 -0.47609406154E+00 -0.46367143750E+01  0.51951263904E+00  0.46911451873E+01  0.10566000000E+00 0.  1.
        -14    1    4    4    0    0 -0.59136424450E+01 -0.23399044353E+02  0.13048650627E+01  0.24170004477E+02  0.00000000000E+00 0.  1.
<mgrwt>
<rscale>  0 0.80203307E+02</rscale>
<asrwt>0</asrwt>
<pdfrwt beam="1">  1        2 0.63573345E-02 0.80203307E+02</pdfrwt>
<pdfrwt beam="2">  1       -1 0.59871864E-02 0.80203307E+02</pdfrwt>
<totfact> 0.14250973E+05</totfact>
</mgrwt>
</event>
<event>
 8    1  0.2433467E-020  0.8049843E+02  0.7818608E-02  0.1327643E+00
          2   -1    0    0  501    0  0.00000000000E+00  0.00000000000E+00  0.26096960443E+03  0.26096960444E+03  0.25500000000E-02 0. -1.
         -1   -1    0    0    0  501 -0.00000000000E+00 -0.00000000000E+00 -0.62076156412E+01  0.62076176872E+01  0.50400000000E-02 0.  1.
         24    2    1    2    0    0 -0.17763568394E-14  0.00000000000E+00  0.25476198879E+03  0.26717722213E+03  0.80498429136E+02 0.  0.
         66    2    3    3    0    0  0.10336710371E+02  0.20017910338E+02  0.23806003898E+03  0.23913206912E+03  0.20000024189E+01 0.  0.
        -13    1    3    3    0    0 -0.10336710371E+02 -0.20017910338E+02  0.16701949810E+02  0.28045153005E+02  0.10566000000E+00 0.  1.
         13    1    4    4    0    0  0.35383857942E+00  0.29700648288E+00  0.69002551520E+01  0.69165092199E+01  0.10566000000E+00 0.  1.
        -13    1    4    4    0    0  0.69437876430E+01  0.13606129743E+02  0.15587216576E+03  0.15661892024E+03  0.10566000000E+00 0. -1.
         14    1    4    4    0    0  0.30390841482E+01  0.61147741123E+01  0.75287618066E+02  0.75596639668E+02  0.00000000000E+00 0. -1.
<mgrwt>
<rscale>  0 0.80498429E+02</rscale>
<asrwt>0</asrwt>
<pdfrwt beam="1">  1        2 0.40149167E-01 0.80498429E+02</pdfrwt>
<pdfrwt beam="2">  1       -1 0.95501802E-03 0.80498429E+02</pdfrwt>
<totfact> 0.23847399E+05</totfact>
</mgrwt>
</event>
<event>
 8    1  0.2433467E-020  0.8166888E+02  0.7818608E-02  0.1324381E+00
          2   -1    0    0  501    0  0.00000000000E+00  0.00000000000E+00  0.17035534142E+03  0.17035534144E+03  0.25500000000E-02 0. -1.
         -1   -1    0    0    0  501 -0.00000000000E+00 -0.00000000000E+00 -0.97880781685E+01  0.97880794660E+01  0.50400000000E-02 0.  1.
         24    2    1    2    0    0 -0.35527136788E-14  0.00000000000E+00  0.16056726325E+03  0.18014342090E+03  0.81668880654E+02 0.  0.
         66    2    3    3    0    0 -0.26828474406E+02 -0.24127637880E+01  0.14795441124E+03  0.15039978851E+03  0.20000277026E+01 0.  0.
        -13    1    3    3    0    0  0.26828474406E+02  0.24127637880E+01  0.12612852011E+02  0.29743632394E+02  0.10566000000E+00 0.  1.
         13    1    4    4    0    0 -0.11728413592E+02 -0.42623584659E+00  0.65879760710E+02  0.66917048632E+02  0.10566000000E+00 0. -1.
        -13    1    4    4    0    0 -0.75089285715E+01 -0.10846742519E+01  0.38014565686E+02  0.38764402418E+02  0.10566000000E+00 0.  1.
        -14    1    4    4    0    0 -0.75911322431E+01 -0.90185368952E+00  0.44060084842E+02  0.44718337459E+02  0.00000000000E+00 0.  1.
<mgrwt>
<rscale>  0 0.81668881E+02</rscale>
<asrwt>0</asrwt>
<pdfrwt beam="1">  1        2 0.26208514E-01 0.81668881E+02</pdfrwt>
<pdfrwt beam="2">  1       -1 0.15058583E-02 0.81668881E+02</pdfrwt>
<totfact> 0.19772088E+05</totfact>
</mgrwt>
</event>
<event>
 8    1  0.2433467E-020  0.8207288E+02  0.7818608E-02  0.1323270E+00
         -1   -1    0    0    0  501 -0.00000000000E+00  0.00000000000E+00  0.92005689190E+01  0.92005702995E+01  0.50400000000E-02 0.  1.
          2   -1    0    0  501    0  0.00000000000E+00 -0.00000000000E+00 -0.18303101184E+03  0.18303101186E+03  0.25500000000E-02 0. -1.
         24    2    1    2    0    0  0.71054273576E-14 -0.88817841970E-15 -0.17383044293E+03  0.19223158216E+03  0.82072884028E+02 0.  0.
         66    2    3    3    0    0  0.40158103943E+02  0.54192074991E+01 -0.10176962628E+03  0.10955865079E+03  0.20000017675E+01 0.  0.
        -13    1    3    3    0    0 -0.40158103943E+02 -0.54192074991E+01 -0.72060816644E+02  0.82672931372E+02  0.10566000000E+00 0.  1.
         13    1    4    4    0    0  0.18740609891E+01  0.33547634658E+00 -0.40744387506E+01  0.44985402230E+01  0.10566000000E+00 0. -1.
        -13    1    4    4    0    0  0.32237863887E+02  0.47071414568E+01 -0.82994072520E+02  0.89159768316E+02  0.10566000000E+00 0.  1.
         14    1    4    4    0    0  0.60461790669E+01  0.37658969571E+00 -0.14701115011E+02  0.15900342250E+02  0.00000000000E+00 0. -1.
<mgrwt>
<rscale>  0 0.82072884E+02</rscale>
<asrwt>0</asrwt>
<pdfrwt beam="1">  1        2 0.28158615E-01 0.82072884E+02</pdfrwt>
<pdfrwt beam="2">  1       -1 0.14154724E-02 0.82072884E+02</pdfrwt>
<totfact> 0.19995060E+05</totfact>
</mgrwt>
</event>
<event>
 8    1  0.2433467E-020  0.8250262E+02  0.7818608E-02  0.1322096E+00
          2   -1    0    0  501    0  0.00000000000E+00  0.00000000000E+00  0.74304870112E+02  0.74304870156E+02  0.25500000000E-02 0. -1.
         -1   -1    0    0    0  501 -0.00000000000E+00 -0.00000000000E+00 -0.22901199850E+02  0.22901200405E+02  0.50400000000E-02 0.  1.
         24    2    1    2    0    0  0.00000000000E+00  0.00000000000E+00  0.51403670262E+02  0.97206070561E+02  0.82502623216E+02 0.  0.
         66    2    3    3    0    0  0.37212993641E+02 -0.17302874997E+02  0.30350954520E+02  0.51082059644E+02  0.19999995943E+01 0.  0.
        -13    1    3    3    0    0 -0.37212993641E+02  0.17302874997E+02  0.21052715742E+02  0.46124010917E+02  0.10566000000E+00 0.  1.
         13    1    4    4    0    0  0.12059684258E+02 -0.58899539207E+01  0.89485904745E+01  0.16131211272E+02  0.10566000000E+00 0.  1.
        -13    1    4    4    0    0  0.24424086327E+02 -0.11115214602E+02  0.20936411450E+02  0.34035694161E+02  0.10566000000E+00 0. -1.
         14    1    4    4    0    0  0.72922305575E+00 -0.29770647455E+00  0.46595259514E+00  0.91515421157E+00  0.00000000000E+00 0. -1.
<mgrwt>
<rscale>  0 0.82502623E+02</rscale>
<asrwt>0</asrwt>
<pdfrwt beam="1">  1        2 0.11431519E-01 0.82502623E+02</pdfrwt>
<pdfrwt beam="2">  1       -1 0.35232616E-02 0.82502623E+02</pdfrwt>
<totfact> 0.15075210E+05</totfact>
</mgrwt>
</event>
<event>
 8    1  0.2433467E-020  0.8063585E+02  0.7818608E-02  0.1327257E+00
         -1   -1    0    0    0  501 -0.00000000000E+00  0.00000000000E+00  0.26231167436E+01  0.26231215855E+01  0.50400000000E-02 0.  1.
          2   -1    0    0  501    0  0.00000000000E+00 -0.00000000000E+00 -0.61969540391E+03  0.61969540392E+03  0.25500000000E-02 0. -1.
         24    2    1    2    0    0  0.00000000000E+00  0.00000000000E+00 -0.61707228717E+03  0.62231852550E+03  0.80635845582E+02 0.  0.
         66    2    3    3    0    0 -0.24520972465E+02  0.57551160728E+01 -0.55144866868E+03  0.55202720371E+03  0.19999991315E+01 0.  0.
        -13    1    3    3    0    0  0.24520972465E+02 -0.57551160728E+01 -0.65623618487E+02  0.70291321790E+02  0.10566000000E+00 0.  1.
         13    1    4    4    0    0 -0.10634243917E+02  0.33702103009E+01 -0.24709572994E+03  0.24734744062E+03  0.10566000000E+00 0. -1.
        -13    1    4    4    0    0 -0.62022910791E+01  0.12177123929E+01 -0.14334678452E+03  0.14348610746E+03  0.10566000000E+00 0.  1.
        -14    1    4    4    0    0 -0.76844374694E+01  0.11671933791E+01 -0.16100615422E+03  0.16119365563E+03  0.00000000000E+00 0.  1.
<mgrwt>
<rscale>  0 0.80635846E+02</rscale>
<asrwt>0</asrwt>
<pdfrwt beam="1">  1        2 0.95337638E-01 0.80635846E+02</pdfrwt>
<pdfrwt beam="2">  1       -1 0.40355729E-03 0.80635846E+02</pdfrwt>
<totfact> 0.31787415E+05</totfact>
</mgrwt>
</event>
<event>
 8    1  0.2433467E-020  0.7941596E+02  0.7818608E-02  0.1330717E+00
         -1   -1    0    0    0  501 -0.00000000000E+00  0.00000000000E+00  0.49190695979E+02  0.49190696237E+02  0.50400000000E-02 0.  1.
          2   -1    0    0  501    0  0.00000000000E+00 -0.00000000000E+00 -0.32053291679E+02  0.32053291780E+02  0.25500000000E-02 0. -1.
         24    2    1    2    0    0  0.71054273576E-14  0.00000000000E+00  0.17137404300E+02  0.81243988017E+02  0.79415961638E+02 0.  0.
         66    2    3    3    0    0  0.27902493097E+02 -0.13189939480E+02 -0.16943885384E+02  0.35264980905E+02  0.20000004531E+01 0.  0.
        -13    1    3    3    0    0 -0.27902493097E+02  0.13189939480E+02  0.34081289684E+02  0.45979007113E+02  0.10566000000E+00 0.  1.
         13    1    4    4    0    0  0.19448927436E+02 -0.87799549131E+01 -0.10979178799E+02  0.23997956534E+02  0.10566000000E+00 0. -1.
        -13    1    4    4    0    0  0.32752228592E+01 -0.17897999827E+01 -0.27051677271E+01  0.46108096060E+01  0.10566000000E+00 0.  1.
        -14    1    4    4    0    0  0.51783428016E+01 -0.26201845840E+01 -0.32595388575E+01  0.66562147644E+01  0.00000000000E+00 0.  1.
<mgrwt>
<rscale>  0 0.79415962E+02</rscale>
<asrwt>0</asrwt>
<pdfrwt beam="1">  1        2 0.49312757E-02 0.79415962E+02</pdfrwt>
<pdfrwt beam="2">  1       -1 0.75677994E-02 0.79415962E+02</pdfrwt>
<totfact> 0.13914403E+05</totfact>
</mgrwt>
</event>
<event>
 8    1  0.2433467E-020  0.8008300E+02  0.7818608E-02  0.1328816E+00
         -1   -1    0    0    0  501 -0.00000000000E+00  0.00000000000E+00  0.13461309226E+01  0.13461403576E+01  0.50400000000E-02 0.  1.
          2   -1    0    0  501    0  0.00000000000E+00 -0.00000000000E+00 -0.11910550158E+04  0.11910550158E+04  0.25500000000E-02 0. -1.
         24    2    1    2    0    0  0.35527136788E-14  0.00000000000E+00 -0.11897088849E+04  0.11924011562E+04  0.80082997297E+02 0.  0.
         66    2    3    3    0    0 -0.23778902611E+02  0.24012115538E+01 -0.10731110127E+04  0.10733789861E+04  0.20000017962E+01 0.  0.
        -13    1    3    3    0    0  0.23778902611E+02 -0.24012115538E+01 -0.11659787213E+03  0.11902217010E+03  0.10566000000E+00 0.  1.
         13    1    4    4    0    0 -0.10381333575E+02  0.10936671205E+01 -0.43863062388E+03  0.43875483310E+03  0.10566000000E+00 0. -1.
        -13    1    4    4    0    0 -0.89521907471E+01  0.95844288722E+00 -0.39941560811E+03  0.39951708286E+03  0.10566000000E+00 0.  1.
        -14    1    4    4    0    0 -0.44453782890E+01  0.34910154610E+00 -0.23506478075E+03  0.23510707009E+03  0.00000000000E+00 0.  1.
<mgrwt>
<rscale>  0 0.80082997E+02</rscale>
<asrwt>0</asrwt>
<pdfrwt beam="1">  1        2 0.18323839E+00 0.80082997E+02</pdfrwt>
<pdfrwt beam="2">  1       -1 0.20709874E-03 0.80082997E+02</pdfrwt>
<totfact> 0.34971777E+05</totfact>
</mgrwt>
</event>
<event>
 8    1  0.2433467E-020  0.7875093E+02  0.7818608E-02  0.1332634E+00
         -1   -1    0    0    0  501 -0.00000000000E+00  0.00000000000E+00  0.42085749442E+01  0.42085779620E+01  0.50400000000E-02 0.  1.
          2   -1    0    0  501    0  0.00000000000E+00 -0.00000000000E+00 -0.36839704851E+03  0.36839704852E+03  0.25500000000E-02 0. -1.
         24    2    1    2    0    0  0.00000000000E+00  0.00000000000E+00 -0.36418847356E+03  0.37260562648E+03  0.78750927658E+02 0.  0.
         66    2    3    3    0    0 -0.17490644603E+02 -0.59839231939E+00 -0.34896651019E+03  0.34941079829E+03  0.20000001487E+01 0.  0.
        -13    1    3    3    0    0  0.17490644603E+02  0.59839231939E+00 -0.15221963371E+02  0.23194828193E+02  0.10566000000E+00 0.  1.
         13    1    4    4    0    0 -0.85177872990E+01 -0.75102741734E+00 -0.16611023674E+03  0.16633020970E+03  0.10566000000E+00 0. -1.
        -13    1    4    4    0    0 -0.10504656225E+01  0.35485843875E+00 -0.26993679777E+02  0.27016648839E+02  0.10566000000E+00 0.  1.
         14    1    4    4    0    0 -0.79223916814E+01 -0.20222334080E+00 -0.15586259367E+03  0.15606393975E+03  0.00000000000E+00 0. -1.
<mgrwt>
<rscale>  0 0.78750928E+02</rscale>
<asrwt>0</asrwt>
<pdfrwt beam="1">  1        2 0.56676444E-01 0.78750928E+02</pdfrwt>
<pdfrwt beam="2">  1       -1 0.64747359E-03 0.78750928E+02</pdfrwt>
<totfact> 0.28596939E+05</totfact>
</mgrwt>
</event>
<event>
 8    1  0.2433467E-020  0.7642536E+02  0.7818608E-02  0.1339513E+00
         -1   -1    0    0    0  501 -0.00000000000E+00  0.00000000000E+00  0.11317717538E+01  0.11317829758E+01  0.50400000000E-02 0.  1.
          2   -1    0    0  501    0  0.00000000000E+00 -0.00000000000E+00 -0.12901909808E+04  0.12901909808E+04  0.25500000000E-02 0. -1.
         24    2    1    2    0    0  0.17763568394E-14  0.00000000000E+00 -0.12890592091E+04  0.12913227638E+04  0.76425361139E+02 0.  0.
         66    2    3    3    0    0 -0.14016464491E+02 -0.38280481113E+01 -0.12416559786E+04  0.12417425999E+04  0.19999994055E+01 0.  0.
        -13    1    3    3    0    0  0.14016464491E+02  0.38280481113E+01 -0.47403230510E+02  0.49580163937E+02  0.10566000000E+00 0.  1.
         13    1    4    4    0    0 -0.86680349752E+01 -0.23896124343E+01 -0.84558168425E+03  0.84562949392E+03  0.10566000000E+00 0. -1.
        -13    1    4    4    0    0 -0.51074567314E+01 -0.13528354157E+01 -0.38087677866E+03  0.38091343894E+03  0.10566000000E+00 0. -1.
         14    1    4    4    0    0 -0.24097278401E+00 -0.85600261327E-01 -0.15197515648E+02  0.15199667008E+02  0.00000000000E+00 0. -1.
<mgrwt>
<rscale>  0 0.76425361E+02</rscale>
<asrwt>0</asrwt>
<pdfrwt beam="1">  1        2 0.19848974E+00 0.76425361E+02</pdfrwt>
<pdfrwt beam="2">  1       -1 0.17412063E-03 0.76425361E+02</pdfrwt>
<totfact> 0.39025167E+05</totfact>
</mgrwt>
</event>
<event>
 8    1  0.2433467E-020  0.8045371E+02  0.7818608E-02  0.1327769E+00
          2   -1    0    0  501    0  0.00000000000E+00  0.00000000000E+00  0.58414689474E+03  0.58414689474E+03  0.25500000000E-02 0. -1.
         -1   -1    0    0    0  501 -0.00000000000E+00 -0.00000000000E+00 -0.27701907735E+01  0.27701953583E+01  0.50400000000E-02 0.  1.
         24    2    1    2    0    0  0.00000000000E+00  0.00000000000E+00  0.58137670396E+03  0.58691709010E+03  0.80453705577E+02 0.  0.
         66    2    3    3    0    0 -0.90689531545E+01 -0.10184801683E+02  0.56675492030E+03  0.56692249537E+03  0.19999959707E+01 0.  0.
        -13    1    3    3    0    0  0.90689531545E+01  0.10184801683E+02  0.14621783666E+02  0.19994594726E+02  0.10566000000E+00 0.  1.
         13    1    4    4    0    0 -0.24568252523E+01 -0.18826444548E+01  0.12787500913E+03  0.12791250707E+03  0.10566000000E+00 0. -1.
        -13    1    4    4    0    0 -0.12155857205E+01 -0.23754316645E+01  0.11056406124E+03  0.11059630702E+03  0.10566000000E+00 0.  1.
        -14    1    4    4    0    0 -0.53965421817E+01 -0.59267255641E+01  0.32831584992E+03  0.32841368128E+03  0.00000000000E+00 0.  1.
<mgrwt>
<rscale>  0 0.80453706E+02</rscale>
<asrwt>0</asrwt>
<pdfrwt beam="1">  1        2 0.89868709E-01 0.80453706E+02</pdfrwt>
<pdfrwt beam="2">  1       -1 0.42618376E-03 0.80453706E+02</pdfrwt>
<totfact> 0.31455078E+05</totfact>
</mgrwt>
</event>
<event>
 8    1  0.2433467E-020  0.7852246E+02  0.7818608E-02  0.1333298E+00
         -1   -1    0    0    0  501 -0.00000000000E+00  0.00000000000E+00  0.74189177449E+02  0.74189177620E+02  0.50400000000E-02 0.  1.
          2   -1    0    0  501    0  0.00000000000E+00 -0.00000000000E+00 -0.20777209291E+02  0.20777209448E+02  0.25500000000E-02 0. -1.
         24    2    1    2    0    0 -0.35527136788E-14  0.00000000000E+00  0.53411968158E+02  0.94966387068E+02  0.78522457490E+02 0.  0.
         66    2    3    3    0    0 -0.16222040921E+02 -0.16957939438E+02 -0.11305407174E+02  0.26125438821E+02  0.20000001605E+01 0.  0.
        -13    1    3    3    0    0  0.16222040921E+02  0.16957939438E+02  0.64717375332E+02  0.68840948246E+02  0.10566000000E+00 0.  1.
         13    1    4    4    0    0 -0.13903709023E+02 -0.14745039539E+02 -0.98476660929E+01  0.22532576575E+02  0.10566000000E+00 0. -1.
        -13    1    4    4    0    0 -0.98352472144E+00 -0.14089390240E+01 -0.85484111665E+00  0.19220685267E+01  0.10566000000E+00 0.  1.
         14    1    4    4    0    0 -0.13348071769E+01 -0.80396087428E+00 -0.60289996420E+00  0.16707937197E+01  0.00000000000E+00 0. -1.
<mgrwt>
<rscale>  0 0.78522457E+02</rscale>
<asrwt>0</asrwt>
<pdfrwt beam="1">  1        2 0.31964938E-02 0.78522457E+02</pdfrwt>
<pdfrwt beam="2">  1       -1 0.11413720E-01 0.78522457E+02</pdfrwt>
<totfact> 0.13196584E+05</totfact>
</mgrwt>
</event>
<event>
 8    1  0.2433467E-020  0.7426669E+02  0.7818608E-02  0.1346157E+00
         -1   -1    0    0    0  501 -0.00000000000E+00  0.00000000000E+00  0.13500140638E+01  0.13500234717E+01  0.50400000000E-02 0.  1.
          2   -1    0    0  501    0  0.00000000000E+00 -0.00000000000E+00 -0.10213823339E+04  0.10213823339E+04  0.25500000000E-02 0. -1.
         24    2    1    2    0    0  0.00000000000E+00  0.17763568394E-14 -0.10200323198E+04  0.10227323573E+04  0.74266690455E+02 0.  0.
         66    2    3    3    0    0 -0.26260099926E+02 -0.80333373995E+01 -0.85404254400E+03  0.85448627509E+03  0.19999992856E+01 0.  0.
        -13    1    3    3    0    0  0.26260099926E+02  0.80333373995E+01 -0.16598977580E+03  0.16824608225E+03  0.10566000000E+00 0.  1.
         13    1    4    4    0    0 -0.66005340174E+01 -0.22504448519E+01 -0.22091489017E+03  0.22102495654E+03  0.10566000000E+00 0. -1.
        -13    1    4    4    0    0 -0.16700313398E+02 -0.54372640775E+01 -0.54944656069E+03  0.54972720374E+03  0.10566000000E+00 0.  1.
        -14    1    4    4    0    0 -0.29592525108E+01 -0.34562847011E+00 -0.83681093132E+02  0.83734114805E+02  0.00000000000E+00 0.  1.
<mgrwt>
<rscale>  0 0.74266690E+02</rscale>
<asrwt>0</asrwt>
<pdfrwt beam="1">  1        2 0.15713513E+00 0.74266690E+02</pdfrwt>
<pdfrwt beam="2">  1       -1 0.20769601E-03 0.74266690E+02</pdfrwt>
<totfact> 0.42733298E+05</totfact>
</mgrwt>
</event>
<event>
 8    1  0.2433467E-020  0.8527040E+02  0.7818608E-02  0.1314727E+00
         -1   -1    0    0    0  501 -0.00000000000E+00  0.00000000000E+00  0.77721168480E+01  0.77721184822E+01  0.50400000000E-02 0.  1.
          2   -1    0    0  501    0  0.00000000000E+00 -0.00000000000E+00 -0.23388221401E+03  0.23388221403E+03  0.25500000000E-02 0. -1.
         24    2    1    2    0    0  0.17763568394E-14  0.00000000000E+00 -0.22611009717E+03  0.24165433251E+03  0.85270395686E+02 0.  0.
         66    2    3    3    0    0 -0.14944720934E+02 -0.25164889392E+02 -0.20088523478E+03  0.20301599419E+03  0.20000003197E+01 0.  0.
        -13    1    3    3    0    0  0.14944720934E+02  0.25164889392E+02 -0.25224862385E+02  0.38638338322E+02  0.10566000000E+00 0.  1.
         13    1    4    4    0    0 -0.25814672365E+01 -0.57124500898E+01 -0.41290310814E+02  0.41763584500E+02  0.10566000000E+00 0. -1.
        -13    1    4    4    0    0 -0.25109804107E+01 -0.39530582619E+01 -0.30492745007E+02  0.30850451444E+02  0.10566000000E+00 0.  1.
         14    1    4    4    0    0 -0.98522732864E+01 -0.15499381040E+02 -0.12910217896E+03  0.13040195824E+03  0.00000000000E+00 0. -1.
<mgrwt>
<rscale>  0 0.85270396E+02</rscale>
<asrwt>0</asrwt>
<pdfrwt beam="1">  1        2 0.35981874E-01 0.85270396E+02</pdfrwt>
<pdfrwt beam="2">  1       -1 0.11957106E-02 0.85270396E+02</pdfrwt>
<totfact> 0.19693870E+05</totfact>
</mgrwt>
</event>
<event>
 8    1  0.2433467E-020  0.7766952E+02  0.7818608E-02  0.1335798E+00
          2   -1    0    0  501    0  0.00000000000E+00  0.00000000000E+00  0.53015474591E+02  0.53015474652E+02  0.25500000000E-02 0. -1.
         -1   -1    0    0    0  501 -0.00000000000E+00 -0.00000000000E+00 -0.28447138596E+02  0.28447139042E+02  0.50400000000E-02 0.  1.
         24    2    1    2    0    0  0.00000000000E+00  0.35527136788E-14  0.24568335995E+02  0.81462613694E+02  0.77669519738E+02 0.  0.
         66    2    3    3    0    0  0.47106190976E+01 -0.29077912620E+02  0.38793184563E+02  0.48750652343E+02  0.20000001593E+01 0.  0.
        -13    1    3    3    0    0 -0.47106190976E+01  0.29077912620E+02 -0.14224848568E+02  0.32711961351E+02  0.10566000000E+00 0.  1.
         13    1    4    4    0    0  0.35389172442E+01 -0.22323321351E+02  0.30676820114E+02  0.38104239498E+02  0.10566000000E+00 0. -1.
        -13    1    4    4    0    0  0.28855331117E-01 -0.87695574371E+00  0.79867861763E+00  0.11911908228E+01  0.10566000000E+00 0.  1.
        -14    1    4    4    0    0  0.11428465222E+01 -0.58776355257E+01  0.73176858313E+01  0.94552220213E+01  0.00000000000E+00 0.  1.
<mgrwt>
<rscale>  0 0.77669520E+02</rscale>
<asrwt>0</asrwt>
<pdfrwt beam="1">  1        2 0.81562268E-02 0.77669520E+02</pdfrwt>
<pdfrwt beam="2">  1       -1 0.43764829E-02 0.77669520E+02</pdfrwt>
<totfact> 0.16407565E+05</totfact>
</mgrwt>
</event>
<event>
 8    1  0.2433467E-020  0.8190409E+02  0.7818608E-02  0.1323733E+00
          2   -1    0    0  501    0  0.00000000000E+00  0.00000000000E+00  0.29809439554E+03  0.29809439555E+03  0.25500000000E-02 0. -1.
         -1   -1    0    0    0  501 -0.00000000000E+00 -0.00000000000E+00 -0.56259689684E+01  0.56259712259E+01  0.50400000000E-02 0.  1.
         24    2    1    2    0    0  0.35527136788E-14  0.00000000000E+00  0.29246842657E+03  0.30372036678E+03  0.81904094243E+02 0.  0.
         66    2    3    3    0    0  0.25137065738E+02 -0.14843716521E+02  0.25269395254E+03  0.25438247117E+03  0.19999988745E+01 0.  0.
        -13    1    3    3    0    0 -0.25137065738E+02  0.14843716521E+02  0.39774474028E+02  0.49337895601E+02  0.10566000000E+00 0.  1.
         13    1    4    4    0    0  0.45576997663E+01 -0.32530190610E+01  0.43388332830E+02  0.43748295395E+02  0.10566000000E+00 0. -1.
        -13    1    4    4    0    0  0.78039519424E+01 -0.44166686560E+01  0.80194543447E+02  0.80694390081E+02  0.10566000000E+00 0.  1.
         14    1    4    4    0    0  0.12775414029E+02 -0.71740288036E+01  0.12911107626E+03  0.12993978570E+03  0.00000000000E+00 0. -1.
<mgrwt>
<rscale>  0 0.81904094E+02</rscale>
<asrwt>0</asrwt>
<pdfrwt beam="1">  1        2 0.45860677E-01 0.81904094E+02</pdfrwt>
<pdfrwt beam="2">  1       -1 0.86553385E-03 0.81904094E+02</pdfrwt>
<totfact> 0.23912630E+05</totfact>
</mgrwt>
</event>
<event>
 8    1  0.2433467E-020  0.7861953E+02  0.7818608E-02  0.1333015E+00
         -1   -1    0    0    0  501 -0.00000000000E+00  0.00000000000E+00  0.16794025216E+02  0.16794025972E+02  0.50400000000E-02 0.  1.
          2   -1    0    0  501    0  0.00000000000E+00 -0.00000000000E+00 -0.92012347022E+02  0.92012347057E+02  0.25500000000E-02 0. -1.
         24    2    1    2    0    0 -0.10658141036E-13 -0.17763568394E-14 -0.75218321806E+02  0.10880637303E+03  0.78619532411E+02 0.  0.
         66    2    3    3    0    0 -0.24966672792E+02 -0.12652301617E+02 -0.75782521216E+02  0.80810927480E+02  0.19999979521E+01 0.  0.
        -13    1    3    3    0    0  0.24966672792E+02  0.12652301617E+02  0.56419941000E+00  0.27995445549E+02  0.10566000000E+00 0.  1.
         13    1    4    4    0    0 -0.69203616913E+01 -0.38053002734E+01 -0.21666416695E+02  0.23061146818E+02  0.10566000000E+00 0. -1.
        -13    1    4    4    0    0 -0.40077361798E+01 -0.19473519093E+01 -0.13974286488E+02  0.14667855181E+02  0.10566000000E+00 0.  1.
        -14    1    4    4    0    0 -0.14038574920E+02 -0.68996494348E+01 -0.40141818033E+02  0.43081925480E+02  0.00000000000E+00 0.  1.
<mgrwt>
<rscale>  0 0.78619532E+02</rscale>
<asrwt>0</asrwt>
<pdfrwt beam="1">  1        2 0.14155745E-01 0.78619532E+02</pdfrwt>
<pdfrwt beam="2">  1       -1 0.25836963E-02 0.78619532E+02</pdfrwt>
<totfact> 0.18151778E+05</totfact>
</mgrwt>
</event>
<event>
 8    1  0.3476697E-020  0.7704133E+02  0.7818608E-02  0.1337664E+00
          2   -1    0    0  501    0  0.00000000000E+00  0.00000000000E+00  0.45155165146E+02  0.45155165218E+02  0.25500000000E-02 0. -1.
         -1   -1    0    0    0  501 -0.00000000000E+00 -0.00000000000E+00 -0.32860952858E+02  0.32860953245E+02  0.50400000000E-02 0.  1.
         24    2    1    2    0    0  0.00000000000E+00  0.00000000000E+00  0.12294212288E+02  0.78016118462E+02  0.77041333609E+02 0.  0.
         66    2    3    3    0    0 -0.34104521760E+02 -0.13053093403E+02  0.18484633044E+02  0.40977839277E+02  0.20000002871E+01 0.  0.
        -13    1    3    3    0    0  0.34104521760E+02  0.13053093403E+02 -0.61904207561E+01  0.37038279186E+02  0.10566000000E+00 0.  1.
         13    1    4    4    0    0 -0.19959917796E+02 -0.74912877780E+01  0.10898518313E+02  0.23943821258E+02  0.10566000000E+00 0. -1.
        -13    1    4    4    0    0 -0.85677560601E+01 -0.39236683244E+01  0.43235207374E+01  0.10368491338E+02  0.10566000000E+00 0.  1.
        -14    1    4    4    0    0 -0.55768479035E+01 -0.16381373009E+01  0.32625939937E+01  0.66655266801E+01  0.00000000000E+00 0.  1.
<mgrwt>
<rscale>  0 0.77041334E+02</rscale>
<asrwt>0</asrwt>
<pdfrwt beam="1">  1        2 0.69469485E-02 0.77041334E+02</pdfrwt>
<pdfrwt beam="2">  1       -1 0.50555313E-02 0.77041334E+02</pdfrwt>
<totfact> 0.16211780E+05</totfact>
</mgrwt>
</event>
<event>
 8    1  0.2433467E-020  0.7985536E+02  0.7818608E-02  0.1329462E+00
          2   -1    0    0  501    0  0.00000000000E+00  0.00000000000E+00  0.60148119686E+03  0.60148119687E+03  0.25500000000E-02 0. -1.
         -1   -1    0    0    0  501 -0.00000000000E+00 -0.00000000000E+00 -0.26504871052E+01  0.26504918971E+01  0.50400000000E-02 0.  1.
         24    2    1    2    0    0  0.88817841970E-15  0.00000000000E+00  0.59883070976E+03  0.60413168876E+03  0.79855359379E+02 0.  0.
         66    2    3    3    0    0  0.70550538096E+01 -0.80243740439E+01  0.59045470956E+03  0.59055476325E+03  0.19999984767E+01 0.  0.
        -13    1    3    3    0    0 -0.70550538096E+01  0.80243740439E+01  0.83760001956E+01  0.13576925512E+02  0.10566000000E+00 0.  1.
         13    1    4    4    0    0  0.61665858820E+01 -0.65215063592E+01  0.48992976423E+03  0.49001198135E+03  0.10566000000E+00 0. -1.
        -13    1    4    4    0    0  0.95421132903E+00 -0.11545824125E+01  0.72155067279E+02  0.72170689881E+02  0.10566000000E+00 0.  1.
         14    1    4    4    0    0 -0.65743401406E-01 -0.34828527215E+00  0.28369878056E+02  0.28372092022E+02  0.00000000000E+00 0. -1.
<mgrwt>
<rscale>  0 0.79855359E+02</rscale>
<asrwt>0</asrwt>
<pdfrwt beam="1">  1        2 0.92535512E-01 0.79855359E+02</pdfrwt>
<pdfrwt beam="2">  1       -1 0.40776787E-03 0.79855359E+02</pdfrwt>
<totfact> 0.32337474E+05</totfact>
</mgrwt>
</event>
<event>
 8    1  0.2433467E-020  0.7902095E+02  0.7818608E-02  0.1331853E+00
          2   -1    0    0  501    0  0.00000000000E+00  0.00000000000E+00  0.64652367752E+03  0.64652367752E+03  0.25500000000E-02 0. -1.
         -1   -1    0    0    0  501 -0.00000000000E+00 -0.00000000000E+00 -0.24145687174E+01  0.24145739774E+01  0.50400000000E-02 0.  1.
         24    2    1    2    0    0  0.00000000000E+00  0.44408920985E-15  0.64410910880E+03  0.64893825150E+03  0.79020947986E+02 0.  0.
         66    2    3    3    0    0 -0.13473338096E+02  0.39113804447E+01  0.62536200853E+03  0.62552255871E+03  0.20000001902E+01 0.  0.
        -13    1    3    3    0    0  0.13473338096E+02 -0.39113804447E+01  0.18747100268E+02  0.23415692792E+02  0.10566000000E+00 0.  1.
         13    1    4    4    0    0 -0.51513413793E+01  0.20168247578E+01  0.24499736913E+03  0.24505984156E+03  0.10566000000E+00 0. -1.
        -13    1    4    4    0    0 -0.36761830237E+00 -0.17170018407E+00  0.17476117669E+02  0.17481146329E+02  0.10566000000E+00 0.  1.
         14    1    4    4    0    0 -0.79543784146E+01  0.20662558710E+01  0.36288852173E+03  0.36298157082E+03  0.00000000000E+00 0. -1.
<mgrwt>
<rscale>  0 0.79020948E+02</rscale>
<asrwt>0</asrwt>
<pdfrwt beam="1">  1        2 0.99465259E-01 0.79020948E+02</pdfrwt>
<pdfrwt beam="2">  1       -1 0.37147223E-03 0.79020948E+02</pdfrwt>
<totfact> 0.33879571E+05</totfact>
</mgrwt>
</event>
<event>
 8    1  0.2433467E-020  0.7967628E+02  0.7818608E-02  0.1329973E+00
         -1   -1    0    0    0  501 -0.00000000000E+00  0.00000000000E+00  0.32056209965E+02  0.32056210361E+02  0.50400000000E-02 0.  1.
          2   -1    0    0  501    0  0.00000000000E+00 -0.00000000000E+00 -0.49509203731E+02  0.49509203797E+02  0.25500000000E-02 0. -1.
         24    2    1    2    0    0 -0.71054273576E-14 -0.35527136788E-14 -0.17452993766E+02  0.81565414158E+02  0.79676281260E+02 0.  0.
         66    2    3    3    0    0  0.31996816184E+02  0.22682207061E+02 -0.15734765327E+02  0.42306756055E+02  0.20000012304E+01 0.  0.
        -13    1    3    3    0    0 -0.31996816184E+02 -0.22682207061E+02 -0.17182284392E+01  0.39258658103E+02  0.10566000000E+00 0.  1.
         13    1    4    4    0    0  0.10972510202E+02  0.76771609751E+01 -0.51769120866E+01  0.14357798005E+02  0.10566000000E+00 0. -1.
        -13    1    4    4    0    0  0.25884660356E+01  0.21235991655E+01 -0.87026096609E+00  0.34609750097E+01  0.10566000000E+00 0.  1.
        -14    1    4    4    0    0  0.18435839946E+02  0.12881446920E+02 -0.96875922742E+01  0.24487983040E+02  0.00000000000E+00 0.  1.
<mgrwt>
<rscale>  0 0.79676281E+02</rscale>
<asrwt>0</asrwt>
<pdfrwt beam="1">  1        2 0.76168006E-02 0.79676281E+02</pdfrwt>
<pdfrwt beam="2">  1       -1 0.49317247E-02 0.79676281E+02</pdfrwt>
<totfact> 0.15077545E+05</totfact>
</mgrwt>
</event>
<event>
 8    1  0.2433467E-020  0.8061084E+02  0.7818608E-02  0.1327327E+00
         -1   -1    0    0    0  501 -0.00000000000E+00  0.00000000000E+00  0.10027597189E+03  0.10027597202E+03  0.50400000000E-02 0.  1.
          2   -1    0    0  501    0  0.00000000000E+00 -0.00000000000E+00 -0.16200559499E+02  0.16200559700E+02  0.25500000000E-02 0. -1.
         24    2    1    2    0    0 -0.35527136788E-14  0.00000000000E+00  0.84075412393E+02  0.11647653172E+03  0.80610839670E+02 0.  0.
         66    2    3    3    0    0 -0.24221771694E+02  0.24050704396E+02  0.11161344132E+02  0.35968127683E+02  0.20000000620E+01 0.  0.
        -13    1    3    3    0    0  0.24221771694E+02 -0.24050704396E+02  0.72914068262E+02  0.80508404036E+02  0.10566000000E+00 0.  1.
         13    1    4    4    0    0 -0.32768036857E+01  0.35455071324E+01  0.20570334445E+01  0.52488678635E+01  0.10566000000E+00 0. -1.
        -13    1    4    4    0    0 -0.11205240168E+02  0.10368281796E+02  0.42524316855E+01  0.15847807858E+02  0.10566000000E+00 0.  1.
        -14    1    4    4    0    0 -0.97397278408E+01  0.10136915468E+02  0.48518790016E+01  0.14871451962E+02  0.00000000000E+00 0.  1.
<mgrwt>
<rscale>  0 0.80610840E+02</rscale>
<asrwt>0</asrwt>
<pdfrwt beam="1">  1        2 0.24923937E-02 0.80610840E+02</pdfrwt>
<pdfrwt beam="2">  1       -1 0.15427073E-01 0.80610840E+02</pdfrwt>
<totfact> 0.11623497E+05</totfact>
</mgrwt>
</event>
<event>
 8    1  0.2433467E-020  0.8016689E+02  0.7818608E-02  0.1328578E+00
          2   -1    0    0  501    0  0.00000000000E+00  0.00000000000E+00  0.95894249587E+03  0.95894249587E+03  0.25500000000E-02 0. -1.
         -1   -1    0    0    0  501 -0.00000000000E+00 -0.00000000000E+00 -0.16754694966E+01  0.16754770770E+01  0.50400000000E-02 0.  1.
         24    2    1    2    0    0 -0.17763568394E-14 -0.44408920985E-15  0.95726702637E+03  0.96061797295E+03  0.80166889509E+02 0.  0.
         66    2    3    3    0    0 -0.10471679286E+02 -0.25869999134E+01  0.94121061980E+03  0.94127455051E+03  0.19999944430E+01 0.  0.
        -13    1    3    3    0    0  0.10471679286E+02  0.25869999134E+01  0.16056406573E+02  0.19343422440E+02  0.10566000000E+00 0.  1.
         13    1    4    4    0    0 -0.20261105405E+01 -0.16587780142E+00  0.20106579563E+03  0.20107609997E+03  0.10566000000E+00 0. -1.
        -13    1    4    4    0    0 -0.11153014087E+01 -0.63060113909E+00  0.14722364860E+03  0.14722926145E+03  0.10566000000E+00 0.  1.
        -14    1    4    4    0    0 -0.73302673369E+01 -0.17905209729E+01  0.59292117556E+03  0.59296918910E+03  0.00000000000E+00 0.  1.
<mgrwt>
<rscale>  0 0.80166890E+02</rscale>
<asrwt>0</asrwt>
<pdfrwt beam="1">  1        2 0.14752954E+00 0.80166890E+02</pdfrwt>
<pdfrwt beam="2">  1       -1 0.25776525E-03 0.80166890E+02</pdfrwt>
<totfact> 0.34958368E+05</totfact>
</mgrwt>
</event>
<event>
 8    1  0.2433467E-020  0.8089608E+02  0.7818608E-02  0.1326528E+00
          2   -1    0    0  501    0  0.00000000000E+00  0.00000000000E+00  0.10815058805E+03  0.10815058808E+03  0.25500000000E-02 0. -1.
         -1   -1    0    0    0  501 -0.00000000000E+00 -0.00000000000E+00 -0.15127460786E+02  0.15127461626E+02  0.50400000000E-02 0.  1.
         24    2    1    2    0    0  0.00000000000E+00  0.88817841970E-15  0.93023127268E+02  0.12327804971E+03  0.80896077368E+02 0.  0.
         66    2    3    3    0    0 -0.25363747729E+02 -0.47554304732E+01  0.93955326022E+02  0.97455308253E+02  0.20000002266E+01 0.  0.
        -13    1    3    3    0    0  0.25363747729E+02  0.47554304732E+01 -0.93219875356E+00  0.25822741458E+02  0.10566000000E+00 0.  1.
         13    1    4    4    0    0 -0.15747373588E+02 -0.29419212374E+01  0.57370749771E+02  0.59565499820E+02  0.10566000000E+00 0. -1.
        -13    1    4    4    0    0 -0.36940108690E+01 -0.69049272438E+00  0.11890979475E+02  0.12471128795E+02  0.10566000000E+00 0.  1.
        -14    1    4    4    0    0 -0.59223632719E+01 -0.11230165115E+01  0.24693596775E+02  0.25418679637E+02  0.00000000000E+00 0.  1.
<mgrwt>
<rscale>  0 0.80896077E+02</rscale>
<asrwt>0</asrwt>
<pdfrwt beam="1">  1        2 0.16638552E-01 0.80896077E+02</pdfrwt>
<pdfrwt beam="2">  1       -1 0.23273017E-02 0.80896077E+02</pdfrwt>
<totfact> 0.17592599E+05</totfact>
</mgrwt>
</event>
<event>
 8    1  0.2433467E-020  0.7774166E+02  0.7818608E-02  0.1335585E+00
          2   -1    0    0  501    0  0.00000000000E+00  0.00000000000E+00  0.19772193093E+02  0.19772193257E+02  0.25500000000E-02 0. -1.
         -1   -1    0    0    0  501 -0.00000000000E+00 -0.00000000000E+00 -0.76417482490E+02  0.76417482656E+02  0.50400000000E-02 0.  1.
         24    2    1    2    0    0  0.00000000000E+00 -0.22204460493E-15 -0.56645289397E+02  0.96189675914E+02  0.77741655125E+02 0.  0.
         66    2    3    3    0    0  0.30121976237E+02 -0.80049231396E+00  0.19904644696E+01  0.30264437682E+02  0.19999997595E+01 0.  0.
        -13    1    3    3    0    0 -0.30121976237E+02  0.80049231396E+00 -0.58635753867E+02  0.65925238232E+02  0.10566000000E+00 0.  1.
         13    1    4    4    0    0  0.23818883763E+02 -0.13356379864E+01  0.17504390254E+01  0.23920667912E+02  0.10566000000E+00 0. -1.
        -13    1    4    4    0    0  0.86289629135E+00 -0.10102985091E-01  0.92767202283E-01  0.87433510129E+00  0.10566000000E+00 0. -1.
         14    1    4    4    0    0  0.54401961822E+01  0.54524865749E+00  0.14725824194E+00  0.54694346682E+01  0.00000000000E+00 0. -1.
<mgrwt>
<rscale>  0 0.77741655E+02</rscale>
<asrwt>0</asrwt>
<pdfrwt beam="1">  1        2 0.30418759E-02 0.77741655E+02</pdfrwt>
<pdfrwt beam="2">  1       -1 0.11756536E-01 0.77741655E+02</pdfrwt>
<totfact> 0.13446467E+05</totfact>
</mgrwt>
</event>
<event>
 8    1  0.2433467E-020  0.7948780E+02  0.7818608E-02  0.1330511E+00
         -1   -1    0    0    0  501 -0.00000000000E+00  0.00000000000E+00  0.10263966449E+01  0.10264090190E+01  0.50400000000E-02 0.  1.
          2   -1    0    0  501    0  0.00000000000E+00 -0.00000000000E+00 -0.15389451816E+04  0.15389451816E+04  0.25500000000E-02 0. -1.
         24    2    1    2    0    0  0.00000000000E+00  0.00000000000E+00 -0.15379187850E+04  0.15399715906E+04  0.79487802853E+02 0.  0.
         66    2    3    3    0    0  0.18958011402E+02  0.38714783022E+01 -0.14414571052E+04  0.14415883534E+04  0.19999981676E+01 0.  0.
        -13    1    3    3    0    0 -0.18958011402E+02 -0.38714783022E+01 -0.96461679786E+02  0.98383237250E+02  0.10566000000E+00 0.  1.
         13    1    4    4    0    0  0.11767175354E+01  0.33343923141E+00 -0.77318449995E+02  0.77328194856E+02  0.10566000000E+00 0. -1.
        -13    1    4    4    0    0  0.12182961485E+02  0.30515062318E+01 -0.90656285758E+03  0.90664985642E+03  0.10566000000E+00 0.  1.
         14    1    4    4    0    0  0.55983323819E+01  0.48653283898E+00 -0.45757579762E+03  0.45761030212E+03  0.00000000000E+00 0. -1.
<mgrwt>
<rscale>  0 0.79487803E+02</rscale>
<asrwt>0</asrwt>
<pdfrwt beam="1">  1        2 0.23675895E+00 0.79487803E+02</pdfrwt>
<pdfrwt beam="2">  1       -1 0.15790936E-03 0.79487803E+02</pdfrwt>
<totfact> 0.33470679E+05</totfact>
</mgrwt>
</event>
<event>
 8    1  0.2433467E-020  0.7893279E+02  0.7818608E-02  0.1332108E+00
         -1   -1    0    0    0  501 -0.00000000000E+00  0.00000000000E+00  0.10823293594E+02  0.10823294768E+02  0.50400000000E-02 0.  1.
          2   -1    0    0  501    0  0.00000000000E+00 -0.00000000000E+00 -0.14391147550E+03  0.14391147553E+03  0.25500000000E-02 0. -1.
         24    2    1    2    0    0  0.00000000000E+00  0.00000000000E+00 -0.13308818191E+03  0.15473477029E+03  0.78932787699E+02 0.  0.
         66    2    3    3    0    0  0.25602397371E+02 -0.29149815774E+02 -0.52670133768E+02  0.65447211577E+02  0.20000003092E+01 0.  0.
        -13    1    3    3    0    0 -0.25602397371E+02  0.29149815774E+02 -0.80418048143E+02  0.89287558718E+02  0.10566000000E+00 0.  1.
         13    1    4    4    0    0  0.20549113769E+02 -0.22529090982E+02 -0.40951918952E+02  0.51057779496E+02  0.10566000000E+00 0. -1.
        -13    1    4    4    0    0  0.43231018763E+01 -0.53093440498E+01 -0.97430195403E+01  0.11908649708E+02  0.10566000000E+00 0.  1.
         14    1    4    4    0    0  0.73018172529E+00 -0.13113807425E+01 -0.19751952759E+01  0.24807823729E+01  0.00000000000E+00 0. -1.
<mgrwt>
<rscale>  0 0.78932788E+02</rscale>
<asrwt>0</asrwt>
<pdfrwt beam="1">  1        2 0.22140226E-01 0.78932788E+02</pdfrwt>
<pdfrwt beam="2">  1       -1 0.16651223E-02 0.78932788E+02</pdfrwt>
<totfact> 0.20483157E+05</totfact>
</mgrwt>
</event>
<event>
 8    1  0.2433467E-020  0.8214928E+02  0.7818608E-02  0.1323060E+00
          2   -1    0    0  501    0  0.00000000000E+00  0.00000000000E+00  0.57326772066E+03  0.57326772066E+03  0.25500000000E-02 0. -1.
         -1   -1    0    0    0  501 -0.00000000000E+00 -0.00000000000E+00 -0.29429960747E+01  0.29430003903E+01  0.50400000000E-02 0.  1.
         24    2    1    2    0    0  0.00000000000E+00  0.00000000000E+00  0.57032472458E+03  0.57621072105E+03  0.82149276238E+02 0.  0.
         66    2    3    3    0    0 -0.33249160618E+02  0.55293065449E+01  0.44968479928E+03  0.45095066096E+03  0.20000017981E+01 0.  0.
        -13    1    3    3    0    0  0.33249160618E+02 -0.55293065449E+01  0.12063992531E+03  0.12526006009E+03  0.10566000000E+00 0.  1.
         13    1    4    4    0    0 -0.16292897010E+02  0.23511868468E+01  0.21456657180E+03  0.21519714559E+03  0.10566000000E+00 0. -1.
        -13    1    4    4    0    0 -0.56776827519E+00  0.35398188540E-01  0.10782430270E+02  0.10797943342E+02  0.10566000000E+00 0.  1.
        -14    1    4    4    0    0 -0.16388495333E+02  0.31427215096E+01  0.22433579721E+03  0.22495557203E+03  0.00000000000E+00 0.  1.
<mgrwt>
<rscale>  0 0.82149276E+02</rscale>
<asrwt>0</asrwt>
<pdfrwt beam="1">  1        2 0.88194896E-01 0.82149276E+02</pdfrwt>
<pdfrwt beam="2">  1       -1 0.45276967E-03 0.82149276E+02</pdfrwt>
<totfact> 0.29629460E+05</totfact>
</mgrwt>
</event>
<event>
 8    1  0.2815614E-020  0.7080451E+02  0.7818608E-02  0.1357378E+00
         -1   -1    0    0    0  501 -0.00000000000E+00  0.00000000000E+00  0.10600822833E+02  0.10600824031E+02  0.50400000000E-02 0.  1.
          2   -1    0    0  501    0  0.00000000000E+00 -0.00000000000E+00 -0.11822851638E+03  0.11822851641E+03  0.25500000000E-02 0. -1.
         24    2    1    2    0    0  0.00000000000E+00 -0.44408920985E-15 -0.10762769355E+03  0.12882934044E+03  0.70804509318E+02 0.  0.
         66    2    3    3    0    0  0.18224337387E+02 -0.32111579140E+01 -0.10871042148E+03  0.11029231068E+03  0.20000124330E+01 0.  0.
        -13    1    3    3    0    0 -0.18224337387E+02  0.32111579140E+01  0.10827279306E+01  0.18537029755E+02  0.10566000000E+00 0.  1.
         13    1    4    4    0    0  0.13898857281E+02 -0.23211536484E+01 -0.85373244216E+02  0.86528422960E+02  0.10566000000E+00 0. -1.
        -13    1    4    4    0    0  0.13389071211E+01 -0.42663608106E+00 -0.91960236909E+01  0.93033707002E+01  0.10566000000E+00 0.  1.
        -14    1    4    4    0    0  0.29865729853E+01 -0.46336818458E+00 -0.14141153571E+02  0.14460517024E+02  0.00000000000E+00 0.  1.
<mgrwt>
<rscale>  0 0.70804509E+02</rscale>
<asrwt>0</asrwt>
<pdfrwt beam="1">  1        2 0.18189002E-01 0.70804509E+02</pdfrwt>
<pdfrwt beam="2">  1       -1 0.16308960E-02 0.70804509E+02</pdfrwt>
<totfact> 0.25700473E+05</totfact>
</mgrwt>
</event>
<event>
 8    1  0.2433467E-020  0.8131736E+02  0.7818608E-02  0.1325354E+00
         -1   -1    0    0    0  501 -0.00000000000E+00  0.00000000000E+00  0.58689435536E+02  0.58689435752E+02  0.50400000000E-02 0.  1.
          2   -1    0    0  501    0  0.00000000000E+00 -0.00000000000E+00 -0.28167387702E+02  0.28167387818E+02  0.25500000000E-02 0. -1.
         24    2    1    2    0    0  0.00000000000E+00  0.00000000000E+00  0.30522047833E+02  0.86856823570E+02  0.81317356060E+02 0.  0.
         66    2    3    3    0    0  0.21436476036E+02 -0.42176730384E+01 -0.21324617370E+02  0.30594943691E+02  0.20000006959E+01 0.  0.
        -13    1    3    3    0    0 -0.21436476036E+02  0.42176730384E+01  0.51846665204E+02  0.56261879879E+02  0.10566000000E+00 0.  1.
         13    1    4    4    0    0  0.16252331841E+02 -0.31947618733E+01 -0.16023657460E+02  0.23045901070E+02  0.10566000000E+00 0. -1.
        -13    1    4    4    0    0  0.17977244174E+01  0.74377159977E-01 -0.20302066725E+01  0.27148201066E+01  0.10566000000E+00 0.  1.
         14    1    4    4    0    0  0.33864197778E+01 -0.10972883251E+01 -0.32707532372E+01  0.48342225143E+01  0.00000000000E+00 0. -1.
<mgrwt>
<rscale>  0 0.81317356E+02</rscale>
<asrwt>0</asrwt>
<pdfrwt beam="1">  1        2 0.43334443E-02 0.81317356E+02</pdfrwt>
<pdfrwt beam="2">  1       -1 0.90291440E-02 0.81317356E+02</pdfrwt>
<totfact> 0.12691654E+05</totfact>
</mgrwt>
</event>
<event>
 8    1  0.2433467E-020  0.7823625E+02  0.7818608E-02  0.1334133E+00
         -1   -1    0    0    0  501 -0.00000000000E+00  0.00000000000E+00  0.11234081490E+02  0.11234082620E+02  0.50400000000E-02 0.  1.
          2   -1    0    0  501    0  0.00000000000E+00 -0.00000000000E+00 -0.13621295472E+03  0.13621295475E+03  0.25500000000E-02 0. -1.
         24    2    1    2    0    0  0.00000000000E+00  0.17763568394E-14 -0.12497887323E+03  0.14744703737E+03  0.78236245269E+02 0.  0.
         66    2    3    3    0    0  0.13488611657E+02 -0.14915505254E+02 -0.12570934769E+03  0.12732342690E+03  0.19999994268E+01 0.  0.
        -13    1    3    3    0    0 -0.13488611657E+02  0.14915505254E+02  0.73047446055E+00  0.20123610471E+02  0.10566000000E+00 0.  1.
         13    1    4    4    0    0  0.95082238979E+01 -0.97003090469E+01 -0.83030779491E+02  0.84134557848E+02  0.10566000000E+00 0. -1.
        -13    1    4    4    0    0  0.24464504560E+01 -0.37684378173E+01 -0.27575495244E+02  0.27939315407E+02  0.10566000000E+00 0.  1.
        -14    1    4    4    0    0  0.15339373028E+01 -0.14467583898E+01 -0.15103072957E+02  0.15249553640E+02  0.00000000000E+00 0.  1.
<mgrwt>
<rscale>  0 0.78236245E+02</rscale>
<asrwt>0</asrwt>
<pdfrwt beam="1">  1        2 0.20955838E-01 0.78236245E+02</pdfrwt>
<pdfrwt beam="2">  1       -1 0.17283204E-02 0.78236245E+02</pdfrwt>
<totfact> 0.20610859E+05</totfact>
</mgrwt>
</event>
<event>
 8    1  0.2433467E-020  0.7985966E+02  0.7818608E-02  0.1329450E+00
         -1   -1    0    0    0  501 -0.00000000000E+00  0.00000000000E+00  0.23300892424E+03  0.23300892429E+03  0.50400000000E-02 0.  1.
          2   -1    0    0  501    0  0.00000000000E+00 -0.00000000000E+00 -0.68426183397E+01  0.68426188148E+01  0.25500000000E-02 0. -1.
         24    2    1    2    0    0  0.00000000000E+00  0.00000000000E+00  0.22616630590E+03  0.23985154311E+03  0.79859656944E+02 0.  0.
         66    2    3    3    0    0  0.23073182450E+01  0.33766222574E+02  0.49661362064E+02  0.60130960350E+02  0.20000015599E+01 0.  0.
        -13    1    3    3    0    0 -0.23073182450E+01 -0.33766222574E+02  0.17650494383E+03  0.17972058275E+03  0.10566000000E+00 0.  1.
         13    1    4    4    0    0  0.15814047836E+01  0.13353810705E+02  0.19723171447E+02  0.23871316624E+02  0.10566000000E+00 0. -1.
        -13    1    4    4    0    0 -0.24723129974E+00  0.20197238600E+01  0.30584659625E+01  0.36750218864E+01  0.10566000000E+00 0.  1.
         14    1    4    4    0    0  0.97314476119E+00  0.18392688009E+02  0.26879724655E+02  0.32584621840E+02  0.00000000000E+00 0. -1.
<mgrwt>
<rscale>  0 0.79859657E+02</rscale>
<asrwt>0</asrwt>
<pdfrwt beam="1">  1        2 0.10527107E-02 0.79859657E+02</pdfrwt>
<pdfrwt beam="2">  1       -1 0.35847521E-01 0.79859657E+02</pdfrwt>
<totfact> 0.95301378E+04</totfact>
</mgrwt>
</event>
<event>
 8    1  0.2433467E-020  0.7444712E+02  0.7818608E-02  0.1345592E+00
         -1   -1    0    0    0  501 -0.00000000000E+00  0.00000000000E+00  0.13733299792E+01  0.13733392273E+01  0.50400000000E-02 0.  1.
          2   -1    0    0  501    0  0.00000000000E+00 -0.00000000000E+00 -0.10089263373E+04  0.10089263373E+04  0.25500000000E-02 0. -1.
         24    2    1    2    0    0 -0.17763568394E-14  0.17763568394E-14 -0.10075530073E+04  0.10102996765E+04  0.74447121077E+02 0.  0.
         66    2    3    3    0    0  0.95062328581E+01 -0.67555936514E+01 -0.98347156493E+03  0.98354274209E+03  0.19999992470E+01 0.  0.
        -13    1    3    3    0    0 -0.95062328581E+01  0.67555936514E+01 -0.24081442411E+02  0.26756934454E+02  0.10566000000E+00 0.  1.
         13    1    4    4    0    0  0.33333077558E+01 -0.26625076466E+01 -0.36034275034E+03  0.36036801852E+03  0.10566000000E+00 0. -1.
        -13    1    4    4    0    0  0.78087883086E+00 -0.71729582470E+00 -0.13951879706E+03  0.13952286616E+03  0.10566000000E+00 0.  1.
         14    1    4    4    0    0  0.53920462715E+01 -0.33757901800E+01 -0.48361001753E+03  0.48365185741E+03  0.00000000000E+00 0. -1.
<mgrwt>
<rscale>  0 0.74447121E+02</rscale>
<asrwt>0</asrwt>
<pdfrwt beam="1">  1        2 0.15521884E+00 0.74447121E+02</pdfrwt>
<pdfrwt beam="2">  1       -1 0.21128305E-03 0.74447121E+02</pdfrwt>
<totfact> 0.42450837E+05</totfact>
</mgrwt>
</event>
<event>
 8    1  0.2433467E-020  0.8014228E+02  0.7818608E-02  0.1328648E+00
         -1   -1    0    0    0  501 -0.00000000000E+00  0.00000000000E+00  0.17154557457E+01  0.17154631494E+01  0.50400000000E-02 0.  1.
          2   -1    0    0  501    0  0.00000000000E+00 -0.00000000000E+00 -0.93601530126E+03  0.93601530126E+03  0.25500000000E-02 0. -1.
         24    2    1    2    0    0  0.00000000000E+00 -0.71054273576E-14 -0.93429984551E+03  0.93773076441E+03  0.80142280966E+02 0.  0.
         66    2    3    3    0    0 -0.65331198659E+01 -0.30684689976E+02 -0.75866119844E+03  0.75931221895E+03  0.19999945217E+01 0.  0.
        -13    1    3    3    0    0  0.65331198659E+01  0.30684689976E+02 -0.17563864708E+03  0.17841854546E+03  0.10566000000E+00 0.  1.
         13    1    4    4    0    0 -0.17000561219E+01 -0.99835660871E+01 -0.24427919174E+03  0.24448905183E+03  0.10566000000E+00 0.  1.
        -13    1    4    4    0    0 -0.44722579609E+01 -0.19506124627E+02 -0.47502877798E+03  0.47545014572E+03  0.10566000000E+00 0. -1.
        -14    1    4    4    0    0 -0.36080578306E+00 -0.11949992621E+01 -0.39353228711E+02  0.39373021398E+02  0.00000000000E+00 0.  1.
<mgrwt>
<rscale>  0 0.80142281E+02</rscale>
<asrwt>0</asrwt>
<pdfrwt beam="1">  1        2 0.14400195E+00 0.80142281E+02</pdfrwt>
<pdfrwt beam="2">  1       -1 0.26391759E-03 0.80142281E+02</pdfrwt>
<totfact> 0.34919961E+05</totfact>
</mgrwt>
</event>
<event>
 8    1  0.2433467E-020  0.7966775E+02  0.7818608E-02  0.1329997E+00
         -1   -1    0    0    0  501 -0.00000000000E+00  0.00000000000E+00  0.53458183270E+02  0.53458183508E+02  0.50400000000E-02 0.  1.
          2   -1    0    0  501    0  0.00000000000E+00 -0.00000000000E+00 -0.29681846728E+02  0.29681846838E+02  0.25500000000E-02 0. -1.
         24    2    1    2    0    0  0.00000000000E+00  0.00000000000E+00  0.23776336542E+02  0.83140030346E+02  0.79667750480E+02 0.  0.
         66    2    3    3    0    0  0.77309276495E+01 -0.26502628494E+02 -0.18034977332E+02  0.33036600410E+02  0.19999999702E+01 0.  0.
        -13    1    3    3    0    0 -0.77309276495E+01  0.26502628494E+02  0.41811313874E+02  0.50103429936E+02  0.10566000000E+00 0.  1.
         13    1    4    4    0    0  0.57502640510E+01 -0.19467351499E+02 -0.13683206664E+02  0.24480290433E+02  0.10566000000E+00 0. -1.
        -13    1    4    4    0    0  0.12306851201E+01 -0.27721702716E+01 -0.19239009683E+01  0.35933372860E+01  0.10566000000E+00 0.  1.
        -14    1    4    4    0    0  0.74997847833E+00 -0.42631067233E+01 -0.24278696991E+01  0.49629726907E+01  0.00000000000E+00 0.  1.
<mgrwt>
<rscale>  0 0.79667750E+02</rscale>
<asrwt>0</asrwt>
<pdfrwt beam="1">  1        2 0.45664380E-02 0.79667750E+02</pdfrwt>
<pdfrwt beam="2">  1       -1 0.82243359E-02 0.79667750E+02</pdfrwt>
<totfact> 0.13584516E+05</totfact>
</mgrwt>
</event>
<event>
 8    1  0.2433467E-020  0.8339083E+02  0.7818608E-02  0.1319695E+00
         -1   -1    0    0    0  501 -0.00000000000E+00  0.00000000000E+00  0.33325727300E+01  0.33325765411E+01  0.50400000000E-02 0.  1.
          2   -1    0    0  501    0  0.00000000000E+00 -0.00000000000E+00 -0.52167099197E+03  0.52167099198E+03  0.25500000000E-02 0. -1.
         24    2    1    2    0    0 -0.35527136788E-14  0.00000000000E+00 -0.51833841924E+03  0.52500356852E+03  0.83390827408E+02 0.  0.
         66    2    3    3    0    0  0.31798357876E+02 -0.70942246879E+01 -0.42288964970E+03  0.42414752081E+03  0.20000005418E+01 0.  0.
        -13    1    3    3    0    0 -0.31798357876E+02  0.70942246879E+01 -0.95448769546E+02  0.10085604771E+03  0.10566000000E+00 0.  1.
         13    1    4    4    0    0  0.14917711773E+02 -0.31083736685E+01 -0.20113247264E+03  0.20170890616E+03  0.10566000000E+00 0. -1.
        -13    1    4    4    0    0  0.94520331462E+01 -0.16707812835E+01 -0.12746997455E+03  0.12783089618E+03  0.10566000000E+00 0.  1.
         14    1    4    4    0    0  0.74286129568E+01 -0.23150697359E+01 -0.94287202504E+02  0.94607718471E+02  0.00000000000E+00 0. -1.
<mgrwt>
<rscale>  0 0.83390827E+02</rscale>
<asrwt>0</asrwt>
<pdfrwt beam="1">  1        2 0.80257011E-01 0.83390827E+02</pdfrwt>
<pdfrwt beam="2">  1       -1 0.51270421E-03 0.83390827E+02</pdfrwt>
<totfact> 0.27691156E+05</totfact>
</mgrwt>
</event>
<event>
 8    1  0.2433467E-020  0.7903357E+02  0.7818608E-02  0.1331817E+00
          2   -1    0    0  501    0  0.00000000000E+00  0.00000000000E+00  0.44040674269E+01  0.44040681651E+01  0.25500000000E-02 0. -1.
         -1   -1    0    0    0  501 -0.00000000000E+00 -0.00000000000E+00 -0.35457586746E+03  0.35457586750E+03  0.50400000000E-02 0.  1.
         24    2    1    2    0    0  0.35527136788E-14  0.35527136788E-14 -0.35017180004E+03  0.35897993566E+03  0.79033566721E+02 0.  0.
         66    2    3    3    0    0 -0.30208093719E+02 -0.19913206993E+02 -0.24708764130E+03  0.24973058928E+03  0.20000000718E+01 0.  0.
        -13    1    3    3    0    0  0.30208093719E+02  0.19913206993E+02 -0.10308415874E+03  0.10924934639E+03  0.10566000000E+00 0.  1.
         13    1    4    4    0    0 -0.69141390940E+01 -0.50909469925E+01 -0.57905497825E+02  0.58538712858E+02  0.10566000000E+00 0. -1.
        -13    1    4    4    0    0 -0.17410415043E+02 -0.11696012071E+02 -0.14590662503E+03  0.14740649118E+03  0.10566000000E+00 0.  1.
        -14    1    4    4    0    0 -0.58835395822E+01 -0.31262479297E+01 -0.43275518444E+02  0.43785385241E+02  0.00000000000E+00 0.  1.
<mgrwt>
<rscale>  0 0.79033567E+02</rscale>
<asrwt>0</asrwt>
<pdfrwt beam="1">  1        2 0.67754917E-03 0.79033567E+02</pdfrwt>
<pdfrwt beam="2">  1       -1 0.54550111E-01 0.79033567E+02</pdfrwt>
<totfact> 0.82943096E+04</totfact>
</mgrwt>
</event>
<event>
 8    1  0.2433467E-020  0.8133755E+02  0.7818608E-02  0.1325298E+00
         -1   -1    0    0    0  501 -0.00000000000E+00  0.00000000000E+00  0.26270080064E+02  0.26270080548E+02  0.50400000000E-02 0.  1.
          2   -1    0    0  501    0  0.00000000000E+00 -0.00000000000E+00 -0.62959431056E+02  0.62959431108E+02  0.25500000000E-02 0. -1.
         24    2    1    2    0    0  0.00000000000E+00  0.00000000000E+00 -0.36689350992E+02  0.89229511655E+02  0.81337551439E+02 0.  0.
         66    2    3    3    0    0 -0.31391577245E+02  0.22488920858E+02 -0.32265144263E+02  0.50360919546E+02  0.19999999767E+01 0.  0.
        -13    1    3    3    0    0  0.31391577245E+02 -0.22488920858E+02 -0.44242067285E+01  0.38868592109E+02  0.10566000000E+00 0.  1.
         13    1    4    4    0    0 -0.15741919944E+01  0.12131031497E+01 -0.18979947724E+01  0.27501359746E+01  0.10566000000E+00 0. -1.
        -13    1    4    4    0    0 -0.33104903935E+01  0.22796593257E+01 -0.26846897755E+01  0.48347612674E+01  0.10566000000E+00 0.  1.
        -14    1    4    4    0    0 -0.26506894857E+02  0.18996158383E+02 -0.27682459715E+02  0.42776022304E+02  0.00000000000E+00 0.  1.
<mgrwt>
<rscale>  0 0.81337551E+02</rscale>
<asrwt>0</asrwt>
<pdfrwt beam="1">  1        2 0.96860663E-02 0.81337551E+02</pdfrwt>
<pdfrwt beam="2">  1       -1 0.40415508E-02 0.81337551E+02</pdfrwt>
<totfact> 0.15047734E+05</totfact>
</mgrwt>
</event>
<event>
 8    1  0.2433467E-020  0.7883320E+02  0.7818608E-02  0.1332396E+00
         -1   -1    0    0    0  501 -0.00000000000E+00  0.00000000000E+00  0.11411118337E+02  0.11411119450E+02  0.50400000000E-02 0.  1.
          2   -1    0    0  501    0  0.00000000000E+00 -0.00000000000E+00 -0.13615389915E+03  0.13615389917E+03  0.25500000000E-02 0. -1.
         24    2    1    2    0    0  0.00000000000E+00  0.00000000000E+00 -0.12474278081E+03  0.14756501862E+03  0.78833199581E+02 0.  0.
         66    2    3    3    0    0 -0.32359394709E+02 -0.22392276082E+02 -0.59105596925E+02  0.71035315064E+02  0.19999860769E+01 0.  0.
        -13    1    3    3    0    0  0.32359394709E+02  0.22392276082E+02 -0.65637183888E+02  0.76529703559E+02  0.10566000000E+00 0.  1.
         13    1    4    4    0    0 -0.10904376889E+02 -0.71896648537E+01 -0.19878253022E+02  0.23785559134E+02  0.10566000000E+00 0. -1.
        -13    1    4    4    0    0 -0.83726147963E+01 -0.61894859408E+01 -0.16816774610E+02  0.19779420797E+02  0.10566000000E+00 0.  1.
         14    1    4    4    0    0 -0.13082403023E+02 -0.90131252879E+01 -0.22410569292E+02  0.27470335133E+02  0.00000000000E+00 0. -1.
<mgrwt>
<rscale>  0 0.78833200E+02</rscale>
<asrwt>0</asrwt>
<pdfrwt beam="1">  1        2 0.20946753E-01 0.78833200E+02</pdfrwt>
<pdfrwt beam="2">  1       -1 0.17555569E-02 0.78833200E+02</pdfrwt>
<totfact> 0.20196581E+05</totfact>
</mgrwt>
</event>
<event>
 8    1  0.2433467E-020  0.7618190E+02  0.7818608E-02  0.1340250E+00
          2   -1    0    0  501    0  0.00000000000E+00  0.00000000000E+00  0.34837240930E+03  0.34837240931E+03  0.25500000000E-02 0. -1.
         -1   -1    0    0    0  501 -0.00000000000E+00 -0.00000000000E+00 -0.41648535800E+01  0.41648566295E+01  0.50400000000E-02 0.  1.
         24    2    1    2    0    0  0.00000000000E+00  0.35527136788E-14  0.34420755572E+03  0.35253726594E+03  0.76181903763E+02 0.  0.
         66    2    3    3    0    0  0.44967240493E+01 -0.22966484623E+02  0.31114451010E+03  0.31202978400E+03  0.19999991510E+01 0.  0.
        -13    1    3    3    0    0 -0.44967240493E+01  0.22966484623E+02  0.33063045625E+02  0.40507481940E+02  0.10566000000E+00 0.  1.
         13    1    4    4    0    0  0.46971109781E+00 -0.34486258841E+01  0.47978676514E+02  0.48104866833E+02  0.10566000000E+00 0. -1.
        -13    1    4    4    0    0  0.41346548954E+01 -0.18440214966E+02  0.25141955207E+03  0.25212881475E+03  0.10566000000E+00 0.  1.
        -14    1    4    4    0    0 -0.10764194388E+00 -0.10776437734E+01  0.11746281510E+02  0.11796102416E+02  0.00000000000E+00 0.  1.
<mgrwt>
<rscale>  0 0.76181904E+02</rscale>
<asrwt>0</asrwt>
<pdfrwt beam="1">  1        2 0.53595774E-01 0.76181904E+02</pdfrwt>
<pdfrwt beam="2">  1       -1 0.64074672E-03 0.76181904E+02</pdfrwt>
<totfact> 0.30567966E+05</totfact>
</mgrwt>
</event>
<event>
 8    1  0.2433467E-020  0.7762115E+02  0.7818608E-02  0.1335941E+00
         -1   -1    0    0    0  501 -0.00000000000E+00  0.00000000000E+00  0.41083754817E+01  0.41083785731E+01  0.50400000000E-02 0.  1.
          2   -1    0    0  501    0  0.00000000000E+00 -0.00000000000E+00 -0.36663153038E+03  0.36663153039E+03  0.25500000000E-02 0. -1.
         24    2    1    2    0    0  0.00000000000E+00  0.71054273576E-14 -0.36252315490E+03  0.37073990896E+03  0.77621145700E+02 0.  0.
         66    2    3    3    0    0 -0.42669710569E+01  0.37555743856E+02 -0.22291449635E+03  0.22610509419E+03  0.19999992541E+01 0.  0.
        -13    1    3    3    0    0  0.42669710569E+01 -0.37555743856E+02 -0.13960865855E+03  0.14463481477E+03  0.10566000000E+00 0.  1.
         13    1    4    4    0    0 -0.27838805877E+01  0.22874291133E+02 -0.13733536258E+03  0.13925514771E+03  0.10566000000E+00 0. -1.
        -13    1    4    4    0    0  0.37003423381E-01  0.42232775190E+01 -0.25910851440E+02  0.26253015611E+02  0.10566000000E+00 0.  1.
        -14    1    4    4    0    0 -0.15200938926E+01  0.10458175204E+02 -0.59668282330E+02  0.60596930865E+02  0.00000000000E+00 0.  1.
<mgrwt>
<rscale>  0 0.77621146E+02</rscale>
<asrwt>0</asrwt>
<pdfrwt beam="1">  1        2 0.56404825E-01 0.77621146E+02</pdfrwt>
<pdfrwt beam="2">  1       -1 0.63205830E-03 0.77621146E+02</pdfrwt>
<totfact> 0.29645207E+05</totfact>
</mgrwt>
</event>
<event>
 8    1  0.2433467E-020  0.7993588E+02  0.7818608E-02  0.1329233E+00
          2   -1    0    0  501    0  0.00000000000E+00  0.00000000000E+00  0.24674312075E+03  0.24674312077E+03  0.25500000000E-02 0. -1.
         -1   -1    0    0    0  501 -0.00000000000E+00 -0.00000000000E+00 -0.64740852080E+01  0.64740871698E+01  0.50400000000E-02 0.  1.
         24    2    1    2    0    0  0.00000000000E+00  0.00000000000E+00  0.24026903554E+03  0.25321720794E+03  0.79935880261E+02 0.  0.
         66    2    3    3    0    0  0.12965485191E+02  0.35421645197E+02  0.16183077792E+03  0.16618061691E+03  0.19999996275E+01 0.  0.
        -13    1    3    3    0    0 -0.12965485191E+02 -0.35421645197E+02  0.78438257621E+02  0.87036591025E+02  0.10566000000E+00 0.  1.
         13    1    4    4    0    0  0.49727559919E+01  0.14192208052E+02  0.64289378930E+02  0.66024862581E+02  0.10566000000E+00 0. -1.
        -13    1    4    4    0    0  0.22746208841E+01  0.72732707676E+01  0.30325347655E+02  0.31268390465E+02  0.10566000000E+00 0.  1.
         14    1    4    4    0    0  0.57181083148E+01  0.13956166377E+02  0.67216051339E+02  0.68887363865E+02  0.00000000000E+00 0. -1.
<mgrwt>
<rscale>  0 0.79935880E+02</rscale>
<asrwt>0</asrwt>
<pdfrwt beam="1">  1        2 0.37960480E-01 0.79935880E+02</pdfrwt>
<pdfrwt beam="2">  1       -1 0.99601327E-03 0.79935880E+02</pdfrwt>
<totfact> 0.23806725E+05</totfact>
</mgrwt>
</event>
<event>
 8    1  0.2433467E-020  0.7791808E+02  0.7818608E-02  0.1335066E+00
          2   -1    0    0  501    0  0.00000000000E+00  0.00000000000E+00  0.55411859712E+02  0.55411859771E+02  0.25500000000E-02 0. -1.
         -1   -1    0    0    0  501 -0.00000000000E+00 -0.00000000000E+00 -0.27391372774E+02  0.27391373238E+02  0.50400000000E-02 0.  1.
         24    2    1    2    0    0  0.00000000000E+00  0.35527136788E-14  0.28020486938E+02  0.82803233009E+02  0.77918083322E+02 0.  0.
         66    2    3    3    0    0 -0.14501291437E+02  0.26465456781E+02  0.40160346550E+02  0.50274857529E+02  0.20000021357E+01 0.  0.
        -13    1    3    3    0    0  0.14501291437E+02 -0.26465456781E+02 -0.12139859612E+02  0.32528375481E+02  0.10566000000E+00 0.  1.
         13    1    4    4    0    0 -0.10952001153E+02  0.20665254614E+02  0.30924456817E+02  0.38772829030E+02  0.10566000000E+00 0. -1.
        -13    1    4    4    0    0 -0.10128079513E+01  0.21036748377E+01  0.37312278128E+01  0.44027778499E+01  0.10566000000E+00 0.  1.
        -14    1    4    4    0    0 -0.25364823325E+01  0.36965273295E+01  0.55046619201E+01  0.70992506488E+01  0.00000000000E+00 0.  1.
<mgrwt>
<rscale>  0 0.77918083E+02</rscale>
<asrwt>0</asrwt>
<pdfrwt beam="1">  1        2 0.85249014E-02 0.77918083E+02</pdfrwt>
<pdfrwt beam="2">  1       -1 0.42140575E-02 0.77918083E+02</pdfrwt>
<totfact> 0.16424874E+05</totfact>
</mgrwt>
</event>
<event>
 8    1  0.2433467E-020  0.7896689E+02  0.7818608E-02  0.1332009E+00
          2   -1    0    0  501    0  0.00000000000E+00  0.00000000000E+00  0.36577422316E+02  0.36577422405E+02  0.25500000000E-02 0. -1.
         -1   -1    0    0    0  501 -0.00000000000E+00 -0.00000000000E+00 -0.42620348356E+02  0.42620348654E+02  0.50400000000E-02 0.  1.
         24    2    1    2    0    0  0.00000000000E+00  0.00000000000E+00 -0.60429260391E+01  0.79197771059E+02  0.78966891705E+02 0.  0.
         66    2    3    3    0    0  0.24554567498E+02 -0.11830132299E+02  0.25591738415E+02  0.37440831823E+02  0.19999993135E+01 0.  0.
        -13    1    3    3    0    0 -0.24554567498E+02  0.11830132299E+02 -0.31634664454E+02  0.41756939236E+02  0.10566000000E+00 0.  1.
         13    1    4    4    0    0  0.54365861520E+01 -0.22151972717E+01  0.57991029617E+01  0.82525345886E+01  0.10566000000E+00 0. -1.
        -13    1    4    4    0    0  0.78906780546E+01 -0.38450155862E+01  0.91165246580E+01  0.12655794361E+02  0.10566000000E+00 0.  1.
         14    1    4    4    0    0  0.11227303291E+02 -0.57699194409E+01  0.10676110795E+02  0.16532502874E+02  0.00000000000E+00 0. -1.
<mgrwt>
<rscale>  0 0.78966892E+02</rscale>
<asrwt>0</asrwt>
<pdfrwt beam="1">  1        2 0.56272957E-02 0.78966892E+02</pdfrwt>
<pdfrwt beam="2">  1       -1 0.65569768E-02 0.78966892E+02</pdfrwt>
<totfact> 0.14511448E+05</totfact>
</mgrwt>
</event>
<event>
 8    1  0.2433467E-020  0.7966898E+02  0.7818608E-02  0.1329993E+00
         -1   -1    0    0    0  501 -0.00000000000E+00  0.00000000000E+00  0.14512300299E+02  0.14512301174E+02  0.50400000000E-02 0.  1.
          2   -1    0    0  501    0  0.00000000000E+00 -0.00000000000E+00 -0.10934080440E+03  0.10934080443E+03  0.25500000000E-02 0. -1.
         24    2    1    2    0    0  0.00000000000E+00  0.00000000000E+00 -0.94828504105E+02  0.12385310561E+03  0.79668981278E+02 0.  0.
         66    2    3    3    0    0  0.96280437482E+01  0.17557166055E+02 -0.10093274543E+03  0.10291925186E+03  0.19999992984E+01 0.  0.
        -13    1    3    3    0    0 -0.96280437482E+01 -0.17557166055E+02  0.61042413290E+01  0.20933853743E+02  0.10566000000E+00 0.  1.
         13    1    4    4    0    0  0.57487725112E+01  0.11542128569E+02 -0.61804203281E+02  0.63135091863E+02  0.10566000000E+00 0. -1.
        -13    1    4    4    0    0  0.24470130075E+01  0.36240909489E+01 -0.22046299645E+02  0.22476040575E+02  0.10566000000E+00 0.  1.
         14    1    4    4    0    0  0.14322582295E+01  0.23909465374E+01 -0.17082242507E+02  0.17308119426E+02  0.00000000000E+00 0. -1.
<mgrwt>
<rscale>  0 0.79668981E+02</rscale>
<asrwt>0</asrwt>
<pdfrwt beam="1">  1        2 0.16821662E-01 0.79668981E+02</pdfrwt>
<pdfrwt beam="2">  1       -1 0.22326617E-02 0.79668981E+02</pdfrwt>
<totfact> 0.18384674E+05</totfact>
</mgrwt>
</event>
<event>
 8    1  0.2433467E-020  0.7877978E+02  0.7818608E-02  0.1332550E+00
         -1   -1    0    0    0  501 -0.00000000000E+00  0.00000000000E+00  0.29011040608E+02  0.29011041046E+02  0.50400000000E-02 0.  1.
          2   -1    0    0  501    0  0.00000000000E+00 -0.00000000000E+00 -0.53481823327E+02  0.53481823388E+02  0.25500000000E-02 0. -1.
         24    2    1    2    0    0  0.00000000000E+00 -0.71054273576E-14 -0.24470782719E+02  0.82492864434E+02  0.78779778342E+02 0.  0.
         66    2    3    3    0    0  0.10990416299E+01  0.39182004244E+02 -0.16036285284E+02  0.42398110911E+02  0.20000035081E+01 0.  0.
        -13    1    3    3    0    0 -0.10990416299E+01 -0.39182004244E+02 -0.84344974345E+01  0.40094753523E+02  0.10566000000E+00 0.  1.
         13    1    4    4    0    0  0.17279774907E+00  0.65892610343E+01 -0.30758445606E+01  0.72746274019E+01  0.10566000000E+00 0. -1.
        -13    1    4    4    0    0 -0.32236962322E+00  0.23826686242E+01 -0.84776880047E+00  0.25516480795E+01  0.10566000000E+00 0.  1.
         14    1    4    4    0    0  0.12486135040E+01  0.30210074585E+02 -0.12112671923E+02  0.32571835430E+02  0.00000000000E+00 0. -1.
<mgrwt>
<rscale>  0 0.78779778E+02</rscale>
<asrwt>0</asrwt>
<pdfrwt beam="1">  1        2 0.82279728E-02 0.78779778E+02</pdfrwt>
<pdfrwt beam="2">  1       -1 0.44632371E-02 0.78779778E+02</pdfrwt>
<totfact> 0.15815663E+05</totfact>
</mgrwt>
</event>
<event>
 8    1  0.2433467E-020  0.7948118E+02  0.7818608E-02  0.1330530E+00
          2   -1    0    0  501    0  0.00000000000E+00  0.00000000000E+00  0.16504147452E+03  0.16504147454E+03  0.25500000000E-02 0. -1.
         -1   -1    0    0    0  501 -0.00000000000E+00 -0.00000000000E+00 -0.95691978531E+01  0.95691991803E+01  0.50400000000E-02 0.  1.
         24    2    1    2    0    0  0.00000000000E+00  0.00000000000E+00  0.15547227667E+03  0.17461067372E+03  0.79481183717E+02 0.  0.
         66    2    3    3    0    0  0.28919360694E+02  0.26743242505E+02  0.88939503716E+02  0.97292166989E+02  0.19999983635E+01 0.  0.
        -13    1    3    3    0    0 -0.28919360694E+02 -0.26743242505E+02  0.66532772952E+02  0.77318506733E+02  0.10566000000E+00 0.  1.
         13    1    4    4    0    0  0.80012227096E+01  0.76189406064E+01  0.24161629522E+02  0.26568088490E+02  0.10566000000E+00 0. -1.
        -13    1    4    4    0    0  0.73051552852E+01  0.69054270381E+01  0.21207821075E+02  0.23469832873E+02  0.10566000000E+00 0.  1.
         14    1    4    4    0    0  0.13612982699E+02  0.12218874861E+02  0.43570053119E+02  0.47254245626E+02  0.00000000000E+00 0. -1.
<mgrwt>
<rscale>  0 0.79481184E+02</rscale>
<asrwt>0</asrwt>
<pdfrwt beam="1">  1        2 0.25390995E-01 0.79481184E+02</pdfrwt>
<pdfrwt beam="2">  1       -1 0.14721845E-02 0.79481184E+02</pdfrwt>
<totfact> 0.21024127E+05</totfact>
</mgrwt>
</event>
<event>
 8    1  0.2433467E-020  0.7832702E+02  0.7818608E-02  0.1333867E+00
          2   -1    0    0  501    0  0.00000000000E+00  0.00000000000E+00  0.11727392214E+02  0.11727392492E+02  0.25500000000E-02 0. -1.
         -1   -1    0    0    0  501 -0.00000000000E+00 -0.00000000000E+00 -0.13078613707E+03  0.13078613717E+03  0.50400000000E-02 0.  1.
         24    2    1    2    0    0  0.35527136788E-14  0.00000000000E+00 -0.11905874486E+03  0.14251352966E+03  0.78327015832E+02 0.  0.
         66    2    3    3    0    0  0.23853159834E+02 -0.27464843686E+02 -0.33296782874E+02  0.49355512506E+02  0.19999980578E+01 0.  0.
        -13    1    3    3    0    0 -0.23853159834E+02  0.27464843686E+02 -0.85761961983E+02  0.93158017153E+02  0.10566000000E+00 0.  1.
         13    1    4    4    0    0  0.41153773330E+01 -0.43785815492E+01 -0.63609585420E+01  0.87510721963E+01  0.10566000000E+00 0.  1.
        -13    1    4    4    0    0  0.11528256182E+02 -0.13769525268E+02 -0.16371402515E+02  0.24300915642E+02  0.10566000000E+00 0. -1.
         14    1    4    4    0    0  0.82095263192E+01 -0.93167368691E+01 -0.10564421817E+02  0.16303524668E+02  0.00000000000E+00 0. -1.
<mgrwt>
<rscale>  0 0.78327016E+02</rscale>
<asrwt>0</asrwt>
<pdfrwt beam="1">  1        2 0.18042143E-02 0.78327016E+02</pdfrwt>
<pdfrwt beam="2">  1       -1 0.20120943E-01 0.78327016E+02</pdfrwt>
<totfact> 0.11767218E+05</totfact>
</mgrwt>
</event>
<event>
 8    1  0.2433467E-020  0.8020139E+02  0.7818608E-02  0.1328481E+00
          2   -1    0    0  501    0  0.00000000000E+00  0.00000000000E+00  0.88288544601E+02  0.88288544638E+02  0.25500000000E-02 0. -1.
         -1   -1    0    0    0  501 -0.00000000000E+00 -0.00000000000E+00 -0.18213753471E+02  0.18213754168E+02  0.50400000000E-02 0.  1.
         24    2    1    2    0    0  0.00000000000E+00  0.00000000000E+00  0.70074791131E+02  0.10650229881E+03  0.80201392127E+02 0.  0.
         66    2    3    3    0    0 -0.95972626364E+01 -0.36788375690E+02  0.51886161959E+02  0.64355775448E+02  0.19999986645E+01 0.  0.
        -13    1    3    3    0    0  0.95972626364E+01  0.36788375690E+02  0.18188629172E+02  0.42146523358E+02  0.10566000000E+00 0.  1.
         13    1    4    4    0    0 -0.20561861448E+01 -0.87025457826E+01  0.13335549276E+02  0.16056470443E+02  0.10566000000E+00 0.  1.
        -13    1    4    4    0    0 -0.25850883841E+01 -0.87748222637E+01  0.11473572957E+02  0.14674270958E+02  0.10566000000E+00 0. -1.
         14    1    4    4    0    0 -0.49559881076E+01 -0.19311007644E+02  0.27077039726E+02  0.33625034047E+02  0.00000000000E+00 0. -1.
<mgrwt>
<rscale>  0 0.80201392E+02</rscale>
<asrwt>0</asrwt>
<pdfrwt beam="1">  1        2 0.13582853E-01 0.80201392E+02</pdfrwt>
<pdfrwt beam="2">  1       -1 0.28021161E-02 0.80201392E+02</pdfrwt>
<totfact> 0.17016939E+05</totfact>
</mgrwt>
</event>
<event>
 8    1  0.2433467E-020  0.7941807E+02  0.7818608E-02  0.1330711E+00
          2   -1    0    0  501    0  0.00000000000E+00  0.00000000000E+00  0.94580509355E+03  0.94580509355E+03  0.25500000000E-02 0. -1.
         -1   -1    0    0    0  501 -0.00000000000E+00 -0.00000000000E+00 -0.16671551039E+01  0.16671627222E+01  0.50400000000E-02 0.  1.
         24    2    1    2    0    0  0.00000000000E+00  0.00000000000E+00  0.94413793844E+03  0.94747225627E+03  0.79418068465E+02 0.  0.
         66    2    3    3    0    0  0.21056745822E+02  0.22120952251E+02  0.77466987900E+03  0.77527423826E+03  0.20000004727E+01 0.  0.
        -13    1    3    3    0    0 -0.21056745822E+02 -0.22120952251E+02  0.16946805944E+03  0.17219801802E+03  0.10566000000E+00 0.  1.
         13    1    4    4    0    0  0.15679860193E+01  0.14347944758E+01  0.53045006519E+02  0.53087673673E+02  0.10566000000E+00 0. -1.
        -13    1    4    4    0    0  0.16870358787E+02  0.17413836320E+02  0.60081775690E+03  0.60130677601E+03  0.10566000000E+00 0.  1.
        -14    1    4    4    0    0  0.26184010152E+01  0.32723214556E+01  0.12080711558E+03  0.12087978858E+03  0.00000000000E+00 0.  1.
<mgrwt>
<rscale>  0 0.79418068E+02</rscale>
<asrwt>0</asrwt>
<pdfrwt beam="1">  1        2 0.14550911E+00 0.79418068E+02</pdfrwt>
<pdfrwt beam="2">  1       -1 0.25648487E-03 0.79418068E+02</pdfrwt>
<totfact> 0.35783362E+05</totfact>
</mgrwt>
</event>
<event>
 8    1  0.2433467E-020  0.7871156E+02  0.7818608E-02  0.1332748E+00
         -1   -1    0    0    0  501 -0.00000000000E+00  0.00000000000E+00  0.52381810527E+01  0.52381834773E+01  0.50400000000E-02 0.  1.
          2   -1    0    0  501    0  0.00000000000E+00 -0.00000000000E+00 -0.29568984915E+03  0.29568984917E+03  0.25500000000E-02 0. -1.
         24    2    1    2    0    0  0.00000000000E+00 -0.17763568394E-14 -0.29045166810E+03  0.30092803264E+03  0.78711557774E+02 0.  0.
         66    2    3    3    0    0 -0.41090476127E+01 -0.12399252988E+02 -0.28715069687E+03  0.28745460242E+03  0.19999978315E+01 0.  0.
        -13    1    3    3    0    0  0.41090476127E+01  0.12399252988E+02 -0.33009712334E+01  0.13473430227E+02  0.10566000000E+00 0.  1.
         13    1    4    4    0    0 -0.21146496262E+01 -0.40031742558E+01 -0.96573834896E+02  0.96679956028E+02  0.10566000000E+00 0. -1.
        -13    1    4    4    0    0 -0.35596430997E+00 -0.32290987832E+01 -0.76733881221E+02  0.76802691886E+02  0.10566000000E+00 0.  1.
         14    1    4    4    0    0 -0.16384336765E+01 -0.51669799492E+01 -0.11384298075E+03  0.11397195450E+03  0.00000000000E+00 0. -1.
<mgrwt>
<rscale>  0 0.78711558E+02</rscale>
<asrwt>0</asrwt>
<pdfrwt beam="1">  1        2 0.45490733E-01 0.78711558E+02</pdfrwt>
<pdfrwt beam="2">  1       -1 0.80587443E-03 0.78711558E+02</pdfrwt>
<totfact> 0.26463459E+05</totfact>
</mgrwt>
</event>
<event>
 8    1  0.2433467E-020  0.8861492E+02  0.7818608E-02  0.1306241E+00
         -1   -1    0    0    0  501 -0.00000000000E+00  0.00000000000E+00  0.22231514466E+02  0.22231515038E+02  0.50400000000E-02 0.  1.
          2   -1    0    0  501    0  0.00000000000E+00 -0.00000000000E+00 -0.88304869910E+02  0.88304869947E+02  0.25500000000E-02 0. -1.
         24    2    1    2    0    0  0.71054273576E-14  0.00000000000E+00 -0.66073355444E+02  0.11053638498E+03  0.88614920334E+02 0.  0.
         66    2    3    3    0    0 -0.35837657541E+02  0.98404934030E+01 -0.63093621347E+02  0.73252836497E+02  0.19999979202E+01 0.  0.
        -13    1    3    3    0    0  0.35837657541E+02 -0.98404934030E+01 -0.29797340961E+01  0.37283548487E+02  0.10566000000E+00 0.  1.
         13    1    4    4    0    0 -0.13246023568E+02  0.40337798434E+01 -0.22057356092E+02  0.26043552791E+02  0.10566000000E+00 0. -1.
        -13    1    4    4    0    0 -0.22347739600E+02  0.57847175052E+01 -0.40732053728E+02  0.46818754648E+02  0.10566000000E+00 0.  1.
        -14    1    4    4    0    0 -0.24389437272E+00  0.21996054414E-01 -0.30421152771E+00  0.39052905787E+00  0.00000000000E+00 0.  1.
<mgrwt>
<rscale>  0 0.88614920E+02</rscale>
<asrwt>0</asrwt>
<pdfrwt beam="1">  1        2 0.13585364E-01 0.88614920E+02</pdfrwt>
<pdfrwt beam="2">  1       -1 0.34202331E-02 0.88614920E+02</pdfrwt>
<totfact> 0.12992162E+05</totfact>
</mgrwt>
</event>
<event>
 8    1  0.2433467E-020  0.8020958E+02  0.7818608E-02  0.1328458E+00
         -1   -1    0    0    0  501 -0.00000000000E+00  0.00000000000E+00  0.18534259926E+02  0.18534260611E+02  0.50400000000E-02 0.  1.
          2   -1    0    0  501    0  0.00000000000E+00 -0.00000000000E+00 -0.86779521310E+02  0.86779521348E+02  0.25500000000E-02 0. -1.
         24    2    1    2    0    0  0.11102230246E-15  0.00000000000E+00 -0.68245261385E+02  0.10531378196E+03  0.80209581528E+02 0.  0.
         66    2    3    3    0    0  0.27946133601E+00 -0.23762204739E+02 -0.76520160312E+02  0.80150205325E+02  0.20000016771E+01 0.  0.
        -13    1    3    3    0    0 -0.27946133601E+00  0.23762204739E+02  0.82748989273E+01  0.25163576634E+02  0.10566000000E+00 0.  1.
         13    1    4    4    0    0  0.14140864222E+00 -0.10264505427E+02 -0.32068995614E+02  0.33672120691E+02  0.10566000000E+00 0. -1.
        -13    1    4    4    0    0 -0.54962436587E+00 -0.76983763465E+01 -0.24135917739E+02  0.25340102100E+02  0.10566000000E+00 0.  1.
        -14    1    4    4    0    0  0.68767705966E+00 -0.57993229658E+01 -0.20315246959E+02  0.21137982534E+02  0.00000000000E+00 0.  1.
<mgrwt>
<rscale>  0 0.80209582E+02</rscale>
<asrwt>0</asrwt>
<pdfrwt beam="1">  1        2 0.13350695E-01 0.80209582E+02</pdfrwt>
<pdfrwt beam="2">  1       -1 0.28514247E-02 0.80209582E+02</pdfrwt>
<totfact> 0.16934347E+05</totfact>
</mgrwt>
</event>
<event>
 8    1  0.2433467E-020  0.7118283E+02  0.7818608E-02  0.1356116E+00
          2   -1    0    0  501    0  0.00000000000E+00  0.00000000000E+00  0.54105579694E+02  0.54105579754E+02  0.25500000000E-02 0. -1.
         -1   -1    0    0    0  501 -0.00000000000E+00 -0.00000000000E+00 -0.23412535315E+02  0.23412535858E+02  0.50400000000E-02 0.  1.
         24    2    1    2    0    0  0.00000000000E+00 -0.17763568394E-14  0.30693044379E+02  0.77518115612E+02  0.71182829916E+02 0.  0.
         66    2    3    3    0    0 -0.32264185298E+02 -0.86966254695E+01  0.28612906663E+02  0.44037567760E+02  0.19999997640E+01 0.  0.
        -13    1    3    3    0    0  0.32264185298E+02  0.86966254695E+01  0.20801377162E+01  0.33480547852E+02  0.10566000000E+00 0.  1.
         13    1    4    4    0    0 -0.11801515553E+02 -0.31684207022E+01  0.10023945469E+02  0.15805230333E+02  0.10566000000E+00 0. -1.
        -13    1    4    4    0    0 -0.13347335095E+01 -0.33899007657E+00  0.77448721244E+00  0.15834842251E+01  0.10566000000E+00 0.  1.
         14    1    4    4    0    0 -0.19127936236E+02 -0.51892146908E+01  0.17814473982E+02  0.26648853202E+02  0.00000000000E+00 0. -1.
<mgrwt>
<rscale>  0 0.71182830E+02</rscale>
<asrwt>0</asrwt>
<pdfrwt beam="1">  1        2 0.83239353E-02 0.71182830E+02</pdfrwt>
<pdfrwt beam="2">  1       -1 0.36019286E-02 0.71182830E+02</pdfrwt>
<totfact> 0.20855646E+05</totfact>
</mgrwt>
</event>
<event>
 8    1  0.2433467E-020  0.8045316E+02  0.7818608E-02  0.1327770E+00
         -1   -1    0    0    0  501 -0.00000000000E+00  0.00000000000E+00  0.92911246276E+01  0.92911259945E+01  0.50400000000E-02 0.  1.
          2   -1    0    0  501    0  0.00000000000E+00 -0.00000000000E+00 -0.17416379298E+03  0.17416379300E+03  0.25500000000E-02 0. -1.
         24    2    1    2    0    0 -0.17763568394E-14  0.00000000000E+00 -0.16487266835E+03  0.18345491899E+03  0.80453157384E+02 0.  0.
         66    2    3    3    0    0  0.12702618096E+02  0.25690114488E+02 -0.14677433949E+03  0.14955950395E+03  0.20000004613E+01 0.  0.
        -13    1    3    3    0    0 -0.12702618096E+02 -0.25690114488E+02 -0.18098328862E+02  0.33895415037E+02  0.10566000000E+00 0.  1.
         13    1    4    4    0    0  0.24429785848E+01  0.38650696285E+01 -0.21612788582E+02  0.22091416928E+02  0.10566000000E+00 0. -1.
        -13    1    4    4    0    0  0.25923812959E+01  0.46225565912E+01 -0.28516173021E+02  0.29004685105E+02  0.10566000000E+00 0.  1.
         14    1    4    4    0    0  0.76672582154E+01  0.17202488268E+02 -0.96645377886E+02  0.98463401921E+02  0.00000000000E+00 0. -1.
<mgrwt>
<rscale>  0 0.80453157E+02</rscale>
<asrwt>0</asrwt>
<pdfrwt beam="1">  1        2 0.26794427E-01 0.80453157E+02</pdfrwt>
<pdfrwt beam="2">  1       -1 0.14294040E-02 0.80453157E+02</pdfrwt>
<totfact> 0.20726809E+05</totfact>
</mgrwt>
</event>
<event>
 8    1  0.2433467E-020  0.7716162E+02  0.7818608E-02  0.1337305E+00
          2   -1    0    0  501    0  0.00000000000E+00  0.00000000000E+00  0.23138925283E+02  0.23138925423E+02  0.25500000000E-02 0. -1.
         -1   -1    0    0    0  501 -0.00000000000E+00 -0.00000000000E+00 -0.64327916255E+02  0.64327916453E+02  0.50400000000E-02 0.  1.
         24    2    1    2    0    0  0.35527136788E-14  0.00000000000E+00 -0.41188990973E+02  0.87466841876E+02  0.77161619024E+02 0.  0.
         66    2    3    3    0    0 -0.18521240295E+02  0.32860173641E+02 -0.11564935137E+02  0.39504114660E+02  0.19999991564E+01 0.  0.
        -13    1    3    3    0    0  0.18521240295E+02 -0.32860173641E+02 -0.29624055835E+02  0.47962727215E+02  0.10566000000E+00 0.  1.
         13    1    4    4    0    0 -0.46159163971E+01  0.75388365654E+01 -0.31273360577E+01  0.93772136479E+01  0.10566000000E+00 0. -1.
        -13    1    4    4    0    0 -0.51102395750E+01  0.10693962082E+02 -0.35541941025E+01  0.12374119495E+02  0.10566000000E+00 0.  1.
        -14    1    4    4    0    0 -0.87950843230E+01  0.14627374994E+02 -0.48834049768E+01  0.17752781518E+02  0.00000000000E+00 0.  1.
<mgrwt>
<rscale>  0 0.77161619E+02</rscale>
<asrwt>0</asrwt>
<pdfrwt beam="1">  1        2 0.35598347E-02 0.77161619E+02</pdfrwt>
<pdfrwt beam="2">  1       -1 0.98966025E-02 0.77161619E+02</pdfrwt>
<totfact> 0.14161975E+05</totfact>
</mgrwt>
</event>
<event>
 8    1  0.2433467E-020  0.7931706E+02  0.7818608E-02  0.1331001E+00
         -1   -1    0    0    0  501 -0.00000000000E+00  0.00000000000E+00  0.88817427606E+01  0.88817441906E+01  0.50400000000E-02 0.  1.
          2   -1    0    0  501    0  0.00000000000E+00 -0.00000000000E+00 -0.17708222515E+03  0.17708222517E+03  0.25500000000E-02 0. -1.
         24    2    1    2    0    0  0.00000000000E+00  0.44408920985E-15 -0.16820048239E+03  0.18596396936E+03  0.79317057584E+02 0.  0.
         66    2    3    3    0    0  0.15531772755E+02 -0.35950176147E+01 -0.16922714567E+03  0.16998819651E+03  0.20000014835E+01 0.  0.
        -13    1    3    3    0    0 -0.15531772755E+02  0.35950176147E+01  0.10266632773E+01  0.15975772848E+02  0.10566000000E+00 0.  1.
         13    1    4    4    0    0  0.12549135230E+02 -0.33081646113E+01 -0.14134254468E+03  0.14193713696E+03  0.10566000000E+00 0. -1.
        -13    1    4    4    0    0  0.17719499038E+00 -0.11794499815E+00 -0.18522235569E+01  0.18674060157E+01  0.10566000000E+00 0. -1.
         14    1    4    4    0    0  0.28054425354E+01 -0.16890800523E+00 -0.26032377431E+02  0.26183653535E+02  0.00000000000E+00 0. -1.
<mgrwt>
<rscale>  0 0.79317058E+02</rscale>
<asrwt>0</asrwt>
<pdfrwt beam="1">  1        2 0.27243417E-01 0.79317058E+02</pdfrwt>
<pdfrwt beam="2">  1       -1 0.13664222E-02 0.79317058E+02</pdfrwt>
<totfact> 0.21641878E+05</totfact>
</mgrwt>
</event>
<event>
 8    1  0.2433467E-020  0.8163147E+02  0.7818608E-02  0.1324484E+00
         -1   -1    0    0    0  501 -0.00000000000E+00  0.00000000000E+00  0.27432076820E+02  0.27432077283E+02  0.50400000000E-02 0.  1.
          2   -1    0    0  501    0  0.00000000000E+00 -0.00000000000E+00 -0.60729057245E+02  0.60729057298E+02  0.25500000000E-02 0. -1.
         24    2    1    2    0    0  0.22204460493E-15  0.00000000000E+00 -0.33296980425E+02  0.88161134581E+02  0.81631469087E+02 0.  0.
         66    2    3    3    0    0  0.14201807372E+01  0.22003777513E+02 -0.53721709802E+02  0.58105122333E+02  0.19999997797E+01 0.  0.
        -13    1    3    3    0    0 -0.14201807372E+01 -0.22003777513E+02  0.20424729377E+02  0.30056012249E+02  0.10566000000E+00 0.  1.
         13    1    4    4    0    0  0.11722802922E+01  0.11349564152E+02 -0.26302140336E+02  0.28670552799E+02  0.10566000000E+00 0. -1.
        -13    1    4    4    0    0  0.61791657939E+00  0.77071252936E+01 -0.19939196064E+02  0.21386077361E+02  0.10566000000E+00 0.  1.
        -14    1    4    4    0    0 -0.37001613439E+00  0.29470880668E+01 -0.74803734021E+01  0.80484921723E+01  0.00000000000E+00 0.  1.
<mgrwt>
<rscale>  0 0.81631469E+02</rscale>
<asrwt>0</asrwt>
<pdfrwt beam="1">  1        2 0.93429319E-02 0.81631469E+02</pdfrwt>
<pdfrwt beam="2">  1       -1 0.42203196E-02 0.81631469E+02</pdfrwt>
<totfact> 0.14774739E+05</totfact>
</mgrwt>
</event>
<event>
 8    1  0.2433467E-020  0.7991658E+02  0.7818608E-02  0.1329288E+00
         -1   -1    0    0    0  501 -0.00000000000E+00  0.00000000000E+00  0.35929233711E+01  0.35929269061E+01  0.50400000000E-02 0.  1.
          2   -1    0    0  501    0  0.00000000000E+00 -0.00000000000E+00 -0.44439137118E+03  0.44439137119E+03  0.25500000000E-02 0. -1.
         24    2    1    2    0    0  0.00000000000E+00  0.00000000000E+00 -0.44079844781E+03  0.44798429809E+03  0.79916579929E+02 0.  0.
         66    2    3    3    0    0 -0.19701516418E+02 -0.28200713758E+01 -0.41460549970E+03  0.41508772918E+03  0.19999953194E+01 0.  0.
        -13    1    3    3    0    0  0.19701516418E+02  0.28200713758E+01 -0.26192948111E+02  0.32896568917E+02  0.10566000000E+00 0.  1.
         13    1    4    4    0    0 -0.90780597143E+01 -0.20168954908E+01 -0.18563500476E+03  0.18586781645E+03  0.10566000000E+00 0. -1.
        -13    1    4    4    0    0 -0.79053459344E+01 -0.85965805947E+00 -0.17637395882E+03  0.17655315919E+03  0.10566000000E+00 0.  1.
         14    1    4    4    0    0 -0.27181107692E+01  0.56482174467E-01 -0.52596536119E+02  0.52666753537E+02  0.00000000000E+00 0. -1.
<mgrwt>
<rscale>  0 0.79916580E+02</rscale>
<asrwt>0</asrwt>
<pdfrwt beam="1">  1        2 0.68367860E-01 0.79916580E+02</pdfrwt>
<pdfrwt beam="2">  1       -1 0.55275807E-03 0.79916580E+02</pdfrwt>
<totfact> 0.29374445E+05</totfact>
</mgrwt>
</event>
<event>
 8    1  0.2433467E-020  0.7987840E+02  0.7818608E-02  0.1329397E+00
         -1   -1    0    0    0  501 -0.00000000000E+00  0.00000000000E+00  0.40661488915E+02  0.40661489228E+02  0.50400000000E-02 0.  1.
          2   -1    0    0  501    0  0.00000000000E+00 -0.00000000000E+00 -0.39229742390E+02  0.39229742473E+02  0.25500000000E-02 0. -1.
         24    2    1    2    0    0  0.00000000000E+00  0.00000000000E+00  0.14317465257E+01  0.79891231700E+02  0.79878401364E+02 0.  0.
         66    2    3    3    0    0 -0.82578390516E+01  0.35508942044E+02 -0.15536148542E+02  0.39679324285E+02  0.19999983202E+01 0.  0.
        -13    1    3    3    0    0  0.82578390516E+01 -0.35508942044E+02  0.16967895068E+02  0.40211907415E+02  0.10566000000E+00 0.  1.
         13    1    4    4    0    0 -0.21136420084E+01  0.83888730217E+01 -0.40286607165E+01  0.95436860970E+01  0.10566000000E+00 0. -1.
        -13    1    4    4    0    0 -0.34545557228E+01  0.18567668199E+02 -0.77759247226E+01  0.20424701391E+02  0.10566000000E+00 0.  1.
        -14    1    4    4    0    0 -0.26896413204E+01  0.85524008234E+01 -0.37315631032E+01  0.97109367968E+01  0.00000000000E+00 0.  1.
<mgrwt>
<rscale>  0 0.79878401E+02</rscale>
<asrwt>0</asrwt>
<pdfrwt beam="1">  1        2 0.60353450E-02 0.79878401E+02</pdfrwt>
<pdfrwt beam="2">  1       -1 0.62556137E-02 0.79878401E+02</pdfrwt>
<totfact> 0.14258368E+05</totfact>
</mgrwt>
</event>
<event>
 8    1  0.2433467E-020  0.8028322E+02  0.7818608E-02  0.1328250E+00
          2   -1    0    0  501    0  0.00000000000E+00  0.00000000000E+00  0.46011536302E+03  0.46011536302E+03  0.25500000000E-02 0. -1.
         -1   -1    0    0    0  501 -0.00000000000E+00 -0.00000000000E+00 -0.35020522106E+01  0.35020558373E+01  0.50400000000E-02 0.  1.
         24    2    1    2    0    0  0.35527136788E-14  0.35527136788E-14  0.45661331081E+03  0.46361741886E+03  0.80283220327E+02 0.  0.
         66    2    3    3    0    0 -0.20556142031E+02 -0.17878939115E+02  0.39849835637E+03  0.39943353823E+03  0.19999996554E+01 0.  0.
        -13    1    3    3    0    0  0.20556142031E+02  0.17878939115E+02  0.58114954440E+02  0.64183880630E+02  0.10566000000E+00 0.  1.
         13    1    4    4    0    0 -0.40475279172E+01 -0.38332216521E+01  0.89875652599E+02  0.90048432327E+02  0.10566000000E+00 0. -1.
        -13    1    4    4    0    0 -0.18406161268E+01 -0.12054862597E+01  0.28668974545E+02  0.28753475100E+02  0.10566000000E+00 0.  1.
         14    1    4    4    0    0 -0.14667997987E+02 -0.12840231203E+02  0.27995372922E+03  0.28063163080E+03  0.00000000000E+00 0. -1.
<mgrwt>
<rscale>  0 0.80283220E+02</rscale>
<asrwt>0</asrwt>
<pdfrwt beam="1">  1        2 0.70786955E-01 0.80283220E+02</pdfrwt>
<pdfrwt beam="2">  1       -1 0.53877773E-03 0.80283220E+02</pdfrwt>
<totfact> 0.29365771E+05</totfact>
</mgrwt>
</event>
<event>
 8    1  0.2433467E-020  0.7775847E+02  0.7818608E-02  0.1335536E+00
         -1   -1    0    0    0  501 -0.00000000000E+00  0.00000000000E+00  0.10278550361E+03  0.10278550373E+03  0.50400000000E-02 0.  1.
          2   -1    0    0  501    0  0.00000000000E+00 -0.00000000000E+00 -0.14706303233E+02  0.14706303455E+02  0.25500000000E-02 0. -1.
         24    2    1    2    0    0  0.00000000000E+00  0.35527136788E-14  0.88079200374E+02  0.11749180719E+03  0.77758467174E+02 0.  0.
         66    2    3    3    0    0 -0.20749374194E+02 -0.19018818398E+02  0.35997182009E+01  0.28446616102E+02  0.20000034564E+01 0.  0.
        -13    1    3    3    0    0  0.20749374194E+02  0.19018818398E+02  0.84479482173E+02  0.89045191083E+02  0.10566000000E+00 0.  1.
         13    1    4    4    0    0 -0.41586462882E+01 -0.45544679605E+01  0.84515938839E+00  0.62259919515E+01  0.10566000000E+00 0. -1.
        -13    1    4    4    0    0 -0.10513164016E+02 -0.95210998636E+01  0.23378497374E+01  0.14375488363E+02  0.10566000000E+00 0.  1.
        -14    1    4    4    0    0 -0.60775638906E+01 -0.49432505744E+01  0.41670907506E+00  0.78451357884E+01  0.00000000000E+00 0.  1.
<mgrwt>
<rscale>  0 0.77758467E+02</rscale>
<asrwt>0</asrwt>
<pdfrwt beam="1">  1        2 0.22625082E-02 0.77758467E+02</pdfrwt>
<pdfrwt beam="2">  1       -1 0.15813154E-01 0.77758467E+02</pdfrwt>
<totfact> 0.12649104E+05</totfact>
</mgrwt>
</event>
<event>
 8    1  0.2433467E-020  0.8043003E+02  0.7818608E-02  0.1327835E+00
          2   -1    0    0  501    0  0.00000000000E+00  0.00000000000E+00  0.39637758309E+02  0.39637758391E+02  0.25500000000E-02 0. -1.
         -1   -1    0    0    0  501 -0.00000000000E+00 -0.00000000000E+00 -0.40800681237E+02  0.40800681548E+02  0.50400000000E-02 0.  1.
         24    2    1    2    0    0  0.17763568394E-14  0.71054273576E-14 -0.11629229281E+01  0.80438439939E+02  0.80430033135E+02 0.  0.
         66    2    3    3    0    0 -0.94433947697E+01 -0.37264620451E+02  0.11141732142E+02  0.40074528552E+02  0.20000003555E+01 0.  0.
        -13    1    3    3    0    0  0.94433947697E+01  0.37264620451E+02 -0.12304655070E+02  0.40363911388E+02  0.10566000000E+00 0.  1.
         13    1    4    4    0    0 -0.46811377203E+01 -0.18444237964E+02  0.60545032395E+01  0.19969254817E+02  0.10566000000E+00 0.  1.
        -13    1    4    4    0    0 -0.23645083617E+01 -0.71847374317E+01  0.22295915518E+01  0.78862915416E+01  0.10566000000E+00 0. -1.
        -14    1    4    4    0    0 -0.23977486877E+01 -0.11635645055E+02  0.28576373503E+01  0.12218982193E+02  0.00000000000E+00 0.  1.
<mgrwt>
<rscale>  0 0.80430033E+02</rscale>
<asrwt>0</asrwt>
<pdfrwt beam="1">  1        2 0.60981167E-02 0.80430033E+02</pdfrwt>
<pdfrwt beam="2">  1       -1 0.62770279E-02 0.80430033E+02</pdfrwt>
<totfact> 0.14019134E+05</totfact>
</mgrwt>
</event>
<event>
 8    1  0.2433467E-020  0.7684066E+02  0.7818608E-02  0.1338264E+00
          2   -1    0    0  501    0  0.00000000000E+00  0.00000000000E+00  0.69115782976E+02  0.69115783023E+02  0.25500000000E-02 0. -1.
         -1   -1    0    0    0  501 -0.00000000000E+00 -0.00000000000E+00 -0.21357228398E+02  0.21357228992E+02  0.50400000000E-02 0.  1.
         24    2    1    2    0    0  0.00000000000E+00 -0.17763568394E-14  0.47758554578E+02  0.90473012015E+02  0.76840655696E+02 0.  0.
         66    2    3    3    0    0  0.22955201860E+02 -0.92306171167E+01  0.58463415783E+02  0.63514696003E+02  0.20000096432E+01 0.  0.
        -13    1    3    3    0    0 -0.22955201860E+02  0.92306171167E+01 -0.10704861204E+02  0.26958316012E+02  0.10566000000E+00 0.  1.
         13    1    4    4    0    0  0.11221398035E+02 -0.42103450546E+01  0.26322688464E+02  0.28923033578E+02  0.10566000000E+00 0. -1.
        -13    1    4    4    0    0  0.38011885183E+01 -0.13622549899E+01  0.10934213987E+02  0.11656456252E+02  0.10566000000E+00 0.  1.
         14    1    4    4    0    0  0.79326153066E+01 -0.36580170722E+01  0.21206513331E+02  0.22935206173E+02  0.00000000000E+00 0. -1.
<mgrwt>
<rscale>  0 0.76840656E+02</rscale>
<asrwt>0</asrwt>
<pdfrwt beam="1">  1        2 0.10633197E-01 0.76840656E+02</pdfrwt>
<pdfrwt beam="2">  1       -1 0.32857275E-02 0.76840656E+02</pdfrwt>
<totfact> 0.17947195E+05</totfact>
</mgrwt>
</event>
<event>
 8    1  0.2433467E-020  0.8004544E+02  0.7818608E-02  0.1328923E+00
         -1   -1    0    0    0  501 -0.00000000000E+00  0.00000000000E+00  0.14376366223E+01  0.14376454568E+01  0.50400000000E-02 0.  1.
          2   -1    0    0  501    0  0.00000000000E+00 -0.00000000000E+00 -0.11141990503E+04  0.11141990503E+04  0.25500000000E-02 0. -1.
         24    2    1    2    0    0  0.00000000000E+00  0.00000000000E+00 -0.11127614137E+04  0.11156366958E+04  0.80045444316E+02 0.  0.
         66    2    3    3    0    0  0.16720014539E+02  0.78552573832E+01 -0.10511758495E+04  0.10513400642E+04  0.20000004360E+01 0.  0.
        -13    1    3    3    0    0 -0.16720014539E+02 -0.78552573832E+01 -0.61585564186E+02  0.64296631598E+02  0.10566000000E+00 0.  1.
         13    1    4    4    0    0  0.59377417270E+01  0.21460733769E+01 -0.39234113305E+03  0.39239194469E+03  0.10566000000E+00 0. -1.
        -13    1    4    4    0    0  0.10810683892E+01  0.75244227530E+00 -0.79534123080E+02  0.79545099009E+02  0.10566000000E+00 0.  1.
        -14    1    4    4    0    0  0.97012044223E+01  0.49567417310E+01 -0.57930059338E+03  0.57940302048E+03  0.00000000000E+00 0.  1.
<mgrwt>
<rscale>  0 0.80045444E+02</rscale>
<asrwt>0</asrwt>
<pdfrwt beam="1">  1        2 0.17141455E+00 0.80045444E+02</pdfrwt>
<pdfrwt beam="2">  1       -1 0.22117644E-03 0.80045444E+02</pdfrwt>
<totfact> 0.35183262E+05</totfact>
</mgrwt>
</event>
<event>
 8    1  0.2433467E-020  0.7910619E+02  0.7818608E-02  0.1331607E+00
          2   -1    0    0  501    0  0.00000000000E+00  0.00000000000E+00  0.16814200493E+03  0.16814200495E+03  0.25500000000E-02 0. -1.
         -1   -1    0    0    0  501 -0.00000000000E+00 -0.00000000000E+00 -0.93043213812E+01  0.93043227463E+01  0.50400000000E-02 0.  1.
         24    2    1    2    0    0  0.00000000000E+00  0.00000000000E+00  0.15883768355E+03  0.17744632769E+03  0.79106191271E+02 0.  0.
         66    2    3    3    0    0 -0.39130412622E+02 -0.23840219723E+01  0.90812235325E+02  0.98932981551E+02  0.20000002634E+01 0.  0.
        -13    1    3    3    0    0  0.39130412622E+02  0.23840219723E+01  0.68025448221E+02  0.78513346142E+02  0.10566000000E+00 0.  1.
         13    1    4    4    0    0 -0.24220197032E+02 -0.17220696328E+01  0.57943365690E+02  0.62825379105E+02  0.10566000000E+00 0. -1.
        -13    1    4    4    0    0 -0.52769475600E+01 -0.26104308590E-01  0.12378146746E+02  0.13456468254E+02  0.10566000000E+00 0. -1.
         14    1    4    4    0    0 -0.96332680302E+01 -0.63584803089E+00  0.20490722889E+02  0.22651134192E+02  0.00000000000E+00 0. -1.
<mgrwt>
<rscale>  0 0.79106191E+02</rscale>
<asrwt>0</asrwt>
<pdfrwt beam="1">  1        2 0.25867999E-01 0.79106191E+02</pdfrwt>
<pdfrwt beam="2">  1       -1 0.14314342E-02 0.79106191E+02</pdfrwt>
<totfact> 0.21420484E+05</totfact>
</mgrwt>
</event>
<event>
 8    1  0.2433467E-020  0.7828805E+02  0.7818608E-02  0.1333981E+00
         -1   -1    0    0    0  501 -0.00000000000E+00  0.00000000000E+00  0.24204388721E+02  0.24204389246E+02  0.50400000000E-02 0.  1.
          2   -1    0    0  501    0  0.00000000000E+00 -0.00000000000E+00 -0.63304827588E+02  0.63304827640E+02  0.25500000000E-02 0. -1.
         24    2    1    2    0    0  0.00000000000E+00  0.00000000000E+00 -0.39100438867E+02  0.87509216885E+02  0.78288049664E+02 0.  0.
         66    2    3    3    0    0 -0.11415114999E+02  0.31234285537E+02 -0.42589433199E+02  0.54071667798E+02  0.19999987099E+01 0.  0.
        -13    1    3    3    0    0  0.11415114999E+02 -0.31234285537E+02  0.34889943317E+01  0.33437549087E+02  0.10566000000E+00 0.  1.
         13    1    4    4    0    0 -0.66081560131E+01  0.17315915847E+02 -0.22942708067E+02  0.29493858428E+02  0.10566000000E+00 0. -1.
        -13    1    4    4    0    0 -0.23185242000E+01  0.83832317848E+01 -0.11579101850E+02  0.14482433956E+02  0.10566000000E+00 0.  1.
         14    1    4    4    0    0 -0.24884347854E+01  0.55351379054E+01 -0.80676232826E+01  0.10095375414E+02  0.00000000000E+00 0. -1.
<mgrwt>
<rscale>  0 0.78288050E+02</rscale>
<asrwt>0</asrwt>
<pdfrwt beam="1">  1        2 0.97392042E-02 0.78288050E+02</pdfrwt>
<pdfrwt beam="2">  1       -1 0.37237522E-02 0.78288050E+02</pdfrwt>
<totfact> 0.16714277E+05</totfact>
</mgrwt>
</event>
<event>
 8    1  0.2433467E-020  0.7930947E+02  0.7818608E-02  0.1331023E+00
          2   -1    0    0  501    0  0.00000000000E+00  0.00000000000E+00  0.19969048850E+03  0.19969048852E+03  0.25500000000E-02 0. -1.
         -1   -1    0    0    0  501 -0.00000000000E+00 -0.00000000000E+00 -0.78746758245E+01  0.78746774374E+01  0.50400000000E-02 0.  1.
         24    2    1    2    0    0 -0.17763568394E-14  0.35527136788E-14  0.19181581268E+03  0.20756516596E+03  0.79309470589E+02 0.  0.
         66    2    3    3    0    0 -0.78575662619E+01  0.26202463482E+02  0.17101231159E+03  0.17319792484E+03  0.20000037485E+01 0.  0.
        -13    1    3    3    0    0  0.78575662619E+01 -0.26202463482E+02  0.20803501089E+02  0.34367241113E+02  0.10566000000E+00 0.  1.
         13    1    4    4    0    0 -0.18888564694E+01  0.47029009944E+01  0.30882054088E+02  0.31295326891E+02  0.10566000000E+00 0. -1.
        -13    1    4    4    0    0 -0.19415965150E+01  0.57192134537E+01  0.41304536170E+02  0.41743922573E+02  0.10566000000E+00 0.  1.
         14    1    4    4    0    0 -0.40271132775E+01  0.15780349034E+02  0.98825721330E+02  0.10015867538E+03  0.00000000000E+00 0. -1.
<mgrwt>
<rscale>  0 0.79309471E+02</rscale>
<asrwt>0</asrwt>
<pdfrwt beam="1">  1        2 0.30721612E-01 0.79309471E+02</pdfrwt>
<pdfrwt beam="2">  1       -1 0.12114888E-02 0.79309471E+02</pdfrwt>
<totfact> 0.22556610E+05</totfact>
</mgrwt>
</event>
<event>
 8    1  0.2433467E-020  0.8053533E+02  0.7818608E-02  0.1327539E+00
          2   -1    0    0  501    0  0.00000000000E+00  0.00000000000E+00  0.98054933489E+03  0.98054933489E+03  0.25500000000E-02 0. -1.
         -1   -1    0    0    0  501 -0.00000000000E+00 -0.00000000000E+00 -0.16536454932E+01  0.16536531737E+01  0.50400000000E-02 0.  1.
         24    2    1    2    0    0  0.00000000000E+00  0.00000000000E+00  0.97889568939E+03  0.98220298806E+03  0.80535327950E+02 0.  0.
         66    2    3    3    0    0 -0.19165427143E+02 -0.25507146329E+02  0.78887287653E+03  0.78952032490E+03  0.19999983745E+01 0.  0.
        -13    1    3    3    0    0  0.19165427143E+02  0.25507146329E+02  0.19002281286E+03  0.19268266316E+03  0.10566000000E+00 0.  1.
         13    1    4    4    0    0 -0.11731152539E+02 -0.16489284488E+02  0.50098555002E+03  0.50139410540E+03  0.10566000000E+00 0. -1.
        -13    1    4    4    0    0 -0.60396658625E+01 -0.66956935974E+01  0.21817949799E+03  0.21836578116E+03  0.10566000000E+00 0.  1.
         14    1    4    4    0    0 -0.13946087414E+01 -0.23221682432E+01  0.69707828524E+02  0.69760438333E+02  0.00000000000E+00 0. -1.
<mgrwt>
<rscale>  0 0.80535328E+02</rscale>
<asrwt>0</asrwt>
<pdfrwt beam="1">  1        2 0.15085392E+00 0.80535328E+02</pdfrwt>
<pdfrwt beam="2">  1       -1 0.25440730E-03 0.80535328E+02</pdfrwt>
<totfact> 0.34593069E+05</totfact>
</mgrwt>
</event>
<event>
 8    1  0.2433467E-020  0.8010257E+02  0.7818608E-02  0.1328761E+00
         -1   -1    0    0    0  501 -0.00000000000E+00  0.00000000000E+00  0.10542919168E+02  0.10542920373E+02  0.50400000000E-02 0.  1.
          2   -1    0    0  501    0  0.00000000000E+00 -0.00000000000E+00 -0.15215003507E+03  0.15215003509E+03  0.25500000000E-02 0. -1.
         24    2    1    2    0    0  0.35527136788E-14  0.00000000000E+00 -0.14160711590E+03  0.16269295546E+03  0.80102574761E+02 0.  0.
         66    2    3    3    0    0  0.17395826306E+02  0.16757066077E+02 -0.13567258093E+03  0.13782040220E+03  0.20000025144E+01 0.  0.
        -13    1    3    3    0    0 -0.17395826306E+02 -0.16757066077E+02 -0.59345349697E+01  0.24872553261E+02  0.10566000000E+00 0.  1.
         13    1    4    4    0    0  0.72744161387E+01  0.63972442956E+01 -0.56995176572E+02  0.57812655892E+02  0.10566000000E+00 0. -1.
        -13    1    4    4    0    0  0.96032086688E+01  0.97207175795E+01 -0.72587349940E+02  0.73862361879E+02  0.10566000000E+00 0.  1.
         14    1    4    4    0    0  0.51820149870E+00  0.63910420229E+00 -0.60900544160E+01  0.61453844278E+01  0.00000000000E+00 0. -1.
<mgrwt>
<rscale>  0 0.80102575E+02</rscale>
<asrwt>0</asrwt>
<pdfrwt beam="1">  1        2 0.23407696E-01 0.80102575E+02</pdfrwt>
<pdfrwt beam="2">  1       -1 0.16219878E-02 0.80102575E+02</pdfrwt>
<totfact> 0.20053979E+05</totfact>
</mgrwt>
</event>
<event>
 8    1  0.2433467E-020  0.8007896E+02  0.7818608E-02  0.1328828E+00
          2   -1    0    0  501    0  0.00000000000E+00  0.00000000000E+00  0.15166326965E+03  0.15166326967E+03  0.25500000000E-02 0. -1.
         -1   -1    0    0    0  501 -0.00000000000E+00 -0.00000000000E+00 -0.10570520595E+02  0.10570521796E+02  0.50400000000E-02 0.  1.
         24    2    1    2    0    0  0.00000000000E+00  0.00000000000E+00  0.14109274906E+03  0.16223379147E+03  0.80078956399E+02 0.  0.
         66    2    3    3    0    0  0.14983917126E+02 -0.33058036435E+02  0.36460621345E+02  0.51485225524E+02  0.19999982654E+01 0.  0.
        -13    1    3    3    0    0 -0.14983917126E+02  0.33058036435E+02  0.10463212771E+03  0.11074856595E+03  0.10566000000E+00 0.  1.
         13    1    4    4    0    0  0.86968336008E+00 -0.16454531582E+01  0.18086065288E+01  0.25973230170E+01  0.10566000000E+00 0.  1.
        -13    1    4    4    0    0  0.64470769902E+01 -0.12596958498E+02  0.13482856213E+02  0.19546015983E+02  0.10566000000E+00 0.  1.
         14    1    4    4    0    0  0.76671567753E+01 -0.18815624779E+02  0.21169158603E+02  0.29341886524E+02  0.00000000000E+00 0. -1.
<mgrwt>
<rscale>  0 0.80078956E+02</rscale>
<asrwt>0</asrwt>
<pdfrwt beam="1">  1        2 0.23332808E-01 0.80078956E+02</pdfrwt>
<pdfrwt beam="2">  1       -1 0.16262342E-02 0.80078956E+02</pdfrwt>
<totfact> 0.20048884E+05</totfact>
</mgrwt>
</event>
<event>
 8    1  0.2433467E-020  0.7388088E+02  0.7818608E-02  0.1347372E+00
         -1   -1    0    0    0  501 -0.00000000000E+00  0.00000000000E+00  0.27309542122E+01  0.27309588629E+01  0.50400000000E-02 0.  1.
          2   -1    0    0  501    0  0.00000000000E+00 -0.00000000000E+00 -0.49967700545E+03  0.49967700545E+03  0.25500000000E-02 0. -1.
         24    2    1    2    0    0  0.00000000000E+00  0.00000000000E+00 -0.49694605124E+03  0.50240796432E+03  0.73880882308E+02 0.  0.
         66    2    3    3    0    0  0.77660432352E+01 -0.66645051771E+01 -0.48983462721E+03  0.48994559807E+03  0.19999993740E+01 0.  0.
        -13    1    3    3    0    0 -0.77660432352E+01  0.66645051771E+01 -0.71114240273E+01  0.12462366249E+02  0.10566000000E+00 0.  1.
         13    1    4    4    0    0  0.43180623480E+01 -0.33626618759E+01 -0.29940360981E+03  0.29945364564E+03  0.10566000000E+00 0. -1.
        -13    1    4    4    0    0  0.10062576229E+01 -0.75741451657E+00 -0.59720374661E+02  0.59733747118E+02  0.10566000000E+00 0.  1.
        -14    1    4    4    0    0  0.24417232644E+01 -0.25444287846E+01 -0.13071064274E+03  0.13075820531E+03  0.00000000000E+00 0.  1.
<mgrwt>
<rscale>  0 0.73880882E+02</rscale>
<asrwt>0</asrwt>
<pdfrwt beam="1">  1        2 0.76873313E-01 0.73880882E+02</pdfrwt>
<pdfrwt beam="2">  1       -1 0.42014756E-03 0.73880882E+02</pdfrwt>
<totfact> 0.37428933E+05</totfact>
</mgrwt>
</event>
<event>
 8    1  0.2433467E-020  0.7868940E+02  0.7818608E-02  0.1332812E+00
         -1   -1    0    0    0  501 -0.00000000000E+00  0.00000000000E+00  0.28817239899E+02  0.28817240340E+02  0.50400000000E-02 0.  1.
          2   -1    0    0  501    0  0.00000000000E+00 -0.00000000000E+00 -0.53718037289E+02  0.53718037349E+02  0.25500000000E-02 0. -1.
         24    2    1    2    0    0  0.00000000000E+00  0.00000000000E+00 -0.24900797390E+02  0.82535277690E+02  0.78689404323E+02 0.  0.
         66    2    3    3    0    0 -0.11247297575E+02  0.22613664678E+01 -0.51904803791E+02  0.53195151466E+02  0.20000004528E+01 0.  0.
        -13    1    3    3    0    0  0.11247297575E+02 -0.22613664678E+01  0.27004006402E+02  0.29340126224E+02  0.10566000000E+00 0.  1.
         13    1    4    4    0    0 -0.42278594529E+01  0.45520963114E-01 -0.17733732645E+02  0.18231108175E+02  0.10566000000E+00 0.  1.
        -13    1    4    4    0    0 -0.59425583583E+01  0.20329550182E+01 -0.27883264377E+02  0.28582066096E+02  0.10566000000E+00 0. -1.
        -14    1    4    4    0    0 -0.10768797635E+01  0.18289048650E+00 -0.62878067694E+01  0.63819771955E+01  0.00000000000E+00 0.  1.
<mgrwt>
<rscale>  0 0.78689404E+02</rscale>
<asrwt>0</asrwt>
<pdfrwt beam="1">  1        2 0.82643134E-02 0.78689404E+02</pdfrwt>
<pdfrwt beam="2">  1       -1 0.44334216E-02 0.78689404E+02</pdfrwt>
<totfact> 0.15880676E+05</totfact>
</mgrwt>
</event>
<event>
 8    1  0.2433467E-020  0.7739038E+02  0.7818608E-02  0.1336625E+00
         -1   -1    0    0    0  501 -0.00000000000E+00  0.00000000000E+00  0.61128244740E+01  0.61128265518E+01  0.50400000000E-02 0.  1.
          2   -1    0    0  501    0  0.00000000000E+00 -0.00000000000E+00 -0.24494692658E+03  0.24494692659E+03  0.25500000000E-02 0. -1.
         24    2    1    2    0    0  0.00000000000E+00  0.00000000000E+00 -0.23883410210E+03  0.25105975314E+03  0.77390382609E+02 0.  0.
         66    2    3    3    0    0  0.33507939531E+02  0.12873429172E+02 -0.16614870183E+03  0.16999381845E+03  0.20000005307E+01 0.  0.
        -13    1    3    3    0    0 -0.33507939531E+02 -0.12873429172E+02 -0.72685400278E+02  0.81065934694E+02  0.10566000000E+00 0.  1.
         13    1    4    4    0    0  0.11212596513E+02  0.49217270380E+01 -0.57336064226E+02  0.58629183369E+02  0.10566000000E+00 0.  1.
        -13    1    4    4    0    0  0.12731545973E+02  0.39149062742E+01 -0.62050092709E+02  0.63463721316E+02  0.10566000000E+00 0. -1.
         14    1    4    4    0    0  0.95637970448E+01  0.40367958600E+01 -0.46762544890E+02  0.47900913763E+02  0.00000000000E+00 0. -1.
<mgrwt>
<rscale>  0 0.77390383E+02</rscale>
<asrwt>0</asrwt>
<pdfrwt beam="1">  1        2 0.37684135E-01 0.77390383E+02</pdfrwt>
<pdfrwt beam="2">  1       -1 0.94043489E-03 0.77390383E+02</pdfrwt>
<totfact> 0.25850096E+05</totfact>
</mgrwt>
</event>
<event>
 8    1  0.2433467E-020  0.7936549E+02  0.7818608E-02  0.1330862E+00
          2   -1    0    0  501    0  0.00000000000E+00  0.00000000000E+00  0.52476227911E+02  0.52476227973E+02  0.25500000000E-02 0. -1.
         -1   -1    0    0    0  501 -0.00000000000E+00 -0.00000000000E+00 -0.30008255609E+02  0.30008256032E+02  0.50400000000E-02 0.  1.
         24    2    1    2    0    0  0.00000000000E+00  0.00000000000E+00  0.22467972303E+02  0.82484484005E+02  0.79365485711E+02 0.  0.
         66    2    3    3    0    0  0.23095545609E+02  0.27250923911E+02  0.29142950919E+02  0.46144649326E+02  0.19999980482E+01 0.  0.
        -13    1    3    3    0    0 -0.23095545609E+02 -0.27250923911E+02 -0.66749786160E+01  0.36339834679E+02  0.10566000000E+00 0.  1.
         13    1    4    4    0    0  0.87002916735E+01  0.10934117837E+02  0.12455793055E+02  0.18719186754E+02  0.10566000000E+00 0. -1.
        -13    1    4    4    0    0  0.39909950030E+01  0.44551545358E+01  0.43487799118E+01  0.73959106139E+01  0.10566000000E+00 0.  1.
         14    1    4    4    0    0  0.10404258932E+02  0.11861651538E+02  0.12338377952E+02  0.20029551958E+02  0.00000000000E+00 0. -1.
<mgrwt>
<rscale>  0 0.79365486E+02</rscale>
<asrwt>0</asrwt>
<pdfrwt beam="1">  1        2 0.80732659E-02 0.79365486E+02</pdfrwt>
<pdfrwt beam="2">  1       -1 0.46166547E-02 0.79365486E+02</pdfrwt>
<totfact> 0.15434473E+05</totfact>
</mgrwt>
</event>
<event>
 8    1  0.2433467E-020  0.8297374E+02  0.7818608E-02  0.1320818E+00
         -1   -1    0    0    0  501 -0.00000000000E+00  0.00000000000E+00  0.46866675130E+02  0.46866675401E+02  0.50400000000E-02 0.  1.
          2   -1    0    0  501    0  0.00000000000E+00 -0.00000000000E+00 -0.36724606801E+02  0.36724606889E+02  0.25500000000E-02 0. -1.
         24    2    1    2    0    0 -0.17763568394E-14  0.00000000000E+00  0.10142068329E+02  0.83591282290E+02  0.82973736356E+02 0.  0.
         66    2    3    3    0    0  0.13985231726E+02  0.13512191087E+02 -0.31818094188E+02  0.37343769741E+02  0.20000015832E+01 0.  0.
        -13    1    3    3    0    0 -0.13985231726E+02 -0.13512191087E+02  0.41960162517E+02  0.46247512548E+02  0.10566000000E+00 0.  1.
         13    1    4    4    0    0  0.55889253818E+01  0.46331062305E+01 -0.13181445003E+02  0.15048701494E+02  0.10566000000E+00 0. -1.
        -13    1    4    4    0    0  0.80778275988E+01  0.85937169833E+01 -0.18166326360E+02  0.21659405527E+02  0.10566000000E+00 0.  1.
         14    1    4    4    0    0  0.31847874593E+00  0.28536787302E+00 -0.47032282491E+00  0.63566272046E+00  0.00000000000E+00 0. -1.
<mgrwt>
<rscale>  0 0.82973736E+02</rscale>
<asrwt>0</asrwt>
<pdfrwt beam="1">  1        2 0.56499396E-02 0.82973736E+02</pdfrwt>
<pdfrwt beam="2">  1       -1 0.72102577E-02 0.82973736E+02</pdfrwt>
<totfact> 0.12655869E+05</totfact>
</mgrwt>
</event>
<event>
 8    1  0.2433467E-020  0.7784865E+02  0.7818608E-02  0.1335270E+00
          2   -1    0    0  501    0  0.00000000000E+00  0.00000000000E+00  0.59048820528E+03  0.59048820529E+03  0.25500000000E-02 0. -1.
         -1   -1    0    0    0  501 -0.00000000000E+00 -0.00000000000E+00 -0.25658454334E+01  0.25658503833E+01  0.50400000000E-02 0.  1.
         24    2    1    2    0    0  0.00000000000E+00  0.00000000000E+00  0.58792235985E+03  0.59305405567E+03  0.77848646344E+02 0.  0.
         66    2    3    3    0    0  0.43889615474E+01 -0.23532294165E+02  0.52772754340E+03  0.52827397429E+03  0.19999997291E+01 0.  0.
        -13    1    3    3    0    0 -0.43889615474E+01  0.23532294165E+02  0.60194816445E+02  0.64780081375E+02  0.10566000000E+00 0.  1.
         13    1    4    4    0    0  0.21078416120E+01 -0.14133179240E+02  0.31909488664E+03  0.31941469533E+03  0.10566000000E+00 0. -1.
        -13    1    4    4    0    0  0.91420176255E+00 -0.41766693755E+01  0.81672369321E+02  0.81784273589E+02  0.10566000000E+00 0.  1.
        -14    1    4    4    0    0  0.13669181728E+01 -0.52224455496E+01  0.12696028744E+03  0.12707500537E+03  0.00000000000E+00 0.  1.
<mgrwt>
<rscale>  0 0.77848646E+02</rscale>
<asrwt>0</asrwt>
<pdfrwt beam="1">  1        2 0.90844471E-01 0.77848646E+02</pdfrwt>
<pdfrwt beam="2">  1       -1 0.39474526E-03 0.77848646E+02</pdfrwt>
<totfact> 0.34370513E+05</totfact>
</mgrwt>
</event>
<event>
 8    1  0.2433467E-020  0.7807448E+02  0.7818608E-02  0.1334606E+00
         -1   -1    0    0    0  501 -0.00000000000E+00  0.00000000000E+00  0.82679538160E+01  0.82679553521E+01  0.50400000000E-02 0.  1.
          2   -1    0    0  501    0  0.00000000000E+00 -0.00000000000E+00 -0.18431477673E+03  0.18431477674E+03  0.25500000000E-02 0. -1.
         24    2    1    2    0    0  0.00000000000E+00  0.00000000000E+00 -0.17604682291E+03  0.19258273210E+03  0.78074482674E+02 0.  0.
         66    2    3    3    0    0  0.37211155069E+02  0.11377176443E+02 -0.94966056560E+02  0.10264824460E+03  0.20000038300E+01 0.  0.
        -13    1    3    3    0    0 -0.37211155069E+02 -0.11377176443E+02 -0.81080766350E+02  0.89934487496E+02  0.10566000000E+00 0.  1.
         13    1    4    4    0    0  0.10738348716E+02  0.25104651725E+01 -0.27548812701E+02  0.29674278657E+02  0.10566000000E+00 0. -1.
        -13    1    4    4    0    0  0.62324381582E+01  0.24428104849E+01 -0.16014368194E+02  0.17357469895E+02  0.10566000000E+00 0.  1.
         14    1    4    4    0    0  0.20240368194E+02  0.64239007857E+01 -0.51402875665E+02  0.55616496047E+02  0.00000000000E+00 0. -1.
<mgrwt>
<rscale>  0 0.78074483E+02</rscale>
<asrwt>0</asrwt>
<pdfrwt beam="1">  1        2 0.28356116E-01 0.78074483E+02</pdfrwt>
<pdfrwt beam="2">  1       -1 0.12719932E-02 0.78074483E+02</pdfrwt>
<totfact> 0.22871011E+05</totfact>
</mgrwt>
</event>
<event>
 8    1  0.2433467E-020  0.7865362E+02  0.7818608E-02  0.1332916E+00
          2   -1    0    0  501    0  0.00000000000E+00  0.00000000000E+00  0.25365446511E+03  0.25365446512E+03  0.25500000000E-02 0. -1.
         -1   -1    0    0    0  501 -0.00000000000E+00 -0.00000000000E+00 -0.60972622675E+01  0.60972643505E+01  0.50400000000E-02 0.  1.
         24    2    1    2    0    0  0.00000000000E+00  0.00000000000E+00  0.24755720284E+03  0.25975172947E+03  0.78653622199E+02 0.  0.
         66    2    3    3    0    0 -0.28218708278E+02 -0.24610946086E+02  0.16329486994E+03  0.16754464691E+03  0.19999990341E+01 0.  0.
        -13    1    3    3    0    0  0.28218708278E+02  0.24610946086E+02  0.84262332897E+02  0.92207082555E+02  0.10566000000E+00 0.  1.
         13    1    4    4    0    0 -0.13060104285E+02 -0.10987169866E+02  0.73905151065E+02  0.75850291651E+02  0.10566000000E+00 0. -1.
        -13    1    4    4    0    0 -0.63107451012E+00 -0.26927277779E+00  0.28423017251E+01  0.29258513289E+01  0.10566000000E+00 0. -1.
        -14    1    4    4    0    0 -0.14527529483E+02 -0.13354503442E+02  0.86547417153E+02  0.88768503935E+02  0.00000000000E+00 0.  1.
<mgrwt>
<rscale>  0 0.78653622E+02</rscale>
<asrwt>0</asrwt>
<pdfrwt beam="1">  1        2 0.39023763E-01 0.78653622E+02</pdfrwt>
<pdfrwt beam="2">  1       -1 0.93804053E-03 0.78653622E+02</pdfrwt>
<totfact> 0.25086427E+05</totfact>
</mgrwt>
</event>
<event>
 8    1  0.2433467E-020  0.8093366E+02  0.7818608E-02  0.1326423E+00
          2   -1    0    0  501    0  0.00000000000E+00  0.00000000000E+00  0.41615958246E+03  0.41615958247E+03  0.25500000000E-02 0. -1.
         -1   -1    0    0    0  501 -0.00000000000E+00 -0.00000000000E+00 -0.39349416218E+01  0.39349448495E+01  0.50400000000E-02 0.  1.
         24    2    1    2    0    0  0.00000000000E+00  0.27755575616E-16  0.41222464084E+03  0.42009452732E+03  0.80933660289E+02 0.  0.
         66    2    3    3    0    0  0.25398539117E+02  0.14382580490E+00  0.36959370772E+03  0.37047080217E+03  0.19999994188E+01 0.  0.
        -13    1    3    3    0    0 -0.25398539117E+02 -0.14382580490E+00  0.42630933120E+02  0.49623725151E+02  0.10566000000E+00 0.  1.
         13    1    4    4    0    0  0.20503363480E+02 -0.11240532717E-01  0.30137208514E+03  0.30206875526E+03  0.10566000000E+00 0. -1.
        -13    1    4    4    0    0  0.26764754124E+01  0.30351576308E+00  0.41924770865E+02  0.42011346307E+02  0.10566000000E+00 0.  1.
        -14    1    4    4    0    0  0.22187002250E+01 -0.14844942546E+00  0.26296851716E+02  0.26390700599E+02  0.00000000000E+00 0.  1.
<mgrwt>
<rscale>  0 0.80933660E+02</rscale>
<asrwt>0</asrwt>
<pdfrwt beam="1">  1        2 0.64024493E-01 0.80933660E+02</pdfrwt>
<pdfrwt beam="2">  1       -1 0.60537643E-03 0.80933660E+02</pdfrwt>
<totfact> 0.27789861E+05</totfact>
</mgrwt>
</event>
<event>
 8    1  0.2433467E-020  0.7793585E+02  0.7818608E-02  0.1335013E+00
         -1   -1    0    0    0  501 -0.00000000000E+00  0.00000000000E+00  0.14500678805E+02  0.14500679681E+02  0.50400000000E-02 0.  1.
          2   -1    0    0  501    0  0.00000000000E+00 -0.00000000000E+00 -0.10471917836E+03  0.10471917839E+03  0.25500000000E-02 0. -1.
         24    2    1    2    0    0  0.35527136788E-14  0.00000000000E+00 -0.90218499553E+02  0.11921985807E+03  0.77935851163E+02 0.  0.
         66    2    3    3    0    0  0.14657697064E+02  0.48608620354E+01 -0.99825337300E+02  0.10103253945E+03  0.19999995493E+01 0.  0.
        -13    1    3    3    0    0 -0.14657697064E+02 -0.48608620354E+01  0.96068377468E+01  0.18187318617E+02  0.10566000000E+00 0.  1.
         13    1    4    4    0    0  0.31416798417E+01  0.12995270429E+01 -0.25586655371E+02  0.25811761270E+02  0.10566000000E+00 0. -1.
        -13    1    4    4    0    0  0.97473937358E+00  0.43120251366E+00 -0.87526815321E+01  0.88179731510E+01  0.10566000000E+00 0.  1.
        -14    1    4    4    0    0  0.10541277849E+02  0.31301324789E+01 -0.65486000397E+02  0.66402805031E+02  0.00000000000E+00 0.  1.
<mgrwt>
<rscale>  0 0.77935851E+02</rscale>
<asrwt>0</asrwt>
<pdfrwt beam="1">  1        2 0.16110642E-01 0.77935851E+02</pdfrwt>
<pdfrwt beam="2">  1       -1 0.22308738E-02 0.77935851E+02</pdfrwt>
<totfact> 0.19257111E+05</totfact>
</mgrwt>
</event>
<event>
 8    1  0.2433467E-020  0.8042703E+02  0.7818608E-02  0.1327844E+00
         -1   -1    0    0    0  501 -0.00000000000E+00  0.00000000000E+00  0.19540822529E+02  0.19540823179E+02  0.50400000000E-02 0.  1.
          2   -1    0    0  501    0  0.00000000000E+00 -0.00000000000E+00 -0.82756323532E+02  0.82756323571E+02  0.25500000000E-02 0. -1.
         24    2    1    2    0    0 -0.71054273576E-14  0.00000000000E+00 -0.63215501003E+02  0.10229714675E+03  0.80427026964E+02 0.  0.
         66    2    3    3    0    0  0.32091253170E+02  0.15881120602E+02 -0.54839896554E+02  0.65524596724E+02  0.20000000319E+01 0.  0.
        -13    1    3    3    0    0 -0.32091253170E+02 -0.15881120602E+02 -0.83756044484E+01  0.36772550027E+02  0.10566000000E+00 0.  1.
         13    1    4    4    0    0  0.12793500204E+02  0.70965696298E+01 -0.23182734448E+02  0.27413231996E+02  0.10566000000E+00 0. -1.
        -13    1    4    4    0    0  0.68985117944E+01  0.31383656718E+01 -0.12042062027E+02  0.14228887025E+02  0.10566000000E+00 0.  1.
         14    1    4    4    0    0  0.12399241172E+02  0.56461853002E+01 -0.19615100079E+02  0.23882477702E+02  0.00000000000E+00 0. -1.
<mgrwt>
<rscale>  0 0.80427027E+02</rscale>
<asrwt>0</asrwt>
<pdfrwt beam="1">  1        2 0.12731742E-01 0.80427027E+02</pdfrwt>
<pdfrwt beam="2">  1       -1 0.30062805E-02 0.80427027E+02</pdfrwt>
<totfact> 0.16602677E+05</totfact>
</mgrwt>
</event>
<event>
 8    1  0.2433467E-020  0.8125959E+02  0.7818608E-02  0.1325514E+00
         -1   -1    0    0    0  501 -0.00000000000E+00  0.00000000000E+00  0.23911156773E+01  0.23911209889E+01  0.50400000000E-02 0.  1.
          2   -1    0    0  501    0  0.00000000000E+00 -0.00000000000E+00 -0.69037998474E+03  0.69037998475E+03  0.25500000000E-02 0. -1.
         24    2    1    2    0    0  0.35527136788E-14  0.71054273576E-14 -0.68798886906E+03  0.69277110574E+03  0.81259590112E+02 0.  0.
         66    2    3    3    0    0 -0.18665050344E+02 -0.33061175320E+02 -0.46696509671E+03  0.46851022076E+03  0.19999995152E+01 0.  0.
        -13    1    3    3    0    0  0.18665050344E+02  0.33061175320E+02 -0.22102377236E+03  0.22426088497E+03  0.10566000000E+00 0.  1.
         13    1    4    4    0    0 -0.66116824863E+01 -0.10979393768E+02 -0.15344565848E+03  0.15398000748E+03  0.10566000000E+00 0. -1.
        -13    1    4    4    0    0 -0.88934461137E+01 -0.15971473139E+02 -0.23505303821E+03  0.23576285389E+03  0.10566000000E+00 0.  1.
         14    1    4    4    0    0 -0.31599217443E+01 -0.61103084125E+01 -0.78466400020E+02  0.78767359397E+02  0.00000000000E+00 0. -1.
<mgrwt>
<rscale>  0 0.81259590E+02</rscale>
<asrwt>0</asrwt>
<pdfrwt beam="1">  1        2 0.10621215E+00 0.81259590E+02</pdfrwt>
<pdfrwt beam="2">  1       -1 0.36786491E-03 0.81259590E+02</pdfrwt>
<totfact> 0.32016637E+05</totfact>
</mgrwt>
</event>
<event>
 8    1  0.2433467E-020  0.7932437E+02  0.7818608E-02  0.1330980E+00
         -1   -1    0    0    0  501 -0.00000000000E+00  0.00000000000E+00  0.28110219711E+03  0.28110219716E+03  0.50400000000E-02 0.  1.
          2   -1    0    0  501    0  0.00000000000E+00 -0.00000000000E+00 -0.55961453865E+01  0.55961459675E+01  0.25500000000E-02 0. -1.
         24    2    1    2    0    0  0.00000000000E+00  0.00000000000E+00  0.27550605173E+03  0.28669834313E+03  0.79324368344E+02 0.  0.
         66    2    3    3    0    0 -0.37796320728E+02 -0.68827910572E+00  0.94764227447E+02  0.10204555058E+03  0.19999999866E+01 0.  0.
        -13    1    3    3    0    0  0.37796320728E+02  0.68827910572E+00  0.18074182428E+03  0.18465279255E+03  0.10566000000E+00 0.  1.
         13    1    4    4    0    0 -0.26184993636E+02 -0.22559413507E+00  0.65681089417E+02  0.70708708484E+02  0.10566000000E+00 0. -1.
        -13    1    4    4    0    0 -0.57076427316E+01 -0.26902508313E+00  0.12893953722E+02  0.14103714641E+02  0.10566000000E+00 0.  1.
        -14    1    4    4    0    0 -0.59036843602E+01 -0.19365988752E+00  0.16189184308E+02  0.17233127451E+02  0.00000000000E+00 0.  1.
<mgrwt>
<rscale>  0 0.79324368E+02</rscale>
<asrwt>0</asrwt>
<pdfrwt beam="1">  1        2 0.86094546E-03 0.79324368E+02</pdfrwt>
<pdfrwt beam="2">  1       -1 0.43246493E-01 0.79324368E+02</pdfrwt>
<totfact> 0.90632494E+04</totfact>
</mgrwt>
</event>
<event>
 8    1  0.2433467E-020  0.7989480E+02  0.7818608E-02  0.1329350E+00
          2   -1    0    0  501    0  0.00000000000E+00  0.00000000000E+00  0.73775889551E+03  0.73775889551E+03  0.25500000000E-02 0. -1.
         -1   -1    0    0    0  501 -0.00000000000E+00 -0.00000000000E+00 -0.21630272344E+01  0.21630331062E+01  0.50400000000E-02 0.  1.
         24    2    1    2    0    0  0.00000000000E+00  0.00000000000E+00  0.73559586828E+03  0.73992192862E+03  0.79894799765E+02 0.  0.
         66    2    3    3    0    0 -0.11309523627E+02  0.49152345357E+00  0.72258101721E+03  0.72267245233E+03  0.20000010418E+01 0.  0.
        -13    1    3    3    0    0  0.11309523627E+02 -0.49152345357E+00  0.13014851062E+02  0.17249476287E+02  0.10566000000E+00 0.  1.
         13    1    4    4    0    0 -0.14227881146E+01 -0.48124246612E-01  0.10541451890E+03  0.10542418414E+03  0.10566000000E+00 0. -1.
        -13    1    4    4    0    0 -0.74618530550E+01  0.79304908019E+00  0.50084961630E+03  0.50090583695E+03  0.10566000000E+00 0.  1.
        -14    1    4    4    0    0 -0.24248824576E+01 -0.25340138000E+00  0.11631688201E+03  0.11634243125E+03  0.00000000000E+00 0.  1.
<mgrwt>
<rscale>  0 0.79894800E+02</rscale>
<asrwt>0</asrwt>
<pdfrwt beam="1">  1        2 0.11350147E+00 0.79894800E+02</pdfrwt>
<pdfrwt beam="2">  1       -1 0.33277357E-03 0.79894800E+02</pdfrwt>
<totfact> 0.33954332E+05</totfact>
</mgrwt>
</event>
<event>
 8    1  0.2433467E-020  0.8034425E+02  0.7818608E-02  0.1328077E+00
          2   -1    0    0  501    0  0.00000000000E+00  0.00000000000E+00  0.56293323697E+03  0.56293323698E+03  0.25500000000E-02 0. -1.
         -1   -1    0    0    0  501 -0.00000000000E+00 -0.00000000000E+00 -0.28667670605E+01  0.28667714909E+01  0.50400000000E-02 0.  1.
         24    2    1    2    0    0  0.00000000000E+00 -0.17763568394E-14  0.56006646991E+03  0.56580000847E+03  0.80344252215E+02 0.  0.
         66    2    3    3    0    0  0.13459334158E+02  0.12213355130E+02  0.53230068204E+03  0.53261462223E+03  0.19999990235E+01 0.  0.
        -13    1    3    3    0    0 -0.13459334158E+02 -0.12213355130E+02  0.27765787873E+02  0.33185386238E+02  0.10566000000E+00 0.  1.
         13    1    4    4    0    0  0.82882005514E+01  0.67285895846E+01  0.30070970506E+03  0.30089916262E+03  0.10566000000E+00 0. -1.
        -13    1    4    4    0    0  0.34771768756E+01  0.42803123026E+01  0.16873675313E+03  0.16882687835E+03  0.10566000000E+00 0.  1.
        -14    1    4    4    0    0  0.16939567310E+01  0.12044532425E+01  0.62854223853E+02  0.62888581262E+02  0.00000000000E+00 0.  1.
<mgrwt>
<rscale>  0 0.80344252E+02</rscale>
<asrwt>0</asrwt>
<pdfrwt beam="1">  1        2 0.86605076E-01 0.80344252E+02</pdfrwt>
<pdfrwt beam="2">  1       -1 0.44104162E-03 0.80344252E+02</pdfrwt>
<totfact> 0.31229601E+05</totfact>
</mgrwt>
</event>
<event>
 8    1  0.2433467E-020  0.7810056E+02  0.7818608E-02  0.1334530E+00
          2   -1    0    0  501    0  0.00000000000E+00  0.00000000000E+00  0.30648883436E+03  0.30648883437E+03  0.25500000000E-02 0. -1.
         -1   -1    0    0    0  501 -0.00000000000E+00 -0.00000000000E+00 -0.49754629986E+01  0.49754655513E+01  0.50400000000E-02 0.  1.
         24    2    1    2    0    0  0.00000000000E+00  0.00000000000E+00  0.30151337136E+03  0.31146429992E+03  0.78100557079E+02 0.  0.
         66    2    3    3    0    0 -0.29412183710E+01  0.19254418871E+02  0.28571399590E+03  0.28638413165E+03  0.19999989638E+01 0.  0.
        -13    1    3    3    0    0  0.29412183710E+01 -0.19254418871E+02  0.15799375462E+02  0.25080168273E+02  0.10566000000E+00 0.  1.
         13    1    4    4    0    0  0.95580585859E-01  0.16892370937E+00  0.30682008837E+01  0.30761488206E+01  0.10566000000E+00 0.  1.
        -13    1    4    4    0    0 -0.29966862850E+01  0.17970484232E+02  0.26934288446E+03  0.26995836531E+03  0.10566000000E+00 0. -1.
        -14    1    4    4    0    0 -0.40112671949E-01  0.11150109298E+01  0.13302910557E+02  0.13349617511E+02  0.00000000000E+00 0.  1.
<mgrwt>
<rscale>  0 0.78100557E+02</rscale>
<asrwt>0</asrwt>
<pdfrwt beam="1">  1        2 0.47152147E-01 0.78100557E+02</pdfrwt>
<pdfrwt beam="2">  1       -1 0.76545574E-03 0.78100557E+02</pdfrwt>
<totfact> 0.27360853E+05</totfact>
</mgrwt>
</event>
<event>
 8    1  0.2433467E-020  0.7965854E+02  0.7818608E-02  0.1330023E+00
          2   -1    0    0  501    0  0.00000000000E+00  0.00000000000E+00  0.10607537783E+02  0.10607538089E+02  0.25500000000E-02 0. -1.
         -1   -1    0    0    0  501 -0.00000000000E+00 -0.00000000000E+00 -0.14955128130E+03  0.14955128138E+03  0.50400000000E-02 0.  1.
         24    2    1    2    0    0  0.00000000000E+00  0.44408920985E-15 -0.13894374351E+03  0.16015881947E+03  0.79658543753E+02 0.  0.
         66    2    3    3    0    0 -0.26513311029E+02 -0.38756600353E+01 -0.10335523895E+02  0.28788877247E+02  0.19999991371E+01 0.  0.
        -13    1    3    3    0    0  0.26513311029E+02  0.38756600353E+01 -0.12860821962E+03  0.13136994222E+03  0.10566000000E+00 0.  1.
         13    1    4    4    0    0 -0.15709415018E+02 -0.22157593969E+01 -0.70774864428E+01  0.17372313844E+02  0.10566000000E+00 0. -1.
        -13    1    4    4    0    0 -0.17712219686E+01 -0.40237733948E+00 -0.44982794825E+00  0.18742048991E+01  0.10566000000E+00 0.  1.
         14    1    4    4    0    0 -0.90326740422E+01 -0.12575232989E+01 -0.28082095041E+01  0.95423585040E+01  0.00000000000E+00 0. -1.
<mgrwt>
<rscale>  0 0.79658544E+02</rscale>
<asrwt>0</asrwt>
<pdfrwt beam="1">  1        2 0.16319290E-02 0.79658544E+02</pdfrwt>
<pdfrwt beam="2">  1       -1 0.23007888E-01 0.79658544E+02</pdfrwt>
<totfact> 0.10912820E+05</totfact>
</mgrwt>
</event>
<event>
 8    1  0.2433467E-020  0.7685724E+02  0.7818608E-02  0.1338214E+00
          2   -1    0    0  501    0  0.00000000000E+00  0.00000000000E+00  0.54821131315E+03  0.54821131315E+03  0.25500000000E-02 0. -1.
         -1   -1    0    0    0  501 -0.00000000000E+00 -0.00000000000E+00 -0.26937743159E+01  0.26937790308E+01  0.50400000000E-02 0.  1.
         24    2    1    2    0    0 -0.17763568394E-14  0.00000000000E+00  0.54551753883E+03  0.55090509219E+03  0.76857240529E+02 0.  0.
         66    2    3    3    0    0 -0.96810629311E+01  0.32886553301E+02  0.39699229467E+03  0.39847475503E+03  0.20000004427E+01 0.  0.
        -13    1    3    3    0    0  0.96810629311E+01 -0.32886553301E+02  0.14852524416E+03  0.15243033715E+03  0.10566000000E+00 0.  1.
         13    1    4    4    0    0 -0.44988255707E+01  0.14589559339E+02  0.18269847810E+03  0.18333532049E+03  0.10566000000E+00 0. -1.
        -13    1    4    4    0    0 -0.63173693175E+00  0.20879598088E+01  0.20669128188E+02  0.20784193316E+02  0.10566000000E+00 0.  1.
         14    1    4    4    0    0 -0.45505004286E+01  0.16209034154E+02  0.19362468838E+03  0.19435524123E+03  0.00000000000E+00 0. -1.
<mgrwt>
<rscale>  0 0.76857241E+02</rscale>
<asrwt>0</asrwt>
<pdfrwt beam="1">  1        2 0.84340308E-01 0.76857241E+02</pdfrwt>
<pdfrwt beam="2">  1       -1 0.41442666E-03 0.76857241E+02</pdfrwt>
<totfact> 0.34771758E+05</totfact>
</mgrwt>
</event>
<event>
 8    1  0.2433467E-020  0.7920486E+02  0.7818608E-02  0.1331323E+00
         -1   -1    0    0    0  501 -0.00000000000E+00  0.00000000000E+00  0.11231523603E+02  0.11231524734E+02  0.50400000000E-02 0.  1.
          2   -1    0    0  501    0  0.00000000000E+00 -0.00000000000E+00 -0.13963844657E+03  0.13963844660E+03  0.25500000000E-02 0. -1.
         24    2    1    2    0    0 -0.17763568394E-14 -0.71054273576E-14 -0.12840692297E+03  0.15086997133E+03  0.79204863376E+02 0.  0.
         66    2    3    3    0    0  0.15221226058E+02  0.36232443927E+02 -0.73152577864E+02  0.83064886471E+02  0.20000001562E+01 0.  0.
        -13    1    3    3    0    0 -0.15221226058E+02 -0.36232443927E+02 -0.55254345106E+02  0.67805084859E+02  0.10566000000E+00 0.  1.
         13    1    4    4    0    0  0.53456922519E+01  0.13888264753E+02 -0.27415962553E+02  0.31194654834E+02  0.10566000000E+00 0. -1.
        -13    1    4    4    0    0  0.42878608158E+01  0.96322383751E+01 -0.18315789994E+02  0.21133979598E+02  0.10566000000E+00 0.  1.
         14    1    4    4    0    0  0.55876729903E+01  0.12711940798E+02 -0.27420825317E+02  0.30736252039E+02  0.00000000000E+00 0. -1.
<mgrwt>
<rscale>  0 0.79204863E+02</rscale>
<asrwt>0</asrwt>
<pdfrwt beam="1">  1        2 0.21482837E-01 0.79204863E+02</pdfrwt>
<pdfrwt beam="2">  1       -1 0.17279269E-02 0.79204863E+02</pdfrwt>
<totfact> 0.20104533E+05</totfact>
</mgrwt>
</event>
<event>
 8    1  0.2433467E-020  0.8039508E+02  0.7818608E-02  0.1327934E+00
         -1   -1    0    0    0  501 -0.00000000000E+00  0.00000000000E+00  0.20786706686E+02  0.20786707297E+02  0.50400000000E-02 0.  1.
          2   -1    0    0  501    0  0.00000000000E+00 -0.00000000000E+00 -0.77734404416E+02  0.77734404458E+02  0.25500000000E-02 0. -1.
         24    2    1    2    0    0 -0.14210854715E-13 -0.17763568394E-14 -0.56947697730E+02  0.98521111755E+02  0.80395081844E+02 0.  0.
         66    2    3    3    0    0 -0.37406474176E+02  0.13303216483E+02 -0.36007555675E+02  0.53635472711E+02  0.19999970428E+01 0.  0.
        -13    1    3    3    0    0  0.37406474176E+02 -0.13303216483E+02 -0.20940142055E+02  0.44885639044E+02  0.10566000000E+00 0.  1.
         13    1    4    4    0    0 -0.92553826988E+00  0.56016325596E+00 -0.87441421050E+00  0.13950513286E+01  0.10566000000E+00 0. -1.
        -13    1    4    4    0    0 -0.32363945441E+01  0.14765950218E+01 -0.31253666237E+01  0.47364188024E+01  0.10566000000E+00 0.  1.
         14    1    4    4    0    0 -0.33244541362E+02  0.11266458205E+02 -0.32007774840E+02  0.47504002580E+02  0.00000000000E+00 0. -1.
<mgrwt>
<rscale>  0 0.80395082E+02</rscale>
<asrwt>0</asrwt>
<pdfrwt beam="1">  1        2 0.11959139E-01 0.80395082E+02</pdfrwt>
<pdfrwt beam="2">  1       -1 0.31979550E-02 0.80395082E+02</pdfrwt>
<totfact> 0.16354655E+05</totfact>
</mgrwt>
</event>
<event>
 8    1  0.2433467E-020  0.8003177E+02  0.7818608E-02  0.1328961E+00
          2   -1    0    0  501    0  0.00000000000E+00  0.00000000000E+00  0.67042037348E+03  0.67042037349E+03  0.25500000000E-02 0. -1.
         -1   -1    0    0    0  501 -0.00000000000E+00 -0.00000000000E+00 -0.23884554563E+01  0.23884607738E+01  0.50400000000E-02 0.  1.
         24    2    1    2    0    0  0.00000000000E+00  0.00000000000E+00  0.66803191803E+03  0.67280883426E+03  0.80031768431E+02 0.  0.
         66    2    3    3    0    0 -0.24984296914E+02 -0.23065277710E+02  0.51117482123E+03  0.51230842271E+03  0.19999984450E+01 0.  0.
        -13    1    3    3    0    0  0.24984296914E+02  0.23065277710E+02  0.15685709680E+03  0.16050041155E+03  0.10566000000E+00 0.  1.
         13    1    4    4    0    0 -0.99687922563E+01 -0.90790736343E+01  0.19499544693E+03  0.19546110070E+03  0.10566000000E+00 0. -1.
        -13    1    4    4    0    0 -0.57748955260E+01 -0.46804610172E+01  0.10877892090E+03  0.10903265993E+03  0.10566000000E+00 0.  1.
         14    1    4    4    0    0 -0.92406091319E+01 -0.93057430589E+01  0.20740045340E+03  0.20781466209E+03  0.00000000000E+00 0. -1.
<mgrwt>
<rscale>  0 0.80031768E+02</rscale>
<asrwt>0</asrwt>
<pdfrwt beam="1">  1        2 0.10314174E+00 0.80031768E+02</pdfrwt>
<pdfrwt beam="2">  1       -1 0.36745458E-03 0.80031768E+02</pdfrwt>
<totfact> 0.33077568E+05</totfact>
</mgrwt>
</event>
<event>
 8    1  0.2433467E-020  0.7980287E+02  0.7818608E-02  0.1329612E+00
         -1   -1    0    0    0  501 -0.00000000000E+00  0.00000000000E+00  0.19149511329E+02  0.19149511992E+02  0.50400000000E-02 0.  1.
          2   -1    0    0  501    0  0.00000000000E+00 -0.00000000000E+00 -0.83141777431E+02  0.83141777470E+02  0.25500000000E-02 0. -1.
         24    2    1    2    0    0  0.00000000000E+00  0.00000000000E+00 -0.63992266102E+02  0.10229128946E+03  0.79802868238E+02 0.  0.
         66    2    3    3    0    0  0.28634469983E+02  0.74660709355E+01 -0.66277515552E+02  0.72611184753E+02  0.19999992853E+01 0.  0.
        -13    1    3    3    0    0 -0.28634469983E+02 -0.74660709355E+01  0.22852494501E+01  0.29680104709E+02  0.10566000000E+00 0.  1.
         13    1    4    4    0    0  0.11932656627E+02  0.34534586839E+01 -0.29413735324E+02  0.31929510814E+02  0.10566000000E+00 0. -1.
        -13    1    4    4    0    0  0.12550520952E+02  0.26069227472E+01 -0.27881865014E+02  0.30687475997E+02  0.10566000000E+00 0.  1.
        -14    1    4    4    0    0  0.41512924037E+01  0.14056895044E+01 -0.89819152135E+01  0.99941979421E+01  0.00000000000E+00 0.  1.
<mgrwt>
<rscale>  0 0.79802868E+02</rscale>
<asrwt>0</asrwt>
<pdfrwt beam="1">  1        2 0.12791042E-01 0.79802868E+02</pdfrwt>
<pdfrwt beam="2">  1       -1 0.29460788E-02 0.79802868E+02</pdfrwt>
<totfact> 0.16975302E+05</totfact>
</mgrwt>
</event>
<event>
 8    1  0.2433467E-020  0.7976721E+02  0.7818608E-02  0.1329713E+00
          2   -1    0    0  501    0  0.00000000000E+00  0.00000000000E+00  0.34060174982E+02  0.34060175077E+02  0.25500000000E-02 0. -1.
         -1   -1    0    0    0  501 -0.00000000000E+00 -0.00000000000E+00 -0.46702698811E+02  0.46702699083E+02  0.50400000000E-02 0.  1.
         24    2    1    2    0    0 -0.17763568394E-14  0.00000000000E+00 -0.12642523829E+02  0.80762874160E+02  0.79767214028E+02 0.  0.
         66    2    3    3    0    0  0.99675926795E+01 -0.47664327317E+01  0.32449340613E+02  0.34337028042E+02  0.20000009254E+01 0.  0.
        -13    1    3    3    0    0 -0.99675926795E+01  0.47664327317E+01 -0.45091864442E+02  0.46425846118E+02  0.10566000000E+00 0.  1.
         13    1    4    4    0    0  0.43217324115E+01 -0.23116679308E+01  0.16903700680E+02  0.17600211373E+02  0.10566000000E+00 0. -1.
        -13    1    4    4    0    0  0.18381410470E+01 -0.46617066929E+00  0.44285464703E+01  0.48186373050E+01  0.10566000000E+00 0.  1.
         14    1    4    4    0    0  0.38077192209E+01 -0.19885941316E+01  0.11117093463E+02  0.11918179364E+02  0.00000000000E+00 0. -1.
<mgrwt>
<rscale>  0 0.79767214E+02</rscale>
<asrwt>0</asrwt>
<pdfrwt beam="1">  1        2 0.52400269E-02 0.79767214E+02</pdfrwt>
<pdfrwt beam="2">  1       -1 0.71850307E-02 0.79767214E+02</pdfrwt>
<totfact> 0.13910985E+05</totfact>
</mgrwt>
</event>
<event>
 8    1  0.2433467E-020  0.7978705E+02  0.7818608E-02  0.1329657E+00
         -1   -1    0    0    0  501 -0.00000000000E+00  0.00000000000E+00  0.96236554791E+02  0.96236554923E+02  0.50400000000E-02 0.  1.
          2   -1    0    0  501    0  0.00000000000E+00 -0.00000000000E+00 -0.16537306395E+02  0.16537306592E+02  0.25500000000E-02 0. -1.
         24    2    1    2    0    0  0.00000000000E+00  0.00000000000E+00  0.79699248395E+02  0.11277386151E+03  0.79787051870E+02 0.  0.
         66    2    3    3    0    0 -0.33383900609E+02 -0.10542417641E+02  0.12913107300E+02  0.37368111097E+02  0.19999993043E+01 0.  0.
        -13    1    3    3    0    0  0.33383900609E+02  0.10542417641E+02  0.66786141095E+02  0.75405750417E+02  0.10566000000E+00 0.  1.
         13    1    4    4    0    0 -0.76993426481E+01 -0.29015561850E+01  0.31511783868E+01  0.88113560119E+01  0.10566000000E+00 0. -1.
        -13    1    4    4    0    0 -0.13188312475E+02 -0.34464770819E+01  0.55589215984E+01  0.14721500045E+02  0.10566000000E+00 0.  1.
         14    1    4    4    0    0 -0.12496245486E+02 -0.41943843737E+01  0.42030073153E+01  0.13835255040E+02  0.00000000000E+00 0. -1.
<mgrwt>
<rscale>  0 0.79787052E+02</rscale>
<asrwt>0</asrwt>
<pdfrwt beam="1">  1        2 0.25442011E-02 0.79787052E+02</pdfrwt>
<pdfrwt beam="2">  1       -1 0.14805624E-01 0.79787052E+02</pdfrwt>
<totfact> 0.12029791E+05</totfact>
</mgrwt>
</event>
<event>
 8    1  0.2460578E-020  0.8311680E+02  0.7818608E-02  0.1320432E+00
          2   -1    0    0  501    0  0.00000000000E+00  0.00000000000E+00  0.14775553946E+02  0.14775554166E+02  0.25500000000E-02 0. -1.
         -1   -1    0    0    0  501 -0.00000000000E+00 -0.00000000000E+00 -0.11688905124E+03  0.11688905135E+03  0.50400000000E-02 0.  1.
         24    2    1    2    0    0 -0.17763568394E-14  0.00000000000E+00 -0.10211349729E+03  0.13166460551E+03  0.83116797434E+02 0.  0.
         66    2    3    3    0    0 -0.11383410004E+02 -0.14855071000E+02  0.76500431764E+01  0.20316946633E+02  0.20000005458E+01 0.  0.
        -13    1    3    3    0    0  0.11383410004E+02  0.14855071000E+02 -0.10976354047E+03  0.11134765888E+03  0.10566000000E+00 0.  1.
         13    1    4    4    0    0 -0.48502547683E+01 -0.61040652783E+01  0.34472834441E+01  0.85252279394E+01  0.10566000000E+00 0. -1.
        -13    1    4    4    0    0 -0.53634490059E+01 -0.79717426889E+01  0.37596380376E+01  0.10318008962E+02  0.10566000000E+00 0.  1.
        -14    1    4    4    0    0 -0.11697062293E+01 -0.77926303282E+00  0.44312169465E+00  0.14737097317E+01  0.00000000000E+00 0.  1.
<mgrwt>
<rscale>  0 0.83116797E+02</rscale>
<asrwt>0</asrwt>
<pdfrwt beam="1">  1        2 0.22731622E-02 0.83116797E+02</pdfrwt>
<pdfrwt beam="2">  1       -1 0.17982930E-01 0.83116797E+02</pdfrwt>
<totfact> 0.10405994E+05</totfact>
</mgrwt>
</event>
<event>
 8    1  0.2433467E-020  0.8519132E+02  0.7818608E-02  0.1314933E+00
          2   -1    0    0  501    0  0.00000000000E+00  0.00000000000E+00  0.80063946473E+01  0.80063950533E+01  0.25500000000E-02 0. -1.
         -1   -1    0    0    0  501 -0.00000000000E+00 -0.00000000000E+00 -0.22661763240E+03  0.22661763245E+03  0.50400000000E-02 0.  1.
         24    2    1    2    0    0  0.00000000000E+00  0.00000000000E+00 -0.21861123775E+03  0.23462402751E+03  0.85191320056E+02 0.  0.
         66    2    3    3    0    0 -0.22975256938E+02 -0.21592575976E+02 -0.30583328774E+02  0.43970919778E+02  0.20000046540E+01 0.  0.
        -13    1    3    3    0    0  0.22975256938E+02  0.21592575976E+02 -0.18802790898E+03  0.19065310773E+03  0.10566000000E+00 0.  1.
         13    1    4    4    0    0 -0.82736513764E+01 -0.79321563885E+01 -0.10720877456E+02  0.15694610207E+02  0.10566000000E+00 0. -1.
        -13    1    4    4    0    0 -0.87856037489E+01 -0.75433419195E+01 -0.10615159821E+02  0.15709284599E+02  0.10566000000E+00 0.  1.
        -14    1    4    4    0    0 -0.59160018123E+01 -0.61170776680E+01 -0.92472914970E+01  0.12567024973E+02  0.00000000000E+00 0.  1.
<mgrwt>
<rscale>  0 0.85191320E+02</rscale>
<asrwt>0</asrwt>
<pdfrwt beam="1">  1        2 0.12317532E-02 0.85191320E+02</pdfrwt>
<pdfrwt beam="2">  1       -1 0.34864246E-01 0.85191320E+02</pdfrwt>
<totfact> 0.81544463E+04</totfact>
</mgrwt>
</event>
<event>
 8    1  0.2433467E-020  0.8400200E+02  0.7818608E-02  0.1318063E+00
         -1   -1    0    0    0  501 -0.00000000000E+00  0.00000000000E+00  0.11672064539E+02  0.11672065627E+02  0.50400000000E-02 0.  1.
          2   -1    0    0  501    0  0.00000000000E+00 -0.00000000000E+00 -0.15113725694E+03  0.15113725696E+03  0.25500000000E-02 0. -1.
         24    2    1    2    0    0 -0.71054273576E-14  0.00000000000E+00 -0.13946519240E+03  0.16280932258E+03  0.84001997774E+02 0.  0.
         66    2    3    3    0    0  0.22012119937E+02  0.34409442686E+02 -0.51027319285E+02  0.65393657855E+02  0.20000010327E+01 0.  0.
        -13    1    3    3    0    0 -0.22012119937E+02 -0.34409442686E+02 -0.88437873112E+02  0.97415664730E+02  0.10566000000E+00 0.  1.
         13    1    4    4    0    0  0.81078773403E+01  0.12500965624E+02 -0.18162461635E+02  0.23492509300E+02  0.10566000000E+00 0. -1.
        -13    1    4    4    0    0  0.44844668176E+01  0.64405006529E+01 -0.10926786240E+02  0.13453487015E+02  0.10566000000E+00 0.  1.
        -14    1    4    4    0    0  0.94197757791E+01  0.15467976409E+02 -0.21938071410E+02  0.28447661540E+02  0.00000000000E+00 0.  1.
<mgrwt>
<rscale>  0 0.84001998E+02</rscale>
<asrwt>0</asrwt>
<pdfrwt beam="1">  1        2 0.23251884E-01 0.84001998E+02</pdfrwt>
<pdfrwt beam="2">  1       -1 0.17957024E-02 0.84001998E+02</pdfrwt>
<totfact> 0.17633810E+05</totfact>
</mgrwt>
</event>
<event>
 8    1  0.2433467E-020  0.7996007E+02  0.7818608E-02  0.1329165E+00
          2   -1    0    0  501    0  0.00000000000E+00  0.00000000000E+00  0.35823010463E+02  0.35823010554E+02  0.25500000000E-02 0. -1.
         -1   -1    0    0    0  501 -0.00000000000E+00 -0.00000000000E+00 -0.44619453622E+02  0.44619453906E+02  0.50400000000E-02 0.  1.
         24    2    1    2    0    0  0.00000000000E+00 -0.35527136788E-14 -0.87964431584E+01  0.80442464460E+02  0.79960069261E+02 0.  0.
         66    2    3    3    0    0  0.20185557083E+02 -0.30622982111E+02  0.11543132144E+02  0.38502826459E+02  0.19999993774E+01 0.  0.
        -13    1    3    3    0    0 -0.20185557083E+02  0.30622982111E+02 -0.20339575302E+02  0.41939638001E+02  0.10566000000E+00 0.  1.
         13    1    4    4    0    0  0.70744383839E+00 -0.15756894781E+01  0.30311652031E+00  0.17567918990E+01  0.10566000000E+00 0.  1.
        -13    1    4    4    0    0  0.89388806307E+01 -0.14109943192E+02  0.53090293390E+01  0.17526866245E+02  0.10566000000E+00 0. -1.
        -14    1    4    4    0    0  0.10539232614E+02 -0.14937349442E+02  0.59309862842E+01  0.19219168315E+02  0.00000000000E+00 0.  1.
<mgrwt>
<rscale>  0 0.79960069E+02</rscale>
<asrwt>0</asrwt>
<pdfrwt beam="1">  1        2 0.55112324E-02 0.79960069E+02</pdfrwt>
<pdfrwt beam="2">  1       -1 0.68645313E-02 0.79960069E+02</pdfrwt>
<totfact> 0.13958341E+05</totfact>
</mgrwt>
</event>
<event>
 8    1  0.2433467E-020  0.8222364E+02  0.7818608E-02  0.1322857E+00
          2   -1    0    0  501    0  0.00000000000E+00  0.00000000000E+00  0.14488398524E+02  0.14488398748E+02  0.25500000000E-02 0. -1.
         -1   -1    0    0    0  501 -0.00000000000E+00 -0.00000000000E+00 -0.11665758584E+03  0.11665758595E+03  0.50400000000E-02 0.  1.
         24    2    1    2    0    0  0.17763568394E-14  0.71054273576E-14 -0.10216918732E+03  0.13114598470E+03  0.82223636901E+02 0.  0.
         66    2    3    3    0    0  0.11590382886E+02  0.38313912644E+02 -0.36333394528E+02  0.54096288697E+02  0.20000038274E+01 0.  0.
        -13    1    3    3    0    0 -0.11590382886E+02 -0.38313912644E+02 -0.65835792789E+02  0.77049696000E+02  0.10566000000E+00 0.  1.
         13    1    4    4    0    0  0.50007171422E+01  0.18642588344E+02 -0.17807478647E+02  0.26261582814E+02  0.10566000000E+00 0.  1.
        -13    1    4    4    0    0  0.59530049635E+01  0.18543131112E+02 -0.17252450331E+02  0.26018151087E+02  0.10566000000E+00 0. -1.
        -14    1    4    4    0    0  0.63666078071E+00  0.11281931880E+01 -0.12734655493E+01  0.18165547953E+01  0.00000000000E+00 0.  1.
<mgrwt>
<rscale>  0 0.82223637E+02</rscale>
<asrwt>0</asrwt>
<pdfrwt beam="1">  1        2 0.22289845E-02 0.82223637E+02</pdfrwt>
<pdfrwt beam="2">  1       -1 0.17947320E-01 0.82223637E+02</pdfrwt>
<totfact> 0.10696660E+05</totfact>
</mgrwt>
</event>
<event>
 8    1  0.2433467E-020  0.8154925E+02  0.7818608E-02  0.1324712E+00
         -1   -1    0    0    0  501 -0.00000000000E+00  0.00000000000E+00  0.96453043661E+01  0.96453056829E+01  0.50400000000E-02 0.  1.
          2   -1    0    0  501    0  0.00000000000E+00 -0.00000000000E+00 -0.17237091116E+03  0.17237091118E+03  0.25500000000E-02 0. -1.
         24    2    1    2    0    0  0.71054273576E-14  0.00000000000E+00 -0.16272560679E+03  0.18201621686E+03  0.81549249501E+02 0.  0.
         66    2    3    3    0    0 -0.32700033234E+02 -0.22171868505E+02 -0.10369577950E+03  0.11098512789E+03  0.19999998826E+01 0.  0.
        -13    1    3    3    0    0  0.32700033234E+02  0.22171868505E+02 -0.59029827295E+02  0.71031088976E+02  0.10566000000E+00 0.  1.
         13    1    4    4    0    0 -0.15132917344E+02 -0.10922932115E+02 -0.46864476229E+02  0.50444087162E+02  0.10566000000E+00 0. -1.
        -13    1    4    4    0    0 -0.67539023678E+01 -0.44863490750E+01 -0.22677878921E+02  0.24084017141E+02  0.10566000000E+00 0.  1.
         14    1    4    4    0    0 -0.10813213522E+02 -0.67625873146E+01 -0.34153424347E+02  0.36457023583E+02  0.00000000000E+00 0. -1.
<mgrwt>
<rscale>  0 0.81549250E+02</rscale>
<asrwt>0</asrwt>
<pdfrwt beam="1">  1        2 0.26518600E-01 0.81549250E+02</pdfrwt>
<pdfrwt beam="2">  1       -1 0.14838932E-02 0.81549250E+02</pdfrwt>
<totfact> 0.19927526E+05</totfact>
</mgrwt>
</event>
<event>
 8    1  0.2433467E-020  0.7766001E+02  0.7818608E-02  0.1335826E+00
         -1   -1    0    0    0  501 -0.00000000000E+00  0.00000000000E+00  0.37444862190E+02  0.37444862529E+02  0.50400000000E-02 0.  1.
          2   -1    0    0  501    0  0.00000000000E+00 -0.00000000000E+00 -0.40266390058E+02  0.40266390139E+02  0.25500000000E-02 0. -1.
         24    2    1    2    0    0  0.00000000000E+00  0.00000000000E+00 -0.28215278683E+01  0.77711252668E+02  0.77660013982E+02 0.  0.
         66    2    3    3    0    0 -0.35596013159E+02  0.80915173917E+01 -0.14581524579E+02  0.39359492693E+02  0.19999998683E+01 0.  0.
        -13    1    3    3    0    0  0.35596013159E+02 -0.80915173917E+01  0.11759996711E+02  0.38351759975E+02  0.10566000000E+00 0.  1.
         13    1    4    4    0    0 -0.82579331392E+01  0.16975225154E+01 -0.36369599896E+01  0.91822483316E+01  0.10566000000E+00 0. -1.
        -13    1    4    4    0    0 -0.58920567459E+01  0.10028483389E+01 -0.29221669160E+01  0.66537403773E+01  0.10566000000E+00 0.  1.
        -14    1    4    4    0    0 -0.21446023274E+02  0.53911465374E+01 -0.80223976736E+01  0.23523503984E+02  0.00000000000E+00 0.  1.
<mgrwt>
<rscale>  0 0.77660014E+02</rscale>
<asrwt>0</asrwt>
<pdfrwt beam="1">  1        2 0.61948293E-02 0.77660014E+02</pdfrwt>
<pdfrwt beam="2">  1       -1 0.57607480E-02 0.77660014E+02</pdfrwt>
<totfact> 0.15492296E+05</totfact>
</mgrwt>
</event>
<event>
 8    1  0.2433467E-020  0.7957119E+02  0.7818608E-02  0.1330273E+00
          2   -1    0    0  501    0  0.00000000000E+00  0.00000000000E+00  0.34169955554E+03  0.34169955555E+03  0.25500000000E-02 0. -1.
         -1   -1    0    0    0  501 -0.00000000000E+00 -0.00000000000E+00 -0.46324120165E+01  0.46324147582E+01  0.50400000000E-02 0.  1.
         24    2    1    2    0    0 -0.71054273576E-14  0.17763568394E-14  0.33706714353E+03  0.34633197031E+03  0.79571190856E+02 0.  0.
         66    2    3    3    0    0 -0.38379512534E+02  0.10167094884E+02  0.17790537291E+03  0.18229283720E+03  0.19999961953E+01 0.  0.
        -13    1    3    3    0    0  0.38379512534E+02 -0.10167094884E+02  0.15916177062E+03  0.16403913311E+03  0.10566000000E+00 0.  1.
         13    1    4    4    0    0 -0.11119310482E+02  0.31698463594E+01  0.49523558993E+02  0.50855491846E+02  0.10566000000E+00 0. -1.
        -13    1    4    4    0    0 -0.97890922799E+01  0.26097044822E+01  0.49204106358E+02  0.50236362644E+02  0.10566000000E+00 0.  1.
        -14    1    4    4    0    0 -0.17471109772E+02  0.43875440427E+01  0.79177707559E+02  0.81200982714E+02  0.00000000000E+00 0.  1.
<mgrwt>
<rscale>  0 0.79571191E+02</rscale>
<asrwt>0</asrwt>
<pdfrwt beam="1">  1        2 0.52569178E-01 0.79571191E+02</pdfrwt>
<pdfrwt beam="2">  1       -1 0.71267878E-03 0.79571191E+02</pdfrwt>
<totfact> 0.27097639E+05</totfact>
</mgrwt>
</event>
<event>
 8    1  0.2433467E-020  0.8415518E+02  0.7818608E-02  0.1317657E+00
          2   -1    0    0  501    0  0.00000000000E+00  0.00000000000E+00  0.10556058939E+02  0.10556059247E+02  0.25500000000E-02 0. -1.
         -1   -1    0    0    0  501 -0.00000000000E+00 -0.00000000000E+00 -0.16772579361E+03  0.16772579368E+03  0.50400000000E-02 0.  1.
         24    2    1    2    0    0  0.35527136788E-14  0.00000000000E+00 -0.15716973467E+03  0.17828185293E+03  0.84155175650E+02 0.  0.
         66    2    3    3    0    0  0.23966314952E+02  0.33305168142E+02 -0.59109124889E+02  0.71982686275E+02  0.20000002261E+01 0.  0.
        -13    1    3    3    0    0 -0.23966314952E+02 -0.33305168142E+02 -0.98060609777E+02  0.10629916665E+03  0.10566000000E+00 0.  1.
         13    1    4    4    0    0  0.11395293880E+00  0.24235726535E+00 -0.31294653362E+00  0.42523156613E+00  0.10566000000E+00 0.  1.
        -13    1    4    4    0    0  0.31844724055E+01  0.38010996193E+01 -0.73298584456E+01  0.88502661930E+01  0.10566000000E+00 0.  1.
         14    1    4    4    0    0  0.20667889608E+02  0.29261711257E+02 -0.51466319910E+02  0.62707188516E+02  0.00000000000E+00 0. -1.
<mgrwt>
<rscale>  0 0.84155176E+02</rscale>
<asrwt>0</asrwt>
<pdfrwt beam="1">  1        2 0.16240092E-02 0.84155176E+02</pdfrwt>
<pdfrwt beam="2">  1       -1 0.25803966E-01 0.84155176E+02</pdfrwt>
<totfact> 0.92125380E+04</totfact>
</mgrwt>
</event>
<event>
 8    1  0.2433467E-020  0.7923310E+02  0.7818608E-02  0.1331242E+00
          2   -1    0    0  501    0  0.00000000000E+00  0.00000000000E+00  0.67445694811E+03  0.67445694812E+03  0.25500000000E-02 0. -1.
         -1   -1    0    0    0  501 -0.00000000000E+00 -0.00000000000E+00 -0.23270119454E+01  0.23270174034E+01  0.50400000000E-02 0.  1.
         24    2    1    2    0    0  0.88817841970E-15  0.00000000000E+00  0.67212993617E+03  0.67678396552E+03  0.79233104785E+02 0.  0.
         66    2    3    3    0    0 -0.41031141889E+01 -0.17949742478E+02  0.63565651867E+03  0.63592628388E+03  0.20000003206E+01 0.  0.
        -13    1    3    3    0    0  0.41031141889E+01  0.17949742478E+02  0.36473417500E+02  0.40857681643E+02  0.10566000000E+00 0.  1.
         13    1    4    4    0    0 -0.16770947224E+01 -0.44771294033E+01  0.17078027633E+03  0.17084721619E+03  0.10566000000E+00 0. -1.
        -13    1    4    4    0    0 -0.97447032326E+00 -0.42970250150E+01  0.16591887764E+03  0.16597740550E+03  0.10566000000E+00 0.  1.
         14    1    4    4    0    0 -0.14515491432E+01 -0.91755880600E+01  0.29895736470E+03  0.29910166218E+03  0.00000000000E+00 0. -1.
<mgrwt>
<rscale>  0 0.79233105E+02</rscale>
<asrwt>0</asrwt>
<pdfrwt beam="1">  1        2 0.10376264E+00 0.79233105E+02</pdfrwt>
<pdfrwt beam="2">  1       -1 0.35800215E-03 0.79233105E+02</pdfrwt>
<totfact> 0.34000666E+05</totfact>
</mgrwt>
</event>
<event>
 8    1  0.2433467E-020  0.8171641E+02  0.7818608E-02  0.1324250E+00
         -1   -1    0    0    0  501 -0.00000000000E+00  0.00000000000E+00  0.54276812852E+01  0.54276836252E+01  0.50400000000E-02 0.  1.
          2   -1    0    0  501    0  0.00000000000E+00 -0.00000000000E+00 -0.30757011331E+03  0.30757011332E+03  0.25500000000E-02 0. -1.
         24    2    1    2    0    0  0.00000000000E+00  0.00000000000E+00 -0.30214243203E+03  0.31299779695E+03  0.81716409999E+02 0.  0.
         66    2    3    3    0    0 -0.32726432291E+02  0.16418258704E+02 -0.81917922440E+02  0.89750345952E+02  0.19999980646E+01 0.  0.
        -13    1    3    3    0    0  0.32726432291E+02 -0.16418258704E+02 -0.22022450959E+03  0.22324745100E+03  0.10566000000E+00 0.  1.
         13    1    4    4    0    0 -0.41146634276E+01  0.26031034517E+01 -0.11847255352E+02  0.12809185225E+02  0.10566000000E+00 0.  1.
        -13    1    4    4    0    0 -0.50103878625E+01  0.24323865761E+01 -0.12938681833E+02  0.14086913878E+02  0.10566000000E+00 0. -1.
        -14    1    4    4    0    0 -0.23601381001E+02  0.11382768676E+02 -0.57131985254E+02  0.62854246849E+02  0.00000000000E+00 0.  1.
<mgrwt>
<rscale>  0 0.81716410E+02</rscale>
<asrwt>0</asrwt>
<pdfrwt beam="1">  1        2 0.47318466E-01 0.81716410E+02</pdfrwt>
<pdfrwt beam="2">  1       -1 0.83502831E-03 0.81716410E+02</pdfrwt>
<totfact> 0.24331811E+05</totfact>
</mgrwt>
</event>
<event>
 8    1  0.2433467E-020  0.8060186E+02  0.7818608E-02  0.1327352E+00
          2   -1    0    0  501    0  0.00000000000E+00  0.00000000000E+00  0.22083869068E+03  0.22083869069E+03  0.25500000000E-02 0. -1.
         -1   -1    0    0    0  501 -0.00000000000E+00 -0.00000000000E+00 -0.73545295875E+01  0.73545313145E+01  0.50400000000E-02 0.  1.
         24    2    1    2    0    0 -0.35527136788E-14 -0.35527136788E-14  0.21348416109E+03  0.22819322201E+03  0.80601858127E+02 0.  0.
         66    2    3    3    0    0  0.31237180310E+02  0.24842511871E+02  0.12211871847E+03  0.12849082937E+03  0.19999999571E+01 0.  0.
        -13    1    3    3    0    0 -0.31237180310E+02 -0.24842511871E+02  0.91365442618E+02  0.99702392643E+02  0.10566000000E+00 0.  1.
         13    1    4    4    0    0  0.18684930852E+02  0.14445896312E+02  0.70701953453E+02  0.74542524422E+02  0.10566000000E+00 0. -1.
        -13    1    4    4    0    0  0.70210639267E+01  0.55262570640E+01  0.29699800405E+02  0.31014902288E+02  0.10566000000E+00 0.  1.
        -14    1    4    4    0    0  0.55311855310E+01  0.48703584947E+01  0.21716964616E+02  0.22933402656E+02  0.00000000000E+00 0.  1.
<mgrwt>
<rscale>  0 0.80601858E+02</rscale>
<asrwt>0</asrwt>
<pdfrwt beam="1">  1        2 0.33975186E-01 0.80601858E+02</pdfrwt>
<pdfrwt beam="2">  1       -1 0.11314661E-02 0.80601858E+02</pdfrwt>
<totfact> 0.22391222E+05</totfact>
</mgrwt>
</event>
<event>
 8    1  0.2433467E-020  0.7960625E+02  0.7818608E-02  0.1330173E+00
         -1   -1    0    0    0  501 -0.00000000000E+00  0.00000000000E+00  0.19082019602E+02  0.19082020267E+02  0.50400000000E-02 0.  1.
          2   -1    0    0  501    0  0.00000000000E+00 -0.00000000000E+00 -0.83025205199E+02  0.83025205238E+02  0.25500000000E-02 0. -1.
         24    2    1    2    0    0  0.00000000000E+00 -0.17763568394E-14 -0.63943185597E+02  0.10210722551E+03  0.79606246715E+02 0.  0.
         66    2    3    3    0    0 -0.22403140192E+01 -0.12346939954E+02 -0.80407725620E+02  0.81405578823E+02  0.19999977491E+01 0.  0.
        -13    1    3    3    0    0  0.22403140192E+01  0.12346939954E+02  0.16464540023E+02  0.20701646682E+02  0.10566000000E+00 0.  1.
         13    1    4    4    0    0 -0.85843369272E+00 -0.84471863311E+01 -0.52551181511E+02  0.53232787899E+02  0.10566000000E+00 0. -1.
        -13    1    4    4    0    0 -0.48983839052E+00 -0.18542620648E+01 -0.15219662409E+02  0.15340388435E+02  0.10566000000E+00 0.  1.
         14    1    4    4    0    0 -0.89204193600E+00 -0.20454915580E+01 -0.12636881700E+02  0.12832402488E+02  0.00000000000E+00 0. -1.
<mgrwt>
<rscale>  0 0.79606247E+02</rscale>
<asrwt>0</asrwt>
<pdfrwt beam="1">  1        2 0.12773108E-01 0.79606247E+02</pdfrwt>
<pdfrwt beam="2">  1       -1 0.29356954E-02 0.79606247E+02</pdfrwt>
<totfact> 0.17082152E+05</totfact>
</mgrwt>
</event>
<event>
 8    1  0.2433467E-020  0.7817536E+02  0.7818608E-02  0.1334311E+00
          2   -1    0    0  501    0  0.00000000000E+00  0.00000000000E+00  0.57741627731E+01  0.57741633362E+01  0.25500000000E-02 0. -1.
         -1   -1    0    0    0  501 -0.00000000000E+00 -0.00000000000E+00 -0.26460055737E+03  0.26460055742E+03  0.50400000000E-02 0.  1.
         24    2    1    2    0    0  0.00000000000E+00  0.00000000000E+00 -0.25882639460E+03  0.27037472076E+03  0.78175361099E+02 0.  0.
         66    2    3    3    0    0  0.27064926319E+02 -0.24786168826E+02 -0.83228109853E+02  0.90982320773E+02  0.20000054778E+01 0.  0.
        -13    1    3    3    0    0 -0.27064926319E+02  0.24786168826E+02 -0.17559828475E+03  0.17939239998E+03  0.10566000000E+00 0.  1.
         13    1    4    4    0    0  0.98921825288E+01 -0.96553891575E+01 -0.29724608433E+02  0.32781783440E+02  0.10566000000E+00 0. -1.
        -13    1    4    4    0    0  0.55285090019E+00 -0.67318574431E+00 -0.20876145570E+01  0.22645356562E+01  0.10566000000E+00 0. -1.
         14    1    4    4    0    0  0.16619892890E+02 -0.14457593924E+02 -0.51415886862E+02  0.55936001677E+02  0.00000000000E+00 0. -1.
<mgrwt>
<rscale>  0 0.78175361E+02</rscale>
<asrwt>0</asrwt>
<pdfrwt beam="1">  1        2 0.88833298E-03 0.78175361E+02</pdfrwt>
<pdfrwt beam="2">  1       -1 0.40707769E-01 0.78175361E+02</pdfrwt>
<totfact> 0.96246308E+04</totfact>
</mgrwt>
</event>
<event>
 8    1  0.2433467E-020  0.7909838E+02  0.7818608E-02  0.1331630E+00
          2   -1    0    0  501    0  0.00000000000E+00  0.00000000000E+00  0.87149022175E+03  0.87149022175E+03  0.25500000000E-02 0. -1.
         -1   -1    0    0    0  501 -0.00000000000E+00 -0.00000000000E+00 -0.17947825995E+01  0.17947896760E+01  0.50400000000E-02 0.  1.
         24    2    1    2    0    0  0.00000000000E+00  0.00000000000E+00  0.86969543915E+03  0.87328501143E+03  0.79098383730E+02 0.  0.
         66    2    3    3    0    0  0.25775098807E+02  0.10363158208E+02  0.74551455027E+03  0.74603464760E+03  0.19999987917E+01 0.  0.
        -13    1    3    3    0    0 -0.25775098807E+02 -0.10363158208E+02  0.12418088888E+03  0.12725036382E+03  0.10566000000E+00 0.  1.
         13    1    4    4    0    0  0.12714109580E+02  0.52663631046E+01  0.38663412364E+03  0.38687897318E+03  0.10566000000E+00 0. -1.
        -13    1    4    4    0    0  0.49374624746E+01  0.22652317251E+01  0.12922455596E+03  0.12933872907E+03  0.10566000000E+00 0.  1.
         14    1    4    4    0    0  0.81235267520E+01  0.28315633786E+01  0.22965587067E+03  0.22981694535E+03  0.00000000000E+00 0. -1.
<mgrwt>
<rscale>  0 0.79098384E+02</rscale>
<asrwt>0</asrwt>
<pdfrwt beam="1">  1        2 0.13407549E+00 0.79098384E+02</pdfrwt>
<pdfrwt beam="2">  1       -1 0.27612080E-03 0.79098384E+02</pdfrwt>
<totfact> 0.35851908E+05</totfact>
</mgrwt>
</event>
<event>
 8    1  0.2433467E-020  0.7722063E+02  0.7818608E-02  0.1337129E+00
         -1   -1    0    0    0  501 -0.00000000000E+00  0.00000000000E+00  0.10446571827E+02  0.10446573042E+02  0.50400000000E-02 0.  1.
          2   -1    0    0  501    0  0.00000000000E+00 -0.00000000000E+00 -0.14270291384E+03  0.14270291387E+03  0.25500000000E-02 0. -1.
         24    2    1    2    0    0  0.00000000000E+00  0.00000000000E+00 -0.13225634202E+03  0.15314948691E+03  0.77220627663E+02 0.  0.
         66    2    3    3    0    0  0.33552011967E+02  0.68308682833E+01 -0.10144750989E+03  0.10708872737E+03  0.19999993471E+01 0.  0.
        -13    1    3    3    0    0 -0.33552011967E+02 -0.68308682833E+01 -0.30808832126E+02  0.46060759541E+02  0.10566000000E+00 0.  1.
         13    1    4    4    0    0  0.30933347871E+01  0.10223786849E+01 -0.91427535152E+01  0.97064454954E+01  0.10566000000E+00 0. -1.
        -13    1    4    4    0    0  0.46627130391E+00 -0.13725607602E-01 -0.16252567071E+01  0.16941725771E+01  0.10566000000E+00 0.  1.
         14    1    4    4    0    0  0.29992405876E+02  0.58222152061E+01 -0.90679499668E+02  0.95688109294E+02  0.00000000000E+00 0. -1.
<mgrwt>
<rscale>  0 0.77220628E+02</rscale>
<asrwt>0</asrwt>
<pdfrwt beam="1">  1        2 0.21954293E-01 0.77220628E+02</pdfrwt>
<pdfrwt beam="2">  1       -1 0.16071651E-02 0.77220628E+02</pdfrwt>
<totfact> 0.21650429E+05</totfact>
</mgrwt>
</event>
<event>
 8    1  0.2433467E-020  0.8150758E+02  0.7818608E-02  0.1324827E+00
          2   -1    0    0  501    0  0.00000000000E+00  0.00000000000E+00  0.82553489873E+02  0.82553489912E+02  0.25500000000E-02 0. -1.
         -1   -1    0    0    0  501 -0.00000000000E+00 -0.00000000000E+00 -0.20118728612E+02  0.20118729244E+02  0.50400000000E-02 0.  1.
         24    2    1    2    0    0  0.44408920985E-15  0.00000000000E+00  0.62434761260E+02  0.10267221916E+03  0.81507577395E+02 0.  0.
         66    2    3    3    0    0  0.20014799590E+01 -0.10088970152E+02  0.80878311219E+02  0.81554242457E+02  0.19999990691E+01 0.  0.
        -13    1    3    3    0    0 -0.20014799590E+01  0.10088970152E+02 -0.18443549959E+02  0.21117976699E+02  0.10566000000E+00 0.  1.
         13    1    4    4    0    0  0.11878129047E+01 -0.61154038503E+01  0.45649439284E+02  0.46072676661E+02  0.10566000000E+00 0. -1.
        -13    1    4    4    0    0  0.54009850632E+00 -0.50521448408E+00  0.59569272600E+01  0.60035901333E+01  0.10566000000E+00 0.  1.
        -14    1    4    4    0    0  0.27356854799E+00 -0.34683518171E+01  0.29271944675E+02  0.29477975662E+02  0.00000000000E+00 0.  1.
<mgrwt>
<rscale>  0 0.81507577E+02</rscale>
<asrwt>0</asrwt>
<pdfrwt beam="1">  1        2 0.12700537E-01 0.81507577E+02</pdfrwt>
<pdfrwt beam="2">  1       -1 0.30951891E-02 0.81507577E+02</pdfrwt>
<totfact> 0.16005388E+05</totfact>
</mgrwt>
</event>
<event>
 8    1  0.2433467E-020  0.7485344E+02  0.7818608E-02  0.1344325E+00
          2   -1    0    0  501    0  0.00000000000E+00  0.00000000000E+00  0.49372205228E+02  0.49372205294E+02  0.25500000000E-02 0. -1.
         -1   -1    0    0    0  501 -0.00000000000E+00 -0.00000000000E+00 -0.28371418285E+02  0.28371418733E+02  0.50400000000E-02 0.  1.
         24    2    1    2    0    0  0.00000000000E+00 -0.17763568394E-14  0.21000786943E+02  0.77743624027E+02  0.74853443639E+02 0.  0.
         66    2    3    3    0    0  0.46613999896E+01 -0.12610736667E+02  0.46755180760E+02  0.48690925459E+02  0.19999912353E+01 0.  0.
        -13    1    3    3    0    0 -0.46613999896E+01  0.12610736667E+02 -0.25754393817E+02  0.29052698568E+02  0.10566000000E+00 0.  1.
         13    1    4    4    0    0  0.68783103721E+00 -0.91558189232E+00  0.57668074545E+01  0.58803600222E+01  0.10566000000E+00 0. -1.
        -13    1    4    4    0    0  0.26385053760E+01 -0.73338549633E+01  0.25561025841E+02  0.26723105084E+02  0.10566000000E+00 0.  1.
         14    1    4    4    0    0  0.13350635763E+01 -0.43612998114E+01  0.15427347465E+02  0.16087460352E+02  0.00000000000E+00 0. -1.
<mgrwt>
<rscale>  0 0.74853444E+02</rscale>
<asrwt>0</asrwt>
<pdfrwt beam="1">  1        2 0.75957238E-02 0.74853444E+02</pdfrwt>
<pdfrwt beam="2">  1       -1 0.43648337E-02 0.74853444E+02</pdfrwt>
<totfact> 0.17864683E+05</totfact>
</mgrwt>
</event>
<event>
 8    1  0.2433467E-020  0.8107989E+02  0.7818608E-02  0.1326015E+00
          2   -1    0    0  501    0  0.00000000000E+00  0.00000000000E+00  0.18245217863E+03  0.18245217865E+03  0.25500000000E-02 0. -1.
         -1   -1    0    0    0  501 -0.00000000000E+00 -0.00000000000E+00 -0.90077675453E+01  0.90077689552E+01  0.50400000000E-02 0.  1.
         24    2    1    2    0    0  0.35527136788E-14  0.71054273576E-14  0.17344441108E+03  0.19145994760E+03  0.81079885296E+02 0.  0.
         66    2    3    3    0    0  0.20869951256E+02  0.33288356134E+02  0.63420793724E+02  0.74631538983E+02  0.20000037163E+01 0.  0.
        -13    1    3    3    0    0 -0.20869951256E+02 -0.33288356134E+02  0.11002361736E+03  0.11682840862E+03  0.10566000000E+00 0.  1.
         13    1    4    4    0    0  0.94864683802E+01  0.15864303756E+02  0.29774108901E+02  0.35045369750E+02  0.10566000000E+00 0.  1.
        -13    1    4    4    0    0  0.34844629016E+00  0.10295268567E+01  0.18662594903E+01  0.21622740082E+01  0.10566000000E+00 0. -1.
         14    1    4    4    0    0  0.11035036586E+02  0.16394525521E+02  0.31780425333E+02  0.37423895225E+02  0.00000000000E+00 0. -1.
<mgrwt>
<rscale>  0 0.81079885E+02</rscale>
<asrwt>0</asrwt>
<pdfrwt beam="1">  1        2 0.28069568E-01 0.81079885E+02</pdfrwt>
<pdfrwt beam="2">  1       -1 0.13858104E-02 0.81079885E+02</pdfrwt>
<totfact> 0.20627891E+05</totfact>
</mgrwt>
</event>
<event>
 8    1  0.2433467E-020  0.8154536E+02  0.7818608E-02  0.1324722E+00
         -1   -1    0    0    0  501 -0.00000000000E+00  0.00000000000E+00  0.58404038857E+01  0.58404060603E+01  0.50400000000E-02 0.  1.
          2   -1    0    0  501    0  0.00000000000E+00 -0.00000000000E+00 -0.28463974339E+03  0.28463974340E+03  0.25500000000E-02 0. -1.
         24    2    1    2    0    0  0.00000000000E+00  0.00000000000E+00 -0.27879933951E+03  0.29048014946E+03  0.81545358687E+02 0.  0.
         66    2    3    3    0    0  0.31439169824E+02  0.10208228749E+02 -0.22436343857E+03  0.22679413994E+03  0.20000034763E+01 0.  0.
        -13    1    3    3    0    0 -0.31439169824E+02 -0.10208228749E+02 -0.54435900940E+02  0.63686009521E+02  0.10566000000E+00 0.  1.
         13    1    4    4    0    0  0.78606920666E+01  0.25603446981E+01 -0.51676306192E+02  0.52333523008E+02  0.10566000000E+00 0. -1.
        -13    1    4    4    0    0  0.89968383582E+01  0.33008006665E+01 -0.64018540955E+02  0.64731932888E+02  0.10566000000E+00 0.  1.
        -14    1    4    4    0    0  0.14581639400E+02  0.43470833847E+01 -0.10866859142E+03  0.10972868405E+03  0.00000000000E+00 0.  1.
<mgrwt>
<rscale>  0 0.81545359E+02</rscale>
<asrwt>0</asrwt>
<pdfrwt beam="1">  1        2 0.43790719E-01 0.81545359E+02</pdfrwt>
<pdfrwt beam="2">  1       -1 0.89852407E-03 0.81545359E+02</pdfrwt>
<totfact> 0.23787875E+05</totfact>
</mgrwt>
</event>
<event>
 8    1  0.2433467E-020  0.7959175E+02  0.7818608E-02  0.1330214E+00
         -1   -1    0    0    0  501 -0.00000000000E+00  0.00000000000E+00  0.23464276394E+02  0.23464276935E+02  0.50400000000E-02 0.  1.
          2   -1    0    0  501    0  0.00000000000E+00 -0.00000000000E+00 -0.67494586831E+02  0.67494586879E+02  0.25500000000E-02 0. -1.
         24    2    1    2    0    0  0.88817841970E-15  0.00000000000E+00 -0.44030310437E+02  0.90958863814E+02  0.79591750007E+02 0.  0.
         66    2    3    3    0    0 -0.73859158602E+01 -0.21753788025E+02 -0.59129740659E+02  0.63467355969E+02  0.19999992139E+01 0.  0.
        -13    1    3    3    0    0  0.73859158602E+01  0.21753788025E+02  0.15099430222E+02  0.27491507845E+02  0.10566000000E+00 0.  1.
         13    1    4    4    0    0 -0.57801384139E+01 -0.16048667718E+02 -0.43182965895E+02  0.46430048924E+02  0.10566000000E+00 0. -1.
        -13    1    4    4    0    0 -0.80428707486E+00 -0.41861469026E+01 -0.10786213575E+02  0.11598459851E+02  0.10566000000E+00 0.  1.
        -14    1    4    4    0    0 -0.80149037151E+00 -0.15189734040E+01 -0.51605611892E+01  0.54388471945E+01  0.00000000000E+00 0.  1.
<mgrwt>
<rscale>  0 0.79591750E+02</rscale>
<asrwt>0</asrwt>
<pdfrwt beam="1">  1        2 0.10383782E-01 0.79591750E+02</pdfrwt>
<pdfrwt beam="2">  1       -1 0.36098888E-02 0.79591750E+02</pdfrwt>
<totfact> 0.16227755E+05</totfact>
</mgrwt>
</event>
<event>
 8    1  0.2433467E-020  0.8566365E+02  0.7818608E-02  0.1313706E+00
         -1   -1    0    0    0  501 -0.00000000000E+00  0.00000000000E+00  0.13131898739E+02  0.13131899706E+02  0.50400000000E-02 0.  1.
          2   -1    0    0  501    0  0.00000000000E+00 -0.00000000000E+00 -0.13970295245E+03  0.13970295248E+03  0.25500000000E-02 0. -1.
         24    2    1    2    0    0  0.00000000000E+00  0.00000000000E+00 -0.12657105372E+03  0.15283485218E+03  0.85663646917E+02 0.  0.
         66    2    3    3    0    0 -0.27910553197E+01  0.33596707157E+02 -0.11038949761E+03  0.11543989740E+03  0.20000016122E+01 0.  0.
        -13    1    3    3    0    0  0.27910553197E+01 -0.33596707157E+02 -0.16181556106E+02  0.37394954788E+02  0.10566000000E+00 0.  1.
         13    1    4    4    0    0 -0.13538618458E+01  0.21281253983E+02 -0.70401898035E+02  0.73560608507E+02  0.10566000000E+00 0. -1.
        -13    1    4    4    0    0 -0.15824270138E+01  0.10409396461E+02 -0.34191224157E+02  0.35775837982E+02  0.10566000000E+00 0.  1.
        -14    1    4    4    0    0  0.14523353984E+00  0.19060567123E+01 -0.57963754188E+01  0.61034509064E+01  0.00000000000E+00 0.  1.
<mgrwt>
<rscale>  0 0.85663647E+02</rscale>
<asrwt>0</asrwt>
<pdfrwt beam="1">  1        2 0.21492761E-01 0.85663647E+02</pdfrwt>
<pdfrwt beam="2">  1       -1 0.20202923E-02 0.85663647E+02</pdfrwt>
<totfact> 0.16315210E+05</totfact>
</mgrwt>
</event>
<event>
 8    1  0.2433467E-020  0.8103557E+02  0.7818608E-02  0.1326138E+00
         -1   -1    0    0    0  501 -0.00000000000E+00  0.00000000000E+00  0.23611026266E+01  0.23611080058E+01  0.50400000000E-02 0.  1.
          2   -1    0    0  501    0  0.00000000000E+00 -0.00000000000E+00 -0.69530602799E+03  0.69530602799E+03  0.25500000000E-02 0. -1.
         24    2    1    2    0    0 -0.35527136788E-14 -0.71054273576E-14 -0.69294492536E+03  0.69766713600E+03  0.81035566686E+02 0.  0.
         66    2    3    3    0    0 -0.12035645173E+02 -0.32076282416E+02 -0.53252245994E+03  0.53362713105E+03  0.20000002815E+01 0.  0.
        -13    1    3    3    0    0  0.12035645173E+02  0.32076282416E+02 -0.16042246541E+03  0.16404000494E+03  0.10566000000E+00 0.  1.
         13    1    4    4    0    0 -0.78741497248E+01 -0.21742656296E+02 -0.37043315256E+03  0.37115424963E+03  0.10566000000E+00 0. -1.
        -13    1    4    4    0    0 -0.24863513023E+01 -0.63354256384E+01 -0.10322155053E+03  0.10344573079E+03  0.10566000000E+00 0.  1.
        -14    1    4    4    0    0 -0.16751441457E+01 -0.39982004811E+01 -0.58867756851E+02  0.59027150631E+02  0.00000000000E+00 0.  1.
<mgrwt>
<rscale>  0 0.81035567E+02</rscale>
<asrwt>0</asrwt>
<pdfrwt beam="1">  1        2 0.10696999E+00 0.81035567E+02</pdfrwt>
<pdfrwt beam="2">  1       -1 0.36324753E-03 0.81035567E+02</pdfrwt>
<totfact> 0.32300994E+05</totfact>
</mgrwt>
</event>
<event>
 8    1  0.2433467E-020  0.7981655E+02  0.7818608E-02  0.1329573E+00
          2   -1    0    0  501    0  0.00000000000E+00  0.00000000000E+00  0.37519188783E+02  0.37519188870E+02  0.25500000000E-02 0. -1.
         -1   -1    0    0    0  501 -0.00000000000E+00 -0.00000000000E+00 -0.42449489353E+02  0.42449489652E+02  0.50400000000E-02 0.  1.
         24    2    1    2    0    0  0.00000000000E+00  0.00000000000E+00 -0.49303005695E+01  0.79968678522E+02  0.79816550169E+02 0.  0.
         66    2    3    3    0    0  0.38930126493E+02  0.86023031017E+01 -0.14105985842E+01  0.39944263054E+02  0.19999987850E+01 0.  0.
        -13    1    3    3    0    0 -0.38930126493E+02 -0.86023031017E+01 -0.35197019853E+01  0.40024415468E+02  0.10566000000E+00 0.  1.
         13    1    4    4    0    0  0.29390914472E+02  0.65923044078E+01 -0.13942889948E+01  0.30153599068E+02  0.10566000000E+00 0. -1.
        -13    1    4    4    0    0  0.83276864458E+01  0.19449648695E+01 -0.24532704150E+00  0.85559686346E+01  0.10566000000E+00 0.  1.
        -14    1    4    4    0    0  0.12115255753E+01  0.65033824405E-01  0.22901745213E+00  0.12346953516E+01  0.00000000000E+00 0.  1.
<mgrwt>
<rscale>  0 0.79816550E+02</rscale>
<asrwt>0</asrwt>
<pdfrwt beam="1">  1        2 0.57721829E-02 0.79816550E+02</pdfrwt>
<pdfrwt beam="2">  1       -1 0.65306907E-02 0.79816550E+02</pdfrwt>
<totfact> 0.14159829E+05</totfact>
</mgrwt>
</event>
<event>
 8    1  0.2433467E-020  0.7700603E+02  0.7818608E-02  0.1337769E+00
          2   -1    0    0  501    0  0.00000000000E+00  0.00000000000E+00  0.29458347327E+03  0.29458347328E+03  0.25500000000E-02 0. -1.
         -1   -1    0    0    0  501 -0.00000000000E+00 -0.00000000000E+00 -0.50324673638E+01  0.50324698876E+01  0.50400000000E-02 0.  1.
         24    2    1    2    0    0  0.35527136788E-14  0.00000000000E+00  0.28955100591E+03  0.29961594317E+03  0.77006028203E+02 0.  0.
         66    2    3    3    0    0 -0.28449641704E+02 -0.34624999098E+01  0.24476193767E+03  0.24644223899E+03  0.20000018238E+01 0.  0.
        -13    1    3    3    0    0  0.28449641704E+02  0.34624999098E+01  0.44789068237E+02  0.53173704181E+02  0.10566000000E+00 0.  1.
         13    1    4    4    0    0 -0.16584562522E+02 -0.13623335102E+01  0.14048506306E+03  0.14146719681E+03  0.10566000000E+00 0. -1.
        -13    1    4    4    0    0 -0.63170158290E+01 -0.15492469849E+01  0.54435529295E+02  0.54822831638E+02  0.10566000000E+00 0.  1.
         14    1    4    4    0    0 -0.55480633532E+01 -0.55091941470E+00  0.49841345314E+02  0.50152210539E+02  0.00000000000E+00 0. -1.
<mgrwt>
<rscale>  0 0.77006028E+02</rscale>
<asrwt>0</asrwt>
<pdfrwt beam="1">  1        2 0.45320534E-01 0.77006028E+02</pdfrwt>
<pdfrwt beam="2">  1       -1 0.77422595E-03 0.77006028E+02</pdfrwt>
<totfact> 0.27985930E+05</totfact>
</mgrwt>
</event>
<event>
 8    1  0.2433467E-020  0.7922079E+02  0.7818608E-02  0.1331277E+00
          2   -1    0    0  501    0  0.00000000000E+00  0.00000000000E+00  0.13881270101E+03  0.13881270104E+03  0.25500000000E-02 0. -1.
         -1   -1    0    0    0  501 -0.00000000000E+00 -0.00000000000E+00 -0.11302880364E+02  0.11302881488E+02  0.50400000000E-02 0.  1.
         24    2    1    2    0    0  0.00000000000E+00  0.00000000000E+00  0.12750982065E+03  0.15011558253E+03  0.79220791178E+02 0.  0.
         66    2    3    3    0    0 -0.81731966022E+01 -0.90609866120E+01  0.13515239054E+03  0.13571687913E+03  0.19999976986E+01 0.  0.
        -13    1    3    3    0    0  0.81731966022E+01  0.90609866120E+01 -0.76425698871E+01  0.14398703400E+02  0.10566000000E+00 0.  1.
         13    1    4    4    0    0 -0.45189261960E+01 -0.61132449084E+01  0.77766178622E+02  0.78136944903E+02  0.10566000000E+00 0. -1.
        -13    1    4    4    0    0 -0.11000722335E+01 -0.11546442213E+01  0.19702349314E+02  0.19767070970E+02  0.10566000000E+00 0. -1.
        -14    1    4    4    0    0 -0.25541981727E+01 -0.17930974822E+01  0.37683862601E+02  0.37812863253E+02  0.00000000000E+00 0.  1.
<mgrwt>
<rscale>  0 0.79220791E+02</rscale>
<asrwt>0</asrwt>
<pdfrwt beam="1">  1        2 0.21355802E-01 0.79220791E+02</pdfrwt>
<pdfrwt beam="2">  1       -1 0.17389046E-02 0.79220791E+02</pdfrwt>
<totfact> 0.20056368E+05</totfact>
</mgrwt>
</event>
<event>
 8    1  0.2433467E-020  0.7468899E+02  0.7818608E-02  0.1344837E+00
         -1   -1    0    0    0  501 -0.00000000000E+00  0.00000000000E+00  0.39466763203E+02  0.39466763525E+02  0.50400000000E-02 0.  1.
          2   -1    0    0  501    0  0.00000000000E+00 -0.00000000000E+00 -0.35336352210E+02  0.35336352302E+02  0.25500000000E-02 0. -1.
         24    2    1    2    0    0 -0.17763568394E-14 -0.44408920985E-15  0.41304109934E+01  0.74803115826E+02  0.74688994118E+02 0.  0.
         66    2    3    3    0    0  0.95433199672E+01  0.32660242867E+01 -0.33916821077E+02  0.35441397077E+02  0.20000010387E+01 0.  0.
        -13    1    3    3    0    0 -0.95433199672E+01 -0.32660242867E+01  0.38047232071E+02  0.39361718749E+02  0.10566000000E+00 0.  1.
         13    1    4    4    0    0  0.26553419642E+01  0.11112187314E+01 -0.12238963164E+02  0.12573346070E+02  0.10566000000E+00 0. -1.
        -13    1    4    4    0    0  0.69038250655E+01  0.20926366448E+01 -0.21424072652E+02  0.22606281908E+02  0.10566000000E+00 0.  1.
         14    1    4    4    0    0 -0.15847062550E-01  0.62168910524E-01 -0.25378526102E+00  0.26176909966E+00  0.00000000000E+00 0. -1.
<mgrwt>
<rscale>  0 0.74688994E+02</rscale>
<asrwt>0</asrwt>
<pdfrwt beam="1">  1        2 0.54363619E-02 0.74688994E+02</pdfrwt>
<pdfrwt beam="2">  1       -1 0.60718098E-02 0.74688994E+02</pdfrwt>
<totfact> 0.16807480E+05</totfact>
</mgrwt>
</event>
<event>
 8    1  0.2433467E-020  0.8010645E+02  0.7818608E-02  0.1328750E+00
          2   -1    0    0  501    0  0.00000000000E+00  0.00000000000E+00  0.42084190305E+03  0.42084190306E+03  0.25500000000E-02 0. -1.
         -1   -1    0    0    0  501 -0.00000000000E+00 -0.00000000000E+00 -0.38120258418E+01  0.38120291736E+01  0.50400000000E-02 0.  1.
         24    2    1    2    0    0  0.17763568394E-14  0.00000000000E+00  0.41702987721E+03  0.42465393223E+03  0.80106452145E+02 0.  0.
         66    2    3    3    0    0  0.93390923738E+01  0.75088598588E+01  0.41110670215E+03  0.41128618038E+03  0.19999989713E+01 0.  0.
        -13    1    3    3    0    0 -0.93390923738E+01 -0.75088598588E+01  0.59231750571E+01  0.13367751851E+02  0.10566000000E+00 0.  1.
         13    1    4    4    0    0  0.64304024509E+01  0.49100160109E+01  0.26694224422E+03  0.26706484465E+03  0.10566000000E+00 0. -1.
        -13    1    4    4    0    0  0.21032897286E+01  0.24400966636E+01  0.11163591197E+03  0.11168243329E+03  0.10566000000E+00 0.  1.
        -14    1    4    4    0    0  0.80540019436E+00  0.15874718426E+00  0.32528545960E+02  0.32538902446E+02  0.00000000000E+00 0.  1.
<mgrwt>
<rscale>  0 0.80106452E+02</rscale>
<asrwt>0</asrwt>
<pdfrwt beam="1">  1        2 0.64744920E-01 0.80106452E+02</pdfrwt>
<pdfrwt beam="2">  1       -1 0.58646567E-03 0.80106452E+02</pdfrwt>
<totfact> 0.28656249E+05</totfact>
</mgrwt>
</event>
<event>
 8    1  0.2433467E-020  0.8255801E+02  0.7818608E-02  0.1321945E+00
          2   -1    0    0  501    0  0.00000000000E+00  0.00000000000E+00  0.42439640605E+03  0.42439640606E+03  0.25500000000E-02 0. -1.
         -1   -1    0    0    0  501 -0.00000000000E+00 -0.00000000000E+00 -0.40150097737E+01  0.40150129371E+01  0.50400000000E-02 0.  1.
         24    2    1    2    0    0  0.00000000000E+00  0.00000000000E+00  0.42038139627E+03  0.42841141899E+03  0.82558013481E+02 0.  0.
         66    2    3    3    0    0 -0.24574260506E+02  0.45697534299E+01  0.38062554418E+03  0.38145062827E+03  0.19999991060E+01 0.  0.
        -13    1    3    3    0    0  0.24574260506E+02 -0.45697534299E+01  0.39755852090E+02  0.46960790722E+02  0.10566000000E+00 0.  1.
         13    1    4    4    0    0 -0.18314405451E+02  0.35150104670E+01  0.28196809956E+03  0.28258413451E+03  0.10566000000E+00 0. -1.
        -13    1    4    4    0    0 -0.62438024924E+00  0.17794021221E+00  0.66497170579E+01  0.66821713836E+01  0.10566000000E+00 0. -1.
         14    1    4    4    0    0 -0.56354748056E+01  0.87680275070E+00  0.92007727569E+02  0.92184322375E+02  0.00000000000E+00 0. -1.
<mgrwt>
<rscale>  0 0.82558013E+02</rscale>
<asrwt>0</asrwt>
<pdfrwt beam="1">  1        2 0.65291747E-01 0.82558013E+02</pdfrwt>
<pdfrwt beam="2">  1       -1 0.61769414E-03 0.82558013E+02</pdfrwt>
<totfact> 0.26560965E+05</totfact>
</mgrwt>
</event>
<event>
 8    1  0.2433467E-020  0.8177187E+02  0.7818608E-02  0.1324097E+00
          2   -1    0    0  501    0  0.00000000000E+00  0.00000000000E+00  0.25257778828E+03  0.25257778829E+03  0.25500000000E-02 0. -1.
         -1   -1    0    0    0  501 -0.00000000000E+00 -0.00000000000E+00 -0.66183941172E+01  0.66183960362E+01  0.50400000000E-02 0.  1.
         24    2    1    2    0    0  0.00000000000E+00  0.00000000000E+00  0.24595939416E+03  0.25919618433E+03  0.81771867985E+02 0.  0.
         66    2    3    3    0    0  0.94077374367E+01  0.33606477001E+02  0.19042446178E+03  0.19360624075E+03  0.19999981274E+01 0.  0.
        -13    1    3    3    0    0 -0.94077374367E+01 -0.33606477001E+02  0.55534932382E+02  0.65589943580E+02  0.10566000000E+00 0.  1.
         13    1    4    4    0    0  0.71944395697E+01  0.23259619816E+02  0.13496916398E+03  0.13714757112E+03  0.10566000000E+00 0. -1.
        -13    1    4    4    0    0  0.74144574594E-01  0.65488054165E+00  0.31336478485E+01  0.32039473803E+01  0.10566000000E+00 0.  1.
         14    1    4    4    0    0  0.21391532924E+01  0.96919766432E+01  0.52321649956E+02  0.53254722253E+02  0.00000000000E+00 0. -1.
<mgrwt>
<rscale>  0 0.81771868E+02</rscale>
<asrwt>0</asrwt>
<pdfrwt beam="1">  1        2 0.38858118E-01 0.81771868E+02</pdfrwt>
<pdfrwt beam="2">  1       -1 0.10182147E-02 0.81771868E+02</pdfrwt>
<totfact> 0.22614319E+05</totfact>
</mgrwt>
</event>
<event>
 8    1  0.2433467E-020  0.7977602E+02  0.7818608E-02  0.1329688E+00
          2   -1    0    0  501    0  0.00000000000E+00  0.00000000000E+00  0.40033522731E+02  0.40033522813E+02  0.25500000000E-02 0. -1.
         -1   -1    0    0    0  501 -0.00000000000E+00 -0.00000000000E+00 -0.39743027905E+02  0.39743028225E+02  0.50400000000E-02 0.  1.
         24    2    1    2    0    0  0.00000000000E+00  0.00000000000E+00  0.29049482586E+00  0.79776551038E+02  0.79776022138E+02 0.  0.
         66    2    3    3    0    0  0.77833548310E+01 -0.37729011262E+02  0.10391848117E+02  0.39950587074E+02  0.19999992547E+01 0.  0.
        -13    1    3    3    0    0 -0.77833548310E+01  0.37729011262E+02 -0.10101353291E+02  0.39825963963E+02  0.10566000000E+00 0.  1.
         13    1    4    4    0    0  0.22995017122E+01 -0.14276197130E+02  0.36680141105E+01  0.14918545645E+02  0.10566000000E+00 0. -1.
        -13    1    4    4    0    0  0.11807504181E+01 -0.35347279248E+01  0.83471714030E+00  0.38205221883E+01  0.10566000000E+00 0.  1.
        -14    1    4    4    0    0  0.43031027008E+01 -0.19918086208E+02  0.58891168660E+01  0.21211519241E+02  0.00000000000E+00 0.  1.
<mgrwt>
<rscale>  0 0.79776022E+02</rscale>
<asrwt>0</asrwt>
<pdfrwt beam="1">  1        2 0.61590035E-02 0.79776022E+02</pdfrwt>
<pdfrwt beam="2">  1       -1 0.61143120E-02 0.79776022E+02</pdfrwt>
<totfact> 0.14368614E+05</totfact>
</mgrwt>
</event>
<event>
 8    1  0.2433467E-020  0.7904816E+02  0.7818608E-02  0.1331775E+00
          2   -1    0    0  501    0  0.00000000000E+00  0.00000000000E+00  0.60295782229E+02  0.60295782283E+02  0.25500000000E-02 0. -1.
         -1   -1    0    0    0  501 -0.00000000000E+00 -0.00000000000E+00 -0.25908163191E+02  0.25908163682E+02  0.50400000000E-02 0.  1.
         24    2    1    2    0    0  0.00000000000E+00  0.00000000000E+00  0.34387619037E+02  0.86203945964E+02  0.79048162260E+02 0.  0.
         66    2    3    3    0    0  0.34609097925E+02 -0.62862036661E+01  0.36799114655E+02  0.50945861915E+02  0.19999978027E+01 0.  0.
        -13    1    3    3    0    0 -0.34609097925E+02  0.62862036661E+01 -0.24114956174E+01  0.35258084049E+02  0.10566000000E+00 0.  1.
         13    1    4    4    0    0  0.27515992232E+02 -0.46322108082E+01  0.29976843121E+02  0.40953748217E+02  0.10566000000E+00 0. -1.
        -13    1    4    4    0    0  0.21627957431E+01 -0.30880510671E+00  0.21726330330E+01  0.30829441045E+01  0.10566000000E+00 0.  1.
         14    1    4    4    0    0  0.49303099494E+01 -0.13451877511E+01  0.46496385003E+01  0.69091695931E+01  0.00000000000E+00 0. -1.
<mgrwt>
<rscale>  0 0.79048162E+02</rscale>
<asrwt>0</asrwt>
<pdfrwt beam="1">  1        2 0.92762741E-02 0.79048162E+02</pdfrwt>
<pdfrwt beam="2">  1       -1 0.39858713E-02 0.79048162E+02</pdfrwt>
<totfact> 0.16099223E+05</totfact>
</mgrwt>
</event>
<event>
 8    1  0.2433467E-020  0.7906761E+02  0.7818608E-02  0.1331718E+00
         -1   -1    0    0    0  501 -0.00000000000E+00  0.00000000000E+00  0.46423967118E+01  0.46423994477E+01  0.50400000000E-02 0.  1.
          2   -1    0    0  501    0  0.00000000000E+00 -0.00000000000E+00 -0.33666259075E+03  0.33666259076E+03  0.25500000000E-02 0. -1.
         24    2    1    2    0    0 -0.35527136788E-14  0.00000000000E+00 -0.33202019404E+03  0.34130499021E+03  0.79067610886E+02 0.  0.
         66    2    3    3    0    0  0.25285771415E+02  0.20645258644E+02 -0.26218582294E+03  0.26421771829E+03  0.19999921185E+01 0.  0.
        -13    1    3    3    0    0 -0.25285771415E+02 -0.20645258644E+02 -0.69834371098E+02  0.77087271914E+02  0.10566000000E+00 0.  1.
         13    1    4    4    0    0  0.19777556525E+01  0.20710400605E+01 -0.24791263598E+02  0.24956334650E+02  0.10566000000E+00 0. -1.
        -13    1    4    4    0    0  0.16203558859E+02  0.13262083017E+02 -0.17069472493E+03  0.17197423775E+03  0.10566000000E+00 0.  1.
        -14    1    4    4    0    0  0.71044569041E+01  0.53121355660E+01 -0.66699834412E+02  0.67287145895E+02  0.00000000000E+00 0.  1.
<mgrwt>
<rscale>  0 0.79067611E+02</rscale>
<asrwt>0</asrwt>
<pdfrwt beam="1">  1        2 0.51794226E-01 0.79067611E+02</pdfrwt>
<pdfrwt beam="2">  1       -1 0.71421535E-03 0.79067611E+02</pdfrwt>
<totfact> 0.27405112E+05</totfact>
</mgrwt>
</event>
<event>
 8    1  0.2433467E-020  0.8025367E+02  0.7818608E-02  0.1328333E+00
         -1   -1    0    0    0  501 -0.00000000000E+00  0.00000000000E+00  0.21044111029E+01  0.21044171383E+01  0.50400000000E-02 0.  1.
          2   -1    0    0  501    0  0.00000000000E+00 -0.00000000000E+00 -0.76513602197E+03  0.76513602197E+03  0.25500000000E-02 0. -1.
         24    2    1    2    0    0  0.00000000000E+00  0.00000000000E+00 -0.76303161087E+03  0.76724043911E+03  0.80253674229E+02 0.  0.
         66    2    3    3    0    0 -0.16185425989E+02 -0.64083860436E+01 -0.72712814312E+03  0.72733924131E+03  0.19999998383E+01 0.  0.
        -13    1    3    3    0    0  0.16185425989E+02  0.64083860436E+01 -0.35903467745E+02  0.39901197805E+02  0.10566000000E+00 0.  1.
         13    1    4    4    0    0 -0.11025904332E+02 -0.39426355525E+01 -0.48010623220E+03  0.48024901906E+03  0.10566000000E+00 0. -1.
        -13    1    4    4    0    0 -0.35857357259E+01 -0.18776515156E+01 -0.15443350698E+03  0.15448657649E+03  0.10566000000E+00 0.  1.
         14    1    4    4    0    0 -0.15737859312E+01 -0.58809897553E+00 -0.92588403943E+02  0.92603645755E+02  0.00000000000E+00 0. -1.
<mgrwt>
<rscale>  0 0.80253674E+02</rscale>
<asrwt>0</asrwt>
<pdfrwt beam="1">  1        2 0.11771301E+00 0.80253674E+02</pdfrwt>
<pdfrwt beam="2">  1       -1 0.32375663E-03 0.80253674E+02</pdfrwt>
<totfact> 0.33807566E+05</totfact>
</mgrwt>
</event>
<event>
 8    1  0.2433467E-020  0.7902882E+02  0.7818608E-02  0.1331830E+00
          2   -1    0    0  501    0  0.00000000000E+00  0.00000000000E+00  0.28251972790E+03  0.28251972791E+03  0.25500000000E-02 0. -1.
         -1   -1    0    0    0  501 -0.00000000000E+00 -0.00000000000E+00 -0.55266516522E+01  0.55266539503E+01  0.50400000000E-02 0.  1.
         24    2    1    2    0    0  0.00000000000E+00  0.00000000000E+00  0.27699307625E+03  0.28804638186E+03  0.79028816356E+02 0.  0.
         66    2    3    3    0    0  0.30491201659E+02 -0.22171111353E+02  0.18141938067E+03  0.18530586401E+03  0.19999995367E+01 0.  0.
        -13    1    3    3    0    0 -0.30491201659E+02  0.22171111353E+02  0.95573695582E+02  0.10274051785E+03  0.10566000000E+00 0.  1.
         13    1    4    4    0    0  0.13768513717E+02 -0.10470460830E+02  0.79678749073E+02  0.81534757851E+02  0.10566000000E+00 0. -1.
        -13    1    4    4    0    0  0.55911781348E+01 -0.34507737039E+01  0.32238064094E+02  0.32900958233E+02  0.10566000000E+00 0.  1.
        -14    1    4    4    0    0  0.11131509807E+02 -0.82498768189E+01  0.69502567501E+02  0.70870147928E+02  0.00000000000E+00 0.  1.
<mgrwt>
<rscale>  0 0.79028816E+02</rscale>
<asrwt>0</asrwt>
<pdfrwt beam="1">  1        2 0.43464580E-01 0.79028816E+02</pdfrwt>
<pdfrwt beam="2">  1       -1 0.85025415E-03 0.79028816E+02</pdfrwt>
<totfact> 0.25757980E+05</totfact>
</mgrwt>
</event>
<event>
 8    1  0.2433467E-020  0.7881466E+02  0.7818608E-02  0.1332449E+00
         -1   -1    0    0    0  501 -0.00000000000E+00  0.00000000000E+00  0.68292462326E+01  0.68292480924E+01  0.50400000000E-02 0.  1.
          2   -1    0    0  501    0  0.00000000000E+00 -0.00000000000E+00 -0.22739516471E+03  0.22739516472E+03  0.25500000000E-02 0. -1.
         24    2    1    2    0    0 -0.35527136788E-14  0.35527136788E-14 -0.22056591848E+03  0.23422441281E+03  0.78814663391E+02 0.  0.
         66    2    3    3    0    0 -0.28371705598E+02  0.21268236085E+02 -0.16127908976E+03  0.16514307838E+03  0.19999991805E+01 0.  0.
        -13    1    3    3    0    0  0.28371705598E+02 -0.21268236085E+02 -0.59286828715E+02  0.69081334439E+02  0.10566000000E+00 0.  1.
         13    1    4    4    0    0 -0.18916611146E+02  0.14282065440E+02 -0.10999613277E+03  0.11252100230E+03  0.10566000000E+00 0. -1.
        -13    1    4    4    0    0 -0.86653343631E+01  0.63931080298E+01 -0.45635652895E+02  0.46889058736E+02  0.10566000000E+00 0.  1.
        -14    1    4    4    0    0 -0.78976008972E+00  0.59306261572E+00 -0.56473040935E+01  0.57330173374E+01  0.00000000000E+00 0.  1.
<mgrwt>
<rscale>  0 0.78814663E+02</rscale>
<asrwt>0</asrwt>
<pdfrwt beam="1">  1        2 0.34983866E-01 0.78814663E+02</pdfrwt>
<pdfrwt beam="2">  1       -1 0.10506536E-02 0.78814663E+02</pdfrwt>
<totfact> 0.23999785E+05</totfact>
</mgrwt>
</event>
<event>
 8    1  0.2433467E-020  0.7951313E+02  0.7818608E-02  0.1330439E+00
         -1   -1    0    0    0  501 -0.00000000000E+00  0.00000000000E+00  0.16332404727E+02  0.16332405504E+02  0.50400000000E-02 0.  1.
          2   -1    0    0  501    0  0.00000000000E+00 -0.00000000000E+00 -0.96775978627E+02  0.96775978660E+02  0.25500000000E-02 0. -1.
         24    2    1    2    0    0  0.00000000000E+00  0.35527136788E-14 -0.80443573900E+02  0.11310838416E+03  0.79513130906E+02 0.  0.
         66    2    3    3    0    0 -0.25146350361E+02  0.22321663910E+02 -0.70355527099E+02  0.78003178447E+02  0.20000095744E+01 0.  0.
        -13    1    3    3    0    0  0.25146350361E+02 -0.22321663910E+02 -0.10088046801E+02  0.35105205718E+02  0.10566000000E+00 0.  1.
         13    1    4    4    0    0 -0.34288759951E+00  0.16007525969E+00 -0.65458393465E+00  0.76343968836E+00  0.10566000000E+00 0. -1.
        -13    1    4    4    0    0 -0.82375583100E+01  0.67121349824E+01 -0.21669076214E+02  0.24134418389E+02  0.10566000000E+00 0.  1.
         14    1    4    4    0    0 -0.16565904452E+02  0.15449453668E+02 -0.48031866950E+02  0.53105320370E+02  0.00000000000E+00 0. -1.
<mgrwt>
<rscale>  0 0.79513131E+02</rscale>
<asrwt>0</asrwt>
<pdfrwt beam="1">  1        2 0.14888612E-01 0.79513131E+02</pdfrwt>
<pdfrwt beam="2">  1       -1 0.25126778E-02 0.79513131E+02</pdfrwt>
<totfact> 0.17854735E+05</totfact>
</mgrwt>
</event>
<event>
 8    1  0.2433467E-020  0.7965265E+02  0.7818608E-02  0.1330040E+00
         -1   -1    0    0    0  501 -0.00000000000E+00  0.00000000000E+00  0.33127984372E+01  0.33128022710E+01  0.50400000000E-02 0.  1.
          2   -1    0    0  501    0  0.00000000000E+00 -0.00000000000E+00 -0.47879009251E+03  0.47879009252E+03  0.25500000000E-02 0. -1.
         24    2    1    2    0    0  0.17763568394E-14  0.17763568394E-14 -0.47547729408E+03  0.48210289479E+03  0.79652645807E+02 0.  0.
         66    2    3    3    0    0  0.11634620129E+02  0.10790602481E+02 -0.45881336849E+03  0.45909204806E+03  0.19999989647E+01 0.  0.
        -13    1    3    3    0    0 -0.11634620129E+02 -0.10790602481E+02 -0.16663925583E+02  0.23010846732E+02  0.10566000000E+00 0.  1.
         13    1    4    4    0    0  0.94926681290E+00  0.87940722018E+00 -0.36627985442E+02  0.36650988338E+02  0.10566000000E+00 0. -1.
        -13    1    4    4    0    0  0.51052401016E+01  0.48389680740E+01 -0.17702312160E+03  0.17716285117E+03  0.10566000000E+00 0.  1.
        -14    1    4    4    0    0  0.55801132143E+01  0.50722271867E+01 -0.24516226145E+03  0.24527820855E+03  0.00000000000E+00 0.  1.
<mgrwt>
<rscale>  0 0.79652646E+02</rscale>
<asrwt>0</asrwt>
<pdfrwt beam="1">  1        2 0.73659960E-01 0.79652646E+02</pdfrwt>
<pdfrwt beam="2">  1       -1 0.50966197E-03 0.79652646E+02</pdfrwt>
<totfact> 0.30371204E+05</totfact>
</mgrwt>
</event>
<event>
 8    1  0.2433467E-020  0.7964964E+02  0.7818608E-02  0.1330049E+00
          2   -1    0    0  501    0  0.00000000000E+00  0.00000000000E+00  0.31278700918E+03  0.31278700919E+03  0.25500000000E-02 0. -1.
         -1   -1    0    0    0  501 -0.00000000000E+00 -0.00000000000E+00 -0.50705934139E+01  0.50705959187E+01  0.50400000000E-02 0.  1.
         24    2    1    2    0    0  0.00000000000E+00  0.00000000000E+00  0.30771641576E+03  0.31785760511E+03  0.79649636495E+02 0.  0.
         66    2    3    3    0    0 -0.11134618804E+02  0.17756924402E+02  0.28897523463E+03  0.28974121959E+03  0.20000002119E+01 0.  0.
        -13    1    3    3    0    0  0.11134618804E+02 -0.17756924402E+02  0.18741181135E+02  0.28116385516E+02  0.10566000000E+00 0.  1.
         13    1    4    4    0    0 -0.29265141878E+01  0.54892355622E+01  0.87057234212E+02  0.87279260910E+02  0.10566000000E+00 0. -1.
        -13    1    4    4    0    0 -0.54433874975E+01  0.88828245109E+01  0.13504210121E+03  0.13544340258E+03  0.10566000000E+00 0.  1.
         14    1    4    4    0    0 -0.27647171187E+01  0.33848643290E+01  0.66875899209E+02  0.67018556104E+02  0.00000000000E+00 0. -1.
<mgrwt>
<rscale>  0 0.79649636E+02</rscale>
<asrwt>0</asrwt>
<pdfrwt beam="1">  1        2 0.48121090E-01 0.79649636E+02</pdfrwt>
<pdfrwt beam="2">  1       -1 0.78009130E-03 0.79649636E+02</pdfrwt>
<totfact> 0.26181655E+05</totfact>
</mgrwt>
</event>
<event>
 8    1  0.2433467E-020  0.8002226E+02  0.7818608E-02  0.1328988E+00
         -1   -1    0    0    0  501 -0.00000000000E+00  0.00000000000E+00  0.35481881450E+01  0.35481917245E+01  0.50400000000E-02 0.  1.
          2   -1    0    0  501    0  0.00000000000E+00 -0.00000000000E+00 -0.45118514080E+03  0.45118514081E+03  0.25500000000E-02 0. -1.
         24    2    1    2    0    0  0.35527136788E-14  0.22204460493E-15 -0.44763695266E+03  0.45473333254E+03  0.80022261485E+02 0.  0.
         66    2    3    3    0    0  0.23938193940E+02  0.14642902004E+01 -0.40577437384E+03  0.40648742137E+03  0.19999977431E+01 0.  0.
        -13    1    3    3    0    0 -0.23938193940E+02 -0.14642902004E+01 -0.41862578819E+02  0.48245911166E+02  0.10566000000E+00 0.  1.
         13    1    4    4    0    0  0.18442433475E+02  0.84218049426E+00 -0.30938798450E+03  0.30993833054E+03  0.10566000000E+00 0. -1.
        -13    1    4    4    0    0  0.82951181329E+00 -0.61237107218E-01 -0.10562144939E+02  0.10595372084E+02  0.10566000000E+00 0. -1.
        -14    1    4    4    0    0  0.46662486518E+01  0.68334681331E+00 -0.85824244399E+02  0.85953718744E+02  0.00000000000E+00 0.  1.
<mgrwt>
<rscale>  0 0.80022261E+02</rscale>
<asrwt>0</asrwt>
<pdfrwt beam="1">  1        2 0.69413053E-01 0.80022261E+02</pdfrwt>
<pdfrwt beam="2">  1       -1 0.54587573E-03 0.80022261E+02</pdfrwt>
<totfact> 0.29423094E+05</totfact>
</mgrwt>
</event>
<event>
 8    1  0.2433467E-020  0.8125356E+02  0.7818608E-02  0.1325531E+00
          2   -1    0    0  501    0  0.00000000000E+00  0.00000000000E+00  0.14225503275E+03  0.14225503277E+03  0.25500000000E-02 0. -1.
         -1   -1    0    0    0  501 -0.00000000000E+00 -0.00000000000E+00 -0.11602649075E+02  0.11602650170E+02  0.50400000000E-02 0.  1.
         24    2    1    2    0    0  0.35527136788E-14  0.00000000000E+00  0.13065238368E+03  0.15385768294E+03  0.81253561403E+02 0.  0.
         66    2    3    3    0    0  0.25161872447E+02 -0.72176682048E+01  0.12413639427E+03  0.12688206726E+03  0.20000129677E+01 0.  0.
        -13    1    3    3    0    0 -0.25161872447E+02  0.72176682048E+01  0.65159894091E+01  0.26975615681E+02  0.10566000000E+00 0.  1.
         13    1    4    4    0    0  0.14877911481E+02 -0.39060142806E+01  0.74066908671E+02  0.75647388070E+02  0.10566000000E+00 0. -1.
        -13    1    4    4    0    0  0.12998881933E+01 -0.62901003096E+00  0.53219015286E+01  0.55153570012E+01  0.10566000000E+00 0.  1.
        -14    1    4    4    0    0  0.89840727732E+01 -0.26826438932E+01  0.44747584067E+02  0.45719322192E+02  0.00000000000E+00 0.  1.
<mgrwt>
<rscale>  0 0.81253561E+02</rscale>
<asrwt>0</asrwt>
<pdfrwt beam="1">  1        2 0.21885388E-01 0.81253561E+02</pdfrwt>
<pdfrwt beam="2">  1       -1 0.17850231E-02 0.81253561E+02</pdfrwt>
<totfact> 0.18895950E+05</totfact>
</mgrwt>
</event>
<event>
 8    1  0.2433467E-020  0.8025270E+02  0.7818608E-02  0.1328336E+00
          2   -1    0    0  501    0  0.00000000000E+00  0.00000000000E+00  0.28059224360E+02  0.28059224476E+02  0.25500000000E-02 0. -1.
         -1   -1    0    0    0  501 -0.00000000000E+00 -0.00000000000E+00 -0.57383048351E+02  0.57383048572E+02  0.50400000000E-02 0.  1.
         24    2    1    2    0    0  0.00000000000E+00  0.00000000000E+00 -0.29323823991E+02  0.85442273048E+02  0.80252696965E+02 0.  0.
         66    2    3    3    0    0 -0.23011104494E+02 -0.15845056039E+02  0.15956272482E+02  0.32236305042E+02  0.20000000954E+01 0.  0.
        -13    1    3    3    0    0  0.23011104494E+02  0.15845056039E+02 -0.45280096473E+02  0.53205968006E+02  0.10566000000E+00 0.  1.
         13    1    4    4    0    0 -0.12706614398E+02 -0.83464113242E+01  0.87212222140E+01  0.17526879711E+02  0.10566000000E+00 0. -1.
        -13    1    4    4    0    0 -0.12163410220E+01 -0.14152684443E+01  0.97248022195E+00  0.21069769977E+01  0.10566000000E+00 0.  1.
        -14    1    4    4    0    0 -0.90881490734E+01 -0.60833762700E+01  0.62625700457E+01  0.12602448334E+02  0.00000000000E+00 0.  1.
<mgrwt>
<rscale>  0 0.80252697E+02</rscale>
<asrwt>0</asrwt>
<pdfrwt beam="1">  1        2 0.43168038E-02 0.80252697E+02</pdfrwt>
<pdfrwt beam="2">  1       -1 0.88281613E-02 0.80252697E+02</pdfrwt>
<totfact> 0.13161748E+05</totfact>
</mgrwt>
</event>
<event>
 8    1  0.2433467E-020  0.7738898E+02  0.7818608E-02  0.1336629E+00
          2   -1    0    0  501    0  0.00000000000E+00  0.00000000000E+00  0.68902421370E+03  0.68902421371E+03  0.25500000000E-02 0. -1.
         -1   -1    0    0    0  501 -0.00000000000E+00 -0.00000000000E+00 -0.21730170717E+01  0.21730229165E+01  0.50400000000E-02 0.  1.
         24    2    1    2    0    0 -0.44408920985E-15  0.17763568394E-14  0.68685119663E+03  0.69119723662E+03  0.77388975979E+02 0.  0.
         66    2    3    3    0    0 -0.22127681954E+01  0.15164000362E+02  0.66074225969E+03  0.66092297359E+03  0.20000068937E+01 0.  0.
        -13    1    3    3    0    0  0.22127681954E+01 -0.15164000362E+02  0.26108936940E+02  0.30274263034E+02  0.10566000000E+00 0.  1.
         13    1    4    4    0    0 -0.20903808132E+00  0.17505050813E+01  0.10112344416E+03  0.10113886536E+03  0.10566000000E+00 0. -1.
        -13    1    4    4    0    0 -0.50045599055E+00  0.67958377446E+01  0.27663908227E+03  0.27672301471E+03  0.10566000000E+00 0.  1.
         14    1    4    4    0    0 -0.15032741236E+01  0.66176575362E+01  0.28297973326E+03  0.28306109352E+03  0.00000000000E+00 0. -1.
<mgrwt>
<rscale>  0 0.77388976E+02</rscale>
<asrwt>0</asrwt>
<pdfrwt beam="1">  1        2 0.10600364E+00 0.77388976E+02</pdfrwt>
<pdfrwt beam="2">  1       -1 0.33431102E-03 0.77388976E+02</pdfrwt>
<totfact> 0.36327053E+05</totfact>
</mgrwt>
</event>
<event>
 8    1  0.2433467E-020  0.7996599E+02  0.7818608E-02  0.1329148E+00
          2   -1    0    0  501    0  0.00000000000E+00  0.00000000000E+00  0.71556145435E+03  0.71556145435E+03  0.25500000000E-02 0. -1.
         -1   -1    0    0    0  501 -0.00000000000E+00 -0.00000000000E+00 -0.22341029724E+01  0.22341086573E+01  0.50400000000E-02 0.  1.
         24    2    1    2    0    0  0.00000000000E+00  0.00000000000E+00  0.71332735137E+03  0.71779556301E+03  0.79965993122E+02 0.  0.
         66    2    3    3    0    0  0.16249574346E+02 -0.12537341125E+02  0.66462941624E+03  0.66494924204E+03  0.19999942808E+01 0.  0.
        -13    1    3    3    0    0 -0.16249574346E+02  0.12537341125E+02  0.48697935137E+02  0.52846320965E+02  0.10566000000E+00 0.  1.
         13    1    4    4    0    0  0.54553090005E+01 -0.42043812975E+01  0.19940237452E+03  0.19952131552E+03  0.10566000000E+00 0. -1.
        -13    1    4    4    0    0  0.58302945691E+01 -0.47859036763E+01  0.27199645384E+03  0.27210104607E+03  0.10566000000E+00 0.  1.
        -14    1    4    4    0    0  0.49639707766E+01 -0.35470561509E+01  0.19323058788E+03  0.19332688045E+03  0.00000000000E+00 0.  1.
<mgrwt>
<rscale>  0 0.79965993E+02</rscale>
<asrwt>0</asrwt>
<pdfrwt beam="1">  1        2 0.11008636E+00 0.79965993E+02</pdfrwt>
<pdfrwt beam="2">  1       -1 0.34370864E-03 0.79965993E+02</pdfrwt>
<totfact> 0.33654557E+05</totfact>
</mgrwt>
</event>
<event>
 8    1  0.2433467E-020  0.8105613E+02  0.7818608E-02  0.1326081E+00
          2   -1    0    0  501    0  0.00000000000E+00  0.00000000000E+00  0.42509838309E+03  0.42509838310E+03  0.25500000000E-02 0. -1.
         -1   -1    0    0    0  501 -0.00000000000E+00 -0.00000000000E+00 -0.38638665948E+01  0.38638698819E+01  0.50400000000E-02 0.  1.
         24    2    1    2    0    0  0.00000000000E+00 -0.17763568394E-14  0.42123451650E+03  0.42896225298E+03  0.81056132368E+02 0.  0.
         66    2    3    3    0    0  0.20630282967E+02 -0.15934126112E+02  0.37480339062E+03  0.37571410218E+03  0.20000002571E+01 0.  0.
        -13    1    3    3    0    0 -0.20630282967E+02  0.15934126112E+02  0.46431125874E+02  0.53248150806E+02  0.10566000000E+00 0.  1.
         13    1    4    4    0    0  0.67841134653E+01 -0.56533811485E+01  0.12376501902E+03  0.12407971636E+03  0.10566000000E+00 0. -1.
        -13    1    4    4    0    0  0.72020378259E+01 -0.50887568401E+01  0.13858109920E+03  0.13886143098E+03  0.10566000000E+00 0.  1.
        -14    1    4    4    0    0  0.66441316758E+01 -0.51919881234E+01  0.11245727240E+03  0.11277295484E+03  0.00000000000E+00 0.  1.
<mgrwt>
<rscale>  0 0.81056132E+02</rscale>
<asrwt>0</asrwt>
<pdfrwt beam="1">  1        2 0.65399695E-01 0.81056132E+02</pdfrwt>
<pdfrwt beam="2">  1       -1 0.59444178E-03 0.81056132E+02</pdfrwt>
<totfact> 0.27883690E+05</totfact>
</mgrwt>
</event>
<event>
 8    1  0.2433467E-020  0.8111519E+02  0.7818608E-02  0.1325916E+00
         -1   -1    0    0    0  501 -0.00000000000E+00  0.00000000000E+00  0.60373934502E+01  0.60373955539E+01  0.50400000000E-02 0.  1.
          2   -1    0    0  501    0  0.00000000000E+00 -0.00000000000E+00 -0.27245500393E+03  0.27245500394E+03  0.25500000000E-02 0. -1.
         24    2    1    2    0    0  0.00000000000E+00  0.71054273576E-14 -0.26641761048E+03  0.27849239949E+03  0.81115186020E+02 0.  0.
         66    2    3    3    0    0 -0.73473233897E+00  0.34250485600E+02 -0.20766442329E+03  0.21048075516E+03  0.19999998397E+01 0.  0.
        -13    1    3    3    0    0  0.73473233897E+00 -0.34250485600E+02 -0.58753187191E+02  0.68011644331E+02  0.10566000000E+00 0.  1.
         13    1    4    4    0    0  0.16631276909E+00  0.19850394571E+02 -0.12227005278E+03  0.12387107328E+03  0.10566000000E+00 0. -1.
        -13    1    4    4    0    0 -0.20991506271E+00  0.52185140879E+01 -0.33488223062E+02  0.33893202880E+02  0.10566000000E+00 0.  1.
        -14    1    4    4    0    0 -0.69113004536E+00  0.91815769411E+01 -0.51906147447E+02  0.52716479004E+02  0.00000000000E+00 0.  1.
<mgrwt>
<rscale>  0 0.81115186E+02</rscale>
<asrwt>0</asrwt>
<pdfrwt beam="1">  1        2 0.41916145E-01 0.81115186E+02</pdfrwt>
<pdfrwt beam="2">  1       -1 0.92883014E-03 0.81115186E+02</pdfrwt>
<totfact> 0.23741045E+05</totfact>
</mgrwt>
</event>
<event>
 8    1  0.2433467E-020  0.8073923E+02  0.7818608E-02  0.1326967E+00
          2   -1    0    0  501    0  0.00000000000E+00  0.00000000000E+00  0.41537674298E+03  0.41537674299E+03  0.25500000000E-02 0. -1.
         -1   -1    0    0    0  501 -0.00000000000E+00 -0.00000000000E+00 -0.39234386797E+01  0.39234419168E+01  0.50400000000E-02 0.  1.
         24    2    1    2    0    0  0.00000000000E+00  0.00000000000E+00  0.41145330430E+03  0.41930018490E+03  0.80739231117E+02 0.  0.
         66    2    3    3    0    0  0.34193942279E+02  0.15528211705E+02  0.28241574115E+03  0.28490876064E+03  0.19999985945E+01 0.  0.
        -13    1    3    3    0    0 -0.34193942279E+02 -0.15528211705E+02  0.12903756315E+03  0.13439142426E+03  0.10566000000E+00 0.  1.
         13    1    4    4    0    0  0.12061769188E+02  0.46388342637E+01  0.96917274980E+02  0.97775121646E+02  0.10566000000E+00 0. -1.
        -13    1    4    4    0    0  0.68544511705E+01  0.29151723575E+01  0.56908347559E+02  0.57393840407E+02  0.10566000000E+00 0.  1.
        -14    1    4    4    0    0  0.15277721920E+02  0.79742050842E+01  0.12859011861E+03  0.12973979859E+03  0.00000000000E+00 0.  1.
<mgrwt>
<rscale>  0 0.80739231E+02</rscale>
<asrwt>0</asrwt>
<pdfrwt beam="1">  1        2 0.63904126E-01 0.80739231E+02</pdfrwt>
<pdfrwt beam="2">  1       -1 0.60360609E-03 0.80739231E+02</pdfrwt>
<totfact> 0.27946922E+05</totfact>
</mgrwt>
</event>
<event>
 8    1  0.2433467E-020  0.7738532E+02  0.7818608E-02  0.1336640E+00
          2   -1    0    0  501    0  0.00000000000E+00  0.00000000000E+00  0.11948765226E+04  0.11948765226E+04  0.25500000000E-02 0. -1.
         -1   -1    0    0    0  501 -0.00000000000E+00 -0.00000000000E+00 -0.12529460973E+01  0.12529562340E+01  0.50400000000E-02 0.  1.
         24    2    1    2    0    0  0.00000000000E+00  0.17763568394E-14  0.11936235765E+04  0.11961294788E+04  0.77385320048E+02 0.  0.
         66    2    3    3    0    0 -0.16760763020E+02  0.12251259947E+02  0.11014187050E+04  0.11016161674E+04  0.19999966471E+01 0.  0.
        -13    1    3    3    0    0  0.16760763020E+02 -0.12251259947E+02  0.92204871457E+02  0.94513311400E+02  0.10566000000E+00 0.  1.
         13    1    4    4    0    0 -0.10400505111E+02  0.85244571820E+01  0.71740702361E+03  0.71753305538E+03  0.10566000000E+00 0. -1.
        -13    1    4    4    0    0 -0.19701181996E+01  0.83053590777E+00  0.10363948127E+03  0.10366158593E+03  0.10566000000E+00 0.  1.
         14    1    4    4    0    0 -0.43901397095E+01  0.28962668575E+01  0.28037220012E+03  0.28042152608E+03  0.00000000000E+00 0. -1.
<mgrwt>
<rscale>  0 0.77385320E+02</rscale>
<asrwt>0</asrwt>
<pdfrwt beam="1">  1        2 0.18382732E+00 0.77385320E+02</pdfrwt>
<pdfrwt beam="2">  1       -1 0.19276154E-03 0.77385320E+02</pdfrwt>
<totfact> 0.38207059E+05</totfact>
</mgrwt>
</event>
<event>
 8    1  0.2433467E-020  0.8088049E+02  0.7818608E-02  0.1326571E+00
         -1   -1    0    0    0  501 -0.00000000000E+00  0.00000000000E+00  0.95837021166E+01  0.95837034418E+01  0.50400000000E-02 0.  1.
          2   -1    0    0  501    0  0.00000000000E+00 -0.00000000000E+00 -0.17064526775E+03  0.17064526777E+03  0.25500000000E-02 0. -1.
         24    2    1    2    0    0 -0.88817841970E-15  0.00000000000E+00 -0.16106156564E+03  0.18022897122E+03  0.80880492949E+02 0.  0.
         66    2    3    3    0    0  0.72241391457E+01  0.86164355182E+01 -0.16708348801E+03  0.16747335047E+03  0.20000008472E+01 0.  0.
        -13    1    3    3    0    0 -0.72241391457E+01 -0.86164355182E+01  0.60219223766E+01  0.12755620745E+02  0.10566000000E+00 0.  1.
         13    1    4    4    0    0  0.49711331041E+01  0.69912906888E+01 -0.12078916858E+03  0.12109345449E+03  0.10566000000E+00 0. -1.
        -13    1    4    4    0    0  0.59183961472E+00  0.40187052535E+00 -0.15223044032E+02  0.15240210225E+02  0.10566000000E+00 0.  1.
         14    1    4    4    0    0  0.16611664269E+01  0.12232743040E+01 -0.31071275405E+02  0.31139685760E+02  0.00000000000E+00 0. -1.
<mgrwt>
<rscale>  0 0.80880493E+02</rscale>
<asrwt>0</asrwt>
<pdfrwt beam="1">  1        2 0.26253116E-01 0.80880493E+02</pdfrwt>
<pdfrwt beam="2">  1       -1 0.14744159E-02 0.80880493E+02</pdfrwt>
<totfact> 0.20298711E+05</totfact>
</mgrwt>
</event>
<event>
 8    1  0.2433467E-020  0.7995895E+02  0.7818608E-02  0.1329168E+00
         -1   -1    0    0    0  501 -0.00000000000E+00  0.00000000000E+00  0.23479169729E+01  0.23479223823E+01  0.50400000000E-02 0.  1.
          2   -1    0    0  501    0  0.00000000000E+00 -0.00000000000E+00 -0.68075520980E+03  0.68075520980E+03  0.25500000000E-02 0. -1.
         24    2    1    2    0    0  0.00000000000E+00 -0.71054273576E-14 -0.67840729282E+03  0.68310313218E+03  0.79958953487E+02 0.  0.
         66    2    3    3    0    0 -0.57617902035E+01  0.34023200320E+02 -0.51146577814E+03  0.51263244005E+03  0.20000001761E+01 0.  0.
        -13    1    3    3    0    0  0.57617902035E+01 -0.34023200320E+02 -0.16694151469E+03  0.17047069213E+03  0.10566000000E+00 0.  1.
         13    1    4    4    0    0 -0.37113616209E+00  0.12694307041E+01 -0.24206117938E+02  0.24242452558E+02  0.10566000000E+00 0.  1.
        -13    1    4    4    0    0 -0.50415442800E+01  0.28703320769E+02 -0.42718992453E+03  0.42818283545E+03  0.10566000000E+00 0. -1.
        -14    1    4    4    0    0 -0.34910976139E+00  0.40504488469E+01 -0.60069735667E+02  0.60207152039E+02  0.00000000000E+00 0.  1.
<mgrwt>
<rscale>  0 0.79958953E+02</rscale>
<asrwt>0</asrwt>
<pdfrwt beam="1">  1        2 0.10473141E+00 0.79958953E+02</pdfrwt>
<pdfrwt beam="2">  1       -1 0.36121896E-03 0.79958953E+02</pdfrwt>
<totfact> 0.33278655E+05</totfact>
</mgrwt>
</event>
<event>
 8    1  0.2433467E-020  0.7903771E+02  0.7818608E-02  0.1331805E+00
         -1   -1    0    0    0  501 -0.00000000000E+00  0.00000000000E+00  0.10715365502E+03  0.10715365514E+03  0.50400000000E-02 0.  1.
          2   -1    0    0  501    0  0.00000000000E+00 -0.00000000000E+00 -0.14574768621E+02  0.14574768844E+02  0.25500000000E-02 0. -1.
         24    2    1    2    0    0  0.00000000000E+00  0.35527136788E-14  0.92578886399E+02  0.12172842398E+03  0.79037706182E+02 0.  0.
         66    2    3    3    0    0 -0.85758501357E+01  0.21444314954E+02 -0.30212543614E+01  0.23378020187E+02  0.20000001370E+01 0.  0.
        -13    1    3    3    0    0  0.85758501357E+01 -0.21444314954E+02  0.95600140761E+02  0.98350403796E+02  0.10566000000E+00 0.  1.
         13    1    4    4    0    0 -0.32339891440E+01  0.92079789162E+01 -0.76045676799E+00  0.97895362524E+01  0.10566000000E+00 0. -1.
        -13    1    4    4    0    0 -0.21641347230E+01  0.45955636941E+01 -0.13907913293E+01  0.52676512150E+01  0.10566000000E+00 0.  1.
        -14    1    4    4    0    0 -0.31777262687E+01  0.76407723434E+01 -0.87000626408E+00  0.83208327193E+01  0.00000000000E+00 0.  1.
<mgrwt>
<rscale>  0 0.79037706E+02</rscale>
<asrwt>0</asrwt>
<pdfrwt beam="1">  1        2 0.22422720E-02 0.79037706E+02</pdfrwt>
<pdfrwt beam="2">  1       -1 0.16485179E-01 0.79037706E+02</pdfrwt>
<totfact> 0.12035440E+05</totfact>
</mgrwt>
</event>
<event>
 8    1  0.2433467E-020  0.8115101E+02  0.7818608E-02  0.1325816E+00
         -1   -1    0    0    0  501 -0.00000000000E+00  0.00000000000E+00  0.32923300364E+02  0.32923300750E+02  0.50400000000E-02 0.  1.
          2   -1    0    0  501    0  0.00000000000E+00 -0.00000000000E+00 -0.50006271556E+02  0.50006271621E+02  0.25500000000E-02 0. -1.
         24    2    1    2    0    0  0.00000000000E+00  0.00000000000E+00 -0.17082971192E+02  0.82929572371E+02  0.81151007812E+02 0.  0.
         66    2    3    3    0    0 -0.11220168288E+01 -0.36296847290E+02 -0.26987839753E+02  0.45288668686E+02  0.19999929613E+01 0.  0.
        -13    1    3    3    0    0  0.11220168288E+01  0.36296847290E+02  0.99048685605E+01  0.37640903685E+02  0.10566000000E+00 0.  1.
         13    1    4    4    0    0 -0.10231872675E+01 -0.35803042542E+02 -0.26389121210E+02  0.44489343103E+02  0.10566000000E+00 0. -1.
        -13    1    4    4    0    0 -0.47253007095E-01 -0.40135297745E+00 -0.42511895306E+00  0.59599263338E+00  0.10566000000E+00 0. -1.
         14    1    4    4    0    0 -0.51576554234E-01 -0.92451770864E-01 -0.17359959001E+00  0.20333294995E+00  0.00000000000E+00 0. -1.
<mgrwt>
<rscale>  0 0.81151008E+02</rscale>
<asrwt>0</asrwt>
<pdfrwt beam="1">  1        2 0.76932725E-02 0.81151008E+02</pdfrwt>
<pdfrwt beam="2">  1       -1 0.50651232E-02 0.81151008E+02</pdfrwt>
<totfact> 0.14369380E+05</totfact>
</mgrwt>
</event>
<event>
 8    1  0.2433467E-020  0.8051778E+02  0.7818608E-02  0.1327588E+00
         -1   -1    0    0    0  501 -0.00000000000E+00  0.00000000000E+00  0.19192269544E+01  0.19192335720E+01  0.50400000000E-02 0.  1.
          2   -1    0    0  501    0  0.00000000000E+00 -0.00000000000E+00 -0.84449396668E+03  0.84449396669E+03  0.25500000000E-02 0. -1.
         24    2    1    2    0    0  0.17763568394E-14  0.00000000000E+00 -0.84257473973E+03  0.84641320026E+03  0.80517784021E+02 0.  0.
         66    2    3    3    0    0 -0.81460889875E+01  0.24496708101E+02 -0.74594849825E+03  0.74639775555E+03  0.19999945658E+01 0.  0.
        -13    1    3    3    0    0  0.81460889875E+01 -0.24496708101E+02 -0.96626241477E+02  0.10001544470E+03  0.10566000000E+00 0.  1.
         13    1    4    4    0    0 -0.36558146325E+01  0.85956018164E+01 -0.27990062559E+03  0.28005645988E+03  0.10566000000E+00 0. -1.
        -13    1    4    4    0    0 -0.38884014174E+01  0.13872652800E+02 -0.39897773651E+03  0.39923779324E+03  0.10566000000E+00 0.  1.
         14    1    4    4    0    0 -0.60187293762E+00  0.20284534837E+01 -0.67070136154E+02  0.67103502429E+02  0.00000000000E+00 0. -1.
<mgrwt>
<rscale>  0 0.80517784E+02</rscale>
<asrwt>0</asrwt>
<pdfrwt beam="1">  1        2 0.12992185E+00 0.80517784E+02</pdfrwt>
<pdfrwt beam="2">  1       -1 0.29526687E-03 0.80517784E+02</pdfrwt>
<totfact> 0.34086775E+05</totfact>
</mgrwt>
</event>
<event>
 8    1  0.2433467E-020  0.8105033E+02  0.7818608E-02  0.1326097E+00
         -1   -1    0    0    0  501 -0.00000000000E+00  0.00000000000E+00  0.16660985614E+02  0.16660986377E+02  0.50400000000E-02 0.  1.
          2   -1    0    0  501    0  0.00000000000E+00 -0.00000000000E+00 -0.98570933173E+02  0.98570933206E+02  0.25500000000E-02 0. -1.
         24    2    1    2    0    0  0.00000000000E+00  0.14210854715E-13 -0.81909947559E+02  0.11523191958E+03  0.81050328695E+02 0.  0.
         66    2    3    3    0    0  0.19210092683E+02  0.34714955661E+02 -0.52541263703E+02  0.65869114123E+02  0.19999990964E+01 0.  0.
        -13    1    3    3    0    0 -0.19210092683E+02 -0.34714955661E+02 -0.29368683856E+02  0.49362805460E+02  0.10566000000E+00 0.  1.
         13    1    4    4    0    0  0.94138764033E+01  0.17468390408E+02 -0.25849692572E+02  0.32588088352E+02  0.10566000000E+00 0. -1.
        -13    1    4    4    0    0  0.44598981117E+01  0.66245290780E+01 -0.11113179833E+02  0.13685357383E+02  0.10566000000E+00 0.  1.
        -14    1    4    4    0    0  0.53363181683E+01  0.10622036175E+02 -0.15578391298E+02  0.19595668387E+02  0.00000000000E+00 0.  1.
<mgrwt>
<rscale>  0 0.81050329E+02</rscale>
<asrwt>0</asrwt>
<pdfrwt beam="1">  1        2 0.15164759E-01 0.81050329E+02</pdfrwt>
<pdfrwt beam="2">  1       -1 0.25632287E-02 0.81050329E+02</pdfrwt>
<totfact> 0.17047845E+05</totfact>
</mgrwt>
</event>
<event>
 8    1  0.2433467E-020  0.8094629E+02  0.7818608E-02  0.1326387E+00
          2   -1    0    0  501    0  0.00000000000E+00  0.00000000000E+00  0.41000255044E+03  0.41000255044E+03  0.25500000000E-02 0. -1.
         -1   -1    0    0    0  501 -0.00000000000E+00 -0.00000000000E+00 -0.39952793252E+01  0.39952825042E+01  0.50400000000E-02 0.  1.
         24    2    1    2    0    0  0.00000000000E+00  0.00000000000E+00  0.40600727111E+03  0.41399783295E+03  0.80946287690E+02 0.  0.
         66    2    3    3    0    0  0.25867123704E+02 -0.18647593730E+02  0.33039748931E+03  0.33193876209E+03  0.20000002449E+01 0.  0.
        -13    1    3    3    0    0 -0.25867123704E+02  0.18647593730E+02  0.75609781805E+02  0.82059070853E+02  0.10566000000E+00 0.  1.
         13    1    4    4    0    0  0.47341879258E+01 -0.41781470764E+01  0.68720041786E+02  0.69009599010E+02  0.10566000000E+00 0. -1.
        -13    1    4    4    0    0  0.97840551258E+01 -0.68974233775E+01  0.11847315675E+03  0.11907645535E+03  0.10566000000E+00 0.  1.
         14    1    4    4    0    0  0.11348880652E+02 -0.75720232763E+01  0.14320429077E+03  0.14385270774E+03  0.00000000000E+00 0. -1.
<mgrwt>
<rscale>  0 0.80946288E+02</rscale>
<asrwt>0</asrwt>
<pdfrwt beam="1">  1        2 0.63077286E-01 0.80946288E+02</pdfrwt>
<pdfrwt beam="2">  1       -1 0.61465890E-03 0.80946288E+02</pdfrwt>
<totfact> 0.27635397E+05</totfact>
</mgrwt>
</event>
<event>
 8    1  0.2433467E-020  0.8134830E+02  0.7818608E-02  0.1325268E+00
         -1   -1    0    0    0  501 -0.00000000000E+00  0.00000000000E+00  0.38704124415E+01  0.38704157230E+01  0.50400000000E-02 0.  1.
          2   -1    0    0  501    0  0.00000000000E+00 -0.00000000000E+00 -0.42744429789E+03  0.42744429790E+03  0.25500000000E-02 0. -1.
         24    2    1    2    0    0  0.71054273576E-14 -0.17763568394E-14 -0.42357388545E+03  0.43131471362E+03  0.81348299009E+02 0.  0.
         66    2    3    3    0    0  0.38950977247E+02 -0.11455631219E+02 -0.20134850507E+03  0.20541088240E+03  0.19999990516E+01 0.  0.
        -13    1    3    3    0    0 -0.38950977247E+02  0.11455631219E+02 -0.22222538037E+03  0.22590383122E+03  0.10566000000E+00 0.  1.
         13    1    4    4    0    0  0.15158910993E+02 -0.39421105383E+01 -0.77362609274E+02  0.78932358990E+02  0.10566000000E+00 0. -1.
        -13    1    4    4    0    0  0.58712480595E+01 -0.24373867399E+01 -0.30783995615E+02  0.31433707353E+02  0.10566000000E+00 0.  1.
         14    1    4    4    0    0  0.17920818195E+02 -0.50761339408E+01 -0.93201900185E+02  0.95044816054E+02  0.00000000000E+00 0. -1.
<mgrwt>
<rscale>  0 0.81348299E+02</rscale>
<asrwt>0</asrwt>
<pdfrwt beam="1">  1        2 0.65760624E-01 0.81348299E+02</pdfrwt>
<pdfrwt beam="2">  1       -1 0.59544866E-03 0.81348299E+02</pdfrwt>
<totfact> 0.27674856E+05</totfact>
</mgrwt>
</event>
<event>
 8    1  0.2433467E-020  0.7971416E+02  0.7818608E-02  0.1329865E+00
          2   -1    0    0  501    0  0.00000000000E+00  0.00000000000E+00  0.29495624987E+03  0.29495624988E+03  0.25500000000E-02 0. -1.
         -1   -1    0    0    0  501 -0.00000000000E+00 -0.00000000000E+00 -0.53858373314E+01  0.53858396896E+01  0.50400000000E-02 0.  1.
         24    2    1    2    0    0 -0.35527136788E-14  0.00000000000E+00  0.28957041254E+03  0.30034208957E+03  0.79714157775E+02 0.  0.
         66    2    3    3    0    0 -0.28247030923E+02 -0.23608339944E+02  0.20218205670E+03  0.20551601525E+03  0.20000004069E+01 0.  0.
        -13    1    3    3    0    0  0.28247030923E+02  0.23608339944E+02  0.87388355831E+02  0.94826074314E+02  0.10566000000E+00 0.  1.
         13    1    4    4    0    0 -0.99937331242E+01 -0.88756024577E+01  0.72869043878E+02  0.74084814507E+02  0.10566000000E+00 0. -1.
        -13    1    4    4    0    0 -0.16688625215E+02 -0.13824243740E+02  0.12073269615E+03  0.12266219878E+03  0.10566000000E+00 0.  1.
        -14    1    4    4    0    0 -0.15646725834E+01 -0.90849374693E+00  0.85803166743E+01  0.87690019622E+01  0.00000000000E+00 0.  1.
<mgrwt>
<rscale>  0 0.79714158E+02</rscale>
<asrwt>0</asrwt>
<pdfrwt beam="1">  1        2 0.45377886E-01 0.79714158E+02</pdfrwt>
<pdfrwt beam="2">  1       -1 0.82859052E-03 0.79714158E+02</pdfrwt>
<totfact> 0.25577348E+05</totfact>
</mgrwt>
</event>
<event>
 8    1  0.2433467E-020  0.7769018E+02  0.7818608E-02  0.1335737E+00
          2   -1    0    0  501    0  0.00000000000E+00  0.00000000000E+00  0.17015735777E+03  0.17015735779E+03  0.25500000000E-02 0. -1.
         -1   -1    0    0    0  501 -0.00000000000E+00 -0.00000000000E+00 -0.88679135123E+01  0.88679149446E+01  0.50400000000E-02 0.  1.
         24    2    1    2    0    0  0.00000000000E+00  0.35527136788E-14  0.16128944426E+03  0.17902527273E+03  0.77690176010E+02 0.  0.
         66    2    3    3    0    0  0.12935829371E+02  0.21218598561E+02  0.14941907019E+03  0.15148472897E+03  0.19999919805E+01 0.  0.
        -13    1    3    3    0    0 -0.12935829371E+02 -0.21218598561E+02  0.11870374072E+02  0.27540543769E+02  0.10566000000E+00 0.  1.
         13    1    4    4    0    0  0.11412221425E+01  0.21103471483E+01  0.16561427259E+02  0.16734634444E+02  0.10566000000E+00 0. -1.
        -13    1    4    4    0    0  0.64548007617E+01  0.99352243689E+01  0.74157731743E+02  0.75098292107E+02  0.10566000000E+00 0.  1.
         14    1    4    4    0    0  0.53398064672E+01  0.91730270442E+01  0.58699911184E+02  0.59651802414E+02  0.00000000000E+00 0. -1.
<mgrwt>
<rscale>  0 0.77690176E+02</rscale>
<asrwt>0</asrwt>
<pdfrwt beam="1">  1        2 0.26178055E-01 0.77690176E+02</pdfrwt>
<pdfrwt beam="2">  1       -1 0.13642945E-02 0.77690176E+02</pdfrwt>
<totfact> 0.22556248E+05</totfact>
</mgrwt>
</event>
<event>
 8    1  0.2433467E-020  0.7859758E+02  0.7818608E-02  0.1333079E+00
          2   -1    0    0  501    0  0.00000000000E+00  0.00000000000E+00  0.16055964612E+03  0.16055964614E+03  0.25500000000E-02 0. -1.
         -1   -1    0    0    0  501 -0.00000000000E+00 -0.00000000000E+00 -0.96188234926E+01  0.96188248130E+01  0.50400000000E-02 0.  1.
         24    2    1    2    0    0  0.00000000000E+00 -0.71054273576E-14  0.15094082262E+03  0.17017847095E+03  0.78597582917E+02 0.  0.
         66    2    3    3    0    0 -0.23550026388E+01 -0.36239864708E+02  0.10788968302E+03  0.11385542401E+03  0.20000106648E+01 0.  0.
        -13    1    3    3    0    0  0.23550026388E+01  0.36239864708E+02  0.43051139608E+02  0.56323046945E+02  0.10566000000E+00 0.  1.
         13    1    4    4    0    0  0.10263307916E+00 -0.61622410056E+01  0.17339674083E+02  0.18402695702E+02  0.10566000000E+00 0.  1.
        -13    1    4    4    0    0 -0.12212499300E+01 -0.16307987554E+02  0.50749913858E+02  0.53319853996E+02  0.10566000000E+00 0. -1.
         14    1    4    4    0    0 -0.12363857879E+01 -0.13769636148E+02  0.39800095075E+02  0.42132874308E+02  0.00000000000E+00 0. -1.
<mgrwt>
<rscale>  0 0.78597583E+02</rscale>
<asrwt>0</asrwt>
<pdfrwt beam="1">  1        2 0.24701485E-01 0.78597583E+02</pdfrwt>
<pdfrwt beam="2">  1       -1 0.14798190E-02 0.78597583E+02</pdfrwt>
<totfact> 0.21459921E+05</totfact>
</mgrwt>
</event>
<event>
 8    1  0.2433467E-020  0.7443978E+02  0.7818608E-02  0.1345615E+00
         -1   -1    0    0    0  501 -0.00000000000E+00  0.00000000000E+00  0.84913467493E+01  0.84913482450E+01  0.50400000000E-02 0.  1.
          2   -1    0    0  501    0  0.00000000000E+00 -0.00000000000E+00 -0.16314491186E+03  0.16314491188E+03  0.25500000000E-02 0. -1.
         24    2    1    2    0    0  0.00000000000E+00  0.71054273576E-14 -0.15465356511E+03  0.17163626013E+03  0.74439778266E+02 0.  0.
         66    2    3    3    0    0  0.26383572232E+01 -0.36488047778E+02 -0.92845593384E+02  0.99813039002E+02  0.19999961237E+01 0.  0.
        -13    1    3    3    0    0 -0.26383572232E+01  0.36488047778E+02 -0.61807971728E+02  0.71823221124E+02  0.10566000000E+00 0.  1.
         13    1    4    4    0    0  0.19364948812E+01 -0.31987011493E+02 -0.80699653497E+02  0.86829512006E+02  0.10566000000E+00 0. -1.
        -13    1    4    4    0    0  0.35330412233E+00 -0.29457673515E+01 -0.72345229862E+01  0.78199652150E+01  0.10566000000E+00 0. -1.
         14    1    4    4    0    0  0.34855821961E+00 -0.15552689331E+01 -0.49114169012E+01  0.51635617808E+01  0.00000000000E+00 0. -1.
<mgrwt>
<rscale>  0 0.74439778E+02</rscale>
<asrwt>0</asrwt>
<pdfrwt beam="1">  1        2 0.25099215E-01 0.74439778E+02</pdfrwt>
<pdfrwt beam="2">  1       -1 0.13063613E-02 0.74439778E+02</pdfrwt>
<totfact> 0.24894460E+05</totfact>
</mgrwt>
</event>
<event>
 8    1  0.2433467E-020  0.7949649E+02  0.7818608E-02  0.1330486E+00
         -1   -1    0    0    0  501 -0.00000000000E+00  0.00000000000E+00  0.16898136665E+01  0.16898211826E+01  0.50400000000E-02 0.  1.
          2   -1    0    0  501    0  0.00000000000E+00 -0.00000000000E+00 -0.93496664059E+03  0.93496664059E+03  0.25500000000E-02 0. -1.
         24    2    1    2    0    0  0.00000000000E+00  0.35527136788E-14 -0.93327682692E+03  0.93665646177E+03  0.79496488693E+02 0.  0.
         66    2    3    3    0    0  0.29333980484E+01  0.23781946205E+02 -0.84021860939E+03  0.84056260763E+03  0.19999992984E+01 0.  0.
        -13    1    3    3    0    0 -0.29333980484E+01 -0.23781946205E+02 -0.93058217532E+02  0.96093854141E+02  0.10566000000E+00 0.  1.
         13    1    4    4    0    0  0.19619877372E+01  0.15116219622E+02 -0.55233188787E+03  0.55254219297E+03  0.10566000000E+00 0. -1.
        -13    1    4    4    0    0  0.79678404279E+00  0.84300841889E+01 -0.27499640357E+03  0.27512676047E+03  0.10566000000E+00 0.  1.
        -14    1    4    4    0    0  0.17462626833E+00  0.23564239349E+00 -0.12890317940E+02  0.12893654186E+02  0.00000000000E+00 0.  1.
<mgrwt>
<rscale>  0 0.79496489E+02</rscale>
<asrwt>0</asrwt>
<pdfrwt beam="1">  1        2 0.14384061E+00 0.79496489E+02</pdfrwt>
<pdfrwt beam="2">  1       -1 0.25997266E-03 0.79496489E+02</pdfrwt>
<totfact> 0.35657650E+05</totfact>
</mgrwt>
</event>
<event>
 8    1  0.2433467E-020  0.7845405E+02  0.7818608E-02  0.1333497E+00
          2   -1    0    0  501    0  0.00000000000E+00  0.00000000000E+00  0.15680127441E+03  0.15680127443E+03  0.25500000000E-02 0. -1.
         -1   -1    0    0    0  501 -0.00000000000E+00 -0.00000000000E+00 -0.98134368775E+01  0.98134381717E+01  0.50400000000E-02 0.  1.
         24    2    1    2    0    0  0.00000000000E+00  0.17763568394E-14  0.14698783754E+03  0.16661471261E+03  0.78454050713E+02 0.  0.
         66    2    3    3    0    0  0.36213738760E+02 -0.13394029401E+02  0.87932761084E+02  0.96057302525E+02  0.19999994846E+01 0.  0.
        -13    1    3    3    0    0 -0.36213738760E+02  0.13394029401E+02  0.59055076452E+02  0.70557410081E+02  0.10566000000E+00 0.  1.
         13    1    4    4    0    0  0.22540895192E+02 -0.77214385069E+01  0.52950109919E+02  0.58064084192E+02  0.10566000000E+00 0. -1.
        -13    1    4    4    0    0  0.10348857796E+02 -0.42932918347E+01  0.27277769812E+02  0.29489304882E+02  0.10566000000E+00 0.  1.
         14    1    4    4    0    0  0.33239857720E+01 -0.13792990595E+01  0.77048813532E+01  0.85039134506E+01  0.00000000000E+00 0. -1.
<mgrwt>
<rscale>  0 0.78454051E+02</rscale>
<asrwt>0</asrwt>
<pdfrwt beam="1">  1        2 0.24123270E-01 0.78454051E+02</pdfrwt>
<pdfrwt beam="2">  1       -1 0.15097598E-02 0.78454051E+02</pdfrwt>
<totfact> 0.21397831E+05</totfact>
</mgrwt>
</event>
<event>
 8    1  0.2433467E-020  0.7930521E+02  0.7818608E-02  0.1331035E+00
          2   -1    0    0  501    0  0.00000000000E+00  0.00000000000E+00  0.14340510771E+03  0.14340510773E+03  0.25500000000E-02 0. -1.
         -1   -1    0    0    0  501 -0.00000000000E+00 -0.00000000000E+00 -0.10964246524E+02  0.10964247682E+02  0.50400000000E-02 0.  1.
         24    2    1    2    0    0  0.00000000000E+00  0.00000000000E+00  0.13244086119E+03  0.15436935541E+03  0.79305209030E+02 0.  0.
         66    2    3    3    0    0  0.35590787892E+02  0.10742364848E+01  0.10011546284E+03  0.10627776874E+03  0.20000153567E+01 0.  0.
        -13    1    3    3    0    0 -0.35590787892E+02 -0.10742364848E+01  0.32325398345E+02  0.48091586675E+02  0.10566000000E+00 0.  1.
         13    1    4    4    0    0  0.70709929103E+01 -0.19267132549E+00  0.21016225620E+02  0.22174962600E+02  0.10566000000E+00 0. -1.
        -13    1    4    4    0    0  0.17780184095E+02  0.84003161270E+00  0.47507873162E+02  0.50733123065E+02  0.10566000000E+00 0.  1.
        -14    1    4    4    0    0  0.10739610886E+02  0.42687619756E+00  0.31591364061E+02  0.33369683074E+02  0.00000000000E+00 0.  1.
<mgrwt>
<rscale>  0 0.79305209E+02</rscale>
<asrwt>0</asrwt>
<pdfrwt beam="1">  1        2 0.22062324E-01 0.79305209E+02</pdfrwt>
<pdfrwt beam="2">  1       -1 0.16868072E-02 0.79305209E+02</pdfrwt>
<totfact> 0.20206366E+05</totfact>
</mgrwt>
</event>
<event>
 8    1  0.2433467E-020  0.8334540E+02  0.7818608E-02  0.1319817E+00
         -1   -1    0    0    0  501 -0.00000000000E+00  0.00000000000E+00  0.47921997346E+01  0.47922023849E+01  0.50400000000E-02 0.  1.
          2   -1    0    0  501    0  0.00000000000E+00 -0.00000000000E+00 -0.36238334476E+03  0.36238334477E+03  0.25500000000E-02 0. -1.
         24    2    1    2    0    0  0.00000000000E+00  0.00000000000E+00 -0.35759114503E+03  0.36717554715E+03  0.83345398356E+02 0.  0.
         66    2    3    3    0    0  0.31331929475E+02 -0.23626974989E+01 -0.29933256569E+03  0.30098381524E+03  0.20000017699E+01 0.  0.
        -13    1    3    3    0    0 -0.31331929475E+02  0.23626974989E+01 -0.58258579333E+02  0.66191731916E+02  0.10566000000E+00 0.  1.
         13    1    4    4    0    0  0.97341513208E+01 -0.15653737672E+01 -0.92800922581E+02  0.93323236618E+02  0.10566000000E+00 0. -1.
        -13    1    4    4    0    0  0.85388913284E+01 -0.42795018510E+00 -0.78693337442E+02  0.79156480015E+02  0.10566000000E+00 0.  1.
        -14    1    4    4    0    0  0.13058886826E+02 -0.36937354661E+00 -0.12783830567E+03  0.12850409861E+03  0.00000000000E+00 0.  1.
<mgrwt>
<rscale>  0 0.83345398E+02</rscale>
<asrwt>0</asrwt>
<pdfrwt beam="1">  1        2 0.55751263E-01 0.83345398E+02</pdfrwt>
<pdfrwt beam="2">  1       -1 0.73726199E-03 0.83345398E+02</pdfrwt>
<totfact> 0.24507751E+05</totfact>
</mgrwt>
</event>
<event>
 8    1  0.2433467E-020  0.7939043E+02  0.7818608E-02  0.1330790E+00
         -1   -1    0    0    0  501 -0.00000000000E+00  0.00000000000E+00  0.31346320745E+02  0.31346321150E+02  0.50400000000E-02 0.  1.
          2   -1    0    0  501    0  0.00000000000E+00 -0.00000000000E+00 -0.50267778688E+02  0.50267778753E+02  0.25500000000E-02 0. -1.
         24    2    1    2    0    0  0.00000000000E+00 -0.17763568394E-14 -0.18921457943E+02  0.81614099902E+02  0.79390425948E+02 0.  0.
         66    2    3    3    0    0  0.26859364606E+02  0.12342707216E+02 -0.36664064951E+02  0.47138323539E+02  0.19999997159E+01 0.  0.
        -13    1    3    3    0    0 -0.26859364606E+02 -0.12342707216E+02  0.17742607007E+02  0.34475776364E+02  0.10566000000E+00 0.  1.
         13    1    4    4    0    0  0.11118498449E+02  0.58962068333E+01 -0.15084533033E+02  0.19645370031E+02  0.10566000000E+00 0. -1.
        -13    1    4    4    0    0  0.25318732791E+01  0.73551742084E+00 -0.30962148490E+01  0.40680558753E+01  0.10566000000E+00 0. -1.
        -14    1    4    4    0    0  0.13208992877E+02  0.57109829619E+01 -0.18483317069E+02  0.23424897632E+02  0.00000000000E+00 0.  1.
<mgrwt>
<rscale>  0 0.79390426E+02</rscale>
<asrwt>0</asrwt>
<pdfrwt beam="1">  1        2 0.77335044E-02 0.79390426E+02</pdfrwt>
<pdfrwt beam="2">  1       -1 0.48225109E-02 0.79390426E+02</pdfrwt>
<totfact> 0.15276916E+05</totfact>
</mgrwt>
</event>
<event>
 8    1  0.2433467E-020  0.7629666E+02  0.7818608E-02  0.1339902E+00
         -1   -1    0    0    0  501 -0.00000000000E+00  0.00000000000E+00  0.10207932269E+02  0.10207933513E+02  0.50400000000E-02 0.  1.
          2   -1    0    0  501    0  0.00000000000E+00 -0.00000000000E+00 -0.14256509401E+03  0.14256509404E+03  0.25500000000E-02 0. -1.
         24    2    1    2    0    0 -0.44408920985E-15 -0.71054273576E-14 -0.13235716175E+03  0.15277302755E+03  0.76296655768E+02 0.  0.
         66    2    3    3    0    0  0.38401421008E+01  0.28602308621E+02 -0.11610031949E+03  0.11965000181E+03  0.19999995249E+01 0.  0.
        -13    1    3    3    0    0 -0.38401421008E+01 -0.28602308621E+02 -0.16256842253E+02  0.33123025736E+02  0.10566000000E+00 0.  1.
         13    1    4    4    0    0  0.25137796647E+01  0.12197925446E+02 -0.51713352312E+02  0.53192014859E+02  0.10566000000E+00 0. -1.
        -13    1    4    4    0    0  0.10431494421E+01  0.14240171097E+02 -0.55949552086E+02  0.57742827921E+02  0.10566000000E+00 0.  1.
         14    1    4    4    0    0  0.28321299398E+00  0.21642120780E+01 -0.84374150944E+01  0.87151590343E+01  0.00000000000E+00 0. -1.
<mgrwt>
<rscale>  0 0.76296656E+02</rscale>
<asrwt>0</asrwt>
<pdfrwt beam="1">  1        2 0.21933090E-01 0.76296656E+02</pdfrwt>
<pdfrwt beam="2">  1       -1 0.15704513E-02 0.76296656E+02</pdfrwt>
<totfact> 0.22343856E+05</totfact>
</mgrwt>
</event>
<event>
 8    1  0.2433467E-020  0.7856176E+02  0.7818608E-02  0.1333183E+00
         -1   -1    0    0    0  501 -0.00000000000E+00  0.00000000000E+00  0.14934809829E+02  0.14934810679E+02  0.50400000000E-02 0.  1.
          2   -1    0    0  501    0  0.00000000000E+00 -0.00000000000E+00 -0.10331484191E+03  0.10331484194E+03  0.25500000000E-02 0. -1.
         24    2    1    2    0    0  0.35527136788E-14 -0.88817841970E-15 -0.88380032083E+02  0.11824965262E+03  0.78561760891E+02 0.  0.
         66    2    3    3    0    0 -0.27742336918E+02  0.65927392624E+01 -0.84827257917E+02  0.89514050368E+02  0.20000147253E+01 0.  0.
        -13    1    3    3    0    0  0.27742336918E+02 -0.65927392624E+01 -0.35527741665E+01  0.28735602255E+02  0.10566000000E+00 0.  1.
         13    1    4    4    0    0 -0.11141066791E+02  0.24974976811E+01 -0.34432813700E+02  0.36276585937E+02  0.10566000000E+00 0. -1.
        -13    1    4    4    0    0 -0.50770203078E+01  0.68047445204E+00 -0.16311842327E+02  0.17097559616E+02  0.10566000000E+00 0.  1.
         14    1    4    4    0    0 -0.11524249819E+02  0.34147671293E+01 -0.34082601890E+02  0.36139904814E+02  0.00000000000E+00 0. -1.
<mgrwt>
<rscale>  0 0.78561761E+02</rscale>
<asrwt>0</asrwt>
<pdfrwt beam="1">  1        2 0.15894591E-01 0.78561761E+02</pdfrwt>
<pdfrwt beam="2">  1       -1 0.22976632E-02 0.78561761E+02</pdfrwt>
<totfact> 0.18778530E+05</totfact>
</mgrwt>
</event>
<event>
 8    1  0.2433467E-020  0.8077599E+02  0.7818608E-02  0.1326864E+00
         -1   -1    0    0    0  501 -0.00000000000E+00  0.00000000000E+00  0.99000350964E+01  0.99000363793E+01  0.50400000000E-02 0.  1.
          2   -1    0    0  501    0  0.00000000000E+00 -0.00000000000E+00 -0.16476610222E+03  0.16476610224E+03  0.25500000000E-02 0. -1.
         24    2    1    2    0    0  0.00000000000E+00  0.00000000000E+00 -0.15486606713E+03  0.17466613862E+03  0.80775994168E+02 0.  0.
         66    2    3    3    0    0  0.83578140105E+01  0.29581630282E+02 -0.20916802429E+02  0.37234910067E+02  0.19999996583E+01 0.  0.
        -13    1    3    3    0    0 -0.83578140105E+01 -0.29581630282E+02 -0.13394926470E+03  0.13743122855E+03  0.10566000000E+00 0.  1.
         13    1    4    4    0    0  0.42273254571E+01  0.15941489689E+02 -0.10678227243E+02  0.19647826218E+02  0.10566000000E+00 0. -1.
        -13    1    4    4    0    0  0.20948749879E+01  0.87470359452E+01 -0.62196004576E+01  0.10935891959E+02  0.10566000000E+00 0.  1.
        -14    1    4    4    0    0  0.20356135655E+01  0.48931046481E+01 -0.40189747289E+01  0.66511918900E+01  0.00000000000E+00 0.  1.
<mgrwt>
<rscale>  0 0.80775994E+02</rscale>
<asrwt>0</asrwt>
<pdfrwt beam="1">  1        2 0.25348629E-01 0.80775994E+02</pdfrwt>
<pdfrwt beam="2">  1       -1 0.15230826E-02 0.80775994E+02</pdfrwt>
<totfact> 0.20132058E+05</totfact>
</mgrwt>
</event>
<event>
 8    1  0.2433467E-020  0.8011643E+02  0.7818608E-02  0.1328721E+00
          2   -1    0    0  501    0  0.00000000000E+00  0.00000000000E+00  0.12028866367E+03  0.12028866370E+03  0.25500000000E-02 0. -1.
         -1   -1    0    0    0  501 -0.00000000000E+00 -0.00000000000E+00 -0.13340081543E+02  0.13340082495E+02  0.50400000000E-02 0.  1.
         24    2    1    2    0    0  0.00000000000E+00  0.71054273576E-14  0.10694858213E+03  0.13362874619E+03  0.80116431460E+02 0.  0.
         66    2    3    3    0    0 -0.92505034445E+01  0.36377755481E+02  0.76723718950E+02  0.85436771488E+02  0.19999912468E+01 0.  0.
        -13    1    3    3    0    0  0.92505034445E+01 -0.36377755481E+02  0.30224863178E+02  0.48191974705E+02  0.10566000000E+00 0.  1.
         13    1    4    4    0    0 -0.74081681871E+01  0.26859634289E+02  0.57517763415E+02  0.63911072455E+02  0.10566000000E+00 0. -1.
        -13    1    4    4    0    0 -0.55037119542E+00  0.35550698931E+01  0.78037727984E+01  0.85936874694E+01  0.10566000000E+00 0.  1.
        -14    1    4    4    0    0 -0.12919640620E+01  0.59630512980E+01  0.11402182737E+02  0.12932011564E+02  0.00000000000E+00 0.  1.
<mgrwt>
<rscale>  0 0.80116431E+02</rscale>
<asrwt>0</asrwt>
<pdfrwt beam="1">  1        2 0.18505948E-01 0.80116431E+02</pdfrwt>
<pdfrwt beam="2">  1       -1 0.20523204E-02 0.80116431E+02</pdfrwt>
<totfact> 0.18627601E+05</totfact>
</mgrwt>
</event>
<event>
 8    1  0.2433467E-020  0.8039964E+02  0.7818608E-02  0.1327921E+00
         -1   -1    0    0    0  501 -0.00000000000E+00  0.00000000000E+00  0.13941445815E+02  0.13941446726E+02  0.50400000000E-02 0.  1.
          2   -1    0    0  501    0  0.00000000000E+00 -0.00000000000E+00 -0.11591520243E+03  0.11591520246E+03  0.25500000000E-02 0. -1.
         24    2    1    2    0    0  0.00000000000E+00  0.00000000000E+00 -0.10197375662E+03  0.12985664918E+03  0.80399641162E+02 0.  0.
         66    2    3    3    0    0  0.18454674985E+02  0.35662241952E+02 -0.53093065506E+02  0.66597628821E+02  0.20000074863E+01 0.  0.
        -13    1    3    3    0    0 -0.18454674985E+02 -0.35662241952E+02 -0.48880691110E+02  0.63259020363E+02  0.10566000000E+00 0.  1.
         13    1    4    4    0    0  0.29133944040E+01  0.50421001470E+01 -0.87063624107E+01  0.10474853283E+02  0.10566000000E+00 0.  1.
        -13    1    4    4    0    0  0.62725804744E+01  0.12879493519E+02 -0.18150711215E+02  0.23123280493E+02  0.10566000000E+00 0. -1.
        -14    1    4    4    0    0  0.92687001064E+01  0.17740648287E+02 -0.26235991880E+02  0.32999495045E+02  0.00000000000E+00 0.  1.
<mgrwt>
<rscale>  0 0.80399641E+02</rscale>
<asrwt>0</asrwt>
<pdfrwt beam="1">  1        2 0.17833107E-01 0.80399641E+02</pdfrwt>
<pdfrwt beam="2">  1       -1 0.21448380E-02 0.80399641E+02</pdfrwt>
<totfact> 0.18250726E+05</totfact>
</mgrwt>
</event>
<event>
 8    1  0.2433467E-020  0.8003306E+02  0.7818608E-02  0.1328958E+00
          2   -1    0    0  501    0  0.00000000000E+00  0.00000000000E+00  0.21580323741E+03  0.21580323742E+03  0.25500000000E-02 0. -1.
         -1   -1    0    0    0  501 -0.00000000000E+00 -0.00000000000E+00 -0.74202887065E+01  0.74202904181E+01  0.50400000000E-02 0.  1.
         24    2    1    2    0    0  0.00000000000E+00  0.00000000000E+00  0.20838294870E+03  0.22322352784E+03  0.80033056123E+02 0.  0.
         66    2    3    3    0    0  0.34325899706E+02 -0.31804585154E+01  0.16079652126E+03  0.16446246975E+03  0.20000001827E+01 0.  0.
        -13    1    3    3    0    0 -0.34325899706E+02  0.31804585154E+01  0.47586427441E+02  0.58761058088E+02  0.10566000000E+00 0.  1.
         13    1    4    4    0    0  0.30097227151E+02 -0.28309147397E+01  0.14023726390E+03  0.14345856026E+03  0.10566000000E+00 0. -1.
        -13    1    4    4    0    0  0.40872709280E+01 -0.28695185271E+00  0.19003217047E+02  0.19440204402E+02  0.10566000000E+00 0.  1.
         14    1    4    4    0    0  0.14140162770E+00 -0.62591923053E-01  0.15560403126E+01  0.15637050948E+01  0.00000000000E+00 0. -1.
<mgrwt>
<rscale>  0 0.80033056E+02</rscale>
<asrwt>0</asrwt>
<pdfrwt beam="1">  1        2 0.33200497E-01 0.80033056E+02</pdfrwt>
<pdfrwt beam="2">  1       -1 0.11415831E-02 0.80033056E+02</pdfrwt>
<totfact> 0.22628306E+05</totfact>
</mgrwt>
</event>
<event>
 8    1  0.2609962E-020  0.8014983E+02  0.7818608E-02  0.1328627E+00
         -1   -1    0    0    0  501 -0.00000000000E+00  0.00000000000E+00  0.10882066364E+03  0.10882066376E+03  0.50400000000E-02 0.  1.
          2   -1    0    0  501    0  0.00000000000E+00 -0.00000000000E+00 -0.14758215602E+02  0.14758215822E+02  0.25500000000E-02 0. -1.
         24    2    1    2    0    0  0.00000000000E+00  0.00000000000E+00  0.94062448037E+02  0.12357887958E+03  0.80149830612E+02 0.  0.
         66    2    3    3    0    0  0.33658571844E+02  0.56953025779E+01  0.14767705658E+02  0.37248101387E+02  0.19999991267E+01 0.  0.
        -13    1    3    3    0    0 -0.33658571844E+02 -0.56953025779E+01  0.79294742380E+02  0.86330778192E+02  0.10566000000E+00 0.  1.
         13    1    4    4    0    0  0.17968564034E+02  0.35485446856E+01  0.76111145521E+01  0.19834356344E+02  0.10566000000E+00 0.  1.
        -13    1    4    4    0    0  0.13077845135E+02  0.20376670377E+01  0.56079294629E+01  0.14375053295E+02  0.10566000000E+00 0. -1.
        -14    1    4    4    0    0  0.26121626751E+01  0.10909085452E+00  0.15486616426E+01  0.30386917480E+01  0.00000000000E+00 0.  1.
<mgrwt>
<rscale>  0 0.80149831E+02</rscale>
<asrwt>0</asrwt>
<pdfrwt beam="1">  1        2 0.22704947E-02 0.80149831E+02</pdfrwt>
<pdfrwt beam="2">  1       -1 0.16741641E-01 0.80149831E+02</pdfrwt>
<totfact> 0.11582947E+05</totfact>
</mgrwt>
</event>
<event>
 8    1  0.2433467E-020  0.8596404E+02  0.7818608E-02  0.1312931E+00
         -1   -1    0    0    0  501 -0.00000000000E+00  0.00000000000E+00  0.39705370937E+01  0.39705402925E+01  0.50400000000E-02 0.  1.
          2   -1    0    0  501    0  0.00000000000E+00 -0.00000000000E+00 -0.46529051277E+03  0.46529051278E+03  0.25500000000E-02 0. -1.
         24    2    1    2    0    0  0.35527136788E-14  0.44408920985E-15 -0.46131997567E+03  0.46926105307E+03  0.85964038818E+02 0.  0.
         66    2    3    3    0    0 -0.14668724220E+02 -0.24402118599E+01 -0.45079016318E+03  0.45103979572E+03  0.19999997014E+01 0.  0.
        -13    1    3    3    0    0  0.14668724220E+02  0.24402118599E+01 -0.10529812497E+02  0.18221257351E+02  0.10566000000E+00 0.  1.
         13    1    4    4    0    0 -0.58985581572E+01 -0.39540867041E+00 -0.16727660734E+03  0.16738107379E+03  0.10566000000E+00 0. -1.
        -13    1    4    4    0    0 -0.33624554304E+00  0.86388624466E-01 -0.14564220368E+02  0.14568740612E+02  0.10566000000E+00 0.  1.
         14    1    4    4    0    0 -0.84339205202E+01 -0.21311918140E+01 -0.26894933547E+03  0.26908998131E+03  0.00000000000E+00 0. -1.
<mgrwt>
<rscale>  0 0.85964039E+02</rscale>
<asrwt>0</asrwt>
<pdfrwt beam="1">  1        2 0.71583113E-01 0.85964039E+02</pdfrwt>
<pdfrwt beam="2">  1       -1 0.61085248E-03 0.85964039E+02</pdfrwt>
<totfact> 0.24645036E+05</totfact>
</mgrwt>
</event>
<event>
 8    1  0.2433467E-020  0.7980857E+02  0.7818608E-02  0.1329596E+00
          2   -1    0    0  501    0  0.00000000000E+00  0.00000000000E+00  0.57493605495E+03  0.57493605495E+03  0.25500000000E-02 0. -1.
         -1   -1    0    0    0  501 -0.00000000000E+00 -0.00000000000E+00 -0.27696136931E+01  0.27696182789E+01  0.50400000000E-02 0.  1.
         24    2    1    2    0    0  0.00000000000E+00  0.71054273576E-14  0.57216644126E+03  0.57770567323E+03  0.79808573392E+02 0.  0.
         66    2    3    3    0    0 -0.63367961970E+01 -0.32887724568E+02  0.44295677618E+03  0.44422568924E+03  0.20000014216E+01 0.  0.
        -13    1    3    3    0    0  0.63367961970E+01  0.32887724568E+02  0.12920966508E+03  0.13347998399E+03  0.10566000000E+00 0.  1.
         13    1    4    4    0    0 -0.47810472878E+01 -0.22079862601E+02  0.30318226032E+03  0.30402281638E+03  0.10566000000E+00 0. -1.
        -13    1    4    4    0    0 -0.15766550922E+01 -0.86956352542E+01  0.11351061587E+03  0.11385416546E+03  0.10566000000E+00 0.  1.
         14    1    4    4    0    0  0.20906182891E-01 -0.21122267120E+01  0.26263899992E+02  0.26348707397E+02  0.00000000000E+00 0. -1.
<mgrwt>
<rscale>  0 0.79808573E+02</rscale>
<asrwt>0</asrwt>
<pdfrwt beam="1">  1        2 0.88451690E-01 0.79808573E+02</pdfrwt>
<pdfrwt beam="2">  1       -1 0.42609482E-03 0.79808573E+02</pdfrwt>
<totfact> 0.31974811E+05</totfact>
</mgrwt>
</event>
<event>
 8    1  0.2433467E-020  0.8209567E+02  0.7818608E-02  0.1323207E+00
         -1   -1    0    0    0  501 -0.00000000000E+00  0.00000000000E+00  0.27449552068E+02  0.27449552531E+02  0.50400000000E-02 0.  1.
          2   -1    0    0  501    0  0.00000000000E+00 -0.00000000000E+00 -0.61382593787E+02  0.61382593840E+02  0.25500000000E-02 0. -1.
         24    2    1    2    0    0  0.00000000000E+00  0.00000000000E+00 -0.33933041720E+02  0.88832146371E+02  0.82095669244E+02 0.  0.
         66    2    3    3    0    0  0.13894101540E+02  0.35024363667E+02 -0.34530160017E+02  0.51147669166E+02  0.20000006081E+01 0.  0.
        -13    1    3    3    0    0 -0.13894101540E+02 -0.35024363667E+02  0.59711829744E+00  0.37684477205E+02  0.10566000000E+00 0.  1.
         13    1    4    4    0    0  0.30528308006E+01  0.93279125504E+01 -0.84393627621E+01  0.12944641220E+02  0.10566000000E+00 0. -1.
        -13    1    4    4    0    0  0.43964815678E+01  0.10335836569E+02 -0.11136386545E+02  0.15817358726E+02  0.10566000000E+00 0.  1.
         14    1    4    4    0    0  0.64447891715E+01  0.15360614548E+02 -0.14954410710E+02  0.22385669220E+02  0.00000000000E+00 0. -1.
<mgrwt>
<rscale>  0 0.82095669E+02</rscale>
<asrwt>0</asrwt>
<pdfrwt beam="1">  1        2 0.94434760E-02 0.82095669E+02</pdfrwt>
<pdfrwt beam="2">  1       -1 0.42230081E-02 0.82095669E+02</pdfrwt>
<totfact> 0.14584554E+05</totfact>
</mgrwt>
</event>
<event>
 8    1  0.2433467E-020  0.8278311E+02  0.7818608E-02  0.1321334E+00
         -1   -1    0    0    0  501 -0.00000000000E+00  0.00000000000E+00  0.56197548747E+01  0.56197571347E+01  0.50400000000E-02 0.  1.
          2   -1    0    0  501    0  0.00000000000E+00 -0.00000000000E+00 -0.30486389257E+03  0.30486389258E+03  0.25500000000E-02 0. -1.
         24    2    1    2    0    0  0.17763568394E-14  0.00000000000E+00 -0.29924413770E+03  0.31048364972E+03  0.82783106946E+02 0.  0.
         66    2    3    3    0    0 -0.13505127525E+02 -0.16579701779E+02 -0.28252272419E+03  0.28333789840E+03  0.20000022478E+01 0.  0.
        -13    1    3    3    0    0  0.13505127525E+02  0.16579701779E+02 -0.16721413509E+02  0.27145751312E+02  0.10566000000E+00 0.  1.
         13    1    4    4    0    0 -0.39786370445E+01 -0.61938846938E+01 -0.94295039828E+02  0.94582025039E+02  0.10566000000E+00 0. -1.
        -13    1    4    4    0    0 -0.63877644200E+01 -0.72803919025E+01 -0.13246892359E+03  0.13282256782E+03  0.10566000000E+00 0.  1.
        -14    1    4    4    0    0 -0.31387260602E+01 -0.31054251831E+01 -0.55758760769E+02  0.55933305546E+02  0.00000000000E+00 0.  1.
<mgrwt>
<rscale>  0 0.82783107E+02</rscale>
<asrwt>0</asrwt>
<pdfrwt beam="1">  1        2 0.46902124E-01 0.82783107E+02</pdfrwt>
<pdfrwt beam="2">  1       -1 0.86457809E-03 0.82783107E+02</pdfrwt>
<totfact> 0.23441136E+05</totfact>
</mgrwt>
</event>
<event>
 8    1  0.2433467E-020  0.7900552E+02  0.7818608E-02  0.1331898E+00
         -1   -1    0    0    0  501 -0.00000000000E+00  0.00000000000E+00  0.10039489170E+02  0.10039490435E+02  0.50400000000E-02 0.  1.
          2   -1    0    0  501    0  0.00000000000E+00 -0.00000000000E+00 -0.15543299717E+03  0.15543299720E+03  0.25500000000E-02 0. -1.
         24    2    1    2    0    0  0.00000000000E+00 -0.48572257327E-16 -0.14539350800E+03  0.16547248763E+03  0.79005518748E+02 0.  0.
         66    2    3    3    0    0 -0.38758809580E+02  0.57979700032E-01 -0.88446550883E+02  0.96586961058E+02  0.20000003860E+01 0.  0.
        -13    1    3    3    0    0  0.38758809580E+02 -0.57979700032E-01 -0.56946957121E+02  0.68885526572E+02  0.10566000000E+00 0.  1.
         13    1    4    4    0    0 -0.48175351275E+01 -0.25932211876E+00 -0.12291615044E+02  0.13204955778E+02  0.10566000000E+00 0. -1.
        -13    1    4    4    0    0 -0.47326819207E+00 -0.86291561503E-02 -0.10126757084E+01  0.11228238375E+01  0.10566000000E+00 0. -1.
         14    1    4    4    0    0 -0.33468006261E+02  0.32593097494E+00 -0.75142260131E+02  0.82259181443E+02  0.00000000000E+00 0. -1.
<mgrwt>
<rscale>  0 0.79005519E+02</rscale>
<asrwt>0</asrwt>
<pdfrwt beam="1">  1        2 0.23912767E-01 0.79005519E+02</pdfrwt>
<pdfrwt beam="2">  1       -1 0.15445370E-02 0.79005519E+02</pdfrwt>
<totfact> 0.20945020E+05</totfact>
</mgrwt>
</event>
<event>
 8    1  0.2433467E-020  0.8009898E+02  0.7818608E-02  0.1328771E+00
         -1   -1    0    0    0  501 -0.00000000000E+00  0.00000000000E+00  0.33740392819E+02  0.33740393195E+02  0.50400000000E-02 0.  1.
          2   -1    0    0  501    0  0.00000000000E+00 -0.00000000000E+00 -0.47538325417E+02  0.47538325485E+02  0.25500000000E-02 0. -1.
         24    2    1    2    0    0  0.00000000000E+00  0.00000000000E+00 -0.13797932598E+02  0.81278718681E+02  0.80098983554E+02 0.  0.
         66    2    3    3    0    0 -0.10699731332E+02 -0.10658206363E+02 -0.44515001012E+02  0.47049621856E+02  0.19999970451E+01 0.  0.
        -13    1    3    3    0    0  0.10699731332E+02  0.10658206363E+02  0.30717068414E+02  0.34229096825E+02  0.10566000000E+00 0.  1.
         13    1    4    4    0    0 -0.37478297494E+01 -0.39539016429E+01 -0.15597206834E+02  0.16521609821E+02  0.10566000000E+00 0. -1.
        -13    1    4    4    0    0 -0.69927978725E+01 -0.65194199306E+01 -0.27900321134E+02  0.29493069384E+02  0.10566000000E+00 0.  1.
        -14    1    4    4    0    0  0.40896289860E-01 -0.18488479005E+00 -0.10174730450E+01  0.10349426503E+01  0.00000000000E+00 0.  1.
<mgrwt>
<rscale>  0 0.80098984E+02</rscale>
<asrwt>0</asrwt>
<pdfrwt beam="1">  1        2 0.73135886E-02 0.80098984E+02</pdfrwt>
<pdfrwt beam="2">  1       -1 0.51908297E-02 0.80098984E+02</pdfrwt>
<totfact> 0.14730798E+05</totfact>
</mgrwt>
</event>
<event>
 8    1  0.2433467E-020  0.8071695E+02  0.7818608E-02  0.1327029E+00
          2   -1    0    0  501    0  0.00000000000E+00  0.00000000000E+00  0.15460701075E+03  0.15460701077E+03  0.25500000000E-02 0. -1.
         -1   -1    0    0    0  501 -0.00000000000E+00 -0.00000000000E+00 -0.10535140270E+02  0.10535141475E+02  0.50400000000E-02 0.  1.
         24    2    1    2    0    0 -0.35527136788E-14  0.00000000000E+00  0.14407187048E+03  0.16514215225E+03  0.80716953516E+02 0.  0.
         66    2    3    3    0    0 -0.18534582101E+02  0.11336286038E+02  0.14160471213E+03  0.14327573624E+03  0.19999956361E+01 0.  0.
        -13    1    3    3    0    0  0.18534582101E+02 -0.11336286038E+02  0.24671583545E+01  0.21866416011E+02  0.10566000000E+00 0.  1.
         13    1    4    4    0    0 -0.57675010204E+01  0.38019949116E+01  0.41687076144E+02  0.42255682633E+02  0.10566000000E+00 0. -1.
        -13    1    4    4    0    0 -0.93555371293E+01  0.48953125752E+01  0.69153048671E+02  0.69954595737E+02  0.10566000000E+00 0.  1.
        -14    1    4    4    0    0 -0.34115439516E+01  0.26389785510E+01  0.30764587314E+02  0.31065457868E+02  0.00000000000E+00 0.  1.
<mgrwt>
<rscale>  0 0.80716954E+02</rscale>
<asrwt>0</asrwt>
<pdfrwt beam="1">  1        2 0.23785696E-01 0.80716954E+02</pdfrwt>
<pdfrwt beam="2">  1       -1 0.16207908E-02 0.80716954E+02</pdfrwt>
<totfact> 0.19753901E+05</totfact>
</mgrwt>
</event>
<event>
 8    1  0.2433467E-020  0.7811100E+02  0.7818608E-02  0.1334499E+00
          2   -1    0    0  501    0  0.00000000000E+00  0.00000000000E+00  0.59519341250E+01  0.59519346712E+01  0.25500000000E-02 0. -1.
         -1   -1    0    0    0  501 -0.00000000000E+00 -0.00000000000E+00 -0.25627500123E+03  0.25627500127E+03  0.50400000000E-02 0.  1.
         24    2    1    2    0    0  0.71054273576E-14  0.17763568394E-14 -0.25032306710E+03  0.26222693595E+03  0.78110998029E+02 0.  0.
         66    2    3    3    0    0 -0.36471227111E+02 -0.93191297915E+01 -0.90625994042E+02  0.98153285123E+02  0.19999993082E+01 0.  0.
        -13    1    3    3    0    0  0.36471227111E+02  0.93191297915E+01 -0.15969707306E+03  0.16407365082E+03  0.10566000000E+00 0.  1.
         13    1    4    4    0    0 -0.75103766911E+01 -0.24443050189E+01 -0.18429395172E+02  0.20050789398E+02  0.10566000000E+00 0. -1.
        -13    1    4    4    0    0 -0.73146564440E+01 -0.11799544435E+01 -0.17723960523E+02  0.19210581252E+02  0.10566000000E+00 0.  1.
         14    1    4    4    0    0 -0.21646193976E+02 -0.56948703290E+01 -0.54472638348E+02  0.58891914473E+02  0.00000000000E+00 0. -1.
<mgrwt>
<rscale>  0 0.78110998E+02</rscale>
<asrwt>0</asrwt>
<pdfrwt beam="1">  1        2 0.91568241E-03 0.78110998E+02</pdfrwt>
<pdfrwt beam="2">  1       -1 0.39426915E-01 0.78110998E+02</pdfrwt>
<totfact> 0.97575886E+04</totfact>
</mgrwt>
</event>
<event>
 8    1  0.2433467E-020  0.8010898E+02  0.7818608E-02  0.1328742E+00
          2   -1    0    0  501    0  0.00000000000E+00  0.00000000000E+00  0.28621220593E+03  0.28621220594E+03  0.25500000000E-02 0. -1.
         -1   -1    0    0    0  501 -0.00000000000E+00 -0.00000000000E+00 -0.56054969708E+01  0.56054992365E+01  0.50400000000E-02 0.  1.
         24    2    1    2    0    0  0.00000000000E+00 -0.17763568394E-14  0.28060670895E+03  0.29181770517E+03  0.80108975416E+02 0.  0.
         66    2    3    3    0    0 -0.33930849038E+02 -0.10379534680E+02  0.72894277008E+02  0.81096318490E+02  0.19999988754E+01 0.  0.
        -13    1    3    3    0    0  0.33930849038E+02  0.10379534680E+02  0.20771243195E+03  0.21072138668E+03  0.10566000000E+00 0.  1.
         13    1    4    4    0    0 -0.73032690157E+01 -0.17013567537E+01  0.15035350296E+02  0.16801942616E+02  0.10566000000E+00 0. -1.
        -13    1    4    4    0    0 -0.21123281441E+02 -0.73291643943E+01  0.45403024281E+02  0.50609835481E+02  0.10566000000E+00 0.  1.
        -14    1    4    4    0    0 -0.55042985813E+01 -0.13490135320E+01  0.12455902431E+02  0.13684540393E+02  0.00000000000E+00 0.  1.
<mgrwt>
<rscale>  0 0.80108975E+02</rscale>
<asrwt>0</asrwt>
<pdfrwt beam="1">  1        2 0.44032656E-01 0.80108975E+02</pdfrwt>
<pdfrwt beam="2">  1       -1 0.86238415E-03 0.80108975E+02</pdfrwt>
<totfact> 0.24974311E+05</totfact>
</mgrwt>
</event>
<event>
 8    1  0.2433467E-020  0.8678619E+02  0.7818608E-02  0.1310826E+00
         -1   -1    0    0    0  501 -0.00000000000E+00  0.00000000000E+00  0.19775405017E+01  0.19775469242E+01  0.50400000000E-02 0.  1.
          2   -1    0    0  501    0  0.00000000000E+00 -0.00000000000E+00 -0.95217155188E+03  0.95217155188E+03  0.25500000000E-02 0. -1.
         24    2    1    2    0    0 -0.17763568394E-14  0.00000000000E+00 -0.95019401138E+03  0.95414909880E+03  0.86786194156E+02 0.  0.
         66    2    3    3    0    0  0.14191240669E+02  0.31327933578E+02 -0.76583930831E+03  0.76661377296E+03  0.20000005888E+01 0.  0.
        -13    1    3    3    0    0 -0.14191240669E+02 -0.31327933578E+02 -0.18435470306E+03  0.18753532585E+03  0.10566000000E+00 0.  1.
         13    1    4    4    0    0  0.41699655266E+01  0.78763131991E+01 -0.19116071479E+03  0.19136837504E+03  0.10566000000E+00 0. -1.
        -13    1    4    4    0    0  0.14400531421E+01  0.44549160301E+01 -0.10823274027E+03  0.10833400787E+03  0.10566000000E+00 0.  1.
        -14    1    4    4    0    0  0.85812220006E+01  0.18996704349E+02 -0.46644585325E+03  0.46691139005E+03  0.00000000000E+00 0.  1.
<mgrwt>
<rscale>  0 0.86786194E+02</rscale>
<asrwt>0</asrwt>
<pdfrwt beam="1">  1        2 0.14648757E+00 0.86786194E+02</pdfrwt>
<pdfrwt beam="2">  1       -1 0.30423826E-03 0.86786194E+02</pdfrwt>
<totfact> 0.28411335E+05</totfact>
</mgrwt>
</event>
<event>
 8    1  0.2433467E-020  0.8472092E+02  0.7818608E-02  0.1316164E+00
          2   -1    0    0  501    0  0.00000000000E+00  0.00000000000E+00  0.58850389993E+01  0.58850395518E+01  0.25500000000E-02 0. -1.
         -1   -1    0    0    0  501 -0.00000000000E+00 -0.00000000000E+00 -0.30491022554E+03  0.30491022558E+03  0.50400000000E-02 0.  1.
         24    2    1    2    0    0  0.00000000000E+00  0.00000000000E+00 -0.29902518654E+03  0.31079526513E+03  0.84720922113E+02 0.  0.
         66    2    3    3    0    0  0.38561919040E+02 -0.41222668875E+01 -0.87297836472E+02  0.95545418176E+02  0.19999993216E+01 0.  0.
        -13    1    3    3    0    0 -0.38561919040E+02  0.41222668875E+01 -0.21172735007E+03  0.21524984696E+03  0.10566000000E+00 0.  1.
         13    1    4    4    0    0  0.33921630604E+02 -0.34237150760E+01 -0.77802273788E+02  0.84944710362E+02  0.10566000000E+00 0. -1.
        -13    1    4    4    0    0  0.38565666571E+00 -0.97881454017E-01 -0.96341503090E+00  0.10476852582E+01  0.10566000000E+00 0. -1.
         14    1    4    4    0    0  0.42546317702E+01 -0.60067035752E+00 -0.85321476530E+01  0.95530225557E+01  0.00000000000E+00 0. -1.
<mgrwt>
<rscale>  0 0.84720922E+02</rscale>
<asrwt>0</asrwt>
<pdfrwt beam="1">  1        2 0.90539090E-03 0.84720922E+02</pdfrwt>
<pdfrwt beam="2">  1       -1 0.46909253E-01 0.84720922E+02</pdfrwt>
<totfact> 0.74105275E+04</totfact>
</mgrwt>
</event>
<event>
 8    1  0.2433467E-020  0.8029803E+02  0.7818608E-02  0.1328208E+00
         -1   -1    0    0    0  501 -0.00000000000E+00  0.00000000000E+00  0.65307033279E+01  0.65307052727E+01  0.50400000000E-02 0.  1.
          2   -1    0    0  501    0  0.00000000000E+00 -0.00000000000E+00 -0.24682535147E+03  0.24682535148E+03  0.25500000000E-02 0. -1.
         24    2    1    2    0    0 -0.44408920985E-15  0.00000000000E+00 -0.24029464814E+03  0.25335605676E+03  0.80298029672E+02 0.  0.
         66    2    3    3    0    0 -0.23871686174E+01  0.21596181519E+02 -0.22665259623E+03  0.22770044578E+03  0.20000001535E+01 0.  0.
        -13    1    3    3    0    0  0.23871686174E+01 -0.21596181519E+02 -0.13642051917E+02  0.25655610980E+02  0.10566000000E+00 0.  1.
         13    1    4    4    0    0 -0.12526333914E+01  0.15569270580E+02 -0.16359319015E+03  0.16433719696E+03  0.10566000000E+00 0. -1.
        -13    1    4    4    0    0  0.90604785881E-01  0.14125889364E+01 -0.13498086939E+02  0.13572513834E+02  0.10566000000E+00 0.  1.
        -14    1    4    4    0    0 -0.12251400118E+01  0.46143220030E+01 -0.49561319134E+02  0.49790734980E+02  0.00000000000E+00 0.  1.
<mgrwt>
<rscale>  0 0.80298030E+02</rscale>
<asrwt>0</asrwt>
<pdfrwt beam="1">  1        2 0.37973124E-01 0.80298030E+02</pdfrwt>
<pdfrwt beam="2">  1       -1 0.10047239E-02 0.80298030E+02</pdfrwt>
<totfact> 0.23528193E+05</totfact>
</mgrwt>
</event>
<event>
 8    1  0.2433467E-020  0.7906083E+02  0.7818608E-02  0.1331738E+00
         -1   -1    0    0    0  501 -0.00000000000E+00  0.00000000000E+00  0.19703290776E+02  0.19703291421E+02  0.50400000000E-02 0.  1.
          2   -1    0    0  501    0  0.00000000000E+00 -0.00000000000E+00 -0.79309283153E+02  0.79309283194E+02  0.25500000000E-02 0. -1.
         24    2    1    2    0    0  0.00000000000E+00  0.35527136788E-14 -0.59605992376E+02  0.99012574614E+02  0.79060834834E+02 0.  0.
         66    2    3    3    0    0 -0.28318253645E+02 -0.27530111412E+02 -0.30954987665E+02  0.50219934197E+02  0.20000013761E+01 0.  0.
        -13    1    3    3    0    0  0.28318253645E+02  0.27530111412E+02 -0.28651004711E+02  0.48792640418E+02  0.10566000000E+00 0.  1.
         13    1    4    4    0    0 -0.55741278422E+01 -0.48948846111E+01 -0.59839427755E+01  0.95315020711E+01  0.10566000000E+00 0. -1.
        -13    1    4    4    0    0 -0.11676225016E+02 -0.12568240470E+02 -0.13789912115E+02  0.22010627872E+02  0.10566000000E+00 0.  1.
        -14    1    4    4    0    0 -0.11067900787E+02 -0.10066986332E+02 -0.11181132774E+02  0.18677804254E+02  0.00000000000E+00 0.  1.
<mgrwt>
<rscale>  0 0.79060835E+02</rscale>
<asrwt>0</asrwt>
<pdfrwt beam="1">  1        2 0.12201428E-01 0.79060835E+02</pdfrwt>
<pdfrwt beam="2">  1       -1 0.30312756E-02 0.79060835E+02</pdfrwt>
<totfact> 0.17197168E+05</totfact>
</mgrwt>
</event>
<event>
 8    1  0.2433467E-020  0.8150156E+02  0.7818608E-02  0.1324843E+00
          2   -1    0    0  501    0  0.00000000000E+00  0.00000000000E+00  0.17081463674E+04  0.17081463674E+04  0.25500000000E-02 0. -1.
         -1   -1    0    0    0  501 -0.00000000000E+00 -0.00000000000E+00 -0.97217364800E+00  0.97218671224E+00  0.50400000000E-02 0.  1.
         24    2    1    2    0    0  0.00000000000E+00 -0.44408920985E-15  0.17071741938E+04  0.17091185542E+04  0.81501559522E+02 0.  0.
         66    2    3    3    0    0  0.14655286249E+02  0.25427628977E+01  0.16491447827E+04  0.16492130721E+04  0.19999981284E+01 0.  0.
        -13    1    3    3    0    0 -0.14655286249E+02 -0.25427628977E+01  0.58029411093E+02  0.59905482003E+02  0.10566000000E+00 0.  1.
         13    1    4    4    0    0  0.45663168828E+01  0.50216675113E+00  0.56093745236E+03  0.56095627284E+03  0.10566000000E+00 0. -1.
        -13    1    4    4    0    0  0.20169472644E+01  0.35578443748E+00  0.27566718043E+03  0.27567480877E+03  0.10566000000E+00 0.  1.
        -14    1    4    4    0    0  0.80720221014E+01  0.16848117091E+01  0.81254014991E+03  0.81258199054E+03  0.00000000000E+00 0.  1.
<mgrwt>
<rscale>  0 0.81501560E+02</rscale>
<asrwt>0</asrwt>
<pdfrwt beam="1">  1        2 0.26278796E+00 0.81501560E+02</pdfrwt>
<pdfrwt beam="2">  1       -1 0.14956834E-03 0.81501560E+02</pdfrwt>
<totfact> 0.29769934E+05</totfact>
</mgrwt>
</event>
<event>
 8    1  0.2433467E-020  0.8318130E+02  0.7818608E-02  0.1320258E+00
          2   -1    0    0  501    0  0.00000000000E+00  0.00000000000E+00  0.53998465238E+02  0.53998465298E+02  0.25500000000E-02 0. -1.
         -1   -1    0    0    0  501 -0.00000000000E+00 -0.00000000000E+00 -0.32033916653E+02  0.32033917049E+02  0.50400000000E-02 0.  1.
         24    2    1    2    0    0  0.00000000000E+00  0.88817841970E-15  0.21964548585E+02  0.86032382347E+02  0.83181304497E+02 0.  0.
         66    2    3    3    0    0  0.40932831231E+02  0.64585809000E+01  0.76264296412E+01  0.42182607448E+02  0.20000005710E+01 0.  0.
        -13    1    3    3    0    0 -0.40932831231E+02 -0.64585809000E+01  0.14338118944E+02  0.43849774899E+02  0.10566000000E+00 0.  1.
         13    1    4    4    0    0  0.28074477217E+01  0.71351489056E+00  0.81725596144E+00  0.30116337014E+01  0.10566000000E+00 0. -1.
        -13    1    4    4    0    0  0.21509873902E+02  0.34511366017E+01  0.44106832736E+01  0.22227242522E+02  0.10566000000E+00 0.  1.
        -14    1    4    4    0    0  0.16615509606E+02  0.22939294078E+01  0.23984904061E+01  0.16943731225E+02  0.00000000000E+00 0.  1.
<mgrwt>
<rscale>  0 0.83181304E+02</rscale>
<asrwt>0</asrwt>
<pdfrwt beam="1">  1        2 0.83074562E-02 0.83181304E+02</pdfrwt>
<pdfrwt beam="2">  1       -1 0.49282949E-02 0.83181304E+02</pdfrwt>
<totfact> 0.13658792E+05</totfact>
</mgrwt>
</event>
<event>
 8    1  0.2433467E-020  0.7946915E+02  0.7818608E-02  0.1330565E+00
         -1   -1    0    0    0  501 -0.00000000000E+00  0.00000000000E+00  0.77094584116E+01  0.77094600590E+01  0.50400000000E-02 0.  1.
          2   -1    0    0  501    0  0.00000000000E+00 -0.00000000000E+00 -0.20479212823E+03  0.20479212824E+03  0.25500000000E-02 0. -1.
         24    2    1    2    0    0 -0.35527136788E-14 -0.35527136788E-14 -0.19708266981E+03  0.21250158830E+03  0.79469153067E+02 0.  0.
         66    2    3    3    0    0  0.19036978077E+02  0.16953060848E+02 -0.18001922000E+03  0.18182610477E+03  0.19999997693E+01 0.  0.
        -13    1    3    3    0    0 -0.19036978077E+02 -0.16953060848E+02 -0.17063449814E+02  0.30675483533E+02  0.10566000000E+00 0.  1.
         13    1    4    4    0    0  0.13297410810E+02  0.10979136434E+02 -0.12014792302E+03  0.12137914623E+03  0.10566000000E+00 0. -1.
        -13    1    4    4    0    0  0.46857317677E+01  0.47169025516E+01 -0.45750877203E+02  0.46231582071E+02  0.10566000000E+00 0.  1.
         14    1    4    4    0    0  0.10538354985E+01  0.12570218622E+01 -0.14120419783E+02  0.14215376466E+02  0.00000000000E+00 0. -1.
<mgrwt>
<rscale>  0 0.79469153E+02</rscale>
<asrwt>0</asrwt>
<pdfrwt beam="1">  1        2 0.31506477E-01 0.79469153E+02</pdfrwt>
<pdfrwt beam="2">  1       -1 0.11860708E-02 0.79469153E+02</pdfrwt>
<totfact> 0.22634963E+05</totfact>
</mgrwt>
</event>
<event>
 8    1  0.2433467E-020  0.7970299E+02  0.7818608E-02  0.1329896E+00
         -1   -1    0    0    0  501 -0.00000000000E+00  0.00000000000E+00  0.19117915747E+01  0.19117982181E+01  0.50400000000E-02 0.  1.
          2   -1    0    0  501    0  0.00000000000E+00 -0.00000000000E+00 -0.83070713158E+03  0.83070713158E+03  0.25500000000E-02 0. -1.
         24    2    1    2    0    0 -0.13877787808E-16 -0.35527136788E-14 -0.82879534000E+03  0.83261892980E+03  0.79702990221E+02 0.  0.
         66    2    3    3    0    0 -0.67556000045E-01 -0.28684567343E+02 -0.70327838279E+03  0.70386596215E+03  0.20000002775E+01 0.  0.
        -13    1    3    3    0    0  0.67556000045E-01  0.28684567343E+02 -0.12551695721E+03  0.12875296765E+03  0.10566000000E+00 0.  1.
         13    1    4    4    0    0  0.43822473576E+00 -0.17223788027E+02 -0.40304012552E+03  0.40340823598E+03  0.10566000000E+00 0. -1.
        -13    1    4    4    0    0 -0.38549111639E+00 -0.76903419454E+01 -0.20697403041E+03  0.20711723828E+03  0.10566000000E+00 0.  1.
        -14    1    4    4    0    0 -0.12028961941E+00 -0.37704373703E+01 -0.93264226863E+02  0.93340487892E+02  0.00000000000E+00 0.  1.
<mgrwt>
<rscale>  0 0.79702990E+02</rscale>
<asrwt>0</asrwt>
<pdfrwt beam="1">  1        2 0.12780081E+00 0.79702990E+02</pdfrwt>
<pdfrwt beam="2">  1       -1 0.29412296E-03 0.79702990E+02</pdfrwt>
<totfact> 0.34913218E+05</totfact>
</mgrwt>
</event>
<event>
 8    1  0.2433467E-020  0.8054960E+02  0.7818608E-02  0.1327499E+00
          2   -1    0    0  501    0  0.00000000000E+00  0.00000000000E+00  0.10944051853E+03  0.10944051856E+03  0.25500000000E-02 0. -1.
         -1   -1    0    0    0  501 -0.00000000000E+00 -0.00000000000E+00 -0.14821378101E+02  0.14821378958E+02  0.50400000000E-02 0.  1.
         24    2    1    2    0    0 -0.55511151231E-16 -0.35527136788E-14  0.94619140427E+02  0.12426189752E+03  0.80549596145E+02 0.  0.
         66    2    3    3    0    0 -0.28665345856E+00  0.22555693407E+02  0.98763531260E+02  0.10132658381E+03  0.20000011829E+01 0.  0.
        -13    1    3    3    0    0  0.28665345856E+00 -0.22555693407E+02 -0.41443908333E+01  0.22935313704E+02  0.10566000000E+00 0.  1.
         13    1    4    4    0    0 -0.78229163493E+00  0.16805921542E+02  0.71838560322E+02  0.73782388768E+02  0.10566000000E+00 0. -1.
        -13    1    4    4    0    0  0.54558575953E+00  0.52037343443E+01  0.23504865105E+02  0.24080414502E+02  0.10566000000E+00 0.  1.
        -14    1    4    4    0    0 -0.49947583156E-01  0.54603752031E+00  0.34201058332E+01  0.34637805423E+01  0.00000000000E+00 0.  1.
<mgrwt>
<rscale>  0 0.80549596E+02</rscale>
<asrwt>0</asrwt>
<pdfrwt beam="1">  1        2 0.16837002E-01 0.80549596E+02</pdfrwt>
<pdfrwt beam="2">  1       -1 0.22802122E-02 0.80549596E+02</pdfrwt>
<totfact> 0.17856989E+05</totfact>
</mgrwt>
</event>
<event>
 8    1  0.2433467E-020  0.7896590E+02  0.7818608E-02  0.1332012E+00
          2   -1    0    0  501    0  0.00000000000E+00  0.00000000000E+00  0.35132665526E+03  0.35132665527E+03  0.25500000000E-02 0. -1.
         -1   -1    0    0    0  501 -0.00000000000E+00 -0.00000000000E+00 -0.44371887763E+01  0.44371916386E+01  0.50400000000E-02 0.  1.
         24    2    1    2    0    0  0.27755575616E-16  0.00000000000E+00  0.34688946648E+03  0.35576384691E+03  0.78965896495E+02 0.  0.
         66    2    3    3    0    0  0.23393214089E+00  0.23108907925E+02  0.31764183885E+03  0.31848769856E+03  0.19999982317E+01 0.  0.
        -13    1    3    3    0    0 -0.23393214089E+00 -0.23108907925E+02  0.29247627628E+02  0.37276148348E+02  0.10566000000E+00 0.  1.
         13    1    4    4    0    0  0.37580368974E+00  0.86812503688E+01  0.10891416186E+03  0.10926029084E+03  0.10566000000E+00 0. -1.
        -13    1    4    4    0    0 -0.42407462262E+00  0.51347003273E+01  0.75959041397E+02  0.76133646444E+02  0.10566000000E+00 0.  1.
         14    1    4    4    0    0  0.28220307378E+00  0.92929572287E+01  0.13276863559E+03  0.13309376127E+03  0.00000000000E+00 0. -1.
<mgrwt>
<rscale>  0 0.78965896E+02</rscale>
<asrwt>0</asrwt>
<pdfrwt beam="1">  1        2 0.54050265E-01 0.78965896E+02</pdfrwt>
<pdfrwt beam="2">  1       -1 0.68264452E-03 0.78965896E+02</pdfrwt>
<totfact> 0.27919829E+05</totfact>
</mgrwt>
</event>
<event>
 8    1  0.2433467E-020  0.7683755E+02  0.7818608E-02  0.1338273E+00
          2   -1    0    0  501    0  0.00000000000E+00  0.00000000000E+00  0.21402397962E+04  0.21402397962E+04  0.25500000000E-02 0. -1.
         -1   -1    0    0    0  501 -0.00000000000E+00 -0.00000000000E+00 -0.68963418934E+00  0.68965260581E+00  0.50400000000E-02 0.  1.
         24    2    1    2    0    0  0.17763568394E-14  0.00000000000E+00  0.21395501620E+04  0.21409294488E+04  0.76837549484E+02 0.  0.
         66    2    3    3    0    0  0.15316118137E+02 -0.30954717860E+01  0.20476264512E+04  0.20476870486E+04  0.19999984180E+01 0.  0.
        -13    1    3    3    0    0 -0.15316118137E+02  0.30954717860E+01  0.91923710842E+02  0.93242400223E+02  0.10566000000E+00 0.  1.
         13    1    4    4    0    0  0.56581493414E+00 -0.12585473606E+00  0.94530617622E+02  0.94532453782E+02  0.10566000000E+00 0. -1.
        -13    1    4    4    0    0  0.11439449541E+02 -0.20747562435E+01  0.15930707929E+04  0.15931132188E+04  0.10566000000E+00 0.  1.
        -14    1    4    4    0    0  0.33108536614E+01 -0.89486080637E+00  0.36002504067E+03  0.36004137601E+03  0.00000000000E+00 0.  1.
<mgrwt>
<rscale>  0 0.76837549E+02</rscale>
<asrwt>0</asrwt>
<pdfrwt beam="1">  1        2 0.32926758E+00 0.76837549E+02</pdfrwt>
<pdfrwt beam="2">  1       -1 0.10609901E-03 0.76837549E+02</pdfrwt>
<totfact> 0.28785889E+05</totfact>
</mgrwt>
</event>
<event>
 8    1  0.2433467E-020  0.7979756E+02  0.7818608E-02  0.1329627E+00
          2   -1    0    0  501    0  0.00000000000E+00  0.00000000000E+00  0.63026708681E+03  0.63026708681E+03  0.25500000000E-02 0. -1.
         -1   -1    0    0    0  501 -0.00000000000E+00 -0.00000000000E+00 -0.25257721724E+01  0.25257772008E+01  0.50400000000E-02 0.  1.
         24    2    1    2    0    0  0.35527136788E-14  0.00000000000E+00  0.62774131463E+03  0.63279286401E+03  0.79797560405E+02 0.  0.
         66    2    3    3    0    0 -0.27190845338E+02 -0.12718415868E+02  0.52219066822E+03  0.52305658790E+03  0.19999995303E+01 0.  0.
        -13    1    3    3    0    0  0.27190845338E+02  0.12718415868E+02  0.10555064642E+03  0.10973627612E+03  0.10566000000E+00 0.  1.
         13    1    4    4    0    0 -0.79487114443E+01 -0.40200763455E+01  0.16253266538E+03  0.16277660000E+03  0.10566000000E+00 0. -1.
        -13    1    4    4    0    0 -0.52563985712E+01 -0.17247614687E+01  0.94195317483E+02  0.94357689289E+02  0.10566000000E+00 0.  1.
        -14    1    4    4    0    0 -0.13985735323E+02 -0.69735780540E+01  0.26546268535E+03  0.26592229861E+03  0.00000000000E+00 0.  1.
<mgrwt>
<rscale>  0 0.79797560E+02</rscale>
<asrwt>0</asrwt>
<pdfrwt beam="1">  1        2 0.96964200E-01 0.79797560E+02</pdfrwt>
<pdfrwt beam="2">  1       -1 0.38858059E-03 0.79797560E+02</pdfrwt>
<totfact> 0.32811315E+05</totfact>
</mgrwt>
</event>
<event>
 8    1  0.2433467E-020  0.7959931E+02  0.7818608E-02  0.1330192E+00
          2   -1    0    0  501    0  0.00000000000E+00  0.00000000000E+00  0.29145866337E+03  0.29145866338E+03  0.25500000000E-02 0. -1.
         -1   -1    0    0    0  501 -0.00000000000E+00 -0.00000000000E+00 -0.54347754014E+01  0.54347777384E+01  0.50400000000E-02 0.  1.
         24    2    1    2    0    0  0.00000000000E+00  0.00000000000E+00  0.28602388797E+03  0.29689344112E+03  0.79599314640E+02 0.  0.
         66    2    3    3    0    0 -0.20288214058E+01  0.27565944264E+02  0.24977894844E+03  0.25131160038E+03  0.20000009906E+01 0.  0.
        -13    1    3    3    0    0  0.20288214058E+01 -0.27565944264E+02  0.36244939529E+02  0.45581840737E+02  0.10566000000E+00 0.  1.
         13    1    4    4    0    0 -0.89046450849E+00  0.74905343988E+01  0.71780512853E+02  0.72175856227E+02  0.10566000000E+00 0. -1.
        -13    1    4    4    0    0 -0.56242325958E+00  0.17441506809E+02  0.15570525355E+03  0.15668011880E+03  0.10566000000E+00 0.  1.
        -14    1    4    4    0    0 -0.57593363774E+00  0.26339030564E+01  0.22293182037E+02  0.22455625358E+02  0.00000000000E+00 0.  1.
<mgrwt>
<rscale>  0 0.79599315E+02</rscale>
<asrwt>0</asrwt>
<pdfrwt beam="1">  1        2 0.44839784E-01 0.79599315E+02</pdfrwt>
<pdfrwt beam="2">  1       -1 0.83611967E-03 0.79599315E+02</pdfrwt>
<totfact> 0.25563538E+05</totfact>
</mgrwt>
</event>
<event>
 8    1  0.2433467E-020  0.8002755E+02  0.7818608E-02  0.1328973E+00
         -1   -1    0    0    0  501 -0.00000000000E+00  0.00000000000E+00  0.13888980901E+01  0.13889072346E+01  0.50400000000E-02 0.  1.
          2   -1    0    0  501    0  0.00000000000E+00 -0.00000000000E+00 -0.11527820608E+04  0.11527820608E+04  0.25500000000E-02 0. -1.
         24    2    1    2    0    0  0.00000000000E+00  0.00000000000E+00 -0.11513931627E+04  0.11541709680E+04  0.80027547290E+02 0.  0.
         66    2    3    3    0    0  0.10843879640E+02 -0.21571379612E+02 -0.10357996980E+04  0.10360829738E+04  0.19999996951E+01 0.  0.
        -13    1    3    3    0    0 -0.10843879640E+02  0.21571379612E+02 -0.11559346465E+03  0.11808799421E+03  0.10566000000E+00 0.  1.
         13    1    4    4    0    0  0.13391609768E+00 -0.39577581726E+00 -0.13291841686E+02  0.13298826695E+02  0.10566000000E+00 0.  1.
        -13    1    4    4    0    0  0.80047699517E+01 -0.15218019882E+02 -0.76429195172E+03  0.76448535833E+03  0.10566000000E+00 0. -1.
         14    1    4    4    0    0  0.27051935908E+01 -0.59575839121E+01 -0.25821590464E+03  0.25829878879E+03  0.00000000000E+00 0. -1.
<mgrwt>
<rscale>  0 0.80027547E+02</rscale>
<asrwt>0</asrwt>
<pdfrwt beam="1">  1        2 0.17735032E+00 0.80027547E+02</pdfrwt>
<pdfrwt beam="2">  1       -1 0.21367825E-03 0.80027547E+02</pdfrwt>
<totfact> 0.35135121E+05</totfact>
</mgrwt>
</event>
<event>
 8    1  0.2433467E-020  0.7751608E+02  0.7818608E-02  0.1336252E+00
         -1   -1    0    0    0  501 -0.00000000000E+00  0.00000000000E+00  0.16302774133E+02  0.16302774913E+02  0.50400000000E-02 0.  1.
          2   -1    0    0  501    0  0.00000000000E+00 -0.00000000000E+00 -0.92142945352E+02  0.92142945387E+02  0.25500000000E-02 0. -1.
         24    2    1    2    0    0 -0.35527136788E-14  0.00000000000E+00 -0.75840171218E+02  0.10844572030E+03  0.77516080144E+02 0.  0.
         66    2    3    3    0    0  0.28823846568E+02 -0.13373675119E+02 -0.68929807647E+02  0.75927516076E+02  0.19999995132E+01 0.  0.
        -13    1    3    3    0    0 -0.28823846568E+02  0.13373675119E+02 -0.69103635716E+01  0.32518204224E+02  0.10566000000E+00 0.  1.
         13    1    4    4    0    0  0.10886351995E+02 -0.48552658033E+01 -0.26821875055E+02  0.29351497599E+02  0.10566000000E+00 0. -1.
        -13    1    4    4    0    0  0.39368731141E+01 -0.20533627674E+01 -0.81857592645E+01  0.93130600418E+01  0.10566000000E+00 0.  1.
        -14    1    4    4    0    0  0.14000621460E+02 -0.64650465487E+01 -0.33922173327E+02  0.37262958435E+02  0.00000000000E+00 0.  1.
<mgrwt>
<rscale>  0 0.77516080E+02</rscale>
<asrwt>0</asrwt>
<pdfrwt beam="1">  1        2 0.14175837E-01 0.77516080E+02</pdfrwt>
<pdfrwt beam="2">  1       -1 0.25081192E-02 0.77516080E+02</pdfrwt>
<totfact> 0.18858941E+05</totfact>
</mgrwt>
</event>
<event>
 8    1  0.2433467E-020  0.7912229E+02  0.7818608E-02  0.1331561E+00
         -1   -1    0    0    0  501 -0.00000000000E+00  0.00000000000E+00  0.39430421916E+02  0.39430422238E+02  0.50400000000E-02 0.  1.
          2   -1    0    0  501    0  0.00000000000E+00 -0.00000000000E+00 -0.39692297863E+02  0.39692297945E+02  0.25500000000E-02 0. -1.
         24    2    1    2    0    0  0.00000000000E+00  0.35527136788E-14 -0.26187594744E+00  0.79122720183E+02  0.79122286810E+02 0.  0.
         66    2    3    3    0    0  0.42398155947E+01 -0.31694466717E+02 -0.23381178061E+02  0.39663519088E+02  0.20000005311E+01 0.  0.
        -13    1    3    3    0    0 -0.42398155947E+01  0.31694466717E+02  0.23119302114E+02  0.39459201095E+02  0.10566000000E+00 0.  1.
         13    1    4    4    0    0  0.24893127746E+01 -0.18853398250E+02 -0.14429215645E+02  0.23871755944E+02  0.10566000000E+00 0. -1.
        -13    1    4    4    0    0  0.12728809441E+00 -0.42384872990E+01 -0.25912497237E+01  0.49705850771E+01  0.10566000000E+00 0.  1.
        -14    1    4    4    0    0  0.16232147257E+01 -0.86025811683E+01 -0.63607126924E+01  0.10821178067E+02  0.00000000000E+00 0.  1.
<mgrwt>
<rscale>  0 0.79122287E+02</rscale>
<asrwt>0</asrwt>
<pdfrwt beam="1">  1        2 0.61065074E-02 0.79122287E+02</pdfrwt>
<pdfrwt beam="2">  1       -1 0.60662188E-02 0.79122287E+02</pdfrwt>
<totfact> 0.14673178E+05</totfact>
</mgrwt>
</event>
<event>
 8    1  0.2433467E-020  0.7996990E+02  0.7818608E-02  0.1329137E+00
          2   -1    0    0  501    0  0.00000000000E+00  0.00000000000E+00  0.22967600742E+03  0.22967600743E+03  0.25500000000E-02 0. -1.
         -1   -1    0    0    0  501 -0.00000000000E+00 -0.00000000000E+00 -0.69610926322E+01  0.69610944567E+01  0.50400000000E-02 0.  1.
         24    2    1    2    0    0  0.00000000000E+00  0.00000000000E+00  0.22271491479E+03  0.23663710189E+03  0.79969898852E+02 0.  0.
         66    2    3    3    0    0  0.70427590652E+01 -0.30945119920E+02  0.18327769069E+03  0.18601589378E+03  0.19999829115E+01 0.  0.
        -13    1    3    3    0    0 -0.70427590652E+01  0.30945119920E+02  0.39437224096E+02  0.50621208110E+02  0.10566000000E+00 0.  1.
         13    1    4    4    0    0  0.58605444415E+01 -0.24010284662E+02  0.14214358665E+03  0.14427629791E+03  0.10566000000E+00 0. -1.
        -13    1    4    4    0    0  0.79127275981E+00 -0.54971977057E+01  0.30512651401E+02  0.31014163777E+02  0.10566000000E+00 0.  1.
        -14    1    4    4    0    0  0.39094186387E+00 -0.14376375518E+01  0.10621452646E+02  0.10725432093E+02  0.00000000000E+00 0.  1.
<mgrwt>
<rscale>  0 0.79969899E+02</rscale>
<asrwt>0</asrwt>
<pdfrwt beam="1">  1        2 0.35334765E-01 0.79969899E+02</pdfrwt>
<pdfrwt beam="2">  1       -1 0.10709376E-02 0.79969899E+02</pdfrwt>
<totfact> 0.23180286E+05</totfact>
</mgrwt>
</event>
<event>
 8    1  0.2433467E-020  0.7891022E+02  0.7818608E-02  0.1332173E+00
         -1   -1    0    0    0  501 -0.00000000000E+00  0.00000000000E+00  0.65782968556E+01  0.65782987863E+01  0.50400000000E-02 0.  1.
          2   -1    0    0  501    0  0.00000000000E+00 -0.00000000000E+00 -0.23664262545E+03  0.23664262546E+03  0.25500000000E-02 0. -1.
         24    2    1    2    0    0  0.00000000000E+00  0.44408920985E-15 -0.23006432859E+03  0.24322092425E+03  0.78910219246E+02 0.  0.
         66    2    3    3    0    0  0.39353028171E+02 -0.22966877535E+01 -0.11240975061E+03  0.11913810317E+03  0.19999988395E+01 0.  0.
        -13    1    3    3    0    0 -0.39353028171E+02  0.22966877535E+01 -0.11765457799E+03  0.12408282108E+03  0.10566000000E+00 0.  1.
         13    1    4    4    0    0  0.17336919548E+02 -0.41137101703E+00 -0.51177320554E+02  0.54035796549E+02  0.10566000000E+00 0.  1.
        -13    1    4    4    0    0  0.30774269606E+01 -0.10619798279E-01 -0.86919892744E+01  0.92213074485E+01  0.10566000000E+00 0. -1.
         14    1    4    4    0    0  0.18938681663E+02 -0.18746969382E+01 -0.52540440780E+02  0.55880999177E+02  0.00000000000E+00 0. -1.
<mgrwt>
<rscale>  0 0.78910219E+02</rscale>
<asrwt>0</asrwt>
<pdfrwt beam="1">  1        2 0.36406551E-01 0.78910219E+02</pdfrwt>
<pdfrwt beam="2">  1       -1 0.10120460E-02 0.78910219E+02</pdfrwt>
<totfact> 0.24264209E+05</totfact>
</mgrwt>
</event>
<event>
 8    1  0.2433467E-020  0.7911794E+02  0.7818608E-02  0.1331573E+00
          2   -1    0    0  501    0  0.00000000000E+00  0.00000000000E+00  0.66274929210E+03  0.66274929210E+03  0.25500000000E-02 0. -1.
         -1   -1    0    0    0  501 -0.00000000000E+00 -0.00000000000E+00 -0.23612402344E+01  0.23612456132E+01  0.50400000000E-02 0.  1.
         24    2    1    2    0    0  0.00000000000E+00 -0.71054273576E-14  0.66038805186E+03  0.66511053772E+03  0.79117939412E+02 0.  0.
         66    2    3    3    0    0  0.12706566784E+02 -0.31689987403E+02  0.49794529942E+03  0.49911845619E+03  0.19999906691E+01 0.  0.
        -13    1    3    3    0    0 -0.12706566784E+02  0.31689987403E+02  0.16244275245E+03  0.16599208152E+03  0.10566000000E+00 0.  1.
         13    1    4    4    0    0  0.56226091189E+01 -0.13644902426E+02  0.22607250630E+03  0.22655371629E+03  0.10566000000E+00 0. -1.
        -13    1    4    4    0    0  0.51861456505E+01 -0.12046887685E+02  0.18196937944E+03  0.18244146959E+03  0.10566000000E+00 0.  1.
        -14    1    4    4    0    0  0.18978120141E+01 -0.59981972914E+01  0.89903413671E+02  0.90123270307E+02  0.00000000000E+00 0.  1.
<mgrwt>
<rscale>  0 0.79117939E+02</rscale>
<asrwt>0</asrwt>
<pdfrwt beam="1">  1        2 0.10196143E+00 0.79117939E+02</pdfrwt>
<pdfrwt beam="2">  1       -1 0.36326816E-03 0.79117939E+02</pdfrwt>
<totfact> 0.33983309E+05</totfact>
</mgrwt>
</event>
<event>
 8    1  0.2433467E-020  0.8065557E+02  0.7818608E-02  0.1327201E+00
         -1   -1    0    0    0  501 -0.00000000000E+00  0.00000000000E+00  0.32908826458E+01  0.32908865052E+01  0.50400000000E-02 0.  1.
          2   -1    0    0  501    0  0.00000000000E+00 -0.00000000000E+00 -0.49419246277E+03  0.49419246278E+03  0.25500000000E-02 0. -1.
         24    2    1    2    0    0  0.00000000000E+00 -0.35527136788E-14 -0.49090158013E+03  0.49748334929E+03  0.80655572928E+02 0.  0.
         66    2    3    3    0    0 -0.21145086944E+02 -0.24412461941E+02 -0.39430534621E+03  0.39563087474E+03  0.19999994870E+01 0.  0.
        -13    1    3    3    0    0  0.21145086944E+02  0.24412461941E+02 -0.96596233919E+02  0.10185247455E+03  0.10566000000E+00 0.  1.
         13    1    4    4    0    0 -0.20513901142E+01 -0.22431857899E+01 -0.36381615670E+02  0.36508536080E+02  0.10566000000E+00 0. -1.
        -13    1    4    4    0    0 -0.11416713348E+02 -0.14364824246E+02 -0.23048469254E+03  0.23121395757E+03  0.10566000000E+00 0.  1.
        -14    1    4    4    0    0 -0.76769834822E+01 -0.78044519051E+01 -0.12743903800E+03  0.12790838109E+03  0.00000000000E+00 0.  1.
<mgrwt>
<rscale>  0 0.80655573E+02</rscale>
<asrwt>0</asrwt>
<pdfrwt beam="1">  1        2 0.76029551E-01 0.80655573E+02</pdfrwt>
<pdfrwt beam="2">  1       -1 0.50629033E-03 0.80655573E+02</pdfrwt>
<totfact> 0.29699010E+05</totfact>
</mgrwt>
</event>
<event>
 8    1  0.2433467E-020  0.7974421E+02  0.7818608E-02  0.1329779E+00
          2   -1    0    0  501    0  0.00000000000E+00  0.00000000000E+00  0.18629873873E+03  0.18629873875E+03  0.25500000000E-02 0. -1.
         -1   -1    0    0    0  501 -0.00000000000E+00 -0.00000000000E+00 -0.85335233674E+01  0.85335248558E+01  0.50400000000E-02 0.  1.
         24    2    1    2    0    0  0.00000000000E+00  0.00000000000E+00  0.17776521536E+03  0.19483226360E+03  0.79744210748E+02 0.  0.
         66    2    3    3    0    0  0.24983228921E+02 -0.92377821121E+01  0.16134503041E+03  0.16354117887E+03  0.20000007418E+01 0.  0.
        -13    1    3    3    0    0 -0.24983228921E+02  0.92377821121E+01  0.16420184948E+02  0.31291084727E+02  0.10566000000E+00 0.  1.
         13    1    4    4    0    0  0.23081301178E+01 -0.84933680806E+00  0.12465354670E+02  0.12706103601E+02  0.10566000000E+00 0. -1.
        -13    1    4    4    0    0  0.40078628279E+01 -0.19261540540E+01  0.28753093060E+02  0.29095095092E+02  0.10566000000E+00 0.  1.
         14    1    4    4    0    0  0.18667235975E+02 -0.64622912501E+01  0.12012658268E+03  0.12173998018E+03  0.00000000000E+00 0. -1.
<mgrwt>
<rscale>  0 0.79744211E+02</rscale>
<asrwt>0</asrwt>
<pdfrwt beam="1">  1        2 0.28661344E-01 0.79744211E+02</pdfrwt>
<pdfrwt beam="2">  1       -1 0.13128499E-02 0.79744211E+02</pdfrwt>
<totfact> 0.21708212E+05</totfact>
</mgrwt>
</event>
<event>
 8    1  0.2433467E-020  0.8010226E+02  0.7818608E-02  0.1328761E+00
         -1   -1    0    0    0  501 -0.00000000000E+00  0.00000000000E+00  0.60018032958E+01  0.60018054120E+01  0.50400000000E-02 0.  1.
          2   -1    0    0  501    0  0.00000000000E+00 -0.00000000000E+00 -0.26726844260E+03  0.26726844262E+03  0.25500000000E-02 0. -1.
         24    2    1    2    0    0  0.00000000000E+00 -0.27755575616E-16 -0.26126663931E+03  0.27327024803E+03  0.80102257409E+02 0.  0.
         66    2    3    3    0    0  0.33261013689E+02 -0.19378276155E+00 -0.20667389163E+03  0.20934285291E+03  0.19999999478E+01 0.  0.
        -13    1    3    3    0    0 -0.33261013689E+02  0.19378276155E+00 -0.54592747674E+02  0.63927395113E+02  0.10566000000E+00 0.  1.
         13    1    4    4    0    0  0.16683771821E+01  0.67864524065E-01 -0.90385268535E+01  0.91920737449E+01  0.10566000000E+00 0. -1.
        -13    1    4    4    0    0  0.16424020912E+02 -0.91164355593E+00 -0.10262387031E+03  0.10393387070E+03  0.10566000000E+00 0.  1.
        -14    1    4    4    0    0  0.15168615594E+02  0.64999627032E+00 -0.95011494470E+02  0.96216908471E+02  0.00000000000E+00 0.  1.
<mgrwt>
<rscale>  0 0.80102257E+02</rscale>
<asrwt>0</asrwt>
<pdfrwt beam="1">  1        2 0.41118213E-01 0.80102257E+02</pdfrwt>
<pdfrwt beam="2">  1       -1 0.92335473E-03 0.80102257E+02</pdfrwt>
<totfact> 0.24367846E+05</totfact>
</mgrwt>
</event>
<event>
 8    1  0.2433467E-020  0.7893657E+02  0.7818608E-02  0.1332097E+00
         -1   -1    0    0    0  501 -0.00000000000E+00  0.00000000000E+00  0.10008430041E+01  0.10008556942E+01  0.50400000000E-02 0.  1.
          2   -1    0    0  501    0  0.00000000000E+00 -0.00000000000E+00 -0.15564234071E+04  0.15564234071E+04  0.25500000000E-02 0. -1.
         24    2    1    2    0    0  0.00000000000E+00  0.00000000000E+00 -0.15554225641E+04  0.15574242628E+04  0.78936565975E+02 0.  0.
         66    2    3    3    0    0 -0.43445710199E+01 -0.11788634328E+02 -0.15158852323E+04  0.15159386151E+04  0.19999991095E+01 0.  0.
        -13    1    3    3    0    0  0.43445710199E+01  0.11788634328E+02 -0.39537331796E+02  0.41485647714E+02  0.10566000000E+00 0.  1.
         13    1    4    4    0    0 -0.29478578389E+01 -0.66099279496E+01 -0.92911795509E+03  0.92914614924E+03  0.10566000000E+00 0. -1.
        -13    1    4    4    0    0 -0.38740750463E+00 -0.25022350405E+01 -0.23948280455E+03  0.23949621313E+03  0.10566000000E+00 0.  1.
        -14    1    4    4    0    0 -0.10093056763E+01 -0.26764713375E+01 -0.34728447268E+03  0.34729625273E+03  0.00000000000E+00 0.  1.
<mgrwt>
<rscale>  0 0.78936566E+02</rscale>
<asrwt>0</asrwt>
<pdfrwt beam="1">  1        2 0.23944782E+00 0.78936566E+02</pdfrwt>
<pdfrwt beam="2">  1       -1 0.15397807E-03 0.78936566E+02</pdfrwt>
<totfact> 0.33918811E+05</totfact>
</mgrwt>
</event>
<event>
 8    1  0.2433467E-020  0.8082097E+02  0.7818608E-02  0.1326738E+00
         -1   -1    0    0    0  501 -0.00000000000E+00  0.00000000000E+00  0.22745663003E+01  0.22745718841E+01  0.50400000000E-02 0.  1.
          2   -1    0    0  501    0  0.00000000000E+00 -0.00000000000E+00 -0.71794138503E+03  0.71794138503E+03  0.25500000000E-02 0. -1.
         24    2    1    2    0    0  0.00000000000E+00  0.17763568394E-14 -0.71566681873E+03  0.72021595692E+03  0.80820969862E+02 0.  0.
         66    2    3    3    0    0  0.33750195647E+02 -0.15323896576E+02 -0.50093927110E+03  0.50231270226E+03  0.20000041465E+01 0.  0.
        -13    1    3    3    0    0 -0.33750195647E+02  0.15323896576E+02 -0.21472754763E+03  0.21790325465E+03  0.10566000000E+00 0.  1.
         13    1    4    4    0    0  0.79303259673E+01 -0.32856754159E+01 -0.12464240447E+03  0.12493768803E+03  0.10566000000E+00 0. -1.
        -13    1    4    4    0    0  0.20958374307E+02 -0.93953288074E+01 -0.30071080232E+03  0.30158667652E+03  0.10566000000E+00 0.  1.
        -14    1    4    4    0    0  0.48614953725E+01 -0.26428923528E+01 -0.75586064302E+02  0.75788337717E+02  0.00000000000E+00 0.  1.
<mgrwt>
<rscale>  0 0.80820970E+02</rscale>
<asrwt>0</asrwt>
<pdfrwt beam="1">  1        2 0.11045234E+00 0.80820970E+02</pdfrwt>
<pdfrwt beam="2">  1       -1 0.34993428E-03 0.80820970E+02</pdfrwt>
<totfact> 0.32760479E+05</totfact>
</mgrwt>
</event>
<event>
 8    1  0.2433467E-020  0.8353254E+02  0.7818608E-02  0.1319315E+00
         -1   -1    0    0    0  501 -0.00000000000E+00  0.00000000000E+00  0.44887104134E+03  0.44887104136E+03  0.50400000000E-02 0.  1.
          2   -1    0    0  501    0  0.00000000000E+00 -0.00000000000E+00 -0.38862411353E+01  0.38862419719E+01  0.25500000000E-02 0. -1.
         24    2    1    2    0    0  0.00000000000E+00  0.00000000000E+00  0.44498480020E+03  0.45275728334E+03  0.83532539793E+02 0.  0.
         66    2    3    3    0    0  0.21163681684E+02 -0.35635824410E+02  0.19573503597E+03  0.20008502618E+03  0.19999977681E+01 0.  0.
        -13    1    3    3    0    0 -0.21163681684E+02  0.35635824410E+02  0.24924976423E+03  0.25267225716E+03  0.10566000000E+00 0.  1.
         13    1    4    4    0    0  0.16097839581E+02 -0.28012470896E+02  0.15413709300E+03  0.15748680442E+03  0.10566000000E+00 0. -1.
        -13    1    4    4    0    0  0.28464009419E+01 -0.42057206881E+01  0.21585892031E+02  0.22175481588E+02  0.10566000000E+00 0.  1.
         14    1    4    4    0    0  0.22194411615E+01 -0.34176328255E+01  0.20012050936E+02  0.20422740165E+02  0.00000000000E+00 0. -1.
<mgrwt>
<rscale>  0 0.83532540E+02</rscale>
<asrwt>0</asrwt>
<pdfrwt beam="1">  1        2 0.59788297E-03 0.83532540E+02</pdfrwt>
<pdfrwt beam="2">  1       -1 0.69057123E-01 0.83532540E+02</pdfrwt>
<totfact> 0.63707640E+04</totfact>
</mgrwt>
</event>
<event>
 8    1  0.2618746E-020  0.7961486E+02  0.7818608E-02  0.1330148E+00
         -1   -1    0    0    0  501 -0.00000000000E+00  0.00000000000E+00  0.17553261165E+01  0.17553333521E+01  0.50400000000E-02 0.  1.
          2   -1    0    0  501    0  0.00000000000E+00 -0.00000000000E+00 -0.90275431560E+03  0.90275431560E+03  0.25500000000E-02 0. -1.
         24    2    1    2    0    0  0.17763568394E-14  0.00000000000E+00 -0.90099898948E+03  0.90450964896E+03  0.79614860446E+02 0.  0.
         66    2    3    3    0    0  0.11214758266E+02 -0.23301697456E+02 -0.79423434602E+03  0.79465774791E+03  0.19999986140E+01 0.  0.
        -13    1    3    3    0    0 -0.11214758266E+02  0.23301697456E+02 -0.10676464346E+03  0.10985190105E+03  0.10566000000E+00 0.  1.
         13    1    4    4    0    0  0.55465884519E+01 -0.12232231294E+02 -0.41406430268E+03  0.41428208994E+03  0.10566000000E+00 0. -1.
        -13    1    4    4    0    0  0.45039979747E+01 -0.88919417187E+01 -0.31928642017E+03  0.31944198518E+03  0.10566000000E+00 0.  1.
        -14    1    4    4    0    0  0.11641718398E+01 -0.21775244434E+01 -0.60883623172E+02  0.60933672787E+02  0.00000000000E+00 0.  1.
<mgrwt>
<rscale>  0 0.79614860E+02</rscale>
<asrwt>0</asrwt>
<pdfrwt beam="1">  1        2 0.13888491E+00 0.79614860E+02</pdfrwt>
<pdfrwt beam="2">  1       -1 0.27005145E-03 0.79614860E+02</pdfrwt>
<totfact> 0.35398914E+05</totfact>
</mgrwt>
</event>
<event>
 8    1  0.2433467E-020  0.7576583E+02  0.7818608E-02  0.1341516E+00
         -1   -1    0    0    0  501 -0.00000000000E+00  0.00000000000E+00  0.10224825185E+02  0.10224826427E+02  0.50400000000E-02 0.  1.
          2   -1    0    0  501    0  0.00000000000E+00 -0.00000000000E+00 -0.14035594307E+03  0.14035594309E+03  0.25500000000E-02 0. -1.
         24    2    1    2    0    0  0.00000000000E+00  0.00000000000E+00 -0.13013111788E+03  0.15058076952E+03  0.75765825458E+02 0.  0.
         66    2    3    3    0    0 -0.27341791224E+01 -0.13331100077E+02 -0.13531913707E+03  0.13601640644E+03  0.19999998633E+01 0.  0.
        -13    1    3    3    0    0  0.27341791224E+01  0.13331100077E+02  0.51880191861E+01  0.14564363077E+02  0.10566000000E+00 0.  1.
         13    1    4    4    0    0 -0.19688892099E+01 -0.63951944639E+01 -0.65374390682E+02  0.65716034253E+02  0.10566000000E+00 0. -1.
        -13    1    4    4    0    0 -0.42953827919E+00 -0.20094691645E+01 -0.16441304055E+02  0.16569553782E+02  0.10566000000E+00 0.  1.
         14    1    4    4    0    0 -0.33575163324E+00 -0.49264364481E+01 -0.53503442332E+02  0.53730818406E+02  0.00000000000E+00 0. -1.
<mgrwt>
<rscale>  0 0.75765825E+02</rscale>
<asrwt>0</asrwt>
<pdfrwt beam="1">  1        2 0.21593221E-01 0.75765825E+02</pdfrwt>
<pdfrwt beam="2">  1       -1 0.15730502E-02 0.75765825E+02</pdfrwt>
<totfact> 0.22648582E+05</totfact>
</mgrwt>
</event>
<event>
 8    1  0.2433467E-020  0.8182259E+02  0.7818608E-02  0.1323957E+00
         -1   -1    0    0    0  501 -0.00000000000E+00  0.00000000000E+00  0.10173556955E+03  0.10173556968E+03  0.50400000000E-02 0.  1.
          2   -1    0    0  501    0  0.00000000000E+00 -0.00000000000E+00 -0.16451809376E+02  0.16451809574E+02  0.25500000000E-02 0. -1.
         24    2    1    2    0    0 -0.88817841970E-15  0.71054273576E-14  0.85283760175E+02  0.11818737925E+03  0.81822593850E+02 0.  0.
         66    2    3    3    0    0 -0.61348984892E+01  0.39707015160E+02  0.31719539708E+02  0.51229027189E+02  0.19999987822E+01 0.  0.
        -13    1    3    3    0    0  0.61348984892E+01 -0.39707015160E+02  0.53564220468E+02  0.66958352061E+02  0.10566000000E+00 0.  1.
         13    1    4    4    0    0 -0.24502754308E+01  0.13352929545E+02  0.11033895063E+02  0.17494644364E+02  0.10566000000E+00 0. -1.
        -13    1    4    4    0    0 -0.26332613776E+01  0.14517612230E+02  0.11916189836E+02  0.18965808039E+02  0.10566000000E+00 0.  1.
        -14    1    4    4    0    0 -0.10513616808E+01  0.11836473385E+02  0.87694548094E+01  0.14768574787E+02  0.00000000000E+00 0.  1.
<mgrwt>
<rscale>  0 0.81822594E+02</rscale>
<asrwt>0</asrwt>
<pdfrwt beam="1">  1        2 0.25310476E-02 0.81822594E+02</pdfrwt>
<pdfrwt beam="2">  1       -1 0.15651626E-01 0.81822594E+02</pdfrwt>
<totfact> 0.11164040E+05</totfact>
</mgrwt>
</event>
<event>
 8    1  0.2433467E-020  0.8027323E+02  0.7818608E-02  0.1328278E+00
          2   -1    0    0  501    0  0.00000000000E+00  0.00000000000E+00  0.11600007008E+04  0.11600007008E+04  0.25500000000E-02 0. -1.
         -1   -1    0    0    0  501 -0.00000000000E+00 -0.00000000000E+00 -0.13887427402E+01  0.13887518857E+01  0.50400000000E-02 0.  1.
         24    2    1    2    0    0  0.00000000000E+00  0.00000000000E+00  0.11586119581E+04  0.11613894527E+04  0.80273230016E+02 0.  0.
         66    2    3    3    0    0 -0.10328473286E+02 -0.73912968097E+01  0.11301382717E+04  0.11302114058E+04  0.20000032757E+01 0.  0.
        -13    1    3    3    0    0  0.10328473286E+02  0.73912968097E+01  0.28473686395E+02  0.31178046922E+02  0.10566000000E+00 0.  1.
         13    1    4    4    0    0 -0.71548420267E+01 -0.54449276280E+01  0.84073890794E+03  0.84078698937E+03  0.10566000000E+00 0. -1.
        -13    1    4    4    0    0 -0.30424287786E+01 -0.17312769975E+01  0.27910073481E+03  0.27912270604E+03  0.10566000000E+00 0.  1.
        -14    1    4    4    0    0 -0.13120248050E+00 -0.21509218425E+00  0.10298628962E+02  0.10301710403E+02  0.00000000000E+00 0.  1.
<mgrwt>
<rscale>  0 0.80273230E+02</rscale>
<asrwt>0</asrwt>
<pdfrwt beam="1">  1        2 0.17846108E+00 0.80273230E+02</pdfrwt>
<pdfrwt beam="2">  1       -1 0.21365412E-03 0.80273230E+02</pdfrwt>
<totfact> 0.34840191E+05</totfact>
</mgrwt>
</event>
<event>
 8    1  0.2433467E-020  0.8943822E+02  0.7818608E-02  0.1304218E+00
         -1   -1    0    0    0  501 -0.00000000000E+00  0.00000000000E+00  0.22708733194E+01  0.22708789123E+01  0.50400000000E-02 0.  1.
          2   -1    0    0  501    0  0.00000000000E+00 -0.00000000000E+00 -0.88062866600E+03  0.88062866600E+03  0.25500000000E-02 0. -1.
         24    2    1    2    0    0 -0.17763568394E-14  0.00000000000E+00 -0.87835779268E+03  0.88289954492E+03  0.89438215826E+02 0.  0.
         66    2    3    3    0    0 -0.13083134317E+02  0.19441883444E+02 -0.81512121101E+03  0.81546044898E+03  0.19999936671E+01 0.  0.
        -13    1    3    3    0    0  0.13083134317E+02 -0.19441883444E+02 -0.63236581670E+02  0.67439095937E+02  0.10566000000E+00 0.  1.
         13    1    4    4    0    0 -0.31850480661E+01  0.35542290863E+01 -0.16551605119E+03  0.16558487685E+03  0.10566000000E+00 0.  1.
        -13    1    4    4    0    0 -0.97443903107E+01  0.15507637126E+02 -0.63023649336E+03  0.63050256834E+03  0.10566000000E+00 0. -1.
        -14    1    4    4    0    0 -0.15369594019E+00  0.38001723231E+00 -0.19368666464E+02  0.19373003797E+02  0.00000000000E+00 0.  1.
<mgrwt>
<rscale>  0 0.89438216E+02</rscale>
<asrwt>0</asrwt>
<pdfrwt beam="1">  1        2 0.13548106E+00 0.89438216E+02</pdfrwt>
<pdfrwt beam="2">  1       -1 0.34936626E-03 0.89438216E+02</pdfrwt>
<totfact> 0.26051379E+05</totfact>
</mgrwt>
</event>
<event>
 8    1  0.2433467E-020  0.8100648E+02  0.7818608E-02  0.1326219E+00
         -1   -1    0    0    0  501 -0.00000000000E+00  0.00000000000E+00  0.35722447661E+01  0.35722483216E+01  0.50400000000E-02 0.  1.
          2   -1    0    0  501    0  0.00000000000E+00 -0.00000000000E+00 -0.45923825451E+03  0.45923825452E+03  0.25500000000E-02 0. -1.
         24    2    1    2    0    0  0.00000000000E+00  0.00000000000E+00 -0.45566600974E+03  0.46281050284E+03  0.81006475679E+02 0.  0.
         66    2    3    3    0    0 -0.14001090881E+02 -0.11889864012E+02 -0.43405352610E+03  0.43444661690E+03  0.20000017166E+01 0.  0.
        -13    1    3    3    0    0  0.14001090881E+02  0.11889864012E+02 -0.21612483646E+02  0.28363885937E+02  0.10566000000E+00 0.  1.
         13    1    4    4    0    0 -0.47659282044E+01 -0.51149328227E+01 -0.16833772298E+03  0.16848286783E+03  0.10566000000E+00 0. -1.
        -13    1    4    4    0    0 -0.52238478529E+01 -0.35114530735E+01 -0.15266071234E+03  0.15279045502E+03  0.10566000000E+00 0.  1.
         14    1    4    4    0    0 -0.40113148241E+01 -0.32634781155E+01 -0.11305509078E+03  0.11317329406E+03  0.00000000000E+00 0. -1.
<mgrwt>
<rscale>  0 0.81006476E+02</rscale>
<asrwt>0</asrwt>
<pdfrwt beam="1">  1        2 0.70651993E-01 0.81006476E+02</pdfrwt>
<pdfrwt beam="2">  1       -1 0.54957676E-03 0.81006476E+02</pdfrwt>
<totfact> 0.28668055E+05</totfact>
</mgrwt>
</event>
<event>
 8    1  0.2433467E-020  0.7887382E+02  0.7818608E-02  0.1332278E+00
          2   -1    0    0  501    0  0.00000000000E+00  0.00000000000E+00  0.17718014144E+03  0.17718014146E+03  0.25500000000E-02 0. -1.
         -1   -1    0    0    0  501 -0.00000000000E+00 -0.00000000000E+00 -0.87779009732E+01  0.87779024201E+01  0.50400000000E-02 0.  1.
         24    2    1    2    0    0  0.00000000000E+00  0.00000000000E+00  0.16840224047E+03  0.18595804388E+03  0.78873820048E+02 0.  0.
         66    2    3    3    0    0 -0.17741918539E+02 -0.63267415078E+01  0.16587465064E+03  0.16695269711E+03  0.20000039568E+01 0.  0.
        -13    1    3    3    0    0  0.17741918539E+02  0.63267415078E+01  0.25275898308E+01  0.19005346772E+02  0.10566000000E+00 0.  1.
         13    1    4    4    0    0 -0.60362480807E+01 -0.15393600653E+01  0.51733119010E+02  0.52106935112E+02  0.10566000000E+00 0. -1.
        -13    1    4    4    0    0 -0.34159159361E+01 -0.19068906717E+01  0.33203075534E+02  0.33432919446E+02  0.10566000000E+00 0.  1.
         14    1    4    4    0    0 -0.82897545222E+01 -0.28804907708E+01  0.80938456097E+02  0.81412842552E+02  0.00000000000E+00 0. -1.
<mgrwt>
<rscale>  0 0.78873820E+02</rscale>
<asrwt>0</asrwt>
<pdfrwt beam="1">  1        2 0.27258481E-01 0.78873820E+02</pdfrwt>
<pdfrwt beam="2">  1       -1 0.13504466E-02 0.78873820E+02</pdfrwt>
<totfact> 0.21968694E+05</totfact>
</mgrwt>
</event>
<event>
 8    1  0.2433467E-020  0.8463882E+02  0.7818608E-02  0.1316380E+00
         -1   -1    0    0    0  501 -0.00000000000E+00  0.00000000000E+00  0.35507280261E+01  0.35507316031E+01  0.50400000000E-02 0.  1.
          2   -1    0    0  501    0  0.00000000000E+00 -0.00000000000E+00 -0.50438430598E+03  0.50438430599E+03  0.25500000000E-02 0. -1.
         24    2    1    2    0    0  0.00000000000E+00  0.00000000000E+00 -0.50083357795E+03  0.50793503759E+03  0.84638818547E+02 0.  0.
         66    2    3    3    0    0 -0.18301902297E+02 -0.33946918781E+02 -0.35477257200E+03  0.35686822606E+03  0.20000007615E+01 0.  0.
        -13    1    3    3    0    0  0.18301902297E+02  0.33946918781E+02 -0.14606100595E+03  0.15106681153E+03  0.10566000000E+00 0.  1.
         13    1    4    4    0    0 -0.71461387310E+01 -0.14940986452E+02 -0.15681286393E+03  0.15768508437E+03  0.10566000000E+00 0. -1.
        -13    1    4    4    0    0 -0.76946041522E+01 -0.12809577570E+02 -0.13539869141E+03  0.13622080976E+03  0.10566000000E+00 0.  1.
        -14    1    4    4    0    0 -0.34611594135E+01 -0.61963547587E+01 -0.62561016656E+02  0.62962331928E+02  0.00000000000E+00 0.  1.
<mgrwt>
<rscale>  0 0.84638819E+02</rscale>
<asrwt>0</asrwt>
<pdfrwt beam="1">  1        2 0.77597529E-01 0.84638819E+02</pdfrwt>
<pdfrwt beam="2">  1       -1 0.54626653E-03 0.84638819E+02</pdfrwt>
<totfact> 0.26353677E+05</totfact>
</mgrwt>
</event>
<event>
 8    1  0.2433467E-020  0.7950692E+02  0.7818608E-02  0.1330457E+00
          2   -1    0    0  501    0  0.00000000000E+00  0.00000000000E+00  0.92395197774E+01  0.92395201293E+01  0.25500000000E-02 0. -1.
         -1   -1    0    0    0  501 -0.00000000000E+00 -0.00000000000E+00 -0.17104107636E+03  0.17104107644E+03  0.50400000000E-02 0.  1.
         24    2    1    2    0    0  0.00000000000E+00  0.00000000000E+00 -0.16180155659E+03  0.18028059657E+03  0.79506916585E+02 0.  0.
         66    2    3    3    0    0  0.71851779422E+01  0.25096875902E+02 -0.13046383439E+02  0.29252146717E+02  0.20000011431E+01 0.  0.
        -13    1    3    3    0    0 -0.71851779422E+01 -0.25096875902E+02 -0.14875517315E+03  0.15102844985E+03  0.10566000000E+00 0.  1.
         13    1    4    4    0    0  0.50416509958E+01  0.17992025064E+02 -0.91471236588E+01  0.20804140115E+02  0.10566000000E+00 0. -1.
        -13    1    4    4    0    0  0.12079520481E+01  0.48626926807E+01 -0.30881736134E+01  0.58866721124E+01  0.10566000000E+00 0.  1.
         14    1    4    4    0    0  0.93557489828E+00  0.22421581574E+01 -0.81108616664E+00  0.25613344887E+01  0.00000000000E+00 0. -1.
<mgrwt>
<rscale>  0 0.79506917E+02</rscale>
<asrwt>0</asrwt>
<pdfrwt beam="1">  1        2 0.14214647E-02 0.79506917E+02</pdfrwt>
<pdfrwt beam="2">  1       -1 0.26314009E-01 0.79506917E+02</pdfrwt>
<totfact> 0.10584182E+05</totfact>
</mgrwt>
</event>
<event>
 8    1  0.2433467E-020  0.8654621E+02  0.7818608E-02  0.1311438E+00
          2   -1    0    0  501    0  0.00000000000E+00  0.00000000000E+00  0.23982316851E+03  0.23982316853E+03  0.25500000000E-02 0. -1.
         -1   -1    0    0    0  501 -0.00000000000E+00 -0.00000000000E+00 -0.78080922558E+01  0.78080938825E+01  0.50400000000E-02 0.  1.
         24    2    1    2    0    0 -0.71054273576E-14  0.00000000000E+00  0.23201507626E+03  0.24763126241E+03  0.86546210267E+02 0.  0.
         66    2    3    3    0    0  0.34472316739E+02  0.20530820534E+02  0.69870689416E+02  0.80596330251E+02  0.19999993016E+01 0.  0.
        -13    1    3    3    0    0 -0.34472316739E+02 -0.20530820534E+02  0.16214438684E+03  0.16703493216E+03  0.10566000000E+00 0.  1.
         13    1    4    4    0    0  0.22137300536E+01  0.15713549998E+01  0.48792592991E+01  0.55846300351E+01  0.10566000000E+00 0.  1.
        -13    1    4    4    0    0  0.25633302112E+01  0.15790405663E+01  0.44021295072E+01  0.53342233845E+01  0.10566000000E+00 0. -1.
         14    1    4    4    0    0  0.29695256474E+02  0.17380424968E+02  0.60589300610E+02  0.69677476831E+02  0.00000000000E+00 0. -1.
<mgrwt>
<rscale>  0 0.86546210E+02</rscale>
<asrwt>0</asrwt>
<pdfrwt beam="1">  1        2 0.36895868E-01 0.86546210E+02</pdfrwt>
<pdfrwt beam="2">  1       -1 0.12012452E-02 0.86546210E+02</pdfrwt>
<totfact> 0.19105211E+05</totfact>
</mgrwt>
</event>
<event>
 8    1  0.2433467E-020  0.7846878E+02  0.7818608E-02  0.1333454E+00
          2   -1    0    0  501    0  0.00000000000E+00  0.00000000000E+00  0.12937642330E+04  0.12937642330E+04  0.25500000000E-02 0. -1.
         -1   -1    0    0    0  501 -0.00000000000E+00 -0.00000000000E+00 -0.11898076189E+01  0.11898182935E+01  0.50400000000E-02 0.  1.
         24    2    1    2    0    0  0.00000000000E+00  0.00000000000E+00  0.12925744254E+04  0.12949540513E+04  0.78468782447E+02 0.  0.
         66    2    3    3    0    0  0.57842547022E+01 -0.10956633510E+02  0.12606069158E+04  0.12606693863E+04  0.20000003909E+01 0.  0.
        -13    1    3    3    0    0 -0.57842547022E+01  0.10956633510E+02  0.31967509609E+02  0.34284665011E+02  0.10566000000E+00 0.  1.
         13    1    4    4    0    0  0.28722048223E+01 -0.49365010391E+01  0.50241892570E+03  0.50245139732E+03  0.10566000000E+00 0. -1.
        -13    1    4    4    0    0  0.80272755674E+00 -0.23517226551E+01  0.31346462990E+03  0.31347449710E+03  0.10566000000E+00 0.  1.
         14    1    4    4    0    0  0.21093223232E+01 -0.36684098154E+01  0.44472336021E+03  0.44474349190E+03  0.00000000000E+00 0. -1.
<mgrwt>
<rscale>  0 0.78468782E+02</rscale>
<asrwt>0</asrwt>
<pdfrwt beam="1">  1        2 0.19904211E+00 0.78468782E+02</pdfrwt>
<pdfrwt beam="2">  1       -1 0.18304681E-03 0.78468782E+02</pdfrwt>
<totfact> 0.36430233E+05</totfact>
</mgrwt>
</event>
<event>
 8    1  0.2433467E-020  0.7913137E+02  0.7818608E-02  0.1331535E+00
          2   -1    0    0  501    0  0.00000000000E+00  0.00000000000E+00  0.13067633562E+04  0.13067633562E+04  0.25500000000E-02 0. -1.
         -1   -1    0    0    0  501 -0.00000000000E+00 -0.00000000000E+00 -0.11979493717E+01  0.11979599738E+01  0.50400000000E-02 0.  1.
         24    2    1    2    0    0  0.00000000000E+00  0.27755575616E-16  0.13055654068E+04  0.13079613161E+04  0.79131366136E+02 0.  0.
         66    2    3    3    0    0  0.25396852201E+02  0.77619938281E-01  0.11541201680E+04  0.11544013030E+04  0.19999994411E+01 0.  0.
        -13    1    3    3    0    0 -0.25396852201E+02 -0.77619938281E-01  0.15144523878E+03  0.15356001315E+03  0.10566000000E+00 0.  1.
         13    1    4    4    0    0  0.16400253817E+02 -0.27497725987E+00  0.78159258032E+03  0.78176468116E+03  0.10566000000E+00 0. -1.
        -13    1    4    4    0    0  0.31565318872E+01  0.29065217825E+00  0.12762490823E+03  0.12766431191E+03  0.10566000000E+00 0.  1.
         14    1    4    4    0    0  0.58400664971E+01  0.61945019896E-01  0.24490267947E+03  0.24497230992E+03  0.00000000000E+00 0. -1.
<mgrwt>
<rscale>  0 0.79131366E+02</rscale>
<asrwt>0</asrwt>
<pdfrwt beam="1">  1        2 0.20103961E+00 0.79131366E+02</pdfrwt>
<pdfrwt beam="2">  1       -1 0.18430155E-03 0.79131366E+02</pdfrwt>
<totfact> 0.35575632E+05</totfact>
</mgrwt>
</event>
<event>
 8    1  0.2433467E-020  0.8253412E+02  0.7818608E-02  0.1322010E+00
         -1   -1    0    0    0  501 -0.00000000000E+00  0.00000000000E+00  0.84047200877E+01  0.84047215989E+01  0.50400000000E-02 0.  1.
          2   -1    0    0  501    0  0.00000000000E+00 -0.00000000000E+00 -0.20262068443E+03  0.20262068444E+03  0.25500000000E-02 0. -1.
         24    2    1    2    0    0 -0.35527136788E-14  0.17763568394E-14 -0.19421596434E+03  0.21102540604E+03  0.82534121374E+02 0.  0.
         66    2    3    3    0    0  0.13469342808E+02 -0.87531024586E+01 -0.19428808007E+03  0.19496127323E+03  0.20000006134E+01 0.  0.
        -13    1    3    3    0    0 -0.13469342808E+02  0.87531024586E+01  0.72115733347E-01  0.16064132813E+02  0.10566000000E+00 0.  1.
         13    1    4    4    0    0  0.58725049652E+01 -0.47787338159E+01 -0.92828441733E+02  0.93136745542E+02  0.10566000000E+00 0. -1.
        -13    1    4    4    0    0  0.34321156351E+01 -0.13529980289E+01 -0.42776767280E+02  0.42935684511E+02  0.10566000000E+00 0.  1.
        -14    1    4    4    0    0  0.41647222073E+01 -0.26213706138E+01 -0.58682871060E+02  0.58888843178E+02  0.00000000000E+00 0.  1.
<mgrwt>
<rscale>  0 0.82534121E+02</rscale>
<asrwt>0</asrwt>
<pdfrwt beam="1">  1        2 0.31172409E-01 0.82534121E+02</pdfrwt>
<pdfrwt beam="2">  1       -1 0.12930341E-02 0.82534121E+02</pdfrwt>
<totfact> 0.20405932E+05</totfact>
</mgrwt>
</event>
<event>
 8    1  0.2433467E-020  0.7202645E+02  0.7818608E-02  0.1353335E+00
         -1   -1    0    0    0  501 -0.00000000000E+00  0.00000000000E+00  0.85360149660E+02  0.85360149809E+02  0.50400000000E-02 0.  1.
          2   -1    0    0  501    0  0.00000000000E+00 -0.00000000000E+00 -0.15193884304E+02  0.15193884518E+02  0.25500000000E-02 0. -1.
         24    2    1    2    0    0  0.00000000000E+00  0.00000000000E+00  0.70166265356E+02  0.10055403433E+03  0.72026446709E+02 0.  0.
         66    2    3    3    0    0 -0.51264359467E+01  0.17202615113E+02 -0.84315798559E+01  0.19932432085E+02  0.19999994228E+01 0.  0.
        -13    1    3    3    0    0  0.51264359467E+01 -0.17202615113E+02  0.78597845211E+02  0.80621602243E+02  0.10566000000E+00 0.  1.
         13    1    4    4    0    0 -0.35552258621E+00  0.29939036974E+01 -0.11757555006E+01  0.32378110957E+01  0.10566000000E+00 0. -1.
        -13    1    4    4    0    0 -0.18167383834E+01  0.45618376317E+01 -0.18477457976E+01  0.52474974512E+01  0.10566000000E+00 0.  1.
         14    1    4    4    0    0 -0.29541749771E+01  0.96468737842E+01 -0.54080785577E+01  0.11447123538E+02  0.00000000000E+00 0. -1.
<mgrwt>
<rscale>  0 0.72026447E+02</rscale>
<asrwt>0</asrwt>
<pdfrwt beam="1">  1        2 0.23375207E-02 0.72026447E+02</pdfrwt>
<pdfrwt beam="2">  1       -1 0.13132330E-01 0.72026447E+02</pdfrwt>
<totfact> 0.15887014E+05</totfact>
</mgrwt>
</event>
<event>
 8    1  0.2433467E-020  0.7558382E+02  0.7818608E-02  0.1342073E+00
          2   -1    0    0  501    0  0.00000000000E+00  0.00000000000E+00  0.35514596034E+03  0.35514596035E+03  0.25500000000E-02 0. -1.
         -1   -1    0    0    0  501 -0.00000000000E+00 -0.00000000000E+00 -0.40215238247E+01  0.40215269829E+01  0.50400000000E-02 0.  1.
         24    2    1    2    0    0  0.44408920985E-15  0.00000000000E+00  0.35112443652E+03  0.35916748733E+03  0.75583821273E+02 0.  0.
         66    2    3    3    0    0 -0.37366360639E+01  0.11219970643E+02  0.34611701898E+03  0.34632476236E+03  0.20000019675E+01 0.  0.
        -13    1    3    3    0    0  0.37366360639E+01 -0.11219970643E+02  0.50074175398E+01  0.12842724974E+02  0.10566000000E+00 0.  1.
         13    1    4    4    0    0 -0.24442806524E+01  0.70094382245E+01  0.21160327793E+03  0.21173347663E+03  0.10566000000E+00 0. -1.
        -13    1    4    4    0    0 -0.62883989904E+00  0.67390057302E+00  0.20911461896E+02  0.20932032492E+02  0.10566000000E+00 0.  1.
         14    1    4    4    0    0 -0.66351551247E+00  0.35366318451E+01  0.11360227915E+03  0.11365925323E+03  0.00000000000E+00 0. -1.
<mgrwt>
<rscale>  0 0.75583821E+02</rscale>
<asrwt>0</asrwt>
<pdfrwt beam="1">  1        2 0.54637844E-01 0.75583821E+02</pdfrwt>
<pdfrwt beam="2">  1       -1 0.61869617E-03 0.75583821E+02</pdfrwt>
<totfact> 0.31415483E+05</totfact>
</mgrwt>
</event>
<event>
 8    1  0.2433467E-020  0.8555567E+02  0.7818608E-02  0.1313986E+00
          2   -1    0    0  501    0  0.00000000000E+00  0.00000000000E+00  0.17325424993E+02  0.17325425180E+02  0.25500000000E-02 0. -1.
         -1   -1    0    0    0  501 -0.00000000000E+00 -0.00000000000E+00 -0.10562182759E+03  0.10562182771E+03  0.50400000000E-02 0.  1.
         24    2    1    2    0    0 -0.71054273576E-14  0.00000000000E+00 -0.88296402600E+02  0.12294725289E+03  0.85555667737E+02 0.  0.
         66    2    3    3    0    0 -0.34319061478E+02  0.70337069200E+01 -0.89524550688E+01  0.36213498290E+02  0.19999982127E+01 0.  0.
        -13    1    3    3    0    0  0.34319061478E+02 -0.70337069200E+01 -0.79343947531E+02  0.86733754603E+02  0.10566000000E+00 0.  1.
         13    1    4    4    0    0 -0.16141697533E+02  0.39193333472E+01 -0.40103985579E+01  0.17088301079E+02  0.10566000000E+00 0. -1.
        -13    1    4    4    0    0 -0.10757904132E+02  0.18523259631E+01 -0.34843387658E+01  0.11459292886E+02  0.10566000000E+00 0.  1.
        -14    1    4    4    0    0 -0.74194598130E+01  0.12620476096E+01 -0.14577177451E+01  0.76659043244E+01  0.00000000000E+00 0.  1.
<mgrwt>
<rscale>  0 0.85555668E+02</rscale>
<asrwt>0</asrwt>
<pdfrwt beam="1">  1        2 0.26654501E-02 0.85555668E+02</pdfrwt>
<pdfrwt beam="2">  1       -1 0.16249512E-01 0.85555668E+02</pdfrwt>
<totfact> 0.99052264E+04</totfact>
</mgrwt>
</event>
<event>
 8    1  0.2433467E-020  0.7047192E+02  0.7818608E-02  0.1358496E+00
         -1   -1    0    0    0  501 -0.00000000000E+00  0.00000000000E+00  0.52179258284E+02  0.52179258527E+02  0.50400000000E-02 0.  1.
          2   -1    0    0  501    0  0.00000000000E+00 -0.00000000000E+00 -0.23794377401E+02  0.23794377538E+02  0.25500000000E-02 0. -1.
         24    2    1    2    0    0 -0.35527136788E-14  0.00000000000E+00  0.28384880883E+02  0.75973636066E+02  0.70471922879E+02 0.  0.
         66    2    3    3    0    0 -0.30668956325E+02 -0.80109714833E+00 -0.44171890300E+01  0.31060235022E+02  0.20000004874E+01 0.  0.
        -13    1    3    3    0    0  0.30668956325E+02  0.80109714833E+00  0.32802069913E+02  0.44913401044E+02  0.10566000000E+00 0.  1.
         13    1    4    4    0    0 -0.15145573172E+02 -0.64500353754E-01 -0.28532020083E+01  0.15412477826E+02  0.10566000000E+00 0. -1.
        -13    1    4    4    0    0 -0.57902250106E+01 -0.48549972870E+00 -0.98288969105E+00  0.58940352765E+01  0.10566000000E+00 0.  1.
         14    1    4    4    0    0 -0.97331581426E+01 -0.25109706588E+00 -0.58109733068E+00  0.97537219190E+01  0.00000000000E+00 0. -1.
<mgrwt>
<rscale>  0 0.70471923E+02</rscale>
<asrwt>0</asrwt>
<pdfrwt beam="1">  1        2 0.36606735E-02 0.70471923E+02</pdfrwt>
<pdfrwt beam="2">  1       -1 0.80275782E-02 0.70471923E+02</pdfrwt>
<totfact> 0.18342928E+05</totfact>
</mgrwt>
</event>
<event>
 8    1  0.2433467E-020  0.8052334E+02  0.7818608E-02  0.1327573E+00
          2   -1    0    0  501    0  0.00000000000E+00  0.00000000000E+00  0.13688046082E+03  0.13688046085E+03  0.25500000000E-02 0. -1.
         -1   -1    0    0    0  501 -0.00000000000E+00 -0.00000000000E+00 -0.11842463886E+02  0.11842464958E+02  0.50400000000E-02 0.  1.
         24    2    1    2    0    0  0.00000000000E+00 -0.17763568394E-14  0.12503799694E+03  0.14872292581E+03  0.80523338121E+02 0.  0.
         66    2    3    3    0    0 -0.37843267613E+02  0.13659951264E+02  0.61563035528E+02  0.73571152292E+02  0.19999835034E+01 0.  0.
        -13    1    3    3    0    0  0.37843267613E+02 -0.13659951264E+02  0.63474961410E+02  0.75151773514E+02  0.10566000000E+00 0.  1.
         13    1    4    4    0    0 -0.88445035379E+01  0.33994823123E+01  0.14019558051E+02  0.16921610290E+02  0.10566000000E+00 0. -1.
        -13    1    4    4    0    0 -0.12599774754E+02  0.52744927483E+01  0.21448536876E+02  0.25428831978E+02  0.10566000000E+00 0.  1.
        -14    1    4    4    0    0 -0.16398989322E+02  0.49859762038E+01  0.26094940601E+02  0.31220710025E+02  0.00000000000E+00 0.  1.
<mgrwt>
<rscale>  0 0.80523338E+02</rscale>
<asrwt>0</asrwt>
<pdfrwt beam="1">  1        2 0.21058534E-01 0.80523338E+02</pdfrwt>
<pdfrwt beam="2">  1       -1 0.18219175E-02 0.80523338E+02</pdfrwt>
<totfact> 0.19121316E+05</totfact>
</mgrwt>
</event>
<event>
 8    1  0.2433467E-020  0.8021741E+02  0.7818608E-02  0.1328436E+00
          2   -1    0    0  501    0  0.00000000000E+00  0.00000000000E+00  0.16839266241E+02  0.16839266434E+02  0.25500000000E-02 0. -1.
         -1   -1    0    0    0  501 -0.00000000000E+00 -0.00000000000E+00 -0.95533145551E+02  0.95533145684E+02  0.50400000000E-02 0.  1.
         24    2    1    2    0    0  0.00000000000E+00  0.71054273576E-14 -0.78693879310E+02  0.11237241212E+03  0.80217406867E+02 0.  0.
         66    2    3    3    0    0 -0.24620988450E+02 -0.31527454356E+02 -0.42950950451E+02  0.58727826391E+02  0.19999993727E+01 0.  0.
        -13    1    3    3    0    0  0.24620988450E+02  0.31527454356E+02 -0.35742928859E+02  0.53644585727E+02  0.10566000000E+00 0.  1.
         13    1    4    4    0    0 -0.12873301556E+02 -0.16928414223E+02 -0.22324722723E+02  0.30833383041E+02  0.10566000000E+00 0. -1.
        -13    1    4    4    0    0 -0.17551697895E+01 -0.23496764937E+01 -0.38882319897E+01  0.48714589864E+01  0.10566000000E+00 0.  1.
        -14    1    4    4    0    0 -0.99925171045E+01 -0.12249363639E+02 -0.16737995739E+02  0.23022984364E+02  0.00000000000E+00 0.  1.
<mgrwt>
<rscale>  0 0.80217407E+02</rscale>
<asrwt>0</asrwt>
<pdfrwt beam="1">  1        2 0.25906564E-02 0.80217407E+02</pdfrwt>
<pdfrwt beam="2">  1       -1 0.14697407E-01 0.80217407E+02</pdfrwt>
<totfact> 0.11888292E+05</totfact>
</mgrwt>
</event>
<event>
 8    1  0.2433467E-020  0.7971690E+02  0.7818608E-02  0.1329857E+00
          2   -1    0    0  501    0  0.00000000000E+00  0.00000000000E+00  0.25786668211E+02  0.25786668337E+02  0.25500000000E-02 0. -1.
         -1   -1    0    0    0  501 -0.00000000000E+00 -0.00000000000E+00 -0.61609197190E+02  0.61609197396E+02  0.50400000000E-02 0.  1.
         24    2    1    2    0    0  0.00000000000E+00  0.00000000000E+00 -0.35822528979E+02  0.87395865733E+02  0.79716897612E+02 0.  0.
         66    2    3    3    0    0 -0.18083899839E+02  0.35465483212E+02 -0.16426086927E+02  0.43111996648E+02  0.19999976070E+01 0.  0.
        -13    1    3    3    0    0  0.18083899839E+02 -0.35465483212E+02 -0.19396442052E+02  0.44283869085E+02  0.10566000000E+00 0.  1.
         13    1    4    4    0    0 -0.67235630679E+01  0.12612453700E+02 -0.50893969078E+01  0.15172126205E+02  0.10566000000E+00 0. -1.
        -13    1    4    4    0    0 -0.56542918033E+01  0.11954278034E+02 -0.62631406712E+01  0.14632630461E+02  0.10566000000E+00 0.  1.
        -14    1    4    4    0    0 -0.57060449681E+01  0.10898751478E+02 -0.50735493484E+01  0.13307239982E+02  0.00000000000E+00 0.  1.
<mgrwt>
<rscale>  0 0.79716898E+02</rscale>
<asrwt>0</asrwt>
<pdfrwt beam="1">  1        2 0.39671798E-02 0.79716898E+02</pdfrwt>
<pdfrwt beam="2">  1       -1 0.94783380E-02 0.79716898E+02</pdfrwt>
<totfact> 0.13191424E+05</totfact>
</mgrwt>
</event>
<event>
 8    1  0.2433467E-020  0.7812191E+02  0.7818608E-02  0.1334467E+00
         -1   -1    0    0    0  501 -0.00000000000E+00  0.00000000000E+00  0.71956565867E+01  0.71956583517E+01  0.50400000000E-02 0.  1.
          2   -1    0    0  501    0  0.00000000000E+00 -0.00000000000E+00 -0.21203874893E+03  0.21203874894E+03  0.25500000000E-02 0. -1.
         24    2    1    2    0    0  0.00000000000E+00  0.00000000000E+00 -0.20484309234E+03  0.21923440729E+03  0.78121910256E+02 0.  0.
         66    2    3    3    0    0  0.94066890982E+01 -0.29709932884E+02 -0.16845694599E+03  0.17132690557E+03  0.20000014219E+01 0.  0.
        -13    1    3    3    0    0 -0.94066890982E+01  0.29709932884E+02 -0.36386146344E+02  0.47907501726E+02  0.10566000000E+00 0.  1.
         13    1    4    4    0    0  0.45946590353E+01 -0.15978396087E+02 -0.92015922971E+02  0.93505942471E+02  0.10566000000E+00 0. -1.
        -13    1    4    4    0    0  0.47058714766E+01 -0.13023844218E+02 -0.71546427041E+02  0.72874331084E+02  0.10566000000E+00 0.  1.
         14    1    4    4    0    0  0.10615858626E+00 -0.70769257845E+00 -0.48945959822E+01  0.49466320118E+01  0.00000000000E+00 0. -1.
<mgrwt>
<rscale>  0 0.78121910E+02</rscale>
<asrwt>0</asrwt>
<pdfrwt beam="1">  1        2 0.32621341E-01 0.78121910E+02</pdfrwt>
<pdfrwt beam="2">  1       -1 0.11070244E-02 0.78121910E+02</pdfrwt>
<totfact> 0.23966377E+05</totfact>
</mgrwt>
</event>
<event>
 8    1  0.2433467E-020  0.8509630E+02  0.7818608E-02  0.1315181E+00
          2   -1    0    0  501    0  0.00000000000E+00  0.00000000000E+00  0.67118056272E+03  0.67118056273E+03  0.25500000000E-02 0. -1.
         -1   -1    0    0    0  501 -0.00000000000E+00 -0.00000000000E+00 -0.26972525696E+01  0.26972572784E+01  0.50400000000E-02 0.  1.
         24    2    1    2    0    0 -0.71054273576E-14  0.00000000000E+00  0.66848331015E+03  0.67387782001E+03  0.85096300406E+02 0.  0.
         66    2    3    3    0    0 -0.39061664427E+02  0.95860737731E+01  0.44376354248E+03  0.44558701514E+03  0.19999977122E+01 0.  0.
        -13    1    3    3    0    0  0.39061664427E+02 -0.95860737731E+01  0.22471976767E+03  0.22829080486E+03  0.10566000000E+00 0.  1.
         13    1    4    4    0    0 -0.11534555233E+00  0.69935428185E-01  0.22451011121E+01  0.22516302094E+01  0.10566000000E+00 0.  1.
        -13    1    4    4    0    0 -0.96345490551E+01  0.21097539348E+01  0.10902683521E+03  0.10947208575E+03  0.10566000000E+00 0. -1.
         14    1    4    4    0    0 -0.29311769820E+02  0.74063844101E+01  0.33249160616E+03  0.33386329919E+03  0.00000000000E+00 0. -1.
<mgrwt>
<rscale>  0 0.85096300E+02</rscale>
<asrwt>0</asrwt>
<pdfrwt beam="1">  1        2 0.10325864E+00 0.85096300E+02</pdfrwt>
<pdfrwt beam="2">  1       -1 0.41496194E-03 0.85096300E+02</pdfrwt>
<totfact> 0.28193618E+05</totfact>
</mgrwt>
</event>
<event>
 8    1  0.2693945E-020  0.7929466E+02  0.7818608E-02  0.1331065E+00
         -1   -1    0    0    0  501 -0.00000000000E+00  0.00000000000E+00  0.48928800820E+01  0.48928826778E+01  0.50400000000E-02 0.  1.
          2   -1    0    0  501    0  0.00000000000E+00 -0.00000000000E+00 -0.32126485517E+03  0.32126485518E+03  0.25500000000E-02 0. -1.
         24    2    1    2    0    0  0.35527136788E-14  0.00000000000E+00 -0.31637197508E+03  0.32615773785E+03  0.79294661507E+02 0.  0.
         66    2    3    3    0    0 -0.23699949842E+02  0.52079604859E+01 -0.28712297041E+03  0.28815344976E+03  0.19999993230E+01 0.  0.
        -13    1    3    3    0    0  0.23699949842E+02 -0.52079604859E+01 -0.29249004673E+02  0.38004288091E+02  0.10566000000E+00 0.  1.
         13    1    4    4    0    0 -0.14168758713E+02  0.29638285512E+01 -0.17127956547E+03  0.17189019377E+03  0.10566000000E+00 0. -1.
        -13    1    4    4    0    0 -0.36485601509E+01  0.24386257732E+00 -0.42743144301E+02  0.42899405694E+02  0.10566000000E+00 0.  1.
        -14    1    4    4    0    0 -0.58826309784E+01  0.20002693574E+01 -0.73100260646E+02  0.73363850303E+02  0.00000000000E+00 0.  1.
<mgrwt>
<rscale>  0 0.79294662E+02</rscale>
<asrwt>0</asrwt>
<pdfrwt beam="1">  1        2 0.49425346E-01 0.79294662E+02</pdfrwt>
<pdfrwt beam="2">  1       -1 0.75275124E-03 0.79294662E+02</pdfrwt>
<totfact> 0.26746417E+05</totfact>
</mgrwt>
</event>
<event>
 8    1  0.2433467E-020  0.7962142E+02  0.7818608E-02  0.1330129E+00
          2   -1    0    0  501    0  0.00000000000E+00  0.00000000000E+00  0.30764978004E+03  0.30764978005E+03  0.25500000000E-02 0. -1.
         -1   -1    0    0    0  501 -0.00000000000E+00 -0.00000000000E+00 -0.51516113248E+01  0.51516137902E+01  0.50400000000E-02 0.  1.
         24    2    1    2    0    0  0.71054273576E-14 -0.17763568394E-14  0.30249816872E+03  0.31280139384E+03  0.79621416169E+02 0.  0.
         66    2    3    3    0    0 -0.34391290735E+02  0.10568287505E+02  0.21806562316E+03  0.22102277165E+03  0.20000005349E+01 0.  0.
        -13    1    3    3    0    0  0.34391290735E+02 -0.10568287505E+02  0.84432545556E+02  0.91778622197E+02  0.10566000000E+00 0.  1.
         13    1    4    4    0    0 -0.24276122908E+02  0.74987543773E+01  0.15111790320E+03  0.15323900708E+03  0.10566000000E+00 0. -1.
        -13    1    4    4    0    0 -0.96082541471E+01  0.30175989802E+01  0.64684860058E+02  0.65464240132E+02  0.10566000000E+00 0.  1.
        -14    1    4    4    0    0 -0.50691368062E+00  0.51934147123E-01  0.22628599044E+01  0.23195244302E+01  0.00000000000E+00 0.  1.
<mgrwt>
<rscale>  0 0.79621416E+02</rscale>
<asrwt>0</asrwt>
<pdfrwt beam="1">  1        2 0.47330732E-01 0.79621416E+02</pdfrwt>
<pdfrwt beam="2">  1       -1 0.79255584E-03 0.79621416E+02</pdfrwt>
<totfact> 0.26049623E+05</totfact>
</mgrwt>
</event>
<event>
 8    1  0.2433467E-020  0.7933094E+02  0.7818608E-02  0.1330961E+00
          2   -1    0    0  501    0  0.00000000000E+00  0.00000000000E+00  0.83267369179E+03  0.83267369179E+03  0.25500000000E-02 0. -1.
         -1   -1    0    0    0  501 -0.00000000000E+00 -0.00000000000E+00 -0.18895117123E+01  0.18895184341E+01  0.50400000000E-02 0.  1.
         24    2    1    2    0    0  0.00000000000E+00  0.00000000000E+00  0.83078418007E+03  0.83456321022E+03  0.79330939731E+02 0.  0.
         66    2    3    3    0    0 -0.13588872771E+02 -0.58679146376E+01  0.80250829255E+03  0.80264727588E+03  0.19999976271E+01 0.  0.
        -13    1    3    3    0    0  0.13588872771E+02  0.58679146376E+01  0.28275887526E+02  0.31915934340E+02  0.10566000000E+00 0.  1.
         13    1    4    4    0    0 -0.10426380930E+02 -0.41873668911E+01  0.60465794094E+03  0.60476233362E+03  0.10566000000E+00 0. -1.
        -13    1    4    4    0    0 -0.31186805485E+01 -0.17790399730E+01  0.19226290792E+03  0.19229645883E+03  0.10566000000E+00 0.  1.
         14    1    4    4    0    0 -0.43811292963E-01  0.98492226453E-01  0.55874436855E+01  0.55884834336E+01  0.00000000000E+00 0. -1.
<mgrwt>
<rscale>  0 0.79330940E+02</rscale>
<asrwt>0</asrwt>
<pdfrwt beam="1">  1        2 0.12810349E+00 0.79330940E+02</pdfrwt>
<pdfrwt beam="2">  1       -1 0.29069498E-03 0.79330940E+02</pdfrwt>
<totfact> 0.35352630E+05</totfact>
</mgrwt>
</event>
<event>
 8    1  0.2433467E-020  0.7963294E+02  0.7818608E-02  0.1330096E+00
         -1   -1    0    0    0  501 -0.00000000000E+00  0.00000000000E+00  0.14614955587E+01  0.14615042489E+01  0.50400000000E-02 0.  1.
          2   -1    0    0  501    0  0.00000000000E+00 -0.00000000000E+00 -0.10847426896E+04  0.10847426896E+04  0.25500000000E-02 0. -1.
         24    2    1    2    0    0 -0.17763568394E-14 -0.17763568394E-14 -0.10832811940E+04  0.10862041938E+04  0.79632941537E+02 0.  0.
         66    2    3    3    0    0  0.12220987651E+02 -0.14639903156E+02 -0.10183457743E+04  0.10185262861E+04  0.20000080430E+01 0.  0.
        -13    1    3    3    0    0 -0.12220987651E+02  0.14639903156E+02 -0.64935419712E+02  0.67677907775E+02  0.10566000000E+00 0.  1.
         13    1    4    4    0    0  0.17381042788E+01 -0.19877485529E+01 -0.16814413446E+03  0.16816489903E+03  0.10566000000E+00 0. -1.
        -13    1    4    4    0    0  0.85566859461E+01 -0.99918610684E+01 -0.70340733504E+03  0.70353034357E+03  0.10566000000E+00 0.  1.
        -14    1    4    4    0    0  0.19261974258E+01 -0.26602935344E+01 -0.14679430481E+03  0.14683104345E+03  0.00000000000E+00 0.  1.
<mgrwt>
<rscale>  0 0.79632942E+02</rscale>
<asrwt>0</asrwt>
<pdfrwt beam="1">  1        2 0.16688285E+00 0.79632942E+02</pdfrwt>
<pdfrwt beam="2">  1       -1 0.22484701E-03 0.79632942E+02</pdfrwt>
<totfact> 0.35688067E+05</totfact>
</mgrwt>
</event>
<event>
 8    1  0.2433467E-020  0.7992061E+02  0.7818608E-02  0.1329277E+00
         -1   -1    0    0    0  501 -0.00000000000E+00  0.00000000000E+00  0.21337715760E+02  0.21337716356E+02  0.50400000000E-02 0.  1.
          2   -1    0    0  501    0  0.00000000000E+00 -0.00000000000E+00 -0.74835841779E+02  0.74835841822E+02  0.25500000000E-02 0. -1.
         24    2    1    2    0    0  0.00000000000E+00  0.00000000000E+00 -0.53498126018E+02  0.96173558178E+02  0.79920609389E+02 0.  0.
         66    2    3    3    0    0  0.17031029805E+02  0.41809594021E+01 -0.69940950295E+02  0.72133715583E+02  0.19999994728E+01 0.  0.
        -13    1    3    3    0    0 -0.17031029805E+02 -0.41809594021E+01  0.16442824277E+02  0.24039842595E+02  0.10566000000E+00 0.  1.
         13    1    4    4    0    0  0.66202659763E+01  0.69009053600E+00 -0.26044403765E+02  0.26881708987E+02  0.10566000000E+00 0. -1.
        -13    1    4    4    0    0  0.28422682013E+01  0.10612024748E+01 -0.12913854207E+02  0.13265874782E+02  0.10566000000E+00 0.  1.
         14    1    4    4    0    0  0.75684956272E+01  0.24296663913E+01 -0.30982692324E+02  0.31986131814E+02  0.00000000000E+00 0. -1.
<mgrwt>
<rscale>  0 0.79920609E+02</rscale>
<asrwt>0</asrwt>
<pdfrwt beam="1">  1        2 0.11513206E-01 0.79920609E+02</pdfrwt>
<pdfrwt beam="2">  1       -1 0.32827256E-02 0.79920609E+02</pdfrwt>
<totfact> 0.16459541E+05</totfact>
</mgrwt>
</event>
<event>
 8    1  0.2433467E-020  0.8818229E+02  0.7818608E-02  0.1307314E+00
          2   -1    0    0  501    0  0.00000000000E+00  0.00000000000E+00  0.38579917645E+03  0.38579917645E+03  0.25500000000E-02 0. -1.
         -1   -1    0    0    0  501 -0.00000000000E+00 -0.00000000000E+00 -0.50389652796E+01  0.50389678001E+01  0.50400000000E-02 0.  1.
         24    2    1    2    0    0  0.00000000000E+00  0.00000000000E+00  0.38076021117E+03  0.39083814425E+03  0.88182291855E+02 0.  0.
         66    2    3    3    0    0 -0.98080807183E+01  0.40782075513E+02  0.25037722539E+03  0.25387424290E+03  0.20000207489E+01 0.  0.
        -13    1    3    3    0    0  0.98080807183E+01 -0.40782075513E+02  0.13038298578E+03  0.13696390135E+03  0.10566000000E+00 0.  1.
         13    1    4    4    0    0 -0.74621157989E+01  0.33218634016E+02  0.20225627856E+03  0.20510186298E+03  0.10566000000E+00 0. -1.
        -13    1    4    4    0    0 -0.15114500408E+01  0.40880463842E+01  0.25171184612E+02  0.25545964521E+02  0.10566000000E+00 0.  1.
        -14    1    4    4    0    0 -0.83451487859E+00  0.34753951126E+01  0.22949762220E+02  0.23226415398E+02  0.00000000000E+00 0.  1.
<mgrwt>
<rscale>  0 0.88182292E+02</rscale>
<asrwt>0</asrwt>
<pdfrwt beam="1">  1        2 0.59353710E-01 0.88182292E+02</pdfrwt>
<pdfrwt beam="2">  1       -1 0.77522575E-03 0.88182292E+02</pdfrwt>
<totfact> 0.21602757E+05</totfact>
</mgrwt>
</event>
<event>
 8    1  0.2433467E-020  0.8131351E+02  0.7818608E-02  0.1325365E+00
         -1   -1    0    0    0  501 -0.00000000000E+00  0.00000000000E+00  0.50702846664E+02  0.50702846915E+02  0.50400000000E-02 0.  1.
          2   -1    0    0  501    0  0.00000000000E+00 -0.00000000000E+00 -0.32601165033E+02  0.32601165133E+02  0.25500000000E-02 0. -1.
         24    2    1    2    0    0  0.00000000000E+00 -0.71054273576E-14  0.18101681631E+02  0.83304012048E+02  0.81313513916E+02 0.  0.
         66    2    3    3    0    0 -0.23844597840E+02  0.32417686862E+02  0.33068233841E+01  0.40427791806E+02  0.20000004536E+01 0.  0.
        -13    1    3    3    0    0  0.23844597840E+02 -0.32417686862E+02  0.14794858247E+02  0.42876220242E+02  0.10566000000E+00 0.  1.
         13    1    4    4    0    0 -0.84222957413E+01  0.12804374299E+02  0.17078457839E+01  0.15421250533E+02  0.10566000000E+00 0. -1.
        -13    1    4    4    0    0 -0.13989124323E+02  0.17941735003E+02  0.15563529040E+01  0.22804272684E+02  0.10566000000E+00 0.  1.
         14    1    4    4    0    0 -0.14331777765E+01  0.16715775597E+01  0.42624696200E-01  0.22022685898E+01  0.00000000000E+00 0. -1.
<mgrwt>
<rscale>  0 0.81313514E+02</rscale>
<asrwt>0</asrwt>
<pdfrwt beam="1">  1        2 0.50155639E-02 0.81313514E+02</pdfrwt>
<pdfrwt beam="2">  1       -1 0.78004380E-02 0.81313514E+02</pdfrwt>
<totfact> 0.13070013E+05</totfact>
</mgrwt>
</event>
<event>
 8    1  0.2433467E-020  0.8113457E+02  0.7818608E-02  0.1325862E+00
         -1   -1    0    0    0  501 -0.00000000000E+00  0.00000000000E+00  0.91086518481E+01  0.91086532425E+01  0.50400000000E-02 0.  1.
          2   -1    0    0  501    0  0.00000000000E+00 -0.00000000000E+00 -0.18067485352E+03  0.18067485354E+03  0.25500000000E-02 0. -1.
         24    2    1    2    0    0  0.00000000000E+00  0.00000000000E+00 -0.17156620168E+03  0.18978350679E+03  0.81134566554E+02 0.  0.
         66    2    3    3    0    0  0.15468181084E+02  0.15873698018E+02 -0.16524332373E+03  0.16673510414E+03  0.20000002018E+01 0.  0.
        -13    1    3    3    0    0 -0.15468181084E+02 -0.15873698018E+02 -0.63228779445E+01  0.23048402642E+02  0.10566000000E+00 0.  1.
         13    1    4    4    0    0  0.56892853722E+01  0.56553050732E+01 -0.56841293975E+02  0.57404654064E+02  0.10566000000E+00 0. -1.
        -13    1    4    4    0    0  0.40249483064E+01  0.32541495034E+01 -0.37837475029E+02  0.38189990553E+02  0.10566000000E+00 0.  1.
        -14    1    4    4    0    0  0.57539474051E+01  0.69642434417E+01 -0.70564554729E+02  0.71140459526E+02  0.00000000000E+00 0.  1.
<mgrwt>
<rscale>  0 0.81134567E+02</rscale>
<asrwt>0</asrwt>
<pdfrwt beam="1">  1        2 0.27796129E-01 0.81134567E+02</pdfrwt>
<pdfrwt beam="2">  1       -1 0.14013313E-02 0.81134567E+02</pdfrwt>
<totfact> 0.20522477E+05</totfact>
</mgrwt>
</event>
<event>
 8    1  0.2433467E-020  0.8041810E+02  0.7818608E-02  0.1327869E+00
         -1   -1    0    0    0  501 -0.00000000000E+00  0.00000000000E+00  0.48584867675E+01  0.48584893817E+01  0.50400000000E-02 0.  1.
          2   -1    0    0  501    0  0.00000000000E+00 -0.00000000000E+00 -0.33277179196E+03  0.33277179197E+03  0.25500000000E-02 0. -1.
         24    2    1    2    0    0  0.35527136788E-14  0.00000000000E+00 -0.32791330520E+03  0.33763028136E+03  0.80418102211E+02 0.  0.
         66    2    3    3    0    0 -0.27953922416E+02  0.10008935009E+02 -0.27773871101E+03  0.27932846643E+03  0.20000007343E+01 0.  0.
        -13    1    3    3    0    0  0.27953922416E+02 -0.10008935009E+02 -0.50174594183E+02  0.58301814928E+02  0.10566000000E+00 0.  1.
         13    1    4    4    0    0 -0.64104538865E+01  0.27919468637E+01 -0.66000200321E+02  0.66369620255E+02  0.10566000000E+00 0. -1.
        -13    1    4    4    0    0 -0.44404118328E+01  0.21028865654E+01 -0.45658238981E+02  0.45921948348E+02  0.10566000000E+00 0.  1.
         14    1    4    4    0    0 -0.17103056696E+02  0.51141015798E+01 -0.16608027171E+03  0.16703689783E+03  0.00000000000E+00 0. -1.
<mgrwt>
<rscale>  0 0.80418102E+02</rscale>
<asrwt>0</asrwt>
<pdfrwt beam="1">  1        2 0.51195643E-01 0.80418102E+02</pdfrwt>
<pdfrwt beam="2">  1       -1 0.74745996E-03 0.80418102E+02</pdfrwt>
<totfact> 0.26107750E+05</totfact>
</mgrwt>
</event>
<event>
 8    1  0.2433467E-020  0.8304776E+02  0.7818608E-02  0.1320618E+00
         -1   -1    0    0    0  501 -0.00000000000E+00  0.00000000000E+00  0.26961939069E+01  0.26961986175E+01  0.50400000000E-02 0.  1.
          2   -1    0    0  501    0  0.00000000000E+00 -0.00000000000E+00 -0.63950557948E+03  0.63950557948E+03  0.25500000000E-02 0. -1.
         24    2    1    2    0    0  0.35527136788E-14 -0.17763568394E-14 -0.63680938557E+03  0.64220177810E+03  0.83047758815E+02 0.  0.
         66    2    3    3    0    0 -0.31373374830E+02  0.81769703252E+01 -0.51891121727E+03  0.51992692073E+03  0.20000000890E+01 0.  0.
        -13    1    3    3    0    0  0.31373374830E+02 -0.81769703252E+01 -0.11789816830E+03  0.12227485737E+03  0.10566000000E+00 0.  1.
         13    1    4    4    0    0 -0.30079310947E+01  0.82676333565E+00 -0.55380736817E+02  0.55468625019E+02  0.10566000000E+00 0. -1.
        -13    1    4    4    0    0 -0.19147315076E+02  0.42755450380E+01 -0.31449041890E+03  0.31510178467E+03  0.10566000000E+00 0.  1.
        -14    1    4    4    0    0 -0.92181286595E+01  0.30746619515E+01 -0.14904006155E+03  0.14935651104E+03  0.00000000000E+00 0.  1.
<mgrwt>
<rscale>  0 0.83047759E+02</rscale>
<asrwt>0</asrwt>
<pdfrwt beam="1">  1        2 0.98385353E-01 0.83047759E+02</pdfrwt>
<pdfrwt beam="2">  1       -1 0.41479994E-03 0.83047759E+02</pdfrwt>
<totfact> 0.29682685E+05</totfact>
</mgrwt>
</event>
<event>
 8    1  0.2433467E-020  0.7910264E+02  0.7818608E-02  0.1331617E+00
          2   -1    0    0  501    0  0.00000000000E+00  0.00000000000E+00  0.63482696425E+03  0.63482696425E+03  0.25500000000E-02 0. -1.
         -1   -1    0    0    0  501 -0.00000000000E+00 -0.00000000000E+00 -0.24641442698E+01  0.24641494241E+01  0.50400000000E-02 0.  1.
         24    2    1    2    0    0  0.00000000000E+00  0.00000000000E+00  0.63236281998E+03  0.63729111368E+03  0.79102638901E+02 0.  0.
         66    2    3    3    0    0 -0.87831245396E+01  0.21413263941E+02  0.57452220999E+03  0.57499168770E+03  0.20000007052E+01 0.  0.
        -13    1    3    3    0    0  0.87831245396E+01 -0.21413263941E+02  0.57840609992E+02  0.62299425981E+02  0.10566000000E+00 0.  1.
         13    1    4    4    0    0 -0.59412829927E+01  0.14606903149E+02  0.37329798730E+03  0.37363091273E+03  0.10566000000E+00 0. -1.
        -13    1    4    4    0    0 -0.22813737286E+01  0.60310887461E+01  0.17834316728E+03  0.17845972984E+03  0.10566000000E+00 0.  1.
         14    1    4    4    0    0 -0.56046781837E+00  0.77527204587E+00  0.22881055412E+02  0.22901045122E+02  0.00000000000E+00 0. -1.
<mgrwt>
<rscale>  0 0.79102639E+02</rscale>
<asrwt>0</asrwt>
<pdfrwt beam="1">  1        2 0.97665662E-01 0.79102639E+02</pdfrwt>
<pdfrwt beam="2">  1       -1 0.37909961E-03 0.79102639E+02</pdfrwt>
<totfact> 0.33629502E+05</totfact>
</mgrwt>
</event>
<event>
 8    1  0.2433467E-020  0.7966529E+02  0.7818608E-02  0.1330004E+00
         -1   -1    0    0    0  501 -0.00000000000E+00  0.00000000000E+00  0.11858876916E+02  0.11858877987E+02  0.50400000000E-02 0.  1.
          2   -1    0    0  501    0  0.00000000000E+00 -0.00000000000E+00 -0.13379340170E+03  0.13379340172E+03  0.25500000000E-02 0. -1.
         24    2    1    2    0    0  0.00000000000E+00 -0.35527136788E-14 -0.12193452478E+03  0.14565227971E+03  0.79665288870E+02 0.  0.
         66    2    3    3    0    0 -0.33093309245E+02 -0.21714406831E+02 -0.53259092281E+02  0.66386847307E+02  0.20000009815E+01 0.  0.
        -13    1    3    3    0    0  0.33093309245E+02  0.21714406831E+02 -0.68675432502E+02  0.79265432404E+02  0.10566000000E+00 0.  1.
         13    1    4    4    0    0 -0.93513818765E+01 -0.59649044448E+01 -0.15154263185E+02  0.18780076804E+02  0.10566000000E+00 0. -1.
        -13    1    4    4    0    0 -0.16796184099E+00 -0.26411298232E+00 -0.37464582448E+00  0.49949011688E+00  0.10566000000E+00 0.  1.
        -14    1    4    4    0    0 -0.23573965527E+02 -0.15485389404E+02 -0.37730183272E+02  0.47107280386E+02  0.00000000000E+00 0.  1.
<mgrwt>
<rscale>  0 0.79665289E+02</rscale>
<asrwt>0</asrwt>
<pdfrwt beam="1">  1        2 0.20583599E-01 0.79665289E+02</pdfrwt>
<pdfrwt beam="2">  1       -1 0.18244428E-02 0.79665289E+02</pdfrwt>
<totfact> 0.19534347E+05</totfact>
</mgrwt>
</event>
<event>
 8    1  0.2433467E-020  0.8093644E+02  0.7818608E-02  0.1326415E+00
          2   -1    0    0  501    0  0.00000000000E+00  0.00000000000E+00  0.15191418941E+04  0.15191418941E+04  0.25500000000E-02 0. -1.
         -1   -1    0    0    0  501 -0.00000000000E+00 -0.00000000000E+00 -0.10780217577E+01  0.10780335392E+01  0.50400000000E-02 0.  1.
         24    2    1    2    0    0  0.00000000000E+00  0.00000000000E+00  0.15180638723E+04  0.15202199276E+04  0.80936443503E+02 0.  0.
         66    2    3    3    0    0 -0.16238502053E+02  0.25575607589E+00  0.14552010449E+04  0.14552930411E+04  0.19999961330E+01 0.  0.
        -13    1    3    3    0    0  0.16238502053E+02 -0.25575607589E+00  0.62862827420E+02  0.64926886536E+02  0.10566000000E+00 0.  1.
         13    1    4    4    0    0 -0.91361423358E+01  0.50024538617E+00  0.83486538209E+03  0.83491552670E+03  0.10566000000E+00 0. -1.
        -13    1    4    4    0    0 -0.57454989072E+01  0.44830326635E-01  0.53074740988E+03  0.53077851974E+03  0.10566000000E+00 0.  1.
        -14    1    4    4    0    0 -0.13568608096E+01 -0.28931963691E+00  0.89588252919E+02  0.89598994627E+02  0.00000000000E+00 0.  1.
<mgrwt>
<rscale>  0 0.80936444E+02</rscale>
<asrwt>0</asrwt>
<pdfrwt beam="1">  1        2 0.23371342E+00 0.80936444E+02</pdfrwt>
<pdfrwt beam="2">  1       -1 0.16585092E-03 0.80936444E+02</pdfrwt>
<totfact> 0.32102804E+05</totfact>
</mgrwt>
</event>
<event>
 8    1  0.2433467E-020  0.7750247E+02  0.7818608E-02  0.1336292E+00
          2   -1    0    0  501    0  0.00000000000E+00  0.00000000000E+00  0.17481785832E+03  0.17481785834E+03  0.25500000000E-02 0. -1.
         -1   -1    0    0    0  501 -0.00000000000E+00 -0.00000000000E+00 -0.85898438215E+01  0.85898453001E+01  0.50400000000E-02 0.  1.
         24    2    1    2    0    0  0.00000000000E+00  0.71054273576E-14  0.16622801450E+03  0.18340770364E+03  0.77502470605E+02 0.  0.
         66    2    3    3    0    0  0.58408517598E+01  0.35211677941E+02  0.11871958010E+03  0.12398514634E+03  0.20000003663E+01 0.  0.
        -13    1    3    3    0    0 -0.58408517598E+01 -0.35211677941E+02  0.47508434399E+02  0.59422557298E+02  0.10566000000E+00 0.  1.
         13    1    4    4    0    0  0.22126188448E+01  0.11100216553E+02  0.40082065600E+02  0.41649653498E+02  0.10566000000E+00 0. -1.
        -13    1    4    4    0    0  0.34864881655E+01  0.23807708097E+02  0.77647774333E+02  0.81290531968E+02  0.10566000000E+00 0.  1.
        -14    1    4    4    0    0  0.14174474950E+00  0.30375329068E+00  0.98974016504E+00  0.10449608748E+01  0.00000000000E+00 0.  1.
<mgrwt>
<rscale>  0 0.77502471E+02</rscale>
<asrwt>0</asrwt>
<pdfrwt beam="1">  1        2 0.26895054E-01 0.77502471E+02</pdfrwt>
<pdfrwt beam="2">  1       -1 0.13215146E-02 0.77502471E+02</pdfrwt>
<totfact> 0.22905850E+05</totfact>
</mgrwt>
</event>
<event>
 8    1  0.2433467E-020  0.8042667E+02  0.7818608E-02  0.1327845E+00
          2   -1    0    0  501    0  0.00000000000E+00  0.00000000000E+00  0.16520337746E+04  0.16520337746E+04  0.25500000000E-02 0. -1.
         -1   -1    0    0    0  501 -0.00000000000E+00 -0.00000000000E+00 -0.97885501402E+00  0.97886798910E+00  0.50400000000E-02 0.  1.
         24    2    1    2    0    0  0.00000000000E+00  0.00000000000E+00  0.16510549196E+04  0.16530126426E+04  0.80426668941E+02 0.  0.
         66    2    3    3    0    0 -0.85058215035E+01  0.89900268930E+01  0.16118881071E+04  0.16119368596E+04  0.19999985130E+01 0.  0.
        -13    1    3    3    0    0  0.85058215035E+01 -0.89900268930E+01  0.39166812562E+02  0.41075783051E+02  0.10566000000E+00 0.  1.
         13    1    4    4    0    0 -0.15520580949E+01  0.11461064130E+01  0.22643512930E+03  0.22644337347E+03  0.10566000000E+00 0. -1.
        -13    1    4    4    0    0 -0.49613799469E+00  0.67601834243E+00  0.17597801140E+03  0.17598004095E+03  0.10566000000E+00 0.  1.
         14    1    4    4    0    0 -0.64576254140E+01  0.71679021376E+01  0.12094749664E+04  0.12095134451E+04  0.00000000000E+00 0. -1.
<mgrwt>
<rscale>  0 0.80426669E+02</rscale>
<asrwt>0</asrwt>
<pdfrwt beam="1">  1        2 0.25415611E+00 0.80426669E+02</pdfrwt>
<pdfrwt beam="2">  1       -1 0.15059582E-03 0.80426669E+02</pdfrwt>
<totfact> 0.31398666E+05</totfact>
</mgrwt>
</event>
