<event>
 8    1  0.1600673E-013  0.7852908E+02  0.7818608E-02  0.1333278E+00
          2   -1    0    0  501    0  0.00000000000E+00  0.00000000000E+00  0.29637763717E+02  0.29637763827E+02  0.25500000000E-02 0. -1.
         -1   -1    0    0    0  501 -0.00000000000E+00 -0.00000000000E+00 -0.52018236547E+02  0.52018236791E+02  0.50400000000E-02 0.  1.
         24    2    1    2    0    0 -0.17763568394E-14  0.71054273576E-14 -0.22380472830E+02  0.81656000618E+02  0.78529082975E+02 0.  0.
         66    2    3    3    0    0  0.44294326352E+01 -0.36243004193E+02  0.37457017235E+01  0.36758746946E+02  0.19999923089E+01 0.  0.
        -13    1    3    3    0    0 -0.44294326352E+01  0.36243004193E+02 -0.26126174553E+02  0.44897253672E+02  0.10566000000E+00 0.  1.
         13    1    4    4    0    0  0.25739955314E+01 -0.21984184008E+02  0.15691679306E+01  0.22190161143E+02  0.10566000000E+00 0. -1.
        -13    1    4    4    0    0  0.37007507147E+00 -0.57773275071E+01  0.69923663955E+00  0.58322006649E+01  0.10566000000E+00 0.  1.
        -14    1    4    4    0    0  0.14853620324E+01 -0.84814926782E+01  0.14772971533E+01  0.87363851390E+01  0.00000000000E+00 0.  1.
<mgrwt>
<rscale>  0 0.78529083E+02</rscale>
<asrwt>0</asrwt>
<pdfrwt beam="1">  1        2 0.45596560E-02 0.78529083E+02</pdfrwt>
<pdfrwt beam="2">  1       -1 0.80028057E-02 0.78529083E+02</pdfrwt>
<totfact> 0.14138973E+05</totfact>
</mgrwt>
</event>
<event>
 8    1  0.1600673E-013  0.7809427E+02  0.7818608E-02  0.1334548E+00
          2   -1    0    0  501    0  0.00000000000E+00  0.00000000000E+00  0.63123384056E+03  0.63123384056E+03  0.25500000000E-02 0. -1.
         -1   -1    0    0    0  501 -0.00000000000E+00 -0.00000000000E+00 -0.24153921334E+01  0.24153973917E+01  0.50400000000E-02 0.  1.
         24    2    1    2    0    0  0.00000000000E+00  0.35527136788E-14  0.62881844842E+03  0.63364923795E+03  0.78094274320E+02 0.  0.
         66    2    3    3    0    0  0.10958711532E+02  0.29111815286E+02  0.50577996951E+03  0.50673954720E+03  0.19999999658E+01 0.  0.
        -13    1    3    3    0    0 -0.10958711532E+02 -0.29111815286E+02  0.12303847892E+03  0.12690969075E+03  0.10566000000E+00 0.  1.
         13    1    4    4    0    0  0.39486158266E+01  0.11088716528E+02  0.20295443114E+03  0.20329550778E+03  0.10566000000E+00 0. -1.
        -13    1    4    4    0    0  0.33286700949E+01  0.78713932908E+01  0.12718240013E+03  0.12746926274E+03  0.10566000000E+00 0.  1.
         14    1    4    4    0    0  0.36814256105E+01  0.10151705468E+02  0.17564313824E+03  0.17597477668E+03  0.00000000000E+00 0. -1.
<mgrwt>
<rscale>  0 0.78094274E+02</rscale>
<asrwt>0</asrwt>
<pdfrwt beam="1">  1        2 0.97113011E-01 0.78094274E+02</pdfrwt>
<pdfrwt beam="2">  1       -1 0.37159876E-03 0.78094274E+02</pdfrwt>
<totfact> 0.34716941E+05</totfact>
</mgrwt>
</event>
<event>
 8    1  0.1600673E-013  0.7947690E+02  0.7818608E-02  0.1330542E+00
         -1   -1    0    0    0  501 -0.00000000000E+00  0.00000000000E+00  0.23163511587E+02  0.23163512136E+02  0.50400000000E-02 0.  1.
          2   -1    0    0  501    0  0.00000000000E+00 -0.00000000000E+00 -0.68173794417E+02  0.68173794464E+02  0.25500000000E-02 0. -1.
         24    2    1    2    0    0  0.88817841970E-15  0.00000000000E+00 -0.45010282829E+02  0.91337306600E+02  0.79476902409E+02 0.  0.
         66    2    3    3    0    0 -0.53040818853E+01 -0.21266097027E+02 -0.60578841672E+02  0.64452899300E+02  0.20000005889E+01 0.  0.
        -13    1    3    3    0    0  0.53040818853E+01  0.21266097027E+02  0.15568558843E+02  0.26884407300E+02  0.10566000000E+00 0.  1.
         13    1    4    4    0    0 -0.14137696033E+01 -0.78052844534E+01 -0.19950762043E+02  0.21470102003E+02  0.10566000000E+00 0.  1.
        -13    1    4    4    0    0 -0.10214206183E+01 -0.25932002397E+01 -0.83968904745E+01  0.88479896722E+01  0.10566000000E+00 0.  1.
         14    1    4    4    0    0 -0.28688916637E+01 -0.10867612334E+02 -0.32231189155E+02  0.34134807624E+02  0.00000000000E+00 0. -1.
<mgrwt>
<rscale>  0 0.79476902E+02</rscale>
<asrwt>0</asrwt>
<pdfrwt beam="1">  1        2 0.10488276E-01 0.79476902E+02</pdfrwt>
<pdfrwt beam="2">  1       -1 0.35636172E-02 0.79476902E+02</pdfrwt>
<totfact> 0.16330663E+05</totfact>
</mgrwt>
</event>
<event>
 8    1  0.1600673E-013  0.8091858E+02  0.7818608E-02  0.1326465E+00
         -1   -1    0    0    0  501 -0.00000000000E+00  0.00000000000E+00  0.66773434273E+01  0.66773453294E+01  0.50400000000E-02 0.  1.
          2   -1    0    0  501    0  0.00000000000E+00 -0.00000000000E+00 -0.24515048888E+03  0.24515048889E+03  0.25500000000E-02 0. -1.
         24    2    1    2    0    0  0.00000000000E+00 -0.71054273576E-14 -0.23847314545E+03  0.25182783422E+03  0.80918582458E+02 0.  0.
         66    2    3    3    0    0  0.48991669876E+01  0.38191921131E+02 -0.15771887162E+03  0.16236337993E+03  0.19999995022E+01 0.  0.
        -13    1    3    3    0    0 -0.48991669876E+01 -0.38191921131E+02 -0.80754273826E+02  0.89464454293E+02  0.10566000000E+00 0.  1.
         13    1    4    4    0    0  0.23492045265E+01  0.15465541805E+02 -0.65611054515E+02  0.67450154810E+02  0.10566000000E+00 0. -1.
        -13    1    4    4    0    0  0.16423839530E+01  0.11658437861E+02 -0.45113415392E+02  0.46624543009E+02  0.10566000000E+00 0.  1.
         14    1    4    4    0    0  0.90757850817E+00  0.11067941465E+02 -0.46994401717E+02  0.48288682108E+02  0.00000000000E+00 0. -1.
<mgrwt>
<rscale>  0 0.80918582E+02</rscale>
<asrwt>0</asrwt>
<pdfrwt beam="1">  1        2 0.37715453E-01 0.80918582E+02</pdfrwt>
<pdfrwt beam="2">  1       -1 0.10272839E-02 0.80918582E+02</pdfrwt>
<totfact> 0.23000188E+05</totfact>
</mgrwt>
</event>
<event>
 8    1  0.1600673E-013  0.8108034E+02  0.7818608E-02  0.1326013E+00
          2   -1    0    0  501    0  0.00000000000E+00  0.00000000000E+00  0.46249614388E+03  0.46249614388E+03  0.25500000000E-02 0. -1.
         -1   -1    0    0    0  501 -0.00000000000E+00 -0.00000000000E+00 -0.35535528366E+01  0.35535564107E+01  0.50400000000E-02 0.  1.
         24    2    1    2    0    0  0.71054273576E-14 -0.88817841970E-15  0.45894259104E+03  0.46604970029E+03  0.81080338393E+02 0.  0.
         66    2    3    3    0    0 -0.36688582915E+02  0.72458642704E+01  0.31920294945E+03  0.32139240438E+03  0.19999976461E+01 0.  0.
        -13    1    3    3    0    0  0.36688582915E+02 -0.72458642704E+01  0.13973964159E+03  0.14465729591E+03  0.10566000000E+00 0.  1.
         13    1    4    4    0    0 -0.63517337280E+01  0.67196175473E+00  0.57498364489E+02  0.57852131654E+02  0.10566000000E+00 0. -1.
        -13    1    4    4    0    0 -0.55837777836E+01  0.10201805728E+01  0.45936309179E+02  0.46285797041E+02  0.10566000000E+00 0.  1.
         14    1    4    4    0    0 -0.24753071404E+02  0.55537219429E+01  0.21576827578E+03  0.21725447568E+03  0.00000000000E+00 0. -1.
<mgrwt>
<rscale>  0 0.81080338E+02</rscale>
<asrwt>0</asrwt>
<pdfrwt beam="1">  1        2 0.71153206E-01 0.81080338E+02</pdfrwt>
<pdfrwt beam="2">  1       -1 0.54670107E-03 0.81080338E+02</pdfrwt>
<totfact> 0.28667205E+05</totfact>
</mgrwt>
</event>
<event>
 8    1  0.1600673E-013  0.8050603E+02  0.7818608E-02  0.1327622E+00
         -1   -1    0    0    0  501 -0.00000000000E+00  0.00000000000E+00  0.18468427961E+01  0.18468496732E+01  0.50400000000E-02 0.  1.
          2   -1    0    0  501    0  0.00000000000E+00 -0.00000000000E+00 -0.87733626252E+03  0.87733626253E+03  0.25500000000E-02 0. -1.
         24    2    1    2    0    0 -0.17763568394E-14 -0.35527136788E-14 -0.87548941973E+03  0.87918311220E+03  0.80506029114E+02 0.  0.
         66    2    3    3    0    0 -0.91658200437E+01 -0.16370086025E+02 -0.82663009133E+03  0.82684539053E+03  0.19999963851E+01 0.  0.
        -13    1    3    3    0    0  0.91658200437E+01  0.16370086025E+02 -0.48859328401E+02  0.52337721668E+02  0.10566000000E+00 0.  1.
         13    1    4    4    0    0 -0.47318627127E+01 -0.72340748010E+01 -0.35367528831E+03  0.35378092527E+03  0.10566000000E+00 0. -1.
        -13    1    4    4    0    0 -0.15989196997E+01 -0.30695495342E+01 -0.17778338717E+03  0.17781710434E+03  0.10566000000E+00 0.  1.
        -14    1    4    4    0    0 -0.28350376314E+01 -0.60664616893E+01 -0.29517141586E+03  0.29524736093E+03  0.00000000000E+00 0.  1.
<mgrwt>
<rscale>  0 0.80506029E+02</rscale>
<asrwt>0</asrwt>
<pdfrwt beam="1">  1        2 0.13497448E+00 0.80506029E+02</pdfrwt>
<pdfrwt beam="2">  1       -1 0.28413089E-03 0.80506029E+02</pdfrwt>
<totfact> 0.34276046E+05</totfact>
</mgrwt>
</event>
<event>
 8    1  0.1600673E-013  0.7630888E+02  0.7818608E-02  0.1339865E+00
          2   -1    0    0  501    0  0.00000000000E+00  0.00000000000E+00  0.99722247888E+02  0.99722247920E+02  0.25500000000E-02 0. -1.
         -1   -1    0    0    0  501 -0.00000000000E+00 -0.00000000000E+00 -0.14598159274E+02  0.14598160144E+02  0.50400000000E-02 0.  1.
         24    2    1    2    0    0  0.00000000000E+00  0.00000000000E+00  0.85124088614E+02  0.11432040806E+03  0.76308880463E+02 0.  0.
         66    2    3    3    0    0  0.22935186060E+02  0.58695105649E+01  0.87366973220E+02  0.90539835967E+02  0.19999933844E+01 0.  0.
        -13    1    3    3    0    0 -0.22935186060E+02 -0.58695105649E+01 -0.22428846056E+01  0.23780572097E+02  0.10566000000E+00 0.  1.
         13    1    4    4    0    0  0.19654024448E+02  0.52390324597E+01  0.74761308428E+02  0.77478981279E+02  0.10566000000E+00 0. -1.
        -13    1    4    4    0    0  0.31328962918E+01  0.42744006674E+00  0.11525986804E+02  0.11952291831E+02  0.10566000000E+00 0.  1.
        -14    1    4    4    0    0  0.14826531969E+00  0.20303803846E+00  0.10796779878E+01  0.11085628568E+01  0.00000000000E+00 0.  1.
<mgrwt>
<rscale>  0 0.76308880E+02</rscale>
<asrwt>0</asrwt>
<pdfrwt beam="1">  1        2 0.15341883E-01 0.76308880E+02</pdfrwt>
<pdfrwt beam="2">  1       -1 0.22458709E-02 0.76308880E+02</pdfrwt>
<totfact> 0.20094493E+05</totfact>
</mgrwt>
</event>
<event>
 8    1  0.1600673E-013  0.7126209E+02  0.7818608E-02  0.1355853E+00
         -1   -1    0    0    0  501 -0.00000000000E+00  0.00000000000E+00  0.10393435219E+02  0.10393436441E+02  0.50400000000E-02 0.  1.
          2   -1    0    0  501    0  0.00000000000E+00 -0.00000000000E+00 -0.12215126289E+03  0.12215126292E+03  0.25500000000E-02 0. -1.
         24    2    1    2    0    0  0.00000000000E+00  0.35527136788E-14 -0.11175782768E+03  0.13254469936E+03  0.71262088675E+02 0.  0.
         66    2    3    3    0    0 -0.27822973623E+02 -0.21669186795E+02 -0.46830845627E+02  0.58658329310E+02  0.19999944132E+01 0.  0.
        -13    1    3    3    0    0  0.27822973623E+02  0.21669186795E+02 -0.64926982048E+02  0.73886370053E+02  0.10566000000E+00 0.  1.
         13    1    4    4    0    0 -0.20947560013E+02 -0.16573600706E+02 -0.36529652133E+02  0.45253852431E+02  0.10566000000E+00 0. -1.
        -13    1    4    4    0    0 -0.60501352518E+01 -0.45549969751E+01 -0.93656102362E+01  0.12044830972E+02  0.10566000000E+00 0.  1.
         14    1    4    4    0    0 -0.82527835858E+00 -0.54058911416E+00 -0.93558325743E+00  0.13596459065E+01  0.00000000000E+00 0. -1.
<mgrwt>
<rscale>  0 0.71262089E+02</rscale>
<asrwt>0</asrwt>
<pdfrwt beam="1">  1        2 0.18792501E-01 0.71262089E+02</pdfrwt>
<pdfrwt beam="2">  1       -1 0.15989902E-02 0.71262089E+02</pdfrwt>
<totfact> 0.25511648E+05</totfact>
</mgrwt>
</event>
<event>
 8    1  0.1728223E-013  0.8065527E+02  0.7818608E-02  0.1327202E+00
         -1   -1    0    0    0  501 -0.00000000000E+00  0.00000000000E+00  0.36875308408E+01  0.36875342851E+01  0.50400000000E-02 0.  1.
          2   -1    0    0  501    0  0.00000000000E+00 -0.00000000000E+00 -0.44103147951E+03  0.44103147952E+03  0.25500000000E-02 0. -1.
         24    2    1    2    0    0 -0.35527136788E-14  0.00000000000E+00 -0.43734394867E+03  0.44471901380E+03  0.80655265171E+02 0.  0.
         66    2    3    3    0    0 -0.24156743896E+02  0.24292143805E+01 -0.39618192580E+03  0.39693017987E+03  0.20000002070E+01 0.  0.
        -13    1    3    3    0    0  0.24156743896E+02 -0.24292143805E+01 -0.41162022869E+02  0.47788833934E+02  0.10566000000E+00 0.  1.
         13    1    4    4    0    0 -0.34270793479E+00  0.36300528525E-02 -0.67021842453E+01  0.67117732083E+01  0.10566000000E+00 0.  1.
        -13    1    4    4    0    0 -0.16920415242E+01 -0.23518511591E+00 -0.25680962180E+02  0.25737935020E+02  0.10566000000E+00 0.  1.
         14    1    4    4    0    0 -0.22121994437E+02  0.26607694435E+01 -0.36379877938E+03  0.36448047164E+03  0.00000000000E+00 0. -1.
<mgrwt>
<rscale>  0 0.80655265E+02</rscale>
<asrwt>0</asrwt>
<pdfrwt beam="1">  1        2 0.67850955E-01 0.80655265E+02</pdfrwt>
<pdfrwt beam="2">  1       -1 0.56731305E-03 0.80655265E+02</pdfrwt>
<totfact> 0.28603919E+05</totfact>
</mgrwt>
</event>
<event>
 8    1  0.1600673E-013  0.8074360E+02  0.7818608E-02  0.1326954E+00
         -1   -1    0    0    0  501 -0.00000000000E+00  0.00000000000E+00  0.41078163618E+02  0.41078163927E+02  0.50400000000E-02 0.  1.
          2   -1    0    0  501    0  0.00000000000E+00 -0.00000000000E+00 -0.39677585509E+02  0.39677585591E+02  0.25500000000E-02 0. -1.
         24    2    1    2    0    0  0.88817841970E-15  0.35527136788E-14  0.14005781087E+01  0.80755749519E+02  0.80743603222E+02 0.  0.
         66    2    3    3    0    0  0.74241746867E+01  0.28725368771E+02 -0.26645893950E+02  0.39928296258E+02  0.19999992223E+01 0.  0.
        -13    1    3    3    0    0 -0.74241746867E+01 -0.28725368771E+02  0.28046472059E+02  0.40827453261E+02  0.10566000000E+00 0.  1.
         13    1    4    4    0    0  0.14641049562E+01  0.55419073361E+01 -0.51474937243E+01  0.77048164107E+01  0.10566000000E+00 0. -1.
        -13    1    4    4    0    0  0.53967164589E+01  0.18394242383E+02 -0.17570400272E+02  0.26003900306E+02  0.10566000000E+00 0.  1.
        -14    1    4    4    0    0  0.56335327158E+00  0.47892190519E+01 -0.39279999534E+01  0.62195795412E+01  0.00000000000E+00 0.  1.
<mgrwt>
<rscale>  0 0.80743603E+02</rscale>
<asrwt>0</asrwt>
<pdfrwt beam="1">  1        2 0.61042439E-02 0.80743603E+02</pdfrwt>
<pdfrwt beam="2">  1       -1 0.63197175E-02 0.80743603E+02</pdfrwt>
<totfact> 0.13871776E+05</totfact>
</mgrwt>
</event>
<event>
 8    1  0.1600673E-013  0.7787731E+02  0.7818608E-02  0.1335186E+00
          2   -1    0    0  501    0  0.00000000000E+00  0.00000000000E+00  0.54760552588E+02  0.54760552647E+02  0.25500000000E-02 0. -1.
         -1   -1    0    0    0  501 -0.00000000000E+00 -0.00000000000E+00 -0.27688157388E+02  0.27688157847E+02  0.50400000000E-02 0.  1.
         24    2    1    2    0    0  0.00000000000E+00 -0.88817841970E-15  0.27072395199E+02  0.82448710494E+02  0.77877309149E+02 0.  0.
         66    2    3    3    0    0  0.38612596484E+02  0.45334762487E+01  0.15293996948E+02  0.41825726316E+02  0.20000062688E+01 0.  0.
        -13    1    3    3    0    0 -0.38612596484E+02 -0.45334762487E+01  0.11778398251E+02  0.40622984178E+02  0.10566000000E+00 0.  1.
         13    1    4    4    0    0  0.21812447205E+02  0.31802534427E+01  0.89825354403E+01  0.23803234486E+02  0.10566000000E+00 0.  1.
        -13    1    4    4    0    0  0.14767345742E+02  0.98984190414E+00  0.57864280091E+01  0.15891765175E+02  0.10566000000E+00 0. -1.
        -14    1    4    4    0    0  0.20328035374E+01  0.36338090188E+00  0.52503349885E+00  0.21307266545E+01  0.00000000000E+00 0.  1.
<mgrwt>
<rscale>  0 0.77877309E+02</rscale>
<asrwt>0</asrwt>
<pdfrwt beam="1">  1        2 0.84247004E-02 0.77877309E+02</pdfrwt>
<pdfrwt beam="2">  1       -1 0.42597166E-02 0.77877309E+02</pdfrwt>
<totfact> 0.16405203E+05</totfact>
</mgrwt>
</event>
<event>
 8    1  0.1600673E-013  0.7886493E+02  0.7818608E-02  0.1332304E+00
         -1   -1    0    0    0  501 -0.00000000000E+00  0.00000000000E+00  0.13245175886E+01  0.13245271776E+01  0.50400000000E-02 0.  1.
          2   -1    0    0  501    0  0.00000000000E+00 -0.00000000000E+00 -0.11739472922E+04  0.11739472922E+04  0.25500000000E-02 0. -1.
         24    2    1    2    0    0  0.00000000000E+00  0.00000000000E+00 -0.11726227746E+04  0.11752718194E+04  0.78864934491E+02 0.  0.
         66    2    3    3    0    0 -0.11215478149E+02  0.15034858944E+02 -0.11031518755E+04  0.11033131443E+04  0.20000018398E+01 0.  0.
        -13    1    3    3    0    0  0.11215478149E+02 -0.15034858944E+02 -0.69470899118E+02  0.71958675099E+02  0.10566000000E+00 0.  1.
         13    1    4    4    0    0 -0.39185422097E+01  0.58657376871E+01 -0.39565336600E+03  0.39571626077E+03  0.10566000000E+00 0. -1.
        -13    1    4    4    0    0 -0.64062449418E+01  0.73408996777E+01 -0.60058405354E+03  0.60066308802E+03  0.10566000000E+00 0.  1.
        -14    1    4    4    0    0 -0.89069099790E+00  0.18282215797E+01 -0.10691445596E+03  0.10693379549E+03  0.00000000000E+00 0.  1.
<mgrwt>
<rscale>  0 0.78864934E+02</rscale>
<asrwt>0</asrwt>
<pdfrwt beam="1">  1        2 0.18060644E+00 0.78864934E+02</pdfrwt>
<pdfrwt beam="2">  1       -1 0.20377361E-03 0.78864934E+02</pdfrwt>
<totfact> 0.36441027E+05</totfact>
</mgrwt>
</event>
<event>
 8    1  0.1600673E-013  0.8251624E+02  0.7818608E-02  0.1322059E+00
         -1   -1    0    0    0  501 -0.00000000000E+00  0.00000000000E+00  0.69369674969E+02  0.69369675152E+02  0.50400000000E-02 0.  1.
          2   -1    0    0  501    0  0.00000000000E+00 -0.00000000000E+00 -0.24538566902E+02  0.24538567035E+02  0.25500000000E-02 0. -1.
         24    2    1    2    0    0  0.00000000000E+00  0.00000000000E+00  0.44831108067E+02  0.93908242187E+02  0.82516239008E+02 0.  0.
         66    2    3    3    0    0  0.71567048884E+01  0.27535022331E+02 -0.11538696762E+02  0.30765848028E+02  0.20000005676E+01 0.  0.
        -13    1    3    3    0    0 -0.71567048884E+01 -0.27535022331E+02  0.56369804829E+02  0.63142394159E+02  0.10566000000E+00 0.  1.
         13    1    4    4    0    0  0.47699773222E+01  0.16384753907E+02 -0.73007883150E+01  0.18561398608E+02  0.10566000000E+00 0. -1.
        -13    1    4    4    0    0  0.23408272924E+01  0.11093274116E+02 -0.41155686049E+01  0.12061893383E+02  0.10566000000E+00 0.  1.
        -14    1    4    4    0    0  0.45900273773E-01  0.56994308450E-01 -0.12233984244E+00  0.14255603592E+00  0.00000000000E+00 0.  1.
<mgrwt>
<rscale>  0 0.82516239E+02</rscale>
<asrwt>0</asrwt>
<pdfrwt beam="1">  1        2 0.37751642E-02 0.82516239E+02</pdfrwt>
<pdfrwt beam="2">  1       -1 0.10672258E-01 0.82516239E+02</pdfrwt>
<totfact> 0.11842751E+05</totfact>
</mgrwt>
</event>
<event>
 8    1  0.1600673E-013  0.7502618E+02  0.7818608E-02  0.1343790E+00
          2   -1    0    0  501    0  0.00000000000E+00  0.00000000000E+00  0.16655795941E+03  0.16655795943E+03  0.25500000000E-02 0. -1.
         -1   -1    0    0    0  501 -0.00000000000E+00 -0.00000000000E+00 -0.84489025935E+01  0.84489040967E+01  0.50400000000E-02 0.  1.
         24    2    1    2    0    0 -0.71054273576E-14 -0.22204460493E-15  0.15810905682E+03  0.17500686353E+03  0.75026184989E+02 0.  0.
         66    2    3    3    0    0 -0.30773898480E+02 -0.17784047232E+01  0.12886856271E+03  0.13251906280E+03  0.19999999063E+01 0.  0.
        -13    1    3    3    0    0  0.30773898480E+02  0.17784047232E+01  0.29240494112E+02  0.42487800731E+02  0.10566000000E+00 0.  1.
         13    1    4    4    0    0 -0.17384334033E+02 -0.13426345464E+01  0.70847203769E+02  0.72961326627E+02  0.10566000000E+00 0. -1.
        -13    1    4    4    0    0 -0.13399561106E+02 -0.46334311593E+00  0.57942878161E+02  0.59473954116E+02  0.10566000000E+00 0.  1.
        -14    1    4    4    0    0  0.99966589196E-02  0.27572939167E-01  0.78480777823E-01  0.83782054472E-01  0.00000000000E+00 0.  1.
<mgrwt>
<rscale>  0 0.75026185E+02</rscale>
<asrwt>0</asrwt>
<pdfrwt beam="1">  1        2 0.25624298E-01 0.75026185E+02</pdfrwt>
<pdfrwt beam="2">  1       -1 0.12998315E-02 0.75026185E+02</pdfrwt>
<totfact> 0.24552891E+05</totfact>
</mgrwt>
</event>
<event>
 8    1  0.1600673E-013  0.8124375E+02  0.7818608E-02  0.1325558E+00
          2   -1    0    0  501    0  0.00000000000E+00  0.00000000000E+00  0.26276554798E+03  0.26276554799E+03  0.25500000000E-02 0. -1.
         -1   -1    0    0    0  501 -0.00000000000E+00 -0.00000000000E+00 -0.62798814171E+01  0.62798834395E+01  0.50400000000E-02 0.  1.
         24    2    1    2    0    0  0.00000000000E+00 -0.35527136788E-14  0.25648566656E+03  0.26904543143E+03  0.81243750665E+02 0.  0.
         66    2    3    3    0    0 -0.32738761695E+02  0.19438613083E+02  0.17497084032E+03  0.17907674656E+03  0.20000001776E+01 0.  0.
        -13    1    3    3    0    0  0.32738761695E+02 -0.19438613083E+02  0.81514826246E+02  0.89968684873E+02  0.10566000000E+00 0.  1.
         13    1    4    4    0    0 -0.91295777033E+01  0.58411654521E+01  0.49767278403E+02  0.50933894084E+02  0.10566000000E+00 0. -1.
        -13    1    4    4    0    0 -0.39754482788E+01  0.28434077175E+01  0.20927472564E+02  0.21490915021E+02  0.10566000000E+00 0.  1.
        -14    1    4    4    0    0 -0.19633735713E+02  0.10754039914E+02  0.10427608935E+03  0.10665193745E+03  0.00000000000E+00 0.  1.
<mgrwt>
<rscale>  0 0.81243751E+02</rscale>
<asrwt>0</asrwt>
<pdfrwt beam="1">  1        2 0.40425455E-01 0.81243751E+02</pdfrwt>
<pdfrwt beam="2">  1       -1 0.96613609E-03 0.81243751E+02</pdfrwt>
<totfact> 0.23334161E+05</totfact>
</mgrwt>
</event>
<event>
 8    1  0.1600673E-013  0.7875316E+02  0.7818608E-02  0.1332627E+00
         -1   -1    0    0    0  501 -0.00000000000E+00  0.00000000000E+00  0.59437662931E+01  0.59437684299E+01  0.50400000000E-02 0.  1.
          2   -1    0    0  501    0  0.00000000000E+00 -0.00000000000E+00 -0.26086402953E+03  0.26086402954E+03  0.25500000000E-02 0. -1.
         24    2    1    2    0    0 -0.55511151231E-16  0.00000000000E+00 -0.25492026324E+03  0.26680779797E+03  0.78753161524E+02 0.  0.
         66    2    3    3    0    0  0.18410118075E+00 -0.37734036571E+02 -0.89722044519E+02  0.97354695195E+02  0.19999986744E+01 0.  0.
        -13    1    3    3    0    0 -0.18410118075E+00  0.37734036571E+02 -0.16519821872E+03  0.16945310278E+03  0.10566000000E+00 0.  1.
         13    1    4    4    0    0  0.64320332039E+00 -0.14613579941E+02 -0.34867832735E+02  0.37812000118E+02  0.10566000000E+00 0. -1.
        -13    1    4    4    0    0 -0.74204432220E+00 -0.21465898476E+02 -0.50691522879E+02  0.55054310303E+02  0.10566000000E+00 0.  1.
        -14    1    4    4    0    0  0.28294218256E+00 -0.16545581542E+01 -0.41626889043E+01  0.44883847739E+01  0.00000000000E+00 0.  1.
<mgrwt>
<rscale>  0 0.78753162E+02</rscale>
<asrwt>0</asrwt>
<pdfrwt beam="1">  1        2 0.40132919E-01 0.78753162E+02</pdfrwt>
<pdfrwt beam="2">  1       -1 0.91442595E-03 0.78753162E+02</pdfrwt>
<totfact> 0.25256527E+05</totfact>
</mgrwt>
</event>
<event>
 8    1  0.1600673E-013  0.7927091E+02  0.7818608E-02  0.1331133E+00
          2   -1    0    0  501    0  0.00000000000E+00  0.00000000000E+00  0.15851237323E+03  0.15851237325E+03  0.25500000000E-02 0. -1.
         -1   -1    0    0    0  501 -0.00000000000E+00 -0.00000000000E+00 -0.99107026279E+01  0.99107039094E+01  0.50400000000E-02 0.  1.
         24    2    1    2    0    0  0.00000000000E+00 -0.35527136788E-14  0.14860167060E+03  0.16842307716E+03  0.79270905219E+02 0.  0.
         66    2    3    3    0    0  0.12910350590E+01 -0.25412442748E+02  0.13884457564E+03  0.14117108486E+03  0.19999998866E+01 0.  0.
        -13    1    3    3    0    0 -0.12910350590E+01  0.25412442748E+02  0.97570949649E+01  0.27251992297E+02  0.10566000000E+00 0.  1.
         13    1    4    4    0    0  0.11028558656E+00 -0.90515430981E+01  0.48029886897E+02  0.48875595083E+02  0.10566000000E+00 0. -1.
        -13    1    4    4    0    0  0.60676660796E+00 -0.10875306198E+02  0.63851376950E+02  0.64773836949E+02  0.10566000000E+00 0.  1.
        -14    1    4    4    0    0  0.57398286447E+00 -0.54855934523E+01  0.26963311792E+02  0.27521652832E+02  0.00000000000E+00 0.  1.
<mgrwt>
<rscale>  0 0.79270905E+02</rscale>
<asrwt>0</asrwt>
<pdfrwt beam="1">  1        2 0.24386515E-01 0.79270905E+02</pdfrwt>
<pdfrwt beam="2">  1       -1 0.15247238E-02 0.79270905E+02</pdfrwt>
<totfact> 0.20892995E+05</totfact>
</mgrwt>
</event>
<event>
 8    1  0.1600673E-013  0.8058845E+02  0.7818608E-02  0.1327390E+00
          2   -1    0    0  501    0  0.00000000000E+00  0.00000000000E+00  0.84456456494E+02  0.84456456532E+02  0.25500000000E-02 0. -1.
         -1   -1    0    0    0  501 -0.00000000000E+00 -0.00000000000E+00 -0.19224399752E+02  0.19224400413E+02  0.50400000000E-02 0.  1.
         24    2    1    2    0    0  0.00000000000E+00  0.00000000000E+00  0.65232056741E+02  0.10368085695E+03  0.80588453703E+02 0.  0.
         66    2    3    3    0    0 -0.22540926571E+02 -0.23608848669E+02  0.62976453590E+02  0.70961290693E+02  0.19999909631E+01 0.  0.
        -13    1    3    3    0    0  0.22540926571E+02  0.23608848669E+02  0.22556031515E+01  0.32719566253E+02  0.10566000000E+00 0.  1.
         13    1    4    4    0    0 -0.39478712576E+01 -0.43638598344E+01  0.11242119363E+02  0.12689577295E+02  0.10566000000E+00 0. -1.
        -13    1    4    4    0    0 -0.69506419476E+01 -0.70619362117E+01  0.21006630561E+02  0.23226537798E+02  0.10566000000E+00 0.  1.
        -14    1    4    4    0    0 -0.11642413366E+02 -0.12183052623E+02  0.30727703667E+02  0.35045175600E+02  0.00000000000E+00 0.  1.
<mgrwt>
<rscale>  0 0.80588454E+02</rscale>
<asrwt>0</asrwt>
<pdfrwt beam="1">  1        2 0.12993301E-01 0.80588454E+02</pdfrwt>
<pdfrwt beam="2">  1       -1 0.29576001E-02 0.80588454E+02</pdfrwt>
<totfact> 0.16601389E+05</totfact>
</mgrwt>
</event>
<event>
 8    1  0.1600673E-013  0.8022956E+02  0.7818608E-02  0.1328401E+00
          2   -1    0    0  501    0  0.00000000000E+00  0.00000000000E+00  0.54075406629E+03  0.54075406630E+03  0.25500000000E-02 0. -1.
         -1   -1    0    0    0  501 -0.00000000000E+00 -0.00000000000E+00 -0.29758344092E+01  0.29758386772E+01  0.50400000000E-02 0.  1.
         24    2    1    2    0    0  0.35527136788E-14  0.35527136788E-14  0.53777823188E+03  0.54372990497E+03  0.80229563612E+02 0.  0.
         66    2    3    3    0    0  0.24208924684E+02  0.23716564834E+02  0.41419547271E+03  0.41558445242E+03  0.19999993948E+01 0.  0.
        -13    1    3    3    0    0 -0.24208924684E+02 -0.23716564834E+02  0.12358275917E+03  0.12814545255E+03  0.10566000000E+00 0.  1.
         13    1    4    4    0    0  0.31288136392E+01  0.33350863383E+01  0.60242520003E+02  0.60415930483E+02  0.10566000000E+00 0. -1.
        -13    1    4    4    0    0  0.14771274361E+02  0.15185076920E+02  0.25706807610E+03  0.25793949682E+03  0.10566000000E+00 0.  1.
         14    1    4    4    0    0  0.63088366831E+01  0.51964015753E+01  0.96884876610E+02  0.97229025117E+02  0.00000000000E+00 0. -1.
<mgrwt>
<rscale>  0 0.80229564E+02</rscale>
<asrwt>0</asrwt>
<pdfrwt beam="1">  1        2 0.83192889E-01 0.80229564E+02</pdfrwt>
<pdfrwt beam="2">  1       -1 0.45782125E-03 0.80229564E+02</pdfrwt>
<totfact> 0.30970760E+05</totfact>
</mgrwt>
</event>
<event>
 8    1  0.1600673E-013  0.8024161E+02  0.7818608E-02  0.1328367E+00
         -1   -1    0    0    0  501 -0.00000000000E+00  0.00000000000E+00  0.24518580504E+01  0.24518632304E+01  0.50400000000E-02 0.  1.
          2   -1    0    0  501    0  0.00000000000E+00 -0.00000000000E+00 -0.65651320676E+03  0.65651320677E+03  0.25500000000E-02 0. -1.
         24    2    1    2    0    0  0.00000000000E+00  0.00000000000E+00 -0.65406134871E+03  0.65896507000E+03  0.80241607649E+02 0.  0.
         66    2    3    3    0    0 -0.32800024998E+02  0.19935220729E+01 -0.51591132924E+03  0.51696065171E+03  0.20000010776E+01 0.  0.
        -13    1    3    3    0    0  0.32800024998E+02 -0.19935220729E+01 -0.13815001947E+03  0.14200441829E+03  0.10566000000E+00 0.  1.
         13    1    4    4    0    0 -0.60627571823E+00  0.18018615527E+00 -0.11520473513E+02  0.11538306258E+02  0.10566000000E+00 0.  1.
        -13    1    4    4    0    0 -0.36884173761E+01 -0.21579195146E+00 -0.58483811367E+02  0.58600497822E+02  0.10566000000E+00 0.  1.
         14    1    4    4    0    0 -0.28505331904E+02  0.20291278691E+01 -0.44590704436E+03  0.44682184763E+03  0.00000000000E+00 0. -1.
<mgrwt>
<rscale>  0 0.80241608E+02</rscale>
<asrwt>0</asrwt>
<pdfrwt beam="1">  1        2 0.10100189E+00 0.80241608E+02</pdfrwt>
<pdfrwt beam="2">  1       -1 0.37720985E-03 0.80241608E+02</pdfrwt>
<totfact> 0.32682892E+05</totfact>
</mgrwt>
</event>
<event>
 8    1  0.1600673E-013  0.7618789E+02  0.7818608E-02  0.1340231E+00
         -1   -1    0    0    0  501 -0.00000000000E+00  0.00000000000E+00  0.94232976343E+02  0.94232976478E+02  0.50400000000E-02 0.  1.
          2   -1    0    0  501    0  0.00000000000E+00 -0.00000000000E+00 -0.15399583594E+02  0.15399583805E+02  0.25500000000E-02 0. -1.
         24    2    1    2    0    0 -0.35527136788E-14  0.71054273576E-14  0.78833392749E+02  0.10963256028E+03  0.76187889207E+02 0.  0.
         66    2    3    3    0    0  0.25040518849E+02 -0.18574457411E+02  0.80125873647E+01  0.32252745785E+02  0.20000005086E+01 0.  0.
        -13    1    3    3    0    0 -0.25040518849E+02  0.18574457411E+02  0.70820805384E+02  0.77379814498E+02  0.10566000000E+00 0.  1.
         13    1    4    4    0    0  0.10776424743E+02 -0.76554295263E+01  0.40301546053E+01  0.13819921912E+02  0.10566000000E+00 0. -1.
        -13    1    4    4    0    0  0.72052466976E+00 -0.85901081652E+00  0.27411469633E+00  0.11590333408E+01  0.10566000000E+00 0.  1.
         14    1    4    4    0    0  0.13543569437E+02 -0.10060017068E+02  0.37083180630E+01  0.17273790533E+02  0.00000000000E+00 0. -1.
<mgrwt>
<rscale>  0 0.76187889E+02</rscale>
<asrwt>0</asrwt>
<pdfrwt beam="1">  1        2 0.23691667E-02 0.76187889E+02</pdfrwt>
<pdfrwt beam="2">  1       -1 0.14497381E-01 0.76187889E+02</pdfrwt>
<totfact> 0.13552990E+05</totfact>
</mgrwt>
</event>
<event>
 8    1  0.1600673E-013  0.7919670E+02  0.7818608E-02  0.1331347E+00
          2   -1    0    0  501    0  0.00000000000E+00  0.00000000000E+00  0.34268809573E+03  0.34268809574E+03  0.25500000000E-02 0. -1.
         -1   -1    0    0    0  501 -0.00000000000E+00 -0.00000000000E+00 -0.45756737892E+01  0.45756765649E+01  0.50400000000E-02 0.  1.
         24    2    1    2    0    0  0.35527136788E-14  0.44408920985E-15  0.33811242194E+03  0.34726377230E+03  0.79196702484E+02 0.  0.
         66    2    3    3    0    0 -0.19265024253E+02  0.39259409108E+01  0.31975363821E+03  0.32036376718E+03  0.20000006376E+01 0.  0.
        -13    1    3    3    0    0  0.19265024253E+02 -0.39259409108E+01  0.18358783731E+02  0.26900005124E+02  0.10566000000E+00 0.  1.
         13    1    4    4    0    0 -0.98533877716E-01  0.76538355843E-01  0.16600043782E+01  0.16680364553E+01  0.10566000000E+00 0.  1.
        -13    1    4    4    0    0 -0.12891811896E+01  0.10385981398E+00  0.17968708886E+02  0.18015505491E+02  0.10566000000E+00 0.  1.
         14    1    4    4    0    0 -0.17877309186E+02  0.37455427409E+01  0.30012492494E+03  0.30068022523E+03  0.00000000000E+00 0. -1.
<mgrwt>
<rscale>  0 0.79196702E+02</rscale>
<asrwt>0</asrwt>
<pdfrwt beam="1">  1        2 0.52721246E-01 0.79196702E+02</pdfrwt>
<pdfrwt beam="2">  1       -1 0.70395002E-03 0.79196702E+02</pdfrwt>
<totfact> 0.27462398E+05</totfact>
</mgrwt>
</event>
<event>
 8    1  0.1600673E-013  0.8024529E+02  0.7818608E-02  0.1328357E+00
          2   -1    0    0  501    0  0.00000000000E+00  0.00000000000E+00  0.50808579852E+01  0.50808586251E+01  0.25500000000E-02 0. -1.
         -1   -1    0    0    0  501 -0.00000000000E+00 -0.00000000000E+00 -0.31684145299E+03  0.31684145303E+03  0.50400000000E-02 0.  1.
         24    2    1    2    0    0 -0.17763568394E-14  0.71054273576E-14 -0.31176059501E+03  0.32192231166E+03  0.80245287362E+02 0.  0.
         66    2    3    3    0    0 -0.14983115675E+02  0.35275260921E+02 -0.20327168110E+03  0.20686279057E+03  0.19999990704E+01 0.  0.
        -13    1    3    3    0    0  0.14983115675E+02 -0.35275260921E+02 -0.10848891391E+03  0.11505952109E+03  0.10566000000E+00 0.  1.
         13    1    4    4    0    0 -0.26873109116E+01  0.58178050088E+01 -0.33929746629E+02  0.34529804016E+02  0.10566000000E+00 0. -1.
        -13    1    4    4    0    0 -0.10669696382E+02  0.25927329238E+02 -0.14557035006E+03  0.14824576487E+03  0.10566000000E+00 0.  1.
        -14    1    4    4    0    0 -0.16261083810E+01  0.35301266745E+01 -0.23771584410E+02  0.24087221678E+02  0.00000000000E+00 0.  1.
<mgrwt>
<rscale>  0 0.80245287E+02</rscale>
<asrwt>0</asrwt>
<pdfrwt beam="1">  1        2 0.78167076E-03 0.80245287E+02</pdfrwt>
<pdfrwt beam="2">  1       -1 0.48744824E-01 0.80245287E+02</pdfrwt>
<totfact> 0.83838025E+04</totfact>
</mgrwt>
</event>
<event>
 8    1  0.1600673E-013  0.8096971E+02  0.7818608E-02  0.1326322E+00
          2   -1    0    0  501    0  0.00000000000E+00  0.00000000000E+00  0.23255691356E+02  0.23255691496E+02  0.25500000000E-02 0. -1.
         -1   -1    0    0    0  501 -0.00000000000E+00 -0.00000000000E+00 -0.70478377864E+02  0.70478378044E+02  0.50400000000E-02 0.  1.
         24    2    1    2    0    0 -0.88817841970E-15  0.35527136788E-14 -0.47222686507E+02  0.93734069540E+02  0.80969708358E+02 0.  0.
         66    2    3    3    0    0 -0.53775960158E+01  0.29424434057E+02  0.79145595489E+01  0.31005743202E+02  0.20000000366E+01 0.  0.
        -13    1    3    3    0    0  0.53775960158E+01 -0.29424434057E+02 -0.55137246056E+02  0.62728326338E+02  0.10566000000E+00 0.  1.
         13    1    4    4    0    0 -0.27510218815E+01  0.11644201152E+02  0.24429902599E+01  0.12212080384E+02  0.10566000000E+00 0. -1.
        -13    1    4    4    0    0 -0.24039778169E+00  0.25479930961E+01  0.76587180353E+00  0.26735339097E+01  0.10566000000E+00 0.  1.
         14    1    4    4    0    0 -0.23861763527E+01  0.15232239809E+02  0.47056974855E+01  0.16120128908E+02  0.00000000000E+00 0. -1.
<mgrwt>
<rscale>  0 0.80969708E+02</rscale>
<asrwt>0</asrwt>
<pdfrwt beam="1">  1        2 0.35777987E-02 0.80969708E+02</pdfrwt>
<pdfrwt beam="2">  1       -1 0.10842827E-01 0.80969708E+02</pdfrwt>
<totfact> 0.12364502E+05</totfact>
</mgrwt>
</event>
<event>
 8    1  0.1600673E-013  0.8805898E+02  0.7818608E-02  0.1307621E+00
         -1   -1    0    0    0  501 -0.00000000000E+00  0.00000000000E+00  0.81770379507E+02  0.81770379662E+02  0.50400000000E-02 0.  1.
          2   -1    0    0  501    0  0.00000000000E+00 -0.00000000000E+00 -0.23707803665E+02  0.23707803802E+02  0.25500000000E-02 0. -1.
         24    2    1    2    0    0 -0.88817841970E-15  0.00000000000E+00  0.58062575842E+02  0.10547818346E+03  0.88058982923E+02 0.  0.
         66    2    3    3    0    0  0.76261414369E+01 -0.39858785960E+02  0.86583978319E+01  0.41543335217E+02  0.19999991244E+01 0.  0.
        -13    1    3    3    0    0 -0.76261414369E+01  0.39858785960E+02  0.49404178010E+02  0.63934848247E+02  0.10566000000E+00 0.  1.
         13    1    4    4    0    0  0.43498298485E+01 -0.21407438281E+02  0.40528139868E+01  0.22217918415E+02  0.10566000000E+00 0. -1.
        -13    1    4    4    0    0  0.57966502689E+00 -0.16604060262E+01  0.47909306282E+00  0.18258296508E+01  0.10566000000E+00 0.  1.
         14    1    4    4    0    0  0.26966465614E+01 -0.16790941653E+02  0.41264907823E+01  0.17499587151E+02  0.00000000000E+00 0. -1.
<mgrwt>
<rscale>  0 0.88058983E+02</rscale>
<asrwt>0</asrwt>
<pdfrwt beam="1">  1        2 0.36473543E-02 0.88058983E+02</pdfrwt>
<pdfrwt beam="2">  1       -1 0.12580059E-01 0.88058983E+02</pdfrwt>
<totfact> 0.97547301E+04</totfact>
</mgrwt>
</event>
<event>
 8    1  0.1600673E-013  0.7915294E+02  0.7818608E-02  0.1331473E+00
          2   -1    0    0  501    0  0.00000000000E+00  0.00000000000E+00  0.62376407592E+03  0.62376407593E+03  0.25500000000E-02 0. -1.
         -1   -1    0    0    0  501 -0.00000000000E+00 -0.00000000000E+00 -0.25110379430E+01  0.25110430010E+01  0.50400000000E-02 0.  1.
         24    2    1    2    0    0  0.00000000000E+00  0.00000000000E+00  0.62125303798E+03  0.62627511893E+03  0.79152936714E+02 0.  0.
         66    2    3    3    0    0 -0.12074159995E+02  0.20809828023E+02  0.55920455819E+03  0.55972544357E+03  0.19999997216E+01 0.  0.
        -13    1    3    3    0    0  0.12074159995E+02 -0.20809828023E+02  0.62048479790E+02  0.66549675358E+02  0.10566000000E+00 0.  1.
         13    1    4    4    0    0 -0.31481687214E+01  0.67276317766E+01  0.17971907090E+03  0.17987253155E+03  0.10566000000E+00 0. -1.
        -13    1    4    4    0    0 -0.15332582199E+01  0.18444738528E+01  0.57928740200E+02  0.57978470744E+02  0.10566000000E+00 0.  1.
         14    1    4    4    0    0 -0.73927330538E+01  0.12237722393E+02  0.32155674709E+03  0.32187444128E+03  0.00000000000E+00 0. -1.
<mgrwt>
<rscale>  0 0.79152937E+02</rscale>
<asrwt>0</asrwt>
<pdfrwt beam="1">  1        2 0.95963875E-01 0.79152937E+02</pdfrwt>
<pdfrwt beam="2">  1       -1 0.38631323E-03 0.79152937E+02</pdfrwt>
<totfact> 0.33418391E+05</totfact>
</mgrwt>
</event>
<event>
 8    1  0.1600673E-013  0.7990958E+02  0.7818608E-02  0.1329308E+00
         -1   -1    0    0    0  501 -0.00000000000E+00  0.00000000000E+00  0.25841421257E+02  0.25841421749E+02  0.50400000000E-02 0.  1.
          2   -1    0    0  501    0  0.00000000000E+00 -0.00000000000E+00 -0.61776214533E+02  0.61776214586E+02  0.25500000000E-02 0. -1.
         24    2    1    2    0    0  0.17763568394E-14  0.00000000000E+00 -0.35934793276E+02  0.87617636335E+02  0.79909579082E+02 0.  0.
         66    2    3    3    0    0  0.84128910925E+01  0.35121729461E+02 -0.36652834018E+02  0.51495076024E+02  0.19999990714E+01 0.  0.
        -13    1    3    3    0    0 -0.84128910925E+01 -0.35121729461E+02  0.71804074177E+00  0.36122560311E+02  0.10566000000E+00 0.  1.
         13    1    4    4    0    0  0.40567182845E+01  0.14829228789E+02 -0.15070639432E+02  0.21529011279E+02  0.10566000000E+00 0. -1.
        -13    1    4    4    0    0  0.25117793749E+01  0.91736430453E+01 -0.10240464279E+02  0.13976517271E+02  0.10566000000E+00 0.  1.
        -14    1    4    4    0    0  0.18443934331E+01  0.11118857627E+02 -0.11341730306E+02  0.15989547473E+02  0.00000000000E+00 0.  1.
<mgrwt>
<rscale>  0 0.79909579E+02</rscale>
<asrwt>0</asrwt>
<pdfrwt beam="1">  1        2 0.95040330E-02 0.79909579E+02</pdfrwt>
<pdfrwt beam="2">  1       -1 0.39756033E-02 0.79909579E+02</pdfrwt>
<totfact> 0.15720212E+05</totfact>
</mgrwt>
</event>
<event>
 8    1  0.1600673E-013  0.7910032E+02  0.7818608E-02  0.1331624E+00
         -1   -1    0    0    0  501 -0.00000000000E+00  0.00000000000E+00  0.19625152177E+01  0.19625216894E+01  0.50400000000E-02 0.  1.
          2   -1    0    0  501    0  0.00000000000E+00 -0.00000000000E+00 -0.79704474701E+03  0.79704474701E+03  0.25500000000E-02 0. -1.
         24    2    1    2    0    0  0.00000000000E+00  0.00000000000E+00 -0.79508223179E+03  0.79900726870E+03  0.79100316872E+02 0.  0.
         66    2    3    3    0    0  0.25819670279E+02 -0.16817085331E+02 -0.64783527969E+03  0.64857075120E+03  0.19999908703E+01 0.  0.
        -13    1    3    3    0    0 -0.25819670279E+02  0.16817085331E+02 -0.14724695209E+03  0.15043651750E+03  0.10566000000E+00 0.  1.
         13    1    4    4    0    0  0.35584897277E+01 -0.22329665294E+01 -0.84499550021E+02  0.84603983987E+02  0.10566000000E+00 0. -1.
        -13    1    4    4    0    0  0.32204624005E+00 -0.30012087061E+00 -0.14425897736E+02  0.14432999544E+02  0.10566000000E+00 0.  1.
        -14    1    4    4    0    0  0.21939134311E+02 -0.14283997930E+02 -0.54890983194E+03  0.54953376767E+03  0.00000000000E+00 0.  1.
<mgrwt>
<rscale>  0 0.79100317E+02</rscale>
<asrwt>0</asrwt>
<pdfrwt beam="1">  1        2 0.12262201E+00 0.79100317E+02</pdfrwt>
<pdfrwt beam="2">  1       -1 0.30192655E-03 0.79100317E+02</pdfrwt>
<totfact> 0.35366965E+05</totfact>
</mgrwt>
</event>
<event>
 8    1  0.1600673E-013  0.7998686E+02  0.7818608E-02  0.1329089E+00
          2   -1    0    0  501    0  0.00000000000E+00  0.00000000000E+00  0.15974708177E+02  0.15974708381E+02  0.25500000000E-02 0. -1.
         -1   -1    0    0    0  501 -0.00000000000E+00 -0.00000000000E+00 -0.10012541292E+03  0.10012541305E+03  0.50400000000E-02 0.  1.
         24    2    1    2    0    0  0.00000000000E+00 -0.35527136788E-14 -0.84150704747E+02  0.11610012143E+03  0.79986855714E+02 0.  0.
         66    2    3    3    0    0 -0.28192293036E+02 -0.27430282237E+02 -0.31813034766E+02  0.50628993190E+02  0.20000000514E+01 0.  0.
        -13    1    3    3    0    0  0.28192293036E+02  0.27430282237E+02 -0.52337669981E+02  0.65471128242E+02  0.10566000000E+00 0.  1.
         13    1    4    4    0    0 -0.17469023149E+02 -0.16246418239E+02 -0.18596852957E+02  0.30248421104E+02  0.10566000000E+00 0. -1.
        -13    1    4    4    0    0 -0.37019031807E+01 -0.35611646457E+01 -0.47776982757E+01  0.70159493757E+01  0.10566000000E+00 0.  1.
         14    1    4    4    0    0 -0.70213667062E+01 -0.76226993518E+01 -0.84384835333E+01  0.13364622710E+02  0.00000000000E+00 0. -1.
<mgrwt>
<rscale>  0 0.79986856E+02</rscale>
<asrwt>0</asrwt>
<pdfrwt beam="1">  1        2 0.24576475E-02 0.79986856E+02</pdfrwt>
<pdfrwt beam="2">  1       -1 0.15403909E-01 0.79986856E+02</pdfrwt>
<totfact> 0.11854671E+05</totfact>
</mgrwt>
</event>
<event>
 8    1  0.1600673E-013  0.8049362E+02  0.7818608E-02  0.1327656E+00
         -1   -1    0    0    0  501 -0.00000000000E+00  0.00000000000E+00  0.43618997054E+03  0.43618997057E+03  0.50400000000E-02 0.  1.
          2   -1    0    0  501    0  0.00000000000E+00 -0.00000000000E+00 -0.37135323628E+01  0.37135332383E+01  0.25500000000E-02 0. -1.
         24    2    1    2    0    0  0.00000000000E+00  0.00000000000E+00  0.43247643818E+03  0.43990350381E+03  0.80493621385E+02 0.  0.
         66    2    3    3    0    0 -0.32410599676E+02 -0.22590112897E+02  0.25764644159E+03  0.26066539669E+03  0.19999989663E+01 0.  0.
        -13    1    3    3    0    0  0.32410599676E+02  0.22590112897E+02  0.17482999658E+03  0.17923810711E+03  0.10566000000E+00 0.  1.
         13    1    4    4    0    0 -0.13657109467E+02 -0.94368336992E+01  0.11183722866E+03  0.11306258155E+03  0.10566000000E+00 0. -1.
        -13    1    4    4    0    0 -0.17462806131E+02 -0.12439732113E+02  0.13459591827E+03  0.13629295254E+03  0.10566000000E+00 0.  1.
        -14    1    4    4    0    0 -0.12906840778E+01 -0.71354708491E+00  0.11213294662E+02  0.11309862599E+02  0.00000000000E+00 0.  1.
<mgrwt>
<rscale>  0 0.80493621E+02</rscale>
<asrwt>0</asrwt>
<pdfrwt beam="1">  1        2 0.57131248E-03 0.80493621E+02</pdfrwt>
<pdfrwt beam="2">  1       -1 0.67106180E-01 0.80493621E+02</pdfrwt>
<totfact> 0.71236586E+04</totfact>
</mgrwt>
</event>
<event>
 8    1  0.1600673E-013  0.8020300E+02  0.7818608E-02  0.1328476E+00
          2   -1    0    0  501    0  0.00000000000E+00  0.00000000000E+00  0.19340747784E+02  0.19340747952E+02  0.25500000000E-02 0. -1.
         -1   -1    0    0    0  501 -0.00000000000E+00 -0.00000000000E+00 -0.83147270775E+02  0.83147270927E+02  0.50400000000E-02 0.  1.
         24    2    1    2    0    0  0.00000000000E+00  0.17763568394E-14 -0.63806522990E+02  0.10248801888E+03  0.80203002673E+02 0.  0.
         66    2    3    3    0    0 -0.30654918728E+02 -0.12613110043E+02 -0.31411388620E+01  0.33356878410E+02  0.19999991885E+01 0.  0.
        -13    1    3    3    0    0  0.30654918728E+02  0.12613110043E+02 -0.60665384128E+02  0.69131140470E+02  0.10566000000E+00 0.  1.
         13    1    4    4    0    0 -0.84808948656E+01 -0.30159613891E+01 -0.10915730829E+01  0.90677613915E+01  0.10566000000E+00 0. -1.
        -13    1    4    4    0    0 -0.18682278074E+02 -0.75172389777E+01 -0.17112610119E+01  0.20210788559E+02  0.10566000000E+00 0.  1.
        -14    1    4    4    0    0 -0.34917457881E+01 -0.20799096766E+01 -0.33830476721E+00  0.40783284599E+01  0.00000000000E+00 0.  1.
<mgrwt>
<rscale>  0 0.80203003E+02</rscale>
<asrwt>0</asrwt>
<pdfrwt beam="1">  1        2 0.29754997E-02 0.80203003E+02</pdfrwt>
<pdfrwt beam="2">  1       -1 0.12791888E-01 0.80203003E+02</pdfrwt>
<totfact> 0.12241880E+05</totfact>
</mgrwt>
</event>
<event>
 8    1  0.1600673E-013  0.7866829E+02  0.7818608E-02  0.1332874E+00
         -1   -1    0    0    0  501 -0.00000000000E+00  0.00000000000E+00  0.74263572227E+01  0.74263589329E+01  0.50400000000E-02 0.  1.
          2   -1    0    0  501    0  0.00000000000E+00 -0.00000000000E+00 -0.20833560275E+03  0.20833560277E+03  0.25500000000E-02 0. -1.
         24    2    1    2    0    0  0.00000000000E+00 -0.88817841970E-15 -0.20090924553E+03  0.21576196170E+03  0.78668285717E+02 0.  0.
         66    2    3    3    0    0  0.34573317050E+02 -0.46379507385E+01 -0.15021754088E+03  0.15422754106E+03  0.19999989203E+01 0.  0.
        -13    1    3    3    0    0 -0.34573317050E+02  0.46379507385E+01 -0.50691704654E+02  0.61534420641E+02  0.10566000000E+00 0.  1.
         13    1    4    4    0    0  0.12811638058E+02 -0.15123946597E+01 -0.54712406788E+02  0.56212845755E+02  0.10566000000E+00 0. -1.
        -13    1    4    4    0    0  0.11754201590E+02 -0.15376830240E+01 -0.54764204200E+02  0.56032623977E+02  0.10566000000E+00 0.  1.
         14    1    4    4    0    0  0.10007477402E+02 -0.15878730548E+01 -0.40740929889E+02  0.41982071328E+02  0.00000000000E+00 0. -1.
<mgrwt>
<rscale>  0 0.78668286E+02</rscale>
<asrwt>0</asrwt>
<pdfrwt beam="1">  1        2 0.32051627E-01 0.78668286E+02</pdfrwt>
<pdfrwt beam="2">  1       -1 0.11425168E-02 0.78668286E+02</pdfrwt>
<totfact> 0.23386492E+05</totfact>
</mgrwt>
</event>
<event>
 8    1  0.1600673E-013  0.8058227E+02  0.7818608E-02  0.1327407E+00
          2   -1    0    0  501    0  0.00000000000E+00  0.00000000000E+00  0.26468850811E+03  0.26468850812E+03  0.25500000000E-02 0. -1.
         -1   -1    0    0    0  501 -0.00000000000E+00 -0.00000000000E+00 -0.61331537100E+01  0.61331557808E+01  0.50400000000E-02 0.  1.
         24    2    1    2    0    0  0.00000000000E+00  0.00000000000E+00  0.25855535440E+03  0.27082166390E+03  0.80582270695E+02 0.  0.
         66    2    3    3    0    0 -0.28279693127E+02  0.22118784540E+02  0.19062981378E+03  0.19399151418E+03  0.20000004451E+01 0.  0.
        -13    1    3    3    0    0  0.28279693127E+02 -0.22118784540E+02  0.67925540622E+02  0.76830149719E+02  0.10566000000E+00 0.  1.
         13    1    4    4    0    0 -0.14774800342E+02  0.11922701199E+02  0.10400666874E+03  0.10572532258E+03  0.10566000000E+00 0. -1.
        -13    1    4    4    0    0 -0.75377905760E+01  0.54799041364E+01  0.45262516691E+02  0.46212057056E+02  0.10566000000E+00 0.  1.
        -14    1    4    4    0    0 -0.59671022093E+01  0.47161792046E+01  0.41360628348E+02  0.42054134546E+02  0.00000000000E+00 0.  1.
<mgrwt>
<rscale>  0 0.80582271E+02</rscale>
<asrwt>0</asrwt>
<pdfrwt beam="1">  1        2 0.40721308E-01 0.80582271E+02</pdfrwt>
<pdfrwt beam="2">  1       -1 0.94356230E-03 0.80582271E+02</pdfrwt>
<totfact> 0.23904265E+05</totfact>
</mgrwt>
</event>
<event>
 8    1  0.1600673E-013  0.7388618E+02  0.7818608E-02  0.1347355E+00
          2   -1    0    0  501    0  0.00000000000E+00  0.00000000000E+00  0.16995855796E+03  0.16995855798E+03  0.25500000000E-02 0. -1.
         -1   -1    0    0    0  501 -0.00000000000E+00 -0.00000000000E+00 -0.80301440657E+01  0.80301456473E+01  0.50400000000E-02 0.  1.
         24    2    1    2    0    0  0.00000000000E+00  0.00000000000E+00  0.16192841390E+03  0.17798870363E+03  0.73886178628E+02 0.  0.
         66    2    3    3    0    0 -0.15196385902E+02  0.29368470813E+02  0.12055889181E+03  0.12502753159E+03  0.20000093979E+01 0.  0.
        -13    1    3    3    0    0  0.15196385902E+02 -0.29368470813E+02  0.41369522081E+02  0.52961172038E+02  0.10566000000E+00 0.  1.
         13    1    4    4    0    0 -0.46258901050E+00  0.11150815619E+01  0.43140461101E+01  0.44810214637E+01  0.10566000000E+00 0.  1.
        -13    1    4    4    0    0 -0.17097144019E+01  0.46775683909E+01  0.18130833990E+02  0.18802687962E+02  0.10566000000E+00 0.  1.
         14    1    4    4    0    0 -0.13024082489E+02  0.23575820860E+02  0.98114011714E+02  0.10174382216E+03  0.00000000000E+00 0. -1.
<mgrwt>
<rscale>  0 0.73886179E+02</rscale>
<asrwt>0</asrwt>
<pdfrwt beam="1">  1        2 0.26147468E-01 0.73886179E+02</pdfrwt>
<pdfrwt beam="2">  1       -1 0.12354070E-02 0.73886179E+02</pdfrwt>
<totfact> 0.25729282E+05</totfact>
</mgrwt>
</event>
<event>
 8    1  0.1600673E-013  0.8039839E+02  0.7818608E-02  0.1327925E+00
         -1   -1    0    0    0  501 -0.00000000000E+00  0.00000000000E+00  0.39270784788E+01  0.39270817129E+01  0.50400000000E-02 0.  1.
          2   -1    0    0  501    0  0.00000000000E+00 -0.00000000000E+00 -0.41149534211E+03  0.41149534212E+03  0.25500000000E-02 0. -1.
         24    2    1    2    0    0 -0.10658141036E-13  0.00000000000E+00 -0.40756826363E+03  0.41542242383E+03  0.80398387435E+02 0.  0.
         66    2    3    3    0    0 -0.31533278331E+02 -0.24858875527E+02 -0.21056492212E+03  0.21436860252E+03  0.19999955993E+01 0.  0.
        -13    1    3    3    0    0  0.31533278331E+02  0.24858875527E+02 -0.19700334151E+03  0.20105382131E+03  0.10566000000E+00 0.  1.
         13    1    4    4    0    0 -0.13095842980E+02 -0.11322086177E+02 -0.89202097831E+02  0.90866474347E+02  0.10566000000E+00 0.  1.
        -13    1    4    4    0    0 -0.91539799949E+01 -0.71885981867E+01 -0.62417770227E+02  0.63493783143E+02  0.10566000000E+00 0. -1.
         14    1    4    4    0    0 -0.92834553553E+01 -0.63481911636E+01 -0.58945054066E+02  0.60008345030E+02  0.00000000000E+00 0. -1.
<mgrwt>
<rscale>  0 0.80398387E+02</rscale>
<asrwt>0</asrwt>
<pdfrwt beam="1">  1        2 0.63306942E-01 0.80398387E+02</pdfrwt>
<pdfrwt beam="2">  1       -1 0.60416650E-03 0.80398387E+02</pdfrwt>
<totfact> 0.28165830E+05</totfact>
</mgrwt>
</event>
<event>
 8    1  0.1600673E-013  0.8009657E+02  0.7818608E-02  0.1328778E+00
         -1   -1    0    0    0  501 -0.00000000000E+00  0.00000000000E+00  0.68008270518E+01  0.68008289194E+01  0.50400000000E-02 0.  1.
          2   -1    0    0  501    0  0.00000000000E+00 -0.00000000000E+00 -0.23583377405E+03  0.23583377407E+03  0.25500000000E-02 0. -1.
         24    2    1    2    0    0  0.71054273576E-14  0.00000000000E+00 -0.22903294700E+03  0.24263460299E+03  0.80096565184E+02 0.  0.
         66    2    3    3    0    0 -0.24764619610E+02 -0.12002166914E+02 -0.20262041484E+03  0.20449051544E+03  0.20000006942E+01 0.  0.
        -13    1    3    3    0    0  0.24764619610E+02  0.12002166914E+02 -0.26412532164E+02  0.38144087542E+02  0.10566000000E+00 0.  1.
         13    1    4    4    0    0 -0.29121212085E+01 -0.15436740933E+01 -0.22022746687E+02  0.22268271494E+02  0.10566000000E+00 0. -1.
        -13    1    4    4    0    0 -0.12993769209E+02 -0.66942485839E+01 -0.11366825598E+03  0.11460425204E+03  0.10566000000E+00 0.  1.
         14    1    4    4    0    0 -0.88587291923E+01 -0.37642442369E+01 -0.66929412164E+02  0.67617991912E+02  0.00000000000E+00 0. -1.
<mgrwt>
<rscale>  0 0.80096565E+02</rscale>
<asrwt>0</asrwt>
<pdfrwt beam="1">  1        2 0.36282113E-01 0.80096565E+02</pdfrwt>
<pdfrwt beam="2">  1       -1 0.10462814E-02 0.80096565E+02</pdfrwt>
<totfact> 0.23302098E+05</totfact>
</mgrwt>
</event>
<event>
 8    1  0.1600673E-013  0.8043058E+02  0.7818608E-02  0.1327834E+00
         -1   -1    0    0    0  501 -0.00000000000E+00  0.00000000000E+00  0.13083298690E+01  0.13083395766E+01  0.50400000000E-02 0.  1.
          2   -1    0    0  501    0  0.00000000000E+00 -0.00000000000E+00 -0.12361281802E+04  0.12361281802E+04  0.25500000000E-02 0. -1.
         24    2    1    2    0    0  0.00000000000E+00  0.00000000000E+00 -0.12348198504E+04  0.12374365198E+04  0.80430576972E+02 0.  0.
         66    2    3    3    0    0  0.10025662091E+02 -0.24949119236E+02 -0.10773644042E+04  0.10777017361E+04  0.20000020113E+01 0.  0.
        -13    1    3    3    0    0 -0.10025662091E+02  0.24949119236E+02 -0.15745544612E+03  0.15973478372E+03  0.10566000000E+00 0.  1.
         13    1    4    4    0    0  0.53232359073E+01 -0.12984211713E+02 -0.54550803869E+03  0.54568851741E+03  0.10566000000E+00 0. -1.
        -13    1    4    4    0    0  0.30816776226E+01 -0.64949606190E+01 -0.28063847965E+03  0.28073056242E+03  0.10566000000E+00 0.  1.
        -14    1    4    4    0    0  0.16207485613E+01 -0.54699469041E+01 -0.25121788591E+03  0.25128265627E+03  0.00000000000E+00 0.  1.
<mgrwt>
<rscale>  0 0.80430577E+02</rscale>
<asrwt>0</asrwt>
<pdfrwt beam="1">  1        2 0.19017263E+00 0.80430577E+02</pdfrwt>
<pdfrwt beam="2">  1       -1 0.20128325E-03 0.80430577E+02</pdfrwt>
<totfact> 0.34425155E+05</totfact>
</mgrwt>
</event>
<event>
 8    1  0.1600673E-013  0.8012784E+02  0.7818608E-02  0.1328689E+00
          2   -1    0    0  501    0  0.00000000000E+00  0.00000000000E+00  0.15413062287E+02  0.15413062498E+02  0.25500000000E-02 0. -1.
         -1   -1    0    0    0  501 -0.00000000000E+00 -0.00000000000E+00 -0.10414009922E+03  0.10414009934E+03  0.50400000000E-02 0.  1.
         24    2    1    2    0    0  0.00000000000E+00 -0.17763568394E-14 -0.88727036932E+02  0.11955316184E+03  0.80127844241E+02 0.  0.
         66    2    3    3    0    0  0.24200941276E+02  0.99334823741E+01  0.83376162466E+00  0.26249853039E+02  0.19999988502E+01 0.  0.
        -13    1    3    3    0    0 -0.24200941276E+02 -0.99334823741E+01 -0.89560798557E+02  0.93303308799E+02  0.10566000000E+00 0.  1.
         13    1    4    4    0    0  0.39632914464E+01  0.16128057169E+01 -0.14142206124E+00  0.42825209403E+01  0.10566000000E+00 0. -1.
        -13    1    4    4    0    0  0.57509942281E+01  0.20632257643E+01 -0.42138717693E+00  0.61253217348E+01  0.10566000000E+00 0.  1.
         14    1    4    4    0    0  0.14486655602E+02  0.62574508929E+01  0.13965708628E+01  0.15842010364E+02  0.00000000000E+00 0. -1.
<mgrwt>
<rscale>  0 0.80127844E+02</rscale>
<asrwt>0</asrwt>
<pdfrwt beam="1">  1        2 0.23712404E-02 0.80127844E+02</pdfrwt>
<pdfrwt beam="2">  1       -1 0.16021553E-01 0.80127844E+02</pdfrwt>
<totfact> 0.11702995E+05</totfact>
</mgrwt>
</event>
<event>
 8    1  0.1600673E-013  0.7987684E+02  0.7818608E-02  0.1329401E+00
          2   -1    0    0  501    0  0.00000000000E+00  0.00000000000E+00  0.10349548261E+02  0.10349548575E+02  0.25500000000E-02 0. -1.
         -1   -1    0    0    0  501 -0.00000000000E+00 -0.00000000000E+00 -0.15412048852E+03  0.15412048860E+03  0.50400000000E-02 0.  1.
         24    2    1    2    0    0  0.00000000000E+00  0.17763568394E-14 -0.14377094026E+03  0.16447003717E+03  0.79876841862E+02 0.  0.
         66    2    3    3    0    0 -0.34681397313E+02 -0.10169807064E+02 -0.37057197132E+02  0.51802125012E+02  0.20000002998E+01 0.  0.
        -13    1    3    3    0    0  0.34681397313E+02  0.10169807064E+02 -0.10671374312E+03  0.11266791216E+03  0.10566000000E+00 0.  1.
         13    1    4    4    0    0 -0.23525357019E+02 -0.64614877162E+01 -0.24982131304E+02  0.34918638216E+02  0.10566000000E+00 0. -1.
        -13    1    4    4    0    0 -0.93668407304E+01 -0.28724159138E+01 -0.10461585015E+02  0.14333331906E+02  0.10566000000E+00 0.  1.
        -14    1    4    4    0    0 -0.17891995636E+01 -0.83590343370E+00 -0.16134808119E+01  0.25501548893E+01  0.00000000000E+00 0.  1.
<mgrwt>
<rscale>  0 0.79876842E+02</rscale>
<asrwt>0</asrwt>
<pdfrwt beam="1">  1        2 0.15922383E-02 0.79876842E+02</pdfrwt>
<pdfrwt beam="2">  1       -1 0.23710843E-01 0.79876842E+02</pdfrwt>
<totfact> 0.10754293E+05</totfact>
</mgrwt>
</event>
<event>
 8    1  0.1600673E-013  0.7877865E+02  0.7818608E-02  0.1332554E+00
          2   -1    0    0  501    0  0.00000000000E+00  0.00000000000E+00  0.74180033934E+01  0.74180038317E+01  0.25500000000E-02 0. -1.
         -1   -1    0    0    0  501 -0.00000000000E+00 -0.00000000000E+00 -0.20915587045E+03  0.20915587051E+03  0.50400000000E-02 0.  1.
         24    2    1    2    0    0 -0.71054273576E-14  0.22204460493E-15 -0.20173786706E+03  0.21657387434E+03  0.78778652205E+02 0.  0.
         66    2    3    3    0    0  0.39004452807E+02 -0.17803139474E+01 -0.11467872017E+03  0.12115991794E+03  0.19999994546E+01 0.  0.
        -13    1    3    3    0    0 -0.39004452807E+02  0.17803139474E+01 -0.87059146890E+02  0.95413956410E+02  0.10566000000E+00 0.  1.
         13    1    4    4    0    0  0.12177603228E+02 -0.13160925627E+01 -0.36602301905E+02  0.38597484229E+02  0.10566000000E+00 0. -1.
        -13    1    4    4    0    0  0.94702669343E+01 -0.22917917270E+00 -0.26363079970E+02  0.28013597207E+02  0.10566000000E+00 0.  1.
        -14    1    4    4    0    0  0.17356582645E+02 -0.23504221196E+00 -0.51713338294E+02  0.54548836499E+02  0.00000000000E+00 0.  1.
<mgrwt>
<rscale>  0 0.78778652E+02</rscale>
<asrwt>0</asrwt>
<pdfrwt beam="1">  1        2 0.11412315E-02 0.78778652E+02</pdfrwt>
<pdfrwt beam="2">  1       -1 0.32177822E-01 0.78778652E+02</pdfrwt>
<totfact> 0.10217050E+05</totfact>
</mgrwt>
</event>
<event>
 8    1  0.1600673E-013  0.7750073E+02  0.7818608E-02  0.1336297E+00
         -1   -1    0    0    0  501 -0.00000000000E+00  0.00000000000E+00  0.64435534164E+01  0.64435553875E+01  0.50400000000E-02 0.  1.
          2   -1    0    0  501    0  0.00000000000E+00 -0.00000000000E+00 -0.23303767811E+03  0.23303767812E+03  0.25500000000E-02 0. -1.
         24    2    1    2    0    0  0.88817841970E-15  0.71054273576E-14 -0.22659412469E+03  0.23948123351E+03  0.77500734567E+02 0.  0.
         66    2    3    3    0    0 -0.73497410119E+01  0.32050009269E+02 -0.17657606873E+03  0.17962274311E+03  0.20000014256E+01 0.  0.
        -13    1    3    3    0    0  0.73497410119E+01 -0.32050009269E+02 -0.50018055957E+02  0.59858490399E+02  0.10566000000E+00 0.  1.
         13    1    4    4    0    0 -0.54002128215E+01  0.23752020947E+02 -0.12853700721E+03  0.13082466963E+03  0.10566000000E+00 0. -1.
        -13    1    4    4    0    0 -0.18475071060E+01  0.63104139038E+01 -0.36030499940E+02  0.36625710862E+02  0.10566000000E+00 0.  1.
        -14    1    4    4    0    0 -0.10202108452E+00  0.19875744180E+01 -0.12008561582E+02  0.12172362616E+02  0.00000000000E+00 0.  1.
<mgrwt>
<rscale>  0 0.77500735E+02</rscale>
<asrwt>0</asrwt>
<pdfrwt beam="1">  1        2 0.35851944E-01 0.77500735E+02</pdfrwt>
<pdfrwt beam="2">  1       -1 0.99131625E-03 0.77500735E+02</pdfrwt>
<totfact> 0.25301752E+05</totfact>
</mgrwt>
</event>
<event>
 8    1  0.1600673E-013  0.8029429E+02  0.7818608E-02  0.1328218E+00
         -1   -1    0    0    0  501 -0.00000000000E+00  0.00000000000E+00  0.19468872468E+02  0.19468873120E+02  0.50400000000E-02 0.  1.
          2   -1    0    0  501    0  0.00000000000E+00 -0.00000000000E+00 -0.82788209689E+02  0.82788209728E+02  0.25500000000E-02 0. -1.
         24    2    1    2    0    0  0.00000000000E+00 -0.17763568394E-14 -0.63319337221E+02  0.10225708285E+03  0.80294287011E+02 0.  0.
         66    2    3    3    0    0 -0.24041472893E+02  0.13757663655E+02 -0.68645003769E+02  0.74049998342E+02  0.19999959713E+01 0.  0.
        -13    1    3    3    0    0  0.24041472893E+02 -0.13757663655E+02  0.53256665480E+01  0.28207084506E+02  0.10566000000E+00 0.  1.
         13    1    4    4    0    0 -0.14902896251E+02  0.90073276854E+01 -0.41686624316E+02  0.45177583817E+02  0.10566000000E+00 0. -1.
        -13    1    4    4    0    0 -0.38053518305E+01  0.15121720322E+01 -0.10411496618E+02  0.11188288193E+02  0.10566000000E+00 0.  1.
         14    1    4    4    0    0 -0.53332248115E+01  0.32381639375E+01 -0.16546882835E+02  0.17684126332E+02  0.00000000000E+00 0. -1.
<mgrwt>
<rscale>  0 0.80294287E+02</rscale>
<asrwt>0</asrwt>
<pdfrwt beam="1">  1        2 0.12736647E-01 0.80294287E+02</pdfrwt>
<pdfrwt beam="2">  1       -1 0.29952113E-02 0.80294287E+02</pdfrwt>
<totfact> 0.16678417E+05</totfact>
</mgrwt>
</event>
<event>
 8    1  0.1600673E-013  0.7968297E+02  0.7818608E-02  0.1329954E+00
         -1   -1    0    0    0  501 -0.00000000000E+00  0.00000000000E+00  0.10986756674E+01  0.10986872274E+01  0.50400000000E-02 0.  1.
          2   -1    0    0  501    0  0.00000000000E+00 -0.00000000000E+00 -0.14447718822E+04  0.14447718822E+04  0.25500000000E-02 0. -1.
         24    2    1    2    0    0  0.00000000000E+00 -0.17763568394E-14 -0.14436732066E+04  0.14458705695E+04  0.79682973606E+02 0.  0.
         66    2    3    3    0    0  0.94881248510E+01  0.10680453645E+02 -0.13966610283E+04  0.13967355242E+04  0.19999998821E+01 0.  0.
        -13    1    3    3    0    0 -0.94881248510E+01 -0.10680453645E+02 -0.47012178276E+02  0.49135045269E+02  0.10566000000E+00 0.  1.
         13    1    4    4    0    0  0.33415556939E+01  0.24718141443E+01 -0.39742577602E+03  0.39744752417E+03  0.10566000000E+00 0. -1.
        -13    1    4    4    0    0  0.48940501829E+01  0.61951866227E+01 -0.76526519826E+03  0.76530593026E+03  0.10566000000E+00 0.  1.
        -14    1    4    4    0    0  0.12525189742E+01  0.20134528780E+01 -0.23397005402E+03  0.23398206977E+03  0.00000000000E+00 0.  1.
<mgrwt>
<rscale>  0 0.79682974E+02</rscale>
<asrwt>0</asrwt>
<pdfrwt beam="1">  1        2 0.22227108E+00 0.79682974E+02</pdfrwt>
<pdfrwt beam="2">  1       -1 0.16902907E-03 0.79682974E+02</pdfrwt>
<totfact> 0.34040346E+05</totfact>
</mgrwt>
</event>
<event>
 8    1  0.1600673E-013  0.7946163E+02  0.7818608E-02  0.1330586E+00
          2   -1    0    0  501    0  0.00000000000E+00  0.00000000000E+00  0.52751013553E+03  0.52751013554E+03  0.25500000000E-02 0. -1.
         -1   -1    0    0    0  501 -0.00000000000E+00 -0.00000000000E+00 -0.29924285045E+01  0.29924327488E+01  0.50400000000E-02 0.  1.
         24    2    1    2    0    0  0.00000000000E+00 -0.17763568394E-14  0.52451770703E+03  0.53050256829E+03  0.79461625794E+02 0.  0.
         66    2    3    3    0    0 -0.35743653192E+02  0.13367036924E+02  0.33563371648E+03  0.33780212857E+03  0.20000014217E+01 0.  0.
        -13    1    3    3    0    0  0.35743653192E+02 -0.13367036924E+02  0.18888399055E+03  0.19270043972E+03  0.10566000000E+00 0.  1.
         13    1    4    4    0    0 -0.68982913944E+01  0.27814163941E+01  0.65048638789E+02  0.65472584138E+02  0.10566000000E+00 0. -1.
        -13    1    4    4    0    0 -0.15109461061E+02  0.47519309712E+01  0.14313859868E+03  0.14401231286E+03  0.10566000000E+00 0.  1.
        -14    1    4    4    0    0 -0.13735900736E+02  0.58336895591E+01  0.12744647902E+03  0.12831723157E+03  0.00000000000E+00 0.  1.
<mgrwt>
<rscale>  0 0.79461626E+02</rscale>
<asrwt>0</asrwt>
<pdfrwt beam="1">  1        2 0.81155362E-01 0.79461626E+02</pdfrwt>
<pdfrwt beam="2">  1       -1 0.46037419E-03 0.79461626E+02</pdfrwt>
<totfact> 0.31516411E+05</totfact>
</mgrwt>
</event>
<event>
 8    1  0.1600673E-013  0.8148643E+02  0.7818608E-02  0.1324885E+00
         -1   -1    0    0    0  501 -0.00000000000E+00  0.00000000000E+00  0.42778068258E+02  0.42778068555E+02  0.50400000000E-02 0.  1.
          2   -1    0    0  501    0  0.00000000000E+00 -0.00000000000E+00 -0.38805150835E+02  0.38805150919E+02  0.25500000000E-02 0. -1.
         24    2    1    2    0    0  0.71054273576E-14 -0.11102230246E-15  0.39729174236E+01  0.81583219474E+02  0.81486426028E+02 0.  0.
         66    2    3    3    0    0  0.29634319677E+02 -0.89104690268E+00 -0.25956387742E+02  0.39455303088E+02  0.20000024610E+01 0.  0.
        -13    1    3    3    0    0 -0.29634319677E+02  0.89104690268E+00  0.29929305166E+02  0.42127916386E+02  0.10566000000E+00 0.  1.
         13    1    4    4    0    0  0.49371735098E+01 -0.28633355509E+00 -0.41109759208E+01  0.64318703522E+01  0.10566000000E+00 0. -1.
        -13    1    4    4    0    0  0.11670386276E+02  0.20555858475E+00 -0.11261221455E+02  0.16219323132E+02  0.10566000000E+00 0.  1.
        -14    1    4    4    0    0  0.13026759891E+02 -0.81027193235E+00 -0.10584190366E+02  0.16804109604E+02  0.00000000000E+00 0.  1.
<mgrwt>
<rscale>  0 0.81486426E+02</rscale>
<asrwt>0</asrwt>
<pdfrwt beam="1">  1        2 0.59700232E-02 0.81486426E+02</pdfrwt>
<pdfrwt beam="2">  1       -1 0.65812413E-02 0.81486426E+02</pdfrwt>
<totfact> 0.13461996E+05</totfact>
</mgrwt>
</event>
<event>
 8    1  0.1600673E-013  0.7965467E+02  0.7818608E-02  0.1330034E+00
          2   -1    0    0  501    0  0.00000000000E+00  0.00000000000E+00  0.33383687974E+03  0.33383687975E+03  0.25500000000E-02 0. -1.
         -1   -1    0    0    0  501 -0.00000000000E+00 -0.00000000000E+00 -0.47514711447E+01  0.47514738177E+01  0.50400000000E-02 0.  1.
         24    2    1    2    0    0  0.88817841970E-15  0.35527136788E-14  0.32908540860E+03  0.33858835357E+03  0.79654673568E+02 0.  0.
         66    2    3    3    0    0 -0.43907507163E+01 -0.30814900516E+02  0.27009228669E+03  0.27188725626E+03  0.20000005964E+01 0.  0.
        -13    1    3    3    0    0  0.43907507163E+01  0.30814900516E+02  0.58993121909E+02  0.66701097310E+02  0.10566000000E+00 0.  1.
         13    1    4    4    0    0 -0.13217386113E+01 -0.80354777623E+01  0.72565881553E+02  0.73021464142E+02  0.10566000000E+00 0. -1.
        -13    1    4    4    0    0 -0.16004754614E+01 -0.94516397283E+01  0.88644670896E+02  0.89161560426E+02  0.10566000000E+00 0.  1.
         14    1    4    4    0    0 -0.14685366436E+01 -0.13327783026E+02  0.10888173424E+03  0.10970423169E+03  0.00000000000E+00 0. -1.
<mgrwt>
<rscale>  0 0.79654674E+02</rscale>
<asrwt>0</asrwt>
<pdfrwt beam="1">  1        2 0.51359537E-01 0.79654674E+02</pdfrwt>
<pdfrwt beam="2">  1       -1 0.73099553E-03 0.79654674E+02</pdfrwt>
<totfact> 0.26798744E+05</totfact>
</mgrwt>
</event>
<event>
 8    1  0.1600673E-013  0.7999274E+02  0.7818608E-02  0.1329072E+00
         -1   -1    0    0    0  501 -0.00000000000E+00  0.00000000000E+00  0.18278315511E+01  0.18278384997E+01  0.50400000000E-02 0.  1.
          2   -1    0    0  501    0  0.00000000000E+00 -0.00000000000E+00 -0.87519374084E+03  0.87519374084E+03  0.25500000000E-02 0. -1.
         24    2    1    2    0    0  0.00000000000E+00  0.00000000000E+00 -0.87336590929E+03  0.87702157934E+03  0.79992744208E+02 0.  0.
         66    2    3    3    0    0 -0.48902710677E+01  0.99722403175E+01 -0.85793294518E+03  0.85800716709E+03  0.20000067721E+01 0.  0.
        -13    1    3    3    0    0  0.48902710677E+01 -0.99722403175E+01 -0.15432964109E+02  0.19014412252E+02  0.10566000000E+00 0.  1.
         13    1    4    4    0    0 -0.34540261733E+01  0.64888660603E+01 -0.52388919822E+03  0.52394077800E+03  0.10566000000E+00 0. -1.
        -13    1    4    4    0    0 -0.11137831557E+01  0.14659284372E+01 -0.16417895437E+03  0.16418931049E+03  0.10566000000E+00 0.  1.
         14    1    4    4    0    0 -0.32246173870E+00  0.20174458200E+01 -0.16986479259E+03  0.16987707859E+03  0.00000000000E+00 0. -1.
<mgrwt>
<rscale>  0 0.79992744E+02</rscale>
<asrwt>0</asrwt>
<pdfrwt beam="1">  1        2 0.13464486E+00 0.79992744E+02</pdfrwt>
<pdfrwt beam="2">  1       -1 0.28120609E-03 0.79992744E+02</pdfrwt>
<totfact> 0.34839613E+05</totfact>
</mgrwt>
</event>
<event>
 8    1  0.1600673E-013  0.7937843E+02  0.7818608E-02  0.1330825E+00
         -1   -1    0    0    0  501 -0.00000000000E+00  0.00000000000E+00  0.10823626805E+03  0.10823626816E+03  0.50400000000E-02 0.  1.
          2   -1    0    0  501    0  0.00000000000E+00 -0.00000000000E+00 -0.14553658313E+02  0.14553658537E+02  0.25500000000E-02 0. -1.
         24    2    1    2    0    0  0.00000000000E+00  0.00000000000E+00  0.93682609733E+02  0.12278992670E+03  0.79378427376E+02 0.  0.
         66    2    3    3    0    0 -0.18909569665E+02 -0.33827074418E+02  0.59940687700E+02  0.71405383742E+02  0.19999991804E+01 0.  0.
        -13    1    3    3    0    0  0.18909569665E+02  0.33827074418E+02  0.33741922032E+02  0.51384542959E+02  0.10566000000E+00 0.  1.
         13    1    4    4    0    0 -0.15825773072E+02 -0.29218704698E+02  0.51510009083E+02  0.61298287067E+02  0.10566000000E+00 0. -1.
        -13    1    4    4    0    0 -0.17556875739E+01 -0.29087915790E+01  0.55527260766E+01  0.65105635873E+01  0.10566000000E+00 0.  1.
         14    1    4    4    0    0 -0.13281090189E+01 -0.16995781407E+01  0.28779525405E+01  0.35965330873E+01  0.00000000000E+00 0. -1.
<mgrwt>
<rscale>  0 0.79378427E+02</rscale>
<asrwt>0</asrwt>
<pdfrwt beam="1">  1        2 0.22390244E-02 0.79378427E+02</pdfrwt>
<pdfrwt beam="2">  1       -1 0.16651733E-01 0.79378427E+02</pdfrwt>
<totfact> 0.11880558E+05</totfact>
</mgrwt>
</event>
<event>
 8    1  0.1600673E-013  0.7824220E+02  0.7818608E-02  0.1334115E+00
          2   -1    0    0  501    0  0.00000000000E+00  0.00000000000E+00  0.29131633575E+03  0.29131633576E+03  0.25500000000E-02 0. -1.
         -1   -1    0    0    0  501 -0.00000000000E+00 -0.00000000000E+00 -0.52536017065E+01  0.52536041240E+01  0.50400000000E-02 0.  1.
         24    2    1    2    0    0  0.35527136788E-14  0.00000000000E+00  0.28606273404E+03  0.29656993988E+03  0.78242197278E+02 0.  0.
         66    2    3    3    0    0 -0.19340201732E+02 -0.24750815889E+02  0.23135313507E+03  0.23348430227E+03  0.20000015346E+01 0.  0.
        -13    1    3    3    0    0  0.19340201732E+02  0.24750815889E+02  0.54709598965E+02  0.63085637614E+02  0.10566000000E+00 0.  1.
         13    1    4    4    0    0 -0.14088904216E+01 -0.22497647267E+01  0.17878485672E+02  0.18074784300E+02  0.10566000000E+00 0. -1.
        -13    1    4    4    0    0 -0.46506790640E+01 -0.60852479889E+01  0.61419876804E+02  0.61895650005E+02  0.10566000000E+00 0.  1.
         14    1    4    4    0    0 -0.13280632246E+02 -0.16415803174E+02  0.15205477260E+03  0.15351386796E+03  0.00000000000E+00 0. -1.
<mgrwt>
<rscale>  0 0.78242197E+02</rscale>
<asrwt>0</asrwt>
<pdfrwt beam="1">  1        2 0.44817899E-01 0.78242197E+02</pdfrwt>
<pdfrwt beam="2">  1       -1 0.80824658E-03 0.78242197E+02</pdfrwt>
<totfact> 0.26736581E+05</totfact>
</mgrwt>
</event>
<event>
 8    1  0.1600673E-013  0.7817764E+02  0.7818608E-02  0.1334304E+00
          2   -1    0    0  501    0  0.00000000000E+00  0.00000000000E+00  0.31760910269E+03  0.31760910270E+03  0.25500000000E-02 0. -1.
         -1   -1    0    0    0  501 -0.00000000000E+00 -0.00000000000E+00 -0.48107420155E+01  0.48107446556E+01  0.50400000000E-02 0.  1.
         24    2    1    2    0    0  0.71054273576E-14 -0.17763568394E-14  0.31279836067E+03  0.32241984736E+03  0.78177640846E+02 0.  0.
         66    2    3    3    0    0 -0.34347428352E+02  0.15741638753E+02  0.19740901336E+03  0.20100214822E+03  0.20000023864E+01 0.  0.
        -13    1    3    3    0    0  0.34347428352E+02 -0.15741638753E+02  0.11538934732E+03  0.12141769914E+03  0.10566000000E+00 0.  1.
         13    1    4    4    0    0 -0.12329374806E+02  0.52554382268E+01  0.73543479769E+02  0.74754850642E+02  0.10566000000E+00 0. -1.
        -13    1    4    4    0    0 -0.36333836586E+01  0.14162366087E+01  0.20835100281E+02  0.21197164213E+02  0.10566000000E+00 0. -1.
         14    1    4    4    0    0 -0.18384669888E+02  0.90699639173E+01  0.10303043331E+03  0.10505013336E+03  0.00000000000E+00 0. -1.
<mgrwt>
<rscale>  0 0.78177641E+02</rscale>
<asrwt>0</asrwt>
<pdfrwt beam="1">  1        2 0.48862931E-01 0.78177641E+02</pdfrwt>
<pdfrwt beam="2">  1       -1 0.74011448E-03 0.78177641E+02</pdfrwt>
<totfact> 0.27643304E+05</totfact>
</mgrwt>
</event>
<event>
 8    1  0.1600673E-013  0.8054547E+02  0.7818608E-02  0.1327511E+00
          2   -1    0    0  501    0  0.00000000000E+00  0.00000000000E+00  0.35559971486E+03  0.35559971487E+03  0.25500000000E-02 0. -1.
         -1   -1    0    0    0  501 -0.00000000000E+00 -0.00000000000E+00 -0.45610063532E+01  0.45610091379E+01  0.50400000000E-02 0.  1.
         24    2    1    2    0    0  0.00000000000E+00  0.00000000000E+00  0.35103870851E+03  0.36016072401E+03  0.80545466956E+02 0.  0.
         66    2    3    3    0    0 -0.26709706497E+02  0.30053269368E+02  0.18372637041E+03  0.18808505151E+03  0.19999994544E+01 0.  0.
        -13    1    3    3    0    0  0.26709706497E+02 -0.30053269368E+02  0.16731233810E+03  0.17207567250E+03  0.10566000000E+00 0.  1.
         13    1    4    4    0    0 -0.12607196956E+02  0.14539983567E+02  0.87215815620E+02  0.89313841008E+02  0.10566000000E+00 0. -1.
        -13    1    4    4    0    0 -0.11755858063E+02  0.13648570632E+02  0.82760840148E+02  0.84698592109E+02  0.10566000000E+00 0.  1.
         14    1    4    4    0    0 -0.23466514773E+01  0.18647151683E+01  0.13749714643E+02  0.14072618398E+02  0.00000000000E+00 0. -1.
<mgrwt>
<rscale>  0 0.80545467E+02</rscale>
<asrwt>0</asrwt>
<pdfrwt beam="1">  1        2 0.54707675E-01 0.80545467E+02</pdfrwt>
<pdfrwt beam="2">  1       -1 0.70169316E-03 0.80545467E+02</pdfrwt>
<totfact> 0.26624896E+05</totfact>
</mgrwt>
</event>
<event>
 8    1  0.1600673E-013  0.8028611E+02  0.7818608E-02  0.1328241E+00
         -1   -1    0    0    0  501 -0.00000000000E+00  0.00000000000E+00  0.28972764162E+01  0.28972807999E+01  0.50400000000E-02 0.  1.
          2   -1    0    0  501    0  0.00000000000E+00 -0.00000000000E+00 -0.55619953213E+03  0.55619953214E+03  0.25500000000E-02 0. -1.
         24    2    1    2    0    0 -0.35527136788E-14 -0.35527136788E-14 -0.55330225572E+03  0.55909681294E+03  0.80286113725E+02 0.  0.
         66    2    3    3    0    0  0.11149834005E+02  0.19799407675E+02 -0.50706267515E+03  0.50757550358E+03  0.19999914844E+01 0.  0.
        -13    1    3    3    0    0 -0.11149834005E+02 -0.19799407675E+02 -0.46239580569E+02  0.51521309356E+02  0.10566000000E+00 0.  1.
         13    1    4    4    0    0  0.24192382506E+01  0.40132221973E+01 -0.94997485065E+02  0.95113048520E+02  0.10566000000E+00 0. -1.
        -13    1    4    4    0    0  0.67053052080E+01  0.12934728566E+02 -0.32229053958E+03  0.32261970086E+03  0.10566000000E+00 0.  1.
        -14    1    4    4    0    0  0.20252905462E+01  0.28514569116E+01 -0.89774650507E+02  0.89842754198E+02  0.00000000000E+00 0.  1.
<mgrwt>
<rscale>  0 0.80286114E+02</rscale>
<asrwt>0</asrwt>
<pdfrwt beam="1">  1        2 0.85569074E-01 0.80286114E+02</pdfrwt>
<pdfrwt beam="2">  1       -1 0.44573561E-03 0.80286114E+02</pdfrwt>
<totfact> 0.31177151E+05</totfact>
</mgrwt>
</event>
<event>
 8    1  0.1600673E-013  0.8018828E+02  0.7818608E-02  0.1328518E+00
          2   -1    0    0  501    0  0.00000000000E+00  0.00000000000E+00  0.47653930431E+03  0.47653930432E+03  0.25500000000E-02 0. -1.
         -1   -1    0    0    0  501 -0.00000000000E+00 -0.00000000000E+00 -0.33733611302E+01  0.33733648953E+01  0.50400000000E-02 0.  1.
         24    2    1    2    0    0  0.00000000000E+00  0.00000000000E+00  0.47316594318E+03  0.47991266922E+03  0.80188280223E+02 0.  0.
         66    2    3    3    0    0 -0.33328955459E+02 -0.18759253100E+02  0.30824930855E+03  0.31061932502E+03  0.20000000839E+01 0.  0.
        -13    1    3    3    0    0  0.33328955459E+02  0.18759253100E+02  0.16491663463E+03  0.16929334420E+03  0.10566000000E+00 0.  1.
         13    1    4    4    0    0 -0.20834266675E+02 -0.10715717177E+02  0.19069472673E+03  0.19212855912E+03  0.10566000000E+00 0. -1.
        -13    1    4    4    0    0 -0.23685838033E+01 -0.16385520832E+01  0.23506460193E+02  0.23682480381E+02  0.10566000000E+00 0.  1.
         14    1    4    4    0    0 -0.10126104981E+02 -0.64049838400E+01  0.94048121630E+02  0.94808285515E+02  0.00000000000E+00 0. -1.
<mgrwt>
<rscale>  0 0.80188280E+02</rscale>
<asrwt>0</asrwt>
<pdfrwt beam="1">  1        2 0.73313774E-01 0.80188280E+02</pdfrwt>
<pdfrwt beam="2">  1       -1 0.51897868E-03 0.80188280E+02</pdfrwt>
<totfact> 0.29799261E+05</totfact>
</mgrwt>
</event>
<event>
 8    1  0.1600673E-013  0.7881238E+02  0.7818608E-02  0.1332456E+00
          2   -1    0    0  501    0  0.00000000000E+00  0.00000000000E+00  0.42408150536E+02  0.42408150613E+02  0.25500000000E-02 0. -1.
         -1   -1    0    0    0  501 -0.00000000000E+00 -0.00000000000E+00 -0.36616732917E+02  0.36616733264E+02  0.50400000000E-02 0.  1.
         24    2    1    2    0    0 -0.35527136788E-14  0.00000000000E+00  0.57914176193E+01  0.79024883877E+02  0.78812383251E+02 0.  0.
         66    2    3    3    0    0 -0.21692835783E+02  0.29247434493E+02  0.17933046687E+02  0.40639706150E+02  0.20000009297E+01 0.  0.
        -13    1    3    3    0    0  0.21692835783E+02 -0.29247434493E+02 -0.12141629067E+02  0.38385177728E+02  0.10566000000E+00 0.  1.
         13    1    4    4    0    0 -0.13797241083E+02  0.19698450467E+02  0.12499572617E+02  0.27104303938E+02  0.10566000000E+00 0. -1.
        -13    1    4    4    0    0 -0.19641325328E+01  0.21881925740E+01  0.12028636295E+01  0.31786865675E+01  0.10566000000E+00 0.  1.
        -14    1    4    4    0    0 -0.59314621672E+01  0.73607914521E+01  0.42306104398E+01  0.10356715644E+02  0.00000000000E+00 0.  1.
<mgrwt>
<rscale>  0 0.78812383E+02</rscale>
<asrwt>0</asrwt>
<pdfrwt beam="1">  1        2 0.65243308E-02 0.78812383E+02</pdfrwt>
<pdfrwt beam="2">  1       -1 0.56333436E-02 0.78812383E+02</pdfrwt>
<totfact> 0.15035419E+05</totfact>
</mgrwt>
</event>
<event>
 8    1  0.1600673E-013  0.7850313E+02  0.7818608E-02  0.1333354E+00
         -1   -1    0    0    0  501 -0.00000000000E+00  0.00000000000E+00  0.27009276178E+01  0.27009323202E+01  0.50400000000E-02 0.  1.
          2   -1    0    0  501    0  0.00000000000E+00 -0.00000000000E+00 -0.57042766648E+03  0.57042766649E+03  0.25500000000E-02 0. -1.
         24    2    1    2    0    0  0.00000000000E+00  0.00000000000E+00 -0.56772673887E+03  0.57312859881E+03  0.78503125735E+02 0.  0.
         66    2    3    3    0    0  0.20401707883E+02  0.28733638720E+02 -0.40982894452E+03  0.41134610192E+03  0.20000285809E+01 0.  0.
        -13    1    3    3    0    0 -0.20401707883E+02 -0.28733638720E+02 -0.15789779434E+03  0.16178249689E+03  0.10566000000E+00 0.  1.
         13    1    4    4    0    0  0.20254780843E+01  0.33018177662E+01 -0.45879270388E+02  0.46042623486E+02  0.10566000000E+00 0. -1.
        -13    1    4    4    0    0  0.11732595985E+02  0.15011791823E+02 -0.22522922001E+03  0.22603367097E+03  0.10566000000E+00 0.  1.
        -14    1    4    4    0    0  0.66436338131E+01  0.10420029131E+02 -0.13872045412E+03  0.13926980746E+03  0.00000000000E+00 0.  1.
<mgrwt>
<rscale>  0 0.78503126E+02</rscale>
<asrwt>0</asrwt>
<pdfrwt beam="1">  1        2 0.87758007E-01 0.78503126E+02</pdfrwt>
<pdfrwt beam="2">  1       -1 0.41552814E-03 0.78503126E+02</pdfrwt>
<totfact> 0.33299699E+05</totfact>
</mgrwt>
</event>
<event>
 8    1  0.1600673E-013  0.7806613E+02  0.7818608E-02  0.1334631E+00
          2   -1    0    0  501    0  0.00000000000E+00  0.00000000000E+00  0.13579517796E+03  0.13579517798E+03  0.25500000000E-02 0. -1.
         -1   -1    0    0    0  501 -0.00000000000E+00 -0.00000000000E+00 -0.11219690653E+02  0.11219691785E+02  0.50400000000E-02 0.  1.
         24    2    1    2    0    0  0.00000000000E+00  0.00000000000E+00  0.12457548730E+03  0.14701486977E+03  0.78066125144E+02 0.  0.
         66    2    3    3    0    0 -0.27043631507E+01  0.22406669122E+02  0.12224307200E+03  0.12432514243E+03  0.19999972258E+01 0.  0.
        -13    1    3    3    0    0  0.27043631507E+01 -0.22406669122E+02  0.23324153085E+01  0.22689727332E+02  0.10566000000E+00 0.  1.
         13    1    4    4    0    0 -0.14094889489E+00  0.44405490981E+01  0.25312655528E+02  0.25699806162E+02  0.10566000000E+00 0. -1.
        -13    1    4    4    0    0 -0.42422704188E+00  0.56052524202E+01  0.27096118612E+02  0.27673265639E+02  0.10566000000E+00 0.  1.
        -14    1    4    4    0    0 -0.21391872140E+01  0.12360867604E+02  0.69834297857E+02  0.70952070632E+02  0.00000000000E+00 0.  1.
<mgrwt>
<rscale>  0 0.78066125E+02</rscale>
<asrwt>0</asrwt>
<pdfrwt beam="1">  1        2 0.20891566E-01 0.78066125E+02</pdfrwt>
<pdfrwt beam="2">  1       -1 0.17261064E-02 0.78066125E+02</pdfrwt>
<totfact> 0.20710379E+05</totfact>
</mgrwt>
</event>
<event>
 8    1  0.1600673E-013  0.7805301E+02  0.7818608E-02  0.1334669E+00
          2   -1    0    0  501    0  0.00000000000E+00  0.00000000000E+00  0.83221986136E+03  0.83221986137E+03  0.25500000000E-02 0. -1.
         -1   -1    0    0    0  501 -0.00000000000E+00 -0.00000000000E+00 -0.18301233766E+01  0.18301303165E+01  0.50400000000E-02 0.  1.
         24    2    1    2    0    0  0.35527136788E-14 -0.41633363423E-16  0.83038973798E+03  0.83404999168E+03  0.78053005540E+02 0.  0.
         66    2    3    3    0    0  0.25140060014E+02 -0.82219693513E-01  0.73407828199E+03  0.73451137055E+03  0.19999988989E+01 0.  0.
        -13    1    3    3    0    0 -0.25140060014E+02  0.82219693513E-01  0.96311455996E+02  0.99538621136E+02  0.10566000000E+00 0.  1.
         13    1    4    4    0    0  0.76382548966E+01  0.49835488330E+00  0.22729222244E+03  0.22742110026E+03  0.10566000000E+00 0. -1.
        -13    1    4    4    0    0  0.17357692467E+01 -0.43190738753E+00  0.54945258921E+02  0.54974467536E+02  0.10566000000E+00 0.  1.
         14    1    4    4    0    0  0.15766035871E+02 -0.14866718928E+00  0.45184080062E+03  0.45211580275E+03  0.00000000000E+00 0. -1.
<mgrwt>
<rscale>  0 0.78053006E+02</rscale>
<asrwt>0</asrwt>
<pdfrwt beam="1">  1        2 0.12803368E+00 0.78053006E+02</pdfrwt>
<pdfrwt beam="2">  1       -1 0.28155829E-03 0.78053006E+02</pdfrwt>
<totfact> 0.36870005E+05</totfact>
</mgrwt>
</event>
<event>
 8    1  0.1600673E-013  0.7757609E+02  0.7818608E-02  0.1336074E+00
          2   -1    0    0  501    0  0.00000000000E+00  0.00000000000E+00  0.16533456667E+03  0.16533456669E+03  0.25500000000E-02 0. -1.
         -1   -1    0    0    0  501 -0.00000000000E+00 -0.00000000000E+00 -0.90998049334E+01  0.90998063291E+01  0.50400000000E-02 0.  1.
         24    2    1    2    0    0  0.00000000000E+00  0.00000000000E+00  0.15623476174E+03  0.17443437302E+03  0.77576089845E+02 0.  0.
         66    2    3    3    0    0 -0.98666955754E+01  0.36771801794E+02  0.61800885016E+02  0.72614505973E+02  0.20000000406E+01 0.  0.
        -13    1    3    3    0    0  0.98666955754E+01 -0.36771801794E+02  0.94433876723E+02  0.10181986705E+03  0.10566000000E+00 0.  1.
         13    1    4    4    0    0 -0.65680523617E+01  0.23782708947E+02  0.40528084899E+02  0.47447796433E+02  0.10566000000E+00 0. -1.
        -13    1    4    4    0    0 -0.76743194929E+00  0.16226351132E+01  0.26314245855E+01  0.31870763863E+01  0.10566000000E+00 0.  1.
         14    1    4    4    0    0 -0.25312112644E+01  0.11366457733E+02  0.18641375531E+02  0.21979633154E+02  0.00000000000E+00 0. -1.
<mgrwt>
<rscale>  0 0.77576090E+02</rscale>
<asrwt>0</asrwt>
<pdfrwt beam="1">  1        2 0.25436089E-01 0.77576090E+02</pdfrwt>
<pdfrwt beam="2">  1       -1 0.13999700E-02 0.77576090E+02</pdfrwt>
<totfact> 0.22429567E+05</totfact>
</mgrwt>
</event>
<event>
 8    1  0.1600673E-013  0.7920719E+02  0.7818608E-02  0.1331316E+00
          2   -1    0    0  501    0  0.00000000000E+00  0.00000000000E+00  0.86490051516E+02  0.86490051554E+02  0.25500000000E-02 0. -1.
         -1   -1    0    0    0  501 -0.00000000000E+00 -0.00000000000E+00 -0.18134394583E+02  0.18134395284E+02  0.50400000000E-02 0.  1.
         24    2    1    2    0    0  0.00000000000E+00 -0.44408920985E-15  0.68355656933E+02  0.10462444684E+03  0.79207190591E+02 0.  0.
         66    2    3    3    0    0  0.21786388904E+02 -0.33555647916E+01  0.77619340074E+02  0.80713496503E+02  0.20000018954E+01 0.  0.
        -13    1    3    3    0    0 -0.21786388904E+02  0.33555647916E+01 -0.92636831413E+01  0.23910950335E+02  0.10566000000E+00 0.  1.
         13    1    4    4    0    0  0.92085422111E+00 -0.36467234548E+00  0.27185392377E+01  0.28952682154E+01  0.10566000000E+00 0. -1.
        -13    1    4    4    0    0  0.51256936359E+01 -0.12071798713E+01  0.18483698629E+02  0.19219477036E+02  0.10566000000E+00 0.  1.
         14    1    4    4    0    0  0.15739841047E+02 -0.17837125748E+01  0.56417102207E+02  0.58598751251E+02  0.00000000000E+00 0. -1.
<mgrwt>
<rscale>  0 0.79207191E+02</rscale>
<asrwt>0</asrwt>
<pdfrwt beam="1">  1        2 0.13306162E-01 0.79207191E+02</pdfrwt>
<pdfrwt beam="2">  1       -1 0.27899069E-02 0.79207191E+02</pdfrwt>
<totfact> 0.17501097E+05</totfact>
</mgrwt>
</event>
<event>
 8    1  0.1600673E-013  0.8118135E+02  0.7818608E-02  0.1325732E+00
         -1   -1    0    0    0  501 -0.00000000000E+00  0.00000000000E+00  0.13523575192E+01  0.13523669108E+01  0.50400000000E-02 0.  1.
          2   -1    0    0  501    0  0.00000000000E+00 -0.00000000000E+00 -0.12183148484E+04  0.12183148484E+04  0.25500000000E-02 0. -1.
         24    2    1    2    0    0  0.17763568394E-14 -0.35527136788E-14 -0.12169624909E+04  0.12196672153E+04  0.81181351921E+02 0.  0.
         66    2    3    3    0    0  0.91954904517E+01  0.22555441266E+02 -0.10962134937E+04  0.10964858999E+04  0.20000005774E+01 0.  0.
        -13    1    3    3    0    0 -0.91954904517E+01 -0.22555441266E+02 -0.12074899723E+03  0.12318131543E+03  0.10566000000E+00 0.  1.
         13    1    4    4    0    0  0.23754711293E+01  0.53248726892E+01 -0.26907515704E+03  0.26913834441E+03  0.10566000000E+00 0. -1.
        -13    1    4    4    0    0  0.39894686585E+01  0.10926035589E+02 -0.48547039159E+03  0.48560972642E+03  0.10566000000E+00 0.  1.
        -14    1    4    4    0    0  0.28305506639E+01  0.63045329878E+01 -0.34166794502E+03  0.34173782906E+03  0.00000000000E+00 0.  1.
<mgrwt>
<rscale>  0 0.81181352E+02</rscale>
<asrwt>0</asrwt>
<pdfrwt beam="1">  1        2 0.18743218E+00 0.81181352E+02</pdfrwt>
<pdfrwt beam="2">  1       -1 0.20805670E-03 0.81181352E+02</pdfrwt>
<totfact> 0.33668533E+05</totfact>
</mgrwt>
</event>
<event>
 8    1  0.1600673E-013  0.7933118E+02  0.7818608E-02  0.1330960E+00
         -1   -1    0    0    0  501 -0.00000000000E+00  0.00000000000E+00  0.14992024669E+01  0.14992109386E+01  0.50400000000E-02 0.  1.
          2   -1    0    0  501    0  0.00000000000E+00 -0.00000000000E+00 -0.10494609369E+04  0.10494609369E+04  0.25500000000E-02 0. -1.
         24    2    1    2    0    0  0.17763568394E-14 -0.17763568394E-14 -0.10479617344E+04  0.10509601478E+04  0.79331176189E+02 0.  0.
         66    2    3    3    0    0 -0.10623734088E+02  0.14500636507E+02 -0.99235863544E+03  0.99252344733E+03  0.19999955500E+01 0.  0.
        -13    1    3    3    0    0  0.10623734088E+02 -0.14500636507E+02 -0.55603099001E+02  0.58436700520E+02  0.10566000000E+00 0.  1.
         13    1    4    4    0    0 -0.29884890256E+01  0.34242065240E+01 -0.27395771673E+03  0.27399543422E+03  0.10566000000E+00 0. -1.
        -13    1    4    4    0    0 -0.73009186869E+01  0.10813479751E+02 -0.68374079122E+03  0.68386527584E+03  0.10566000000E+00 0.  1.
        -14    1    4    4    0    0 -0.33432637507E+00  0.26295023208E+00 -0.34660127495E+02  0.34662737268E+02  0.00000000000E+00 0.  1.
<mgrwt>
<rscale>  0 0.79331176E+02</rscale>
<asrwt>0</asrwt>
<pdfrwt beam="1">  1        2 0.16145494E+00 0.79331176E+02</pdfrwt>
<pdfrwt beam="2">  1       -1 0.23064802E-03 0.79331176E+02</pdfrwt>
<totfact> 0.36049426E+05</totfact>
</mgrwt>
</event>
<event>
 8    1  0.1600673E-013  0.7798768E+02  0.7818608E-02  0.1334861E+00
         -1   -1    0    0    0  501 -0.00000000000E+00  0.00000000000E+00  0.26266095969E+01  0.26266144323E+01  0.50400000000E-02 0.  1.
          2   -1    0    0  501    0  0.00000000000E+00 -0.00000000000E+00 -0.57889001618E+03  0.57889001618E+03  0.25500000000E-02 0. -1.
         24    2    1    2    0    0  0.00000000000E+00  0.88817841970E-15 -0.57626340658E+03  0.58151663061E+03  0.77987677991E+02 0.  0.
         66    2    3    3    0    0  0.31645579250E+02  0.54638268960E+01 -0.45290861312E+03  0.45405011609E+03  0.19999991362E+01 0.  0.
        -13    1    3    3    0    0 -0.31645579250E+02 -0.54638268960E+01 -0.12335479346E+03  0.12746651452E+03  0.10566000000E+00 0.  1.
         13    1    4    4    0    0  0.12824038632E+02  0.22099296666E+01 -0.17407601872E+03  0.17456176904E+03  0.10566000000E+00 0. -1.
        -13    1    4    4    0    0  0.43084446007E+01  0.28767624616E+00 -0.61349068516E+02  0.61500933524E+02  0.10566000000E+00 0.  1.
        -14    1    4    4    0    0  0.14513096017E+02  0.29662209832E+01 -0.21748352589E+03  0.21798741353E+03  0.00000000000E+00 0.  1.
<mgrwt>
<rscale>  0 0.77987678E+02</rscale>
<asrwt>0</asrwt>
<pdfrwt beam="1">  1        2 0.89059901E-01 0.77987678E+02</pdfrwt>
<pdfrwt beam="2">  1       -1 0.40409462E-03 0.77987678E+02</pdfrwt>
<totfact> 0.34018960E+05</totfact>
</mgrwt>
</event>
<event>
 8    1  0.1600673E-013  0.7930879E+02  0.7818608E-02  0.1331024E+00
          2   -1    0    0  501    0  0.00000000000E+00  0.00000000000E+00  0.68990209797E+03  0.68990209798E+03  0.25500000000E-02 0. -1.
         -1   -1    0    0    0  501 -0.00000000000E+00 -0.00000000000E+00 -0.22792644164E+01  0.22792699887E+01  0.50400000000E-02 0.  1.
         24    2    1    2    0    0  0.35527136788E-14  0.35527136788E-14  0.68762283356E+03  0.69218136797E+03  0.79308794793E+02 0.  0.
         66    2    3    3    0    0  0.18499349036E+02 -0.25112593766E+02  0.55738459751E+03  0.55826020619E+03  0.19999968347E+01 0.  0.
        -13    1    3    3    0    0 -0.18499349036E+02  0.25112593766E+02  0.13023823604E+03  0.13392116178E+03  0.10566000000E+00 0.  1.
         13    1    4    4    0    0  0.61272284044E+01 -0.81018121374E+01  0.17451597965E+03  0.17481138580E+03  0.10566000000E+00 0. -1.
        -13    1    4    4    0    0  0.67147175616E+01 -0.10268794945E+02  0.21575149441E+03  0.21610010200E+03  0.10566000000E+00 0.  1.
        -14    1    4    4    0    0  0.56574030702E+01 -0.67419866842E+01  0.16711712346E+03  0.16734871839E+03  0.00000000000E+00 0.  1.
<mgrwt>
<rscale>  0 0.79308795E+02</rscale>
<asrwt>0</asrwt>
<pdfrwt beam="1">  1        2 0.10613900E+00 0.79308795E+02</pdfrwt>
<pdfrwt beam="2">  1       -1 0.35065578E-03 0.79308795E+02</pdfrwt>
<totfact> 0.34099720E+05</totfact>
</mgrwt>
</event>
<event>
 8    1  0.1600673E-013  0.7939178E+02  0.7818608E-02  0.1330786E+00
         -1   -1    0    0    0  501 -0.00000000000E+00  0.00000000000E+00  0.35645047586E+01  0.35645083218E+01  0.50400000000E-02 0.  1.
          2   -1    0    0  501    0  0.00000000000E+00 -0.00000000000E+00 -0.44207066534E+03  0.44207066535E+03  0.25500000000E-02 0. -1.
         24    2    1    2    0    0  0.35527136788E-14  0.35527136788E-14 -0.43850616058E+03  0.44563517367E+03  0.79391782593E+02 0.  0.
         66    2    3    3    0    0 -0.22816957427E+02 -0.22205296753E+02 -0.35223067964E+03  0.35367236311E+03  0.19999996923E+01 0.  0.
        -13    1    3    3    0    0  0.22816957427E+02  0.22205296753E+02 -0.86275480945E+02  0.91962810562E+02  0.10566000000E+00 0.  1.
         13    1    4    4    0    0 -0.10627404747E+02 -0.10354706716E+02 -0.16561042259E+03  0.16627382511E+03  0.10566000000E+00 0. -1.
        -13    1    4    4    0    0 -0.47945977359E+01 -0.54883583585E+01 -0.84067007561E+02  0.84382362904E+02  0.10566000000E+00 0.  1.
        -14    1    4    4    0    0 -0.73949549435E+01 -0.63622316787E+01 -0.10255324948E+03  0.10301617509E+03  0.00000000000E+00 0.  1.
<mgrwt>
<rscale>  0 0.79391783E+02</rscale>
<asrwt>0</asrwt>
<pdfrwt beam="1">  1        2 0.68010828E-01 0.79391783E+02</pdfrwt>
<pdfrwt beam="2">  1       -1 0.54838597E-03 0.79391783E+02</pdfrwt>
<totfact> 0.29830802E+05</totfact>
</mgrwt>
</event>
<event>
 8    1  0.1600673E-013  0.7861101E+02  0.7818608E-02  0.1333040E+00
         -1   -1    0    0    0  501 -0.00000000000E+00  0.00000000000E+00  0.10296383130E+03  0.10296383142E+03  0.50400000000E-02 0.  1.
          2   -1    0    0  501    0  0.00000000000E+00 -0.00000000000E+00 -0.15004517961E+02  0.15004518177E+02  0.25500000000E-02 0. -1.
         24    2    1    2    0    0  0.00000000000E+00  0.35527136788E-14  0.87959313335E+02  0.11796834960E+03  0.78611008797E+02 0.  0.
         66    2    3    3    0    0  0.19170269110E+02 -0.24493716728E+02  0.80085933770E+01  0.32180412433E+02  0.19999998894E+01 0.  0.
        -13    1    3    3    0    0 -0.19170269110E+02  0.24493716728E+02  0.79950719958E+02  0.85787937164E+02  0.10566000000E+00 0.  1.
         13    1    4    4    0    0  0.66805986627E+00 -0.74585582742E+00  0.21219489511E+00  0.10289779440E+01  0.10566000000E+00 0.  1.
        -13    1    4    4    0    0  0.64008179499E+01 -0.80971581032E+01  0.35655104705E+01  0.10920552583E+02  0.10566000000E+00 0.  1.
         14    1    4    4    0    0  0.12101391294E+02 -0.15650702798E+02  0.42308880114E+01  0.20230881905E+02  0.00000000000E+00 0. -1.
<mgrwt>
<rscale>  0 0.78611009E+02</rscale>
<asrwt>0</asrwt>
<pdfrwt beam="1">  1        2 0.23083874E-02 0.78611009E+02</pdfrwt>
<pdfrwt beam="2">  1       -1 0.15840589E-01 0.78611009E+02</pdfrwt>
<totfact> 0.12304971E+05</totfact>
</mgrwt>
</event>
<event>
 8    1  0.1600673E-013  0.7949663E+02  0.7818608E-02  0.1330486E+00
         -1   -1    0    0    0  501 -0.00000000000E+00  0.00000000000E+00  0.15023547333E+02  0.15023548178E+02  0.50400000000E-02 0.  1.
          2   -1    0    0  501    0  0.00000000000E+00 -0.00000000000E+00 -0.10516348137E+03  0.10516348140E+03  0.25500000000E-02 0. -1.
         24    2    1    2    0    0  0.00000000000E+00  0.17763568394E-14 -0.90139934033E+02  0.12018702958E+03  0.79496631190E+02 0.  0.
         66    2    3    3    0    0  0.15630581543E+02 -0.14529833195E+02 -0.95750880968E+02  0.98120651947E+02  0.20000000986E+01 0.  0.
        -13    1    3    3    0    0 -0.15630581543E+02  0.14529833195E+02  0.56109469348E+01  0.22066377628E+02  0.10566000000E+00 0.  1.
         13    1    4    4    0    0  0.22337674219E+01 -0.24187212263E+01 -0.14265805445E+02  0.14641185003E+02  0.10566000000E+00 0. -1.
        -13    1    4    4    0    0  0.74860950877E+01 -0.60735369148E+01 -0.40361567794E+02  0.41496949155E+02  0.10566000000E+00 0.  1.
         14    1    4    4    0    0  0.59107190339E+01 -0.60375750542E+01 -0.41123507729E+02  0.41982517790E+02  0.00000000000E+00 0. -1.
<mgrwt>
<rscale>  0 0.79496631E+02</rscale>
<asrwt>0</asrwt>
<pdfrwt beam="1">  1        2 0.16178997E-01 0.79496631E+02</pdfrwt>
<pdfrwt beam="2">  1       -1 0.23113151E-02 0.79496631E+02</pdfrwt>
<totfact> 0.18285891E+05</totfact>
</mgrwt>
</event>
<event>
 8    1  0.1600673E-013  0.7955931E+02  0.7818608E-02  0.1330307E+00
          2   -1    0    0  501    0  0.00000000000E+00  0.00000000000E+00  0.11273463349E+04  0.11273463349E+04  0.25500000000E-02 0. -1.
         -1   -1    0    0    0  501 -0.00000000000E+00 -0.00000000000E+00 -0.14036643950E+01  0.14036734433E+01  0.50400000000E-02 0.  1.
         24    2    1    2    0    0  0.00000000000E+00  0.00000000000E+00  0.11259426705E+04  0.11287500083E+04  0.79559311696E+02 0.  0.
         66    2    3    3    0    0  0.24588626291E+02  0.86079905120E+01  0.98935801339E+03  0.98970297398E+03  0.19999988817E+01 0.  0.
        -13    1    3    3    0    0 -0.24588626291E+02 -0.86079905120E+01  0.13658465707E+03  0.13904703432E+03  0.10566000000E+00 0.  1.
         13    1    4    4    0    0  0.19375614736E+02  0.61882516116E+01  0.77337007340E+03  0.77363750587E+03  0.10566000000E+00 0. -1.
        -13    1    4    4    0    0  0.43725021274E+01  0.22429263561E+01  0.17828152620E+03  0.17834927317E+03  0.10566000000E+00 0.  1.
         14    1    4    4    0    0  0.84050942722E+00  0.17681254422E+00  0.37706413801E+02  0.37716194937E+02  0.00000000000E+00 0. -1.
<mgrwt>
<rscale>  0 0.79559312E+02</rscale>
<asrwt>0</asrwt>
<pdfrwt beam="1">  1        2 0.17343727E+00 0.79559312E+02</pdfrwt>
<pdfrwt beam="2">  1       -1 0.21594984E-03 0.79559312E+02</pdfrwt>
<totfact> 0.35724061E+05</totfact>
</mgrwt>
</event>
<event>
 8    1  0.1600673E-013  0.8030715E+02  0.7818608E-02  0.1328182E+00
         -1   -1    0    0    0  501 -0.00000000000E+00  0.00000000000E+00  0.22185870385E+02  0.22185870957E+02  0.50400000000E-02 0.  1.
          2   -1    0    0  501    0  0.00000000000E+00 -0.00000000000E+00 -0.72672805513E+02  0.72672805558E+02  0.25500000000E-02 0. -1.
         24    2    1    2    0    0  0.00000000000E+00  0.71054273576E-14 -0.50486935128E+02  0.94858676515E+02  0.80307147200E+02 0.  0.
         66    2    3    3    0    0 -0.14164081982E+01  0.34037529331E+02 -0.50308979661E+02  0.60791060699E+02  0.20000028132E+01 0.  0.
        -13    1    3    3    0    0  0.14164081982E+01 -0.34037529331E+02 -0.17795546719E+00  0.34067615815E+02  0.10566000000E+00 0.  1.
         13    1    4    4    0    0 -0.48489454501E+00  0.11696162623E+02 -0.18506631594E+02  0.21898445603E+02  0.10566000000E+00 0. -1.
        -13    1    4    4    0    0 -0.10408847004E+01  0.15010604199E+02 -0.20834950555E+02  0.25700350349E+02  0.10566000000E+00 0.  1.
        -14    1    4    4    0    0  0.10937104715E+00  0.73307625083E+01 -0.10967397512E+02  0.13192264747E+02  0.00000000000E+00 0.  1.
<mgrwt>
<rscale>  0 0.80307147E+02</rscale>
<asrwt>0</asrwt>
<pdfrwt beam="1">  1        2 0.11180432E-01 0.80307147E+02</pdfrwt>
<pdfrwt beam="2">  1       -1 0.34132109E-02 0.80307147E+02</pdfrwt>
<totfact> 0.16127986E+05</totfact>
</mgrwt>
</event>
<event>
 8    1  0.1600673E-013  0.7856908E+02  0.7818608E-02  0.1333162E+00
          2   -1    0    0  501    0  0.00000000000E+00  0.00000000000E+00  0.32741402345E+03  0.32741402346E+03  0.25500000000E-02 0. -1.
         -1   -1    0    0    0  501 -0.00000000000E+00 -0.00000000000E+00 -0.47135259172E+01  0.47135286117E+01  0.50400000000E-02 0.  1.
         24    2    1    2    0    0  0.00000000000E+00  0.11102230246E-15  0.32270049753E+03  0.33212755207E+03  0.78569076214E+02 0.  0.
         66    2    3    3    0    0  0.38628747514E+02 -0.77746271484E+00  0.13201985943E+03  0.13757190066E+03  0.19999965087E+01 0.  0.
        -13    1    3    3    0    0 -0.38628747514E+02  0.77746271484E+00  0.19068063811E+03  0.19455565141E+03  0.10566000000E+00 0.  1.
         13    1    4    4    0    0  0.16920097270E+02 -0.25871930393E+00  0.57197242968E+02  0.59648071171E+02  0.10566000000E+00 0. -1.
        -13    1    4    4    0    0  0.15356134591E+02 -0.59956538459E+00  0.55115141774E+02  0.57217657808E+02  0.10566000000E+00 0.  1.
        -14    1    4    4    0    0  0.63525156529E+01  0.80821973684E-01  0.19707474685E+02  0.20706171683E+02  0.00000000000E+00 0.  1.
<mgrwt>
<rscale>  0 0.78569076E+02</rscale>
<asrwt>0</asrwt>
<pdfrwt beam="1">  1        2 0.50371388E-01 0.78569076E+02</pdfrwt>
<pdfrwt beam="2">  1       -1 0.72515805E-03 0.78569076E+02</pdfrwt>
<totfact> 0.27584857E+05</totfact>
</mgrwt>
</event>
<event>
 8    1  0.1600673E-013  0.7173826E+02  0.7818608E-02  0.1354280E+00
          2   -1    0    0  501    0  0.00000000000E+00  0.00000000000E+00  0.37460786140E+03  0.37460786141E+03  0.25500000000E-02 0. -1.
         -1   -1    0    0    0  501 -0.00000000000E+00 -0.00000000000E+00 -0.34345087160E+01  0.34345124140E+01  0.50400000000E-02 0.  1.
         24    2    1    2    0    0  0.17763568394E-14  0.00000000000E+00  0.37117335269E+03  0.37804237382E+03  0.71738264984E+02 0.  0.
         66    2    3    3    0    0 -0.14599438156E+02  0.16317531558E+02  0.33526360605E+03  0.33598376593E+03  0.19999990020E+01 0.  0.
        -13    1    3    3    0    0  0.14599438156E+02 -0.16317531558E+02  0.35909746637E+02  0.42058607896E+02  0.10566000000E+00 0.  1.
         13    1    4    4    0    0 -0.18177592634E+01  0.24282355688E+01  0.38013926176E+02  0.38134896408E+02  0.10566000000E+00 0. -1.
        -13    1    4    4    0    0 -0.46849650627E+01  0.54357395198E+01  0.11160679845E+03  0.11183731392E+03  0.10566000000E+00 0. -1.
         14    1    4    4    0    0 -0.80967138295E+01  0.84535564690E+01  0.18564288142E+03  0.18601155560E+03  0.00000000000E+00 0. -1.
<mgrwt>
<rscale>  0 0.71738265E+02</rscale>
<asrwt>0</asrwt>
<pdfrwt beam="1">  1        2 0.57631956E-01 0.71738265E+02</pdfrwt>
<pdfrwt beam="2">  1       -1 0.52838645E-03 0.71738265E+02</pdfrwt>
<totfact> 0.36648759E+05</totfact>
</mgrwt>
</event>
<event>
 8    1  0.1600673E-013  0.7841695E+02  0.7818608E-02  0.1333605E+00
          2   -1    0    0  501    0  0.00000000000E+00  0.00000000000E+00  0.75847325596E+03  0.75847325596E+03  0.25500000000E-02 0. -1.
         -1   -1    0    0    0  501 -0.00000000000E+00 -0.00000000000E+00 -0.20268377425E+01  0.20268440088E+01  0.50400000000E-02 0.  1.
         24    2    1    2    0    0  0.88817841970E-15  0.17763568394E-14  0.75644641821E+03  0.76050009997E+03  0.78416952408E+02 0.  0.
         66    2    3    3    0    0 -0.66002212275E+01 -0.14380316332E+02  0.72610979204E+03  0.72628492103E+03  0.20000012934E+01 0.  0.
        -13    1    3    3    0    0  0.66002212275E+01  0.14380316332E+02  0.30336626178E+02  0.34215178941E+02  0.10566000000E+00 0.  1.
         13    1    4    4    0    0 -0.46519223342E+01 -0.82135379958E+01  0.42333811510E+03  0.42344335329E+03  0.10566000000E+00 0. -1.
        -13    1    4    4    0    0 -0.88738834542E+00 -0.33162732370E+01  0.17493966093E+03  0.17497337299E+03  0.10566000000E+00 0.  1.
         14    1    4    4    0    0 -0.10609105479E+01 -0.28505050990E+01  0.12783201601E+03  0.12786819475E+03  0.00000000000E+00 0. -1.
<mgrwt>
<rscale>  0 0.78416952E+02</rscale>
<asrwt>0</asrwt>
<pdfrwt beam="1">  1        2 0.11668826E+00 0.78416952E+02</pdfrwt>
<pdfrwt beam="2">  1       -1 0.31182150E-03 0.78416952E+02</pdfrwt>
<totfact> 0.35840851E+05</totfact>
</mgrwt>
</event>
<event>
 8    1  0.1600673E-013  0.8032490E+02  0.7818608E-02  0.1328132E+00
         -1   -1    0    0    0  501 -0.00000000000E+00  0.00000000000E+00  0.69336684993E+01  0.69336703310E+01  0.50400000000E-02 0.  1.
          2   -1    0    0  501    0  0.00000000000E+00 -0.00000000000E+00 -0.23263618807E+03  0.23263618809E+03  0.25500000000E-02 0. -1.
         24    2    1    2    0    0  0.71054273576E-14 -0.35527136788E-14 -0.22570251957E+03  0.23956985842E+03  0.80324900999E+02 0.  0.
         66    2    3    3    0    0  0.32399375854E+02 -0.22377916726E+02 -0.13612464244E+03  0.14171947289E+03  0.20000007765E+01 0.  0.
        -13    1    3    3    0    0 -0.32399375854E+02  0.22377916726E+02 -0.89577877130E+02  0.97850385528E+02  0.10566000000E+00 0.  1.
         13    1    4    4    0    0  0.15936751331E+02 -0.10321362723E+02 -0.67507059949E+02  0.70126491987E+02  0.10566000000E+00 0. -1.
        -13    1    4    4    0    0  0.69951979150E+01 -0.56496574500E+01 -0.29839415115E+02  0.31164936733E+02  0.10566000000E+00 0.  1.
        -14    1    4    4    0    0  0.94674266083E+01 -0.64068965535E+01 -0.38778167381E+02  0.40428044171E+02  0.00000000000E+00 0.  1.
<mgrwt>
<rscale>  0 0.80324901E+02</rscale>
<asrwt>0</asrwt>
<pdfrwt beam="1">  1        2 0.35790177E-01 0.80324901E+02</pdfrwt>
<pdfrwt beam="2">  1       -1 0.10667186E-02 0.80324901E+02</pdfrwt>
<totfact> 0.23016031E+05</totfact>
</mgrwt>
</event>
<event>
 8    1  0.1600673E-013  0.7819102E+02  0.7818608E-02  0.1334265E+00
          2   -1    0    0  501    0  0.00000000000E+00  0.00000000000E+00  0.13896136678E+03  0.13896136680E+03  0.25500000000E-02 0. -1.
         -1   -1    0    0    0  501 -0.00000000000E+00 -0.00000000000E+00 -0.10999162707E+02  0.10999163862E+02  0.50400000000E-02 0.  1.
         24    2    1    2    0    0  0.00000000000E+00  0.00000000000E+00  0.12796220407E+03  0.14996053067E+03  0.78191016660E+02 0.  0.
         66    2    3    3    0    0  0.22369959091E+02  0.31238590560E+02  0.77609901479E+02  0.86623099785E+02  0.19999997445E+01 0.  0.
        -13    1    3    3    0    0 -0.22369959091E+02 -0.31238590560E+02  0.50352302594E+02  0.63337430880E+02  0.10566000000E+00 0.  1.
         13    1    4    4    0    0  0.10159077965E+01  0.17818781116E+01  0.41603260054E+01  0.46396804591E+01  0.10566000000E+00 0.  1.
        -13    1    4    4    0    0  0.14210178514E+02  0.18332178823E+02  0.46162108002E+02  0.51661875044E+02  0.10566000000E+00 0. -1.
         14    1    4    4    0    0  0.71438727804E+01  0.11124533626E+02  0.27287467471E+02  0.30321544283E+02  0.00000000000E+00 0. -1.
<mgrwt>
<rscale>  0 0.78191017E+02</rscale>
<asrwt>0</asrwt>
<pdfrwt beam="1">  1        2 0.21378672E-01 0.78191017E+02</pdfrwt>
<pdfrwt beam="2">  1       -1 0.16921789E-02 0.78191017E+02</pdfrwt>
<totfact> 0.20771764E+05</totfact>
</mgrwt>
</event>
<event>
 8    1  0.1600673E-013  0.8145021E+02  0.7818608E-02  0.1324986E+00
         -1   -1    0    0    0  501 -0.00000000000E+00  0.00000000000E+00  0.17849665921E+01  0.17849737076E+01  0.50400000000E-02 0.  1.
          2   -1    0    0  501    0  0.00000000000E+00 -0.00000000000E+00 -0.92916629234E+03  0.92916629234E+03  0.25500000000E-02 0. -1.
         24    2    1    2    0    0  0.00000000000E+00  0.00000000000E+00 -0.92738132574E+03  0.93095126605E+03  0.81450208202E+02 0.  0.
         66    2    3    3    0    0 -0.29563808186E+01 -0.20534234812E+02 -0.86419402482E+03  0.86444531783E+03  0.19999969214E+01 0.  0.
        -13    1    3    3    0    0  0.29563808186E+01  0.20534234812E+02 -0.63187300924E+02  0.66505948222E+02  0.10566000000E+00 0.  1.
         13    1    4    4    0    0 -0.24891125388E+01 -0.16590314495E+02 -0.70605515823E+03  0.70625443846E+03  0.10566000000E+00 0. -1.
        -13    1    4    4    0    0 -0.32003235325E+00 -0.48685344244E+00 -0.20754661856E+02  0.20763106698E+02  0.10566000000E+00 0.  1.
         14    1    4    4    0    0 -0.14723592662E+00 -0.34570668747E+01 -0.13738420474E+03  0.13742777267E+03  0.00000000000E+00 0. -1.
<mgrwt>
<rscale>  0 0.81450208E+02</rscale>
<asrwt>0</asrwt>
<pdfrwt beam="1">  1        2 0.14294827E+00 0.81450208E+02</pdfrwt>
<pdfrwt beam="2">  1       -1 0.27461153E-03 0.81450208E+02</pdfrwt>
<totfact> 0.33459474E+05</totfact>
</mgrwt>
</event>
<event>
 8    1  0.1600673E-013  0.8310979E+02  0.7818608E-02  0.1320451E+00
          2   -1    0    0  501    0  0.00000000000E+00  0.00000000000E+00  0.65161051831E+03  0.65161051832E+03  0.25500000000E-02 0. -1.
         -1   -1    0    0    0  501 -0.00000000000E+00 -0.00000000000E+00 -0.26500612024E+01  0.26500659951E+01  0.50400000000E-02 0.  1.
         24    2    1    2    0    0 -0.35527136788E-14  0.17763568394E-14  0.64896045711E+03  0.65426058431E+03  0.83109790594E+02 0.  0.
         66    2    3    3    0    0  0.23834442385E+02 -0.15468985879E+02  0.56311140361E+03  0.56383137819E+03  0.19999988975E+01 0.  0.
        -13    1    3    3    0    0 -0.23834442385E+02  0.15468985879E+02  0.85849053504E+02  0.90429206120E+02  0.10566000000E+00 0.  1.
         13    1    4    4    0    0  0.16867573183E+02 -0.11555001490E+02  0.39643873248E+03  0.39696563184E+03  0.10566000000E+00 0. -1.
        -13    1    4    4    0    0  0.69284224254E+01 -0.39466621468E+01  0.16565625768E+03  0.16584808124E+03  0.10566000000E+00 0.  1.
         14    1    4    4    0    0  0.38446775729E-01  0.32677757831E-01  0.10164134411E+01  0.10176651088E+01  0.00000000000E+00 0. -1.
<mgrwt>
<rscale>  0 0.83109791E+02</rscale>
<asrwt>0</asrwt>
<pdfrwt beam="1">  1        2 0.10024771E+00 0.83109791E+02</pdfrwt>
<pdfrwt beam="2">  1       -1 0.40770233E-03 0.83109791E+02</pdfrwt>
<totfact> 0.29768114E+05</totfact>
</mgrwt>
</event>
<event>
 8    1  0.1600673E-013  0.8043101E+02  0.7818608E-02  0.1327833E+00
         -1   -1    0    0    0  501 -0.00000000000E+00  0.00000000000E+00  0.98184614167E+01  0.98184627103E+01  0.50400000000E-02 0.  1.
          2   -1    0    0  501    0  0.00000000000E+00 -0.00000000000E+00 -0.16471895953E+03  0.16471895955E+03  0.25500000000E-02 0. -1.
         24    2    1    2    0    0 -0.71054273576E-14  0.88817841970E-15 -0.15490049811E+03  0.17453742226E+03  0.80431010521E+02 0.  0.
         66    2    3    3    0    0  0.37737344568E+02 -0.41218151781E+01 -0.10613786249E+03  0.11274015426E+03  0.19999982954E+01 0.  0.
        -13    1    3    3    0    0 -0.37737344568E+02  0.41218151781E+01 -0.48762635625E+02  0.61797268002E+02  0.10566000000E+00 0.  1.
         13    1    4    4    0    0  0.62772416679E+01 -0.83988885556E+00 -0.18655957433E+02  0.19701905695E+02  0.10566000000E+00 0. -1.
        -13    1    4    4    0    0  0.75459824117E+01 -0.26075260154E+00 -0.19659715327E+02  0.21060043049E+02  0.10566000000E+00 0.  1.
        -14    1    4    4    0    0  0.23914120488E+02 -0.30211737210E+01 -0.67822189731E+02  0.71978205515E+02  0.00000000000E+00 0.  1.
<mgrwt>
<rscale>  0 0.80431011E+02</rscale>
<asrwt>0</asrwt>
<pdfrwt beam="1">  1        2 0.25341376E-01 0.80431011E+02</pdfrwt>
<pdfrwt beam="2">  1       -1 0.15105328E-02 0.80431011E+02</pdfrwt>
<totfact> 0.20359820E+05</totfact>
</mgrwt>
</event>
<event>
 8    1  0.1600673E-013  0.8129149E+02  0.7818608E-02  0.1325426E+00
          2   -1    0    0  501    0  0.00000000000E+00  0.00000000000E+00  0.23092352173E+02  0.23092352314E+02  0.25500000000E-02 0. -1.
         -1   -1    0    0    0  501 -0.00000000000E+00 -0.00000000000E+00 -0.71542143690E+02  0.71542143867E+02  0.50400000000E-02 0.  1.
         24    2    1    2    0    0  0.00000000000E+00  0.00000000000E+00 -0.48449791517E+02  0.94634496181E+02  0.81291485221E+02 0.  0.
         66    2    3    3    0    0 -0.13822691143E+02  0.29004824802E+02  0.46940450835E+01  0.32532763638E+02  0.19999996050E+01 0.  0.
        -13    1    3    3    0    0  0.13822691143E+02 -0.29004824802E+02 -0.53143836600E+02  0.62101732543E+02  0.10566000000E+00 0.  1.
         13    1    4    4    0    0 -0.12291619831E+02  0.25095729125E+02  0.38688461993E+01  0.28210967253E+02  0.10566000000E+00 0. -1.
        -13    1    4    4    0    0 -0.97514611541E+00  0.30153483915E+01  0.44128168465E+00  0.32014261555E+01  0.10566000000E+00 0.  1.
         14    1    4    4    0    0 -0.55592519642E+00  0.89374728546E+00  0.38391719955E+00  0.11203702292E+01  0.00000000000E+00 0. -1.
<mgrwt>
<rscale>  0 0.81291485E+02</rscale>
<asrwt>0</asrwt>
<pdfrwt beam="1">  1        2 0.35526696E-02 0.81291485E+02</pdfrwt>
<pdfrwt beam="2">  1       -1 0.11006484E-01 0.81291485E+02</pdfrwt>
<totfact> 0.12208118E+05</totfact>
</mgrwt>
</event>
<event>
 8    1  0.1600673E-013  0.7830329E+02  0.7818608E-02  0.1333937E+00
          2   -1    0    0  501    0  0.00000000000E+00  0.00000000000E+00  0.11979893475E+03  0.11979893478E+03  0.25500000000E-02 0. -1.
         -1   -1    0    0    0  501 -0.00000000000E+00 -0.00000000000E+00 -0.12795200310E+02  0.12795201302E+02  0.50400000000E-02 0.  1.
         24    2    1    2    0    0  0.00000000000E+00  0.00000000000E+00  0.10700373444E+03  0.13259413608E+03  0.78303293280E+02 0.  0.
         66    2    3    3    0    0  0.19482752210E+02 -0.27026769207E+02  0.88273794538E+02  0.94373124839E+02  0.20000005788E+01 0.  0.
        -13    1    3    3    0    0 -0.19482752210E+02  0.27026769207E+02  0.18729939901E+02  0.38221011239E+02  0.10566000000E+00 0.  1.
         13    1    4    4    0    0  0.17858757440E+02 -0.23978208821E+02  0.78385936376E+02  0.83894313879E+02  0.10566000000E+00 0. -1.
        -13    1    4    4    0    0  0.55646210855E+00 -0.80342572751E+00  0.27471981711E+01  0.29177739468E+01  0.10566000000E+00 0.  1.
        -14    1    4    4    0    0  0.10675326611E+01 -0.22451346581E+01  0.71406599902E+01  0.75610370129E+01  0.00000000000E+00 0.  1.
<mgrwt>
<rscale>  0 0.78303293E+02</rscale>
<asrwt>0</asrwt>
<pdfrwt beam="1">  1        2 0.18430605E-01 0.78303293E+02</pdfrwt>
<pdfrwt beam="2">  1       -1 0.19684925E-02 0.78303293E+02</pdfrwt>
<totfact> 0.19774656E+05</totfact>
</mgrwt>
</event>
<event>
 8    1  0.1600673E-013  0.8122460E+02  0.7818608E-02  0.1325612E+00
          2   -1    0    0  501    0  0.00000000000E+00  0.00000000000E+00  0.37198344805E+03  0.37198344806E+03  0.25500000000E-02 0. -1.
         -1   -1    0    0    0  501 -0.00000000000E+00 -0.00000000000E+00 -0.44339560608E+01  0.44339589253E+01  0.50400000000E-02 0.  1.
         24    2    1    2    0    0  0.00000000000E+00  0.00000000000E+00  0.36754949199E+03  0.37641740698E+03  0.81224597377E+02 0.  0.
         66    2    3    3    0    0  0.24063913229E+02  0.16235155211E+02  0.31534765705E+03  0.31668722266E+03  0.20000007902E+01 0.  0.
        -13    1    3    3    0    0 -0.24063913229E+02 -0.16235155211E+02  0.52201834940E+02  0.59730184327E+02  0.10566000000E+00 0.  1.
         13    1    4    4    0    0  0.15529984362E+02  0.97349186821E+01  0.19508926503E+03  0.19594841553E+03  0.10566000000E+00 0. -1.
        -13    1    4    4    0    0  0.10550734272E+01  0.98774295943E+00  0.18909754424E+02  0.18965199511E+02  0.10566000000E+00 0.  1.
        -14    1    4    4    0    0  0.74788554393E+01  0.55124935692E+01  0.10134863760E+03  0.10177360761E+03  0.00000000000E+00 0.  1.
<mgrwt>
<rscale>  0 0.81224597E+02</rscale>
<asrwt>0</asrwt>
<pdfrwt beam="1">  1        2 0.57228208E-01 0.81224597E+02</pdfrwt>
<pdfrwt beam="2">  1       -1 0.68214749E-03 0.81224597E+02</pdfrwt>
<totfact> 0.26466036E+05</totfact>
</mgrwt>
</event>
<event>
 8    1  0.1600673E-013  0.7913987E+02  0.7818608E-02  0.1331510E+00
          2   -1    0    0  501    0  0.00000000000E+00  0.00000000000E+00  0.45241974146E+03  0.45241974146E+03  0.25500000000E-02 0. -1.
         -1   -1    0    0    0  501 -0.00000000000E+00 -0.00000000000E+00 -0.34608988814E+01  0.34609025512E+01  0.50400000000E-02 0.  1.
         24    2    1    2    0    0  0.88817841970E-15  0.00000000000E+00  0.44895884257E+03  0.45588064401E+03  0.79139871500E+02 0.  0.
         66    2    3    3    0    0 -0.79527702874E+01 -0.75154087948E+01  0.44352274323E+03  0.44366220448E+03  0.19999989903E+01 0.  0.
        -13    1    3    3    0    0  0.79527702874E+01  0.75154087948E+01  0.54360993466E+01  0.12218439538E+02  0.10566000000E+00 0.  1.
         13    1    4    4    0    0 -0.13429413717E+01 -0.19325341226E+01  0.11212506251E+03  0.11214980601E+03  0.10566000000E+00 0. -1.
        -13    1    4    4    0    0 -0.41012166643E+01 -0.28002782925E+01  0.19540298026E+03  0.19546610293E+03  0.10566000000E+00 0.  1.
         14    1    4    4    0    0 -0.25086122513E+01 -0.27825963798E+01  0.13599470045E+03  0.13604629554E+03  0.00000000000E+00 0. -1.
<mgrwt>
<rscale>  0 0.79139872E+02</rscale>
<asrwt>0</asrwt>
<pdfrwt beam="1">  1        2 0.69603050E-01 0.79139872E+02</pdfrwt>
<pdfrwt beam="2">  1       -1 0.53244617E-03 0.79139872E+02</pdfrwt>
<totfact> 0.30313917E+05</totfact>
</mgrwt>
</event>
<event>
 8    1  0.1600673E-013  0.7854458E+02  0.7818608E-02  0.1333233E+00
         -1   -1    0    0    0  501 -0.00000000000E+00  0.00000000000E+00  0.16217118471E+02  0.16217119255E+02  0.50400000000E-02 0.  1.
          2   -1    0    0  501    0  0.00000000000E+00 -0.00000000000E+00 -0.95103982092E+02  0.95103982126E+02  0.25500000000E-02 0. -1.
         24    2    1    2    0    0  0.35527136788E-14  0.44408920985E-15 -0.78886863620E+02  0.11132110138E+03  0.78544575629E+02 0.  0.
         66    2    3    3    0    0  0.19912391834E+02  0.34168974925E+01 -0.87156953092E+02  0.89490295602E+02  0.19999994042E+01 0.  0.
        -13    1    3    3    0    0 -0.19912391834E+02 -0.34168974925E+01  0.82700894721E+01  0.21830805778E+02  0.10566000000E+00 0.  1.
         13    1    4    4    0    0  0.11099729207E+02  0.15499562675E+01 -0.48999965366E+02  0.50265436662E+02  0.10566000000E+00 0. -1.
        -13    1    4    4    0    0  0.25930369940E+01  0.10851927616E+01 -0.11034484367E+02  0.11387383082E+02  0.10566000000E+00 0.  1.
        -14    1    4    4    0    0  0.62196256327E+01  0.78174846338E+00 -0.27122503359E+02  0.27837475858E+02  0.00000000000E+00 0.  1.
<mgrwt>
<rscale>  0 0.78544576E+02</rscale>
<asrwt>0</asrwt>
<pdfrwt beam="1">  1        2 0.14631382E-01 0.78544576E+02</pdfrwt>
<pdfrwt beam="2">  1       -1 0.24949414E-02 0.78544576E+02</pdfrwt>
<totfact> 0.18362321E+05</totfact>
</mgrwt>
</event>
<event>
 8    1  0.1600673E-013  0.7970427E+02  0.7818608E-02  0.1329893E+00
         -1   -1    0    0    0  501 -0.00000000000E+00  0.00000000000E+00  0.11996263022E+02  0.11996264081E+02  0.50400000000E-02 0.  1.
          2   -1    0    0  501    0  0.00000000000E+00 -0.00000000000E+00 -0.13239061933E+03  0.13239061935E+03  0.25500000000E-02 0. -1.
         24    2    1    2    0    0  0.00000000000E+00  0.00000000000E+00 -0.12039435631E+03  0.14438688343E+03  0.79704272641E+02 0.  0.
         66    2    3    3    0    0 -0.61965676752E+00  0.25815605601E+02 -0.11516231318E+03  0.11803892514E+03  0.20000007582E+01 0.  0.
        -13    1    3    3    0    0  0.61965676752E+00 -0.25815605601E+02 -0.52320431232E+01  0.26347958295E+02  0.10566000000E+00 0.  1.
         13    1    4    4    0    0  0.25629874754E-01  0.72245953537E+01 -0.34861724979E+02  0.35602618828E+02  0.10566000000E+00 0. -1.
        -13    1    4    4    0    0 -0.12804807097E+00  0.13811298343E+02 -0.57724959287E+02  0.59354447576E+02  0.10566000000E+00 0.  1.
         14    1    4    4    0    0 -0.51723857130E+00  0.47797119038E+01 -0.22575628919E+02  0.23081858736E+02  0.00000000000E+00 0. -1.
<mgrwt>
<rscale>  0 0.79704273E+02</rscale>
<asrwt>0</asrwt>
<pdfrwt beam="1">  1        2 0.20367787E-01 0.79704273E+02</pdfrwt>
<pdfrwt beam="2">  1       -1 0.18455791E-02 0.79704273E+02</pdfrwt>
<totfact> 0.19445265E+05</totfact>
</mgrwt>
</event>
<event>
 8    1  0.1600673E-013  0.7908977E+02  0.7818608E-02  0.1331655E+00
          2   -1    0    0  501    0  0.00000000000E+00  0.00000000000E+00  0.20926745780E+03  0.20926745781E+03  0.25500000000E-02 0. -1.
         -1   -1    0    0    0  501 -0.00000000000E+00 -0.00000000000E+00 -0.74727222212E+01  0.74727239208E+01  0.50400000000E-02 0.  1.
         24    2    1    2    0    0  0.00000000000E+00  0.00000000000E+00  0.20179473558E+03  0.21674018173E+03  0.79089765910E+02 0.  0.
         66    2    3    3    0    0 -0.34806512757E+02 -0.59019929695E+01  0.14963552516E+03  0.15375668194E+03  0.19999997436E+01 0.  0.
        -13    1    3    3    0    0  0.34806512757E+02  0.59019929695E+01  0.52159210414E+02  0.62983499795E+02  0.10566000000E+00 0.  1.
         13    1    4    4    0    0 -0.13736356677E+02 -0.21202185061E+01  0.60285023325E+02  0.61866614766E+02  0.10566000000E+00 0. -1.
        -13    1    4    4    0    0 -0.99768452618E+01 -0.10756662000E+01  0.41635174942E+02  0.42827484815E+02  0.10566000000E+00 0.  1.
        -14    1    4    4    0    0 -0.11093310819E+02 -0.27061082635E+01  0.47715326897E+02  0.49062582359E+02  0.00000000000E+00 0.  1.
<mgrwt>
<rscale>  0 0.79089766E+02</rscale>
<asrwt>0</asrwt>
<pdfrwt beam="1">  1        2 0.32194997E-01 0.79089766E+02</pdfrwt>
<pdfrwt beam="2">  1       -1 0.11496496E-02 0.79089766E+02</pdfrwt>
<totfact> 0.23095766E+05</totfact>
</mgrwt>
</event>
<event>
 8    1  0.1600673E-013  0.8074688E+02  0.7818608E-02  0.1326945E+00
          2   -1    0    0  501    0  0.00000000000E+00  0.00000000000E+00  0.21422252096E+03  0.21422252098E+03  0.25500000000E-02 0. -1.
         -1   -1    0    0    0  501 -0.00000000000E+00 -0.00000000000E+00 -0.76089774245E+01  0.76089790936E+01  0.50400000000E-02 0.  1.
         24    2    1    2    0    0 -0.88817841970E-15 -0.17763568394E-14  0.20661354354E+03  0.22183150007E+03  0.80746876414E+02 0.  0.
         66    2    3    3    0    0  0.79936634282E+01  0.10874213937E+02  0.20783260383E+03  0.20827995198E+03  0.19999991160E+01 0.  0.
        -13    1    3    3    0    0 -0.79936634282E+01 -0.10874213937E+02 -0.12190602920E+01  0.13551548096E+02  0.10566000000E+00 0.  1.
         13    1    4    4    0    0  0.21907716814E+01  0.23379207966E+01  0.45810367259E+02  0.45922393956E+02  0.10566000000E+00 0. -1.
        -13    1    4    4    0    0  0.46286526760E+01  0.72988230861E+01  0.14198001889E+03  0.14224287037E+03  0.10566000000E+00 0.  1.
        -14    1    4    4    0    0  0.11742390708E+01  0.12374700546E+01  0.20042217684E+02  0.20114687650E+02  0.00000000000E+00 0.  1.
<mgrwt>
<rscale>  0 0.80746876E+02</rscale>
<asrwt>0</asrwt>
<pdfrwt beam="1">  1        2 0.32957305E-01 0.80746876E+02</pdfrwt>
<pdfrwt beam="2">  1       -1 0.11706122E-02 0.80746876E+02</pdfrwt>
<totfact> 0.22047561E+05</totfact>
</mgrwt>
</event>
<event>
 8    1  0.1600673E-013  0.7977498E+02  0.7818608E-02  0.1329691E+00
          2   -1    0    0  501    0  0.00000000000E+00  0.00000000000E+00  0.97121781433E+02  0.97121781466E+02  0.25500000000E-02 0. -1.
         -1   -1    0    0    0  501 -0.00000000000E+00 -0.00000000000E+00 -0.16381615045E+02  0.16381615821E+02  0.50400000000E-02 0.  1.
         24    2    1    2    0    0  0.00000000000E+00  0.35527136788E-14  0.80740166388E+02  0.11350339729E+03  0.79774975571E+02 0.  0.
         66    2    3    3    0    0 -0.34838642999E+02  0.17410658403E+02  0.52480319261E+02  0.65383835821E+02  0.20000012352E+01 0.  0.
        -13    1    3    3    0    0  0.34838642999E+02 -0.17410658403E+02  0.28259847127E+02  0.48119561466E+02  0.10566000000E+00 0.  1.
         13    1    4    4    0    0 -0.11846654844E+02  0.60814650491E+01  0.17986684348E+02  0.22379888874E+02  0.10566000000E+00 0. -1.
        -13    1    4    4    0    0 -0.92205798306E+01  0.39125642056E+01  0.14357319511E+02  0.17506314251E+02  0.10566000000E+00 0.  1.
        -14    1    4    4    0    0 -0.13771408324E+02  0.74166291486E+01  0.20136315402E+02  0.25497632696E+02  0.00000000000E+00 0.  1.
<mgrwt>
<rscale>  0 0.79774976E+02</rscale>
<asrwt>0</asrwt>
<pdfrwt beam="1">  1        2 0.14941812E-01 0.79774976E+02</pdfrwt>
<pdfrwt beam="2">  1       -1 0.25202486E-02 0.79774976E+02</pdfrwt>
<totfact> 0.17715584E+05</totfact>
</mgrwt>
</event>
<event>
 8    1  0.1600673E-013  0.7580758E+02  0.7818608E-02  0.1341388E+00
          2   -1    0    0  501    0  0.00000000000E+00  0.00000000000E+00  0.16490968047E+03  0.16490968049E+03  0.25500000000E-02 0. -1.
         -1   -1    0    0    0  501 -0.00000000000E+00 -0.00000000000E+00 -0.87120238047E+01  0.87120252626E+01  0.50400000000E-02 0.  1.
         24    2    1    2    0    0  0.00000000000E+00  0.00000000000E+00  0.15619765667E+03  0.17362170576E+03  0.75807577199E+02 0.  0.
         66    2    3    3    0    0  0.26392419119E+02  0.98245305275E+01  0.13616630612E+03  0.13906237480E+03  0.19999941565E+01 0.  0.
        -13    1    3    3    0    0 -0.26392419119E+02 -0.98245305275E+01  0.20031350549E+02  0.34559330953E+02  0.10566000000E+00 0.  1.
         13    1    4    4    0    0  0.19863124730E+02  0.67353426610E+01  0.99206843282E+02  0.10139979035E+03  0.10566000000E+00 0. -1.
        -13    1    4    4    0    0  0.21360060313E+01  0.81741987151E+00  0.12538373453E+02  0.12745692209E+02  0.10566000000E+00 0.  1.
         14    1    4    4    0    0  0.43932883578E+01  0.22717679950E+01  0.24421089386E+02  0.24916892247E+02  0.00000000000E+00 0. -1.
<mgrwt>
<rscale>  0 0.75807577E+02</rscale>
<asrwt>0</asrwt>
<pdfrwt beam="1">  1        2 0.25370719E-01 0.75807577E+02</pdfrwt>
<pdfrwt beam="2">  1       -1 0.13403115E-02 0.75807577E+02</pdfrwt>
<totfact> 0.23815291E+05</totfact>
</mgrwt>
</event>
<event>
 8    1  0.1600673E-013  0.7945235E+02  0.7818608E-02  0.1330613E+00
         -1   -1    0    0    0  501 -0.00000000000E+00  0.00000000000E+00  0.70421126015E+02  0.70421126196E+02  0.50400000000E-02 0.  1.
          2   -1    0    0  501    0  0.00000000000E+00 -0.00000000000E+00 -0.22410447998E+02  0.22410448143E+02  0.25500000000E-02 0. -1.
         24    2    1    2    0    0  0.17763568394E-14  0.00000000000E+00  0.48010678018E+02  0.92831574338E+02  0.79452350440E+02 0.  0.
         66    2    3    3    0    0  0.13497364484E+02 -0.35017503906E+02  0.88872409593E+01  0.38618486259E+02  0.20000003110E+01 0.  0.
        -13    1    3    3    0    0 -0.13497364484E+02  0.35017503906E+02  0.39123437058E+02  0.54213088079E+02  0.10566000000E+00 0.  1.
         13    1    4    4    0    0  0.58911213608E+01 -0.13141031508E+02  0.34636447757E+01  0.14812157816E+02  0.10566000000E+00 0.  1.
        -13    1    4    4    0    0  0.60756067966E+01 -0.16560913777E+02  0.38575837396E+01  0.18057380193E+02  0.10566000000E+00 0. -1.
        -14    1    4    4    0    0  0.15306363271E+01 -0.53155586204E+01  0.15660124440E+01  0.57489482505E+01  0.00000000000E+00 0.  1.
<mgrwt>
<rscale>  0 0.79452350E+02</rscale>
<asrwt>0</asrwt>
<pdfrwt beam="1">  1        2 0.34477613E-02 0.79452350E+02</pdfrwt>
<pdfrwt beam="2">  1       -1 0.10834019E-01 0.79452350E+02</pdfrwt>
<totfact> 0.12953306E+05</totfact>
</mgrwt>
</event>
<event>
 8    1  0.1600673E-013  0.7979050E+02  0.7818608E-02  0.1329647E+00
          2   -1    0    0  501    0  0.00000000000E+00  0.00000000000E+00  0.11598848930E+03  0.11598848933E+03  0.25500000000E-02 0. -1.
         -1   -1    0    0    0  501 -0.00000000000E+00 -0.00000000000E+00 -0.13722316850E+02  0.13722317775E+02  0.50400000000E-02 0.  1.
         24    2    1    2    0    0  0.00000000000E+00 -0.35527136788E-14  0.10226617245E+03  0.12971080710E+03  0.79790497252E+02 0.  0.
         66    2    3    3    0    0  0.18162017251E+02  0.28922141371E+02  0.84610584925E+02  0.91265000218E+02  0.20000128225E+01 0.  0.
        -13    1    3    3    0    0 -0.18162017251E+02 -0.28922141371E+02  0.17655587524E+02  0.38445806884E+02  0.10566000000E+00 0.  1.
         13    1    4    4    0    0  0.10422354077E+02  0.16769079629E+02  0.48494978965E+02  0.52360306005E+02  0.10566000000E+00 0. -1.
        -13    1    4    4    0    0  0.30917121999E+01  0.40592779690E+01  0.13943830086E+02  0.14848501051E+02  0.10566000000E+00 0.  1.
        -14    1    4    4    0    0  0.46479509739E+01  0.80937837737E+01  0.22171775875E+02  0.24056193162E+02  0.00000000000E+00 0.  1.
<mgrwt>
<rscale>  0 0.79790497E+02</rscale>
<asrwt>0</asrwt>
<pdfrwt beam="1">  1        2 0.17844382E-01 0.79790497E+02</pdfrwt>
<pdfrwt beam="2">  1       -1 0.21111258E-02 0.79790497E+02</pdfrwt>
<totfact> 0.18628511E+05</totfact>
</mgrwt>
</event>
<event>
 8    1  0.1600673E-013  0.7901223E+02  0.7818608E-02  0.1331878E+00
          2   -1    0    0  501    0  0.00000000000E+00  0.00000000000E+00  0.12956197496E+02  0.12956197747E+02  0.25500000000E-02 0. -1.
         -1   -1    0    0    0  501 -0.00000000000E+00 -0.00000000000E+00 -0.12046229515E+03  0.12046229525E+03  0.50400000000E-02 0.  1.
         24    2    1    2    0    0 -0.17763568394E-14  0.00000000000E+00 -0.10750609765E+03  0.13341849300E+03  0.79012234764E+02 0.  0.
         66    2    3    3    0    0 -0.15935120537E+02 -0.17833114976E+02 -0.74392422639E+00  0.24010445331E+02  0.20000013695E+01 0.  0.
        -13    1    3    3    0    0  0.15935120537E+02  0.17833114976E+02 -0.10676217343E+03  0.10940804767E+03  0.10566000000E+00 0.  1.
         13    1    4    4    0    0 -0.77254412133E+01 -0.80843261623E+01  0.50570708889E+00  0.11194001748E+02  0.10566000000E+00 0. -1.
        -13    1    4    4    0    0 -0.11626275728E+01 -0.15376066663E+01 -0.70868855663E-01  0.19318704831E+01  0.10566000000E+00 0. -1.
         14    1    4    4    0    0 -0.70470517513E+01 -0.82111821473E+01 -0.11787624596E+01  0.10884573100E+02  0.00000000000E+00 0. -1.
<mgrwt>
<rscale>  0 0.79012235E+02</rscale>
<asrwt>0</asrwt>
<pdfrwt beam="1">  1        2 0.19932613E-02 0.79012235E+02</pdfrwt>
<pdfrwt beam="2">  1       -1 0.18532660E-01 0.79012235E+02</pdfrwt>
<totfact> 0.11734733E+05</totfact>
</mgrwt>
</event>
<event>
 8    1  0.1600673E-013  0.8232730E+02  0.7818608E-02  0.1322574E+00
         -1   -1    0    0    0  501 -0.00000000000E+00  0.00000000000E+00  0.19041822355E+02  0.19041823022E+02  0.50400000000E-02 0.  1.
          2   -1    0    0  501    0  0.00000000000E+00 -0.00000000000E+00 -0.88985489657E+02  0.88985489694E+02  0.25500000000E-02 0. -1.
         24    2    1    2    0    0  0.00000000000E+00 -0.17763568394E-14 -0.69943667303E+02  0.10802731272E+03  0.82327296183E+02 0.  0.
         66    2    3    3    0    0  0.90762980888E+01  0.14813610595E+02 -0.83924503395E+02  0.85727151557E+02  0.19999995317E+01 0.  0.
        -13    1    3    3    0    0 -0.90762980888E+01 -0.14813610595E+02  0.13980836092E+02  0.22300161159E+02  0.10566000000E+00 0.  1.
         13    1    4    4    0    0  0.49792003222E+00  0.99768997812E+00 -0.66128538989E+01  0.67070343949E+01  0.10566000000E+00 0. -1.
        -13    1    4    4    0    0  0.51460732300E+01  0.75302927224E+01 -0.39921384003E+02  0.40950158033E+02  0.10566000000E+00 0.  1.
        -14    1    4    4    0    0  0.34323048266E+01  0.62856278945E+01 -0.37390265492E+02  0.38069959128E+02  0.00000000000E+00 0.  1.
<mgrwt>
<rscale>  0 0.82327296E+02</rscale>
<asrwt>0</asrwt>
<pdfrwt beam="1">  1        2 0.13690075E-01 0.82327296E+02</pdfrwt>
<pdfrwt beam="2">  1       -1 0.29295112E-02 0.82327296E+02</pdfrwt>
<totfact> 0.15892941E+05</totfact>
</mgrwt>
</event>
<event>
 8    1  0.1600673E-013  0.7956457E+02  0.7818608E-02  0.1330292E+00
         -1   -1    0    0    0  501 -0.00000000000E+00  0.00000000000E+00  0.20502897360E+01  0.20502959306E+01  0.50400000000E-02 0.  1.
          2   -1    0    0  501    0  0.00000000000E+00 -0.00000000000E+00 -0.77190449165E+03  0.77190449165E+03  0.25500000000E-02 0. -1.
         24    2    1    2    0    0  0.35527136788E-14  0.17763568394E-14 -0.76985420191E+03  0.77395478758E+03  0.79564571392E+02 0.  0.
         66    2    3    3    0    0  0.28909489956E+02  0.90131713390E+01 -0.63575672673E+03  0.63648064500E+03  0.19999996487E+01 0.  0.
        -13    1    3    3    0    0 -0.28909489956E+02 -0.90131713390E+01 -0.13409747518E+03  0.13747414259E+03  0.10566000000E+00 0.  1.
         13    1    4    4    0    0  0.74870947621E+01  0.19641476270E+01 -0.14899466887E+03  0.14919563324E+03  0.10566000000E+00 0. -1.
        -13    1    4    4    0    0  0.12662194283E+01  0.60481687922E+00 -0.31476640701E+02  0.31508081327E+02  0.10566000000E+00 0.  1.
         14    1    4    4    0    0  0.20156175765E+02  0.64442068327E+01 -0.45528541717E+03  0.45577693043E+03  0.00000000000E+00 0. -1.
<mgrwt>
<rscale>  0 0.79564571E+02</rscale>
<asrwt>0</asrwt>
<pdfrwt beam="1">  1        2 0.11875431E+00 0.79564571E+02</pdfrwt>
<pdfrwt beam="2">  1       -1 0.31543028E-03 0.79564571E+02</pdfrwt>
<totfact> 0.34631724E+05</totfact>
</mgrwt>
</event>
<event>
 8    1  0.1600673E-013  0.7937436E+02  0.7818608E-02  0.1330836E+00
          2   -1    0    0  501    0  0.00000000000E+00  0.00000000000E+00  0.50057826480E+02  0.50057826545E+02  0.25500000000E-02 0. -1.
         -1   -1    0    0    0  501 -0.00000000000E+00 -0.00000000000E+00 -0.31465050896E+02  0.31465051300E+02  0.50400000000E-02 0.  1.
         24    2    1    2    0    0  0.00000000000E+00  0.00000000000E+00  0.18592775584E+02  0.81522877844E+02  0.79374355482E+02 0.  0.
         66    2    3    3    0    0  0.13506415675E+02 -0.23430304565E+01  0.47527347291E+02  0.49505169306E+02  0.19999978501E+01 0.  0.
        -13    1    3    3    0    0 -0.13506415675E+02  0.23430304565E+01 -0.28934571708E+02  0.32017708538E+02  0.10566000000E+00 0.  1.
         13    1    4    4    0    0  0.27258391408E+01  0.16584287318E+00  0.10096608898E+02  0.10459941594E+02  0.10566000000E+00 0. -1.
        -13    1    4    4    0    0  0.37299287852E+00  0.18816844832E-01  0.99582835050E+00  0.10687917947E+01  0.10566000000E+00 0. -1.
         14    1    4    4    0    0  0.10407583655E+02 -0.25276901746E+01  0.36434910043E+02  0.37976435917E+02  0.00000000000E+00 0. -1.
<mgrwt>
<rscale>  0 0.79374355E+02</rscale>
<asrwt>0</asrwt>
<pdfrwt beam="1">  1        2 0.77012040E-02 0.79374355E+02</pdfrwt>
<pdfrwt beam="2">  1       -1 0.48407771E-02 0.79374355E+02</pdfrwt>
<totfact> 0.15271498E+05</totfact>
</mgrwt>
</event>
<event>
 8    1  0.1600673E-013  0.8150667E+02  0.7818608E-02  0.1324829E+00
         -1   -1    0    0    0  501 -0.00000000000E+00  0.00000000000E+00  0.21302390969E+01  0.21302450590E+01  0.50400000000E-02 0.  1.
          2   -1    0    0  501    0  0.00000000000E+00 -0.00000000000E+00 -0.77964582028E+03  0.77964582028E+03  0.25500000000E-02 0. -1.
         24    2    1    2    0    0  0.00000000000E+00  0.00000000000E+00 -0.77751558118E+03  0.78177606534E+03  0.81506670653E+02 0.  0.
         66    2    3    3    0    0  0.18709855505E+01 -0.11495782783E+02 -0.76332947734E+03  0.76342094848E+03  0.19999993919E+01 0.  0.
        -13    1    3    3    0    0 -0.18709855505E+01  0.11495782783E+02 -0.14186103848E+02  0.18355116866E+02  0.10566000000E+00 0.  1.
         13    1    4    4    0    0  0.15477108963E+01 -0.72807771884E+01 -0.49490144402E+03  0.49495742805E+03  0.10566000000E+00 0. -1.
        -13    1    4    4    0    0  0.38189561305E+00 -0.30621715292E+01 -0.22034649035E+03  0.22036812318E+03  0.10566000000E+00 0.  1.
        -14    1    4    4    0    0 -0.58620958825E-01 -0.11528340651E+01 -0.48081542963E+02  0.48095397249E+02  0.00000000000E+00 0.  1.
<mgrwt>
<rscale>  0 0.81506671E+02</rscale>
<asrwt>0</asrwt>
<pdfrwt beam="1">  1        2 0.11994528E+00 0.81506671E+02</pdfrwt>
<pdfrwt beam="2">  1       -1 0.32773017E-03 0.81506671E+02</pdfrwt>
<totfact> 0.32587754E+05</totfact>
</mgrwt>
</event>
<event>
 8    1  0.1600673E-013  0.7891103E+02  0.7818608E-02  0.1332170E+00
         -1   -1    0    0    0  501 -0.00000000000E+00  0.00000000000E+00  0.25022003646E+02  0.25022004153E+02  0.50400000000E-02 0.  1.
          2   -1    0    0  501    0  0.00000000000E+00 -0.00000000000E+00 -0.62214748053E+02  0.62214748105E+02  0.25500000000E-02 0. -1.
         24    2    1    2    0    0  0.00000000000E+00  0.00000000000E+00 -0.37192744407E+02  0.87236752258E+02  0.78911030332E+02 0.  0.
         66    2    3    3    0    0 -0.19262564694E+02  0.22241355196E+02 -0.47626723819E+02  0.56018114076E+02  0.20000008347E+01 0.  0.
        -13    1    3    3    0    0  0.19262564694E+02 -0.22241355196E+02  0.10433979412E+02  0.31218638182E+02  0.10566000000E+00 0.  1.
         13    1    4    4    0    0 -0.10152843174E+02  0.12495990660E+02 -0.26251837908E+02  0.30796106323E+02  0.10566000000E+00 0. -1.
        -13    1    4    4    0    0 -0.66443484414E+01  0.75970588973E+01 -0.15452395478E+02  0.18456715854E+02  0.10566000000E+00 0.  1.
        -14    1    4    4    0    0 -0.24653730787E+01  0.21483056394E+01 -0.59224904338E+01  0.67652918988E+01  0.00000000000E+00 0.  1.
<mgrwt>
<rscale>  0 0.78911030E+02</rscale>
<asrwt>0</asrwt>
<pdfrwt beam="1">  1        2 0.95714997E-02 0.78911030E+02</pdfrwt>
<pdfrwt beam="2">  1       -1 0.38495391E-02 0.78911030E+02</pdfrwt>
<totfact> 0.16292985E+05</totfact>
</mgrwt>
</event>
<event>
 8    1  0.1600673E-013  0.8144263E+02  0.7818608E-02  0.1325007E+00
         -1   -1    0    0    0  501 -0.00000000000E+00  0.00000000000E+00  0.16416914702E+01  0.16416992066E+01  0.50400000000E-02 0.  1.
          2   -1    0    0  501    0  0.00000000000E+00 -0.00000000000E+00 -0.10100690705E+04  0.10100690705E+04  0.25500000000E-02 0. -1.
         24    2    1    2    0    0  0.35527136788E-14  0.00000000000E+00 -0.10084273791E+04  0.10117107697E+04  0.81442634844E+02 0.  0.
         66    2    3    3    0    0  0.30987634605E+02 -0.23926100487E+01 -0.83088804134E+03  0.83147152406E+03  0.19999999624E+01 0.  0.
        -13    1    3    3    0    0 -0.30987634605E+02  0.23926100487E+01 -0.17753933773E+03  0.18023924569E+03  0.10566000000E+00 0.  1.
         13    1    4    4    0    0  0.10472326860E+02 -0.13850377668E+01 -0.26599800341E+03  0.26620769512E+03  0.10566000000E+00 0. -1.
        -13    1    4    4    0    0  0.18249643475E+02 -0.10935683278E+01 -0.50571360038E+03  0.50604397255E+03  0.10566000000E+00 0.  1.
        -14    1    4    4    0    0  0.22656642691E+01  0.85996045916E-01 -0.59176437551E+02  0.59219856392E+02  0.00000000000E+00 0.  1.
<mgrwt>
<rscale>  0 0.81442635E+02</rscale>
<asrwt>0</asrwt>
<pdfrwt beam="1">  1        2 0.15539475E+00 0.81442635E+02</pdfrwt>
<pdfrwt beam="2">  1       -1 0.25256932E-03 0.81442635E+02</pdfrwt>
<totfact> 0.33645294E+05</totfact>
</mgrwt>
</event>
<event>
 8    1  0.1600673E-013  0.8134737E+02  0.7818608E-02  0.1325271E+00
          2   -1    0    0  501    0  0.00000000000E+00  0.00000000000E+00  0.62777216436E+03  0.62777216437E+03  0.25500000000E-02 0. -1.
         -1   -1    0    0    0  501 -0.00000000000E+00 -0.00000000000E+00 -0.26352669256E+01  0.26352717451E+01  0.50400000000E-02 0.  1.
         24    2    1    2    0    0  0.17763568394E-14  0.35527136788E-14  0.62513689744E+03  0.63040743611E+03  0.81347372233E+02 0.  0.
         66    2    3    3    0    0 -0.11069502887E+02 -0.27648805077E+02  0.52714897923E+03  0.52799340585E+03  0.20000000540E+01 0.  0.
        -13    1    3    3    0    0  0.11069502887E+02  0.27648805077E+02  0.97987918203E+02  0.10241403026E+03  0.10566000000E+00 0.  1.
         13    1    4    4    0    0 -0.77842821047E+01 -0.17187356610E+02  0.32811016299E+03  0.32865223337E+03  0.10566000000E+00 0. -1.
        -13    1    4    4    0    0 -0.20619855051E+00 -0.63931550960E+00  0.11524116623E+02  0.11544161733E+02  0.10566000000E+00 0.  1.
         14    1    4    4    0    0 -0.30790222319E+01 -0.98221329574E+01  0.18751469962E+03  0.18779701075E+03  0.00000000000E+00 0. -1.
<mgrwt>
<rscale>  0 0.81347372E+02</rscale>
<asrwt>0</asrwt>
<pdfrwt beam="1">  1        2 0.96580488E-01 0.81347372E+02</pdfrwt>
<pdfrwt beam="2">  1       -1 0.40542540E-03 0.81347372E+02</pdfrwt>
<totfact> 0.31176091E+05</totfact>
</mgrwt>
</event>
<event>
 8    1  0.1600673E-013  0.7942074E+02  0.7818608E-02  0.1330703E+00
          2   -1    0    0  501    0  0.00000000000E+00  0.00000000000E+00  0.63105825886E+02  0.63105825937E+02  0.25500000000E-02 0. -1.
         -1   -1    0    0    0  501 -0.00000000000E+00 -0.00000000000E+00 -0.24988398035E+02  0.24988398543E+02  0.50400000000E-02 0.  1.
         24    2    1    2    0    0  0.00000000000E+00  0.00000000000E+00  0.38117427851E+02  0.88094224480E+02  0.79420740873E+02 0.  0.
         66    2    3    3    0    0 -0.16504201957E+02 -0.18964837181E+02  0.53130082126E+02  0.58812068072E+02  0.19999981718E+01 0.  0.
        -13    1    3    3    0    0  0.16504201957E+02  0.18964837181E+02 -0.15012654275E+02  0.29282156408E+02  0.10566000000E+00 0.  1.
         13    1    4    4    0    0 -0.11959830119E+02 -0.13803706872E+02  0.39762462365E+02  0.43756650206E+02  0.10566000000E+00 0. -1.
        -13    1    4    4    0    0 -0.28578472604E+01 -0.38122730343E+01  0.93126836973E+01  0.10461259883E+02  0.10566000000E+00 0.  1.
         14    1    4    4    0    0 -0.16865245770E+01 -0.13488572748E+01  0.40549360630E+01  0.45941579829E+01  0.00000000000E+00 0. -1.
<mgrwt>
<rscale>  0 0.79420741E+02</rscale>
<asrwt>0</asrwt>
<pdfrwt beam="1">  1        2 0.97085886E-02 0.79420741E+02</pdfrwt>
<pdfrwt beam="2">  1       -1 0.38443690E-02 0.79420741E+02</pdfrwt>
<totfact> 0.16064137E+05</totfact>
</mgrwt>
</event>
<event>
 8    1  0.1600673E-013  0.8032271E+02  0.7818608E-02  0.1328138E+00
         -1   -1    0    0    0  501 -0.00000000000E+00  0.00000000000E+00  0.16054018893E+02  0.16054019684E+02  0.50400000000E-02 0.  1.
          2   -1    0    0  501    0  0.00000000000E+00 -0.00000000000E+00 -0.10046919836E+03  0.10046919839E+03  0.25500000000E-02 0. -1.
         24    2    1    2    0    0  0.00000000000E+00  0.00000000000E+00 -0.84415179467E+02  0.11652321808E+03  0.80322710527E+02 0.  0.
         66    2    3    3    0    0 -0.36154058394E+02 -0.10337973454E+02 -0.62591957459E+02  0.73046168771E+02  0.20000000160E+01 0.  0.
        -13    1    3    3    0    0  0.36154058394E+02  0.10337973454E+02 -0.21823222009E+02  0.43477049306E+02  0.10566000000E+00 0.  1.
         13    1    4    4    0    0 -0.97247626692E+01 -0.34327020642E+01 -0.17750313832E+02  0.20528985791E+02  0.10566000000E+00 0. -1.
        -13    1    4    4    0    0 -0.15277039471E+02 -0.39596424869E+01 -0.24921474541E+02  0.29498436585E+02  0.10566000000E+00 0.  1.
        -14    1    4    4    0    0 -0.11152256254E+02 -0.29456289034E+01 -0.19920169086E+02  0.23018746395E+02  0.00000000000E+00 0.  1.
<mgrwt>
<rscale>  0 0.80322711E+02</rscale>
<asrwt>0</asrwt>
<pdfrwt beam="1">  1        2 0.15456799E-01 0.80322711E+02</pdfrwt>
<pdfrwt beam="2">  1       -1 0.24698492E-02 0.80322711E+02</pdfrwt>
<totfact> 0.17558702E+05</totfact>
</mgrwt>
</event>
<event>
 8    1  0.1600673E-013  0.7902541E+02  0.7818608E-02  0.1331840E+00
         -1   -1    0    0    0  501 -0.00000000000E+00  0.00000000000E+00  0.28301820062E+01  0.28301864938E+01  0.50400000000E-02 0.  1.
          2   -1    0    0  501    0  0.00000000000E+00 -0.00000000000E+00 -0.55164382785E+03  0.55164382785E+03  0.25500000000E-02 0. -1.
         24    2    1    2    0    0  0.00000000000E+00 -0.35527136788E-14 -0.54881364584E+03  0.55447401435E+03  0.79025405565E+02 0.  0.
         66    2    3    3    0    0 -0.62362945410E+01  0.21499836517E+02 -0.50281632103E+03  0.50331837542E+03  0.20000013044E+01 0.  0.
        -13    1    3    3    0    0  0.62362945410E+01 -0.21499836517E+02 -0.45997324813E+02  0.51155638925E+02  0.10566000000E+00 0.  1.
         13    1    4    4    0    0 -0.44588685372E+01  0.13706694488E+02 -0.31012275181E+03  0.31045754515E+03  0.10566000000E+00 0. -1.
        -13    1    4    4    0    0 -0.37679163834E+00  0.22021828814E+01 -0.46702011234E+02  0.46755540834E+02  0.10566000000E+00 0.  1.
        -14    1    4    4    0    0 -0.14006343654E+01  0.55909591474E+01 -0.14599155798E+03  0.14610528944E+03  0.00000000000E+00 0.  1.
<mgrwt>
<rscale>  0 0.79025406E+02</rscale>
<asrwt>0</asrwt>
<pdfrwt beam="1">  1        2 0.84868196E-01 0.79025406E+02</pdfrwt>
<pdfrwt beam="2">  1       -1 0.43541340E-03 0.79025406E+02</pdfrwt>
<totfact> 0.32408575E+05</totfact>
</mgrwt>
</event>
<event>
 8    1  0.1600673E-013  0.7913858E+02  0.7818608E-02  0.1331514E+00
          2   -1    0    0  501    0  0.00000000000E+00  0.00000000000E+00  0.72818966790E+02  0.72818966835E+02  0.25500000000E-02 0. -1.
         -1   -1    0    0    0  501 -0.00000000000E+00 -0.00000000000E+00 -0.21501662143E+02  0.21501662734E+02  0.50400000000E-02 0.  1.
         24    2    1    2    0    0  0.00000000000E+00  0.00000000000E+00  0.51317304647E+02  0.94320629568E+02  0.79138583548E+02 0.  0.
         66    2    3    3    0    0 -0.24680866566E+02 -0.67867479443E+01  0.61599051103E+02  0.66735659089E+02  0.19999937905E+01 0.  0.
        -13    1    3    3    0    0  0.24680866566E+02  0.67867479443E+01 -0.10281746456E+02  0.27584970479E+02  0.10566000000E+00 0.  1.
         13    1    4    4    0    0 -0.14095103739E+02 -0.43208177768E+01  0.33634095207E+02  0.36723356875E+02  0.10566000000E+00 0. -1.
        -13    1    4    4    0    0 -0.27897593929E+01 -0.97685148185E+00  0.74998226749E+01  0.80619786949E+01  0.10566000000E+00 0.  1.
         14    1    4    4    0    0 -0.77960034335E+01 -0.14890786856E+01  0.20465133221E+02  0.21950323520E+02  0.00000000000E+00 0. -1.
<mgrwt>
<rscale>  0 0.79138584E+02</rscale>
<asrwt>0</asrwt>
<pdfrwt beam="1">  1        2 0.11202918E-01 0.79138584E+02</pdfrwt>
<pdfrwt beam="2">  1       -1 0.33079480E-02 0.79138584E+02</pdfrwt>
<totfact> 0.16788019E+05</totfact>
</mgrwt>
</event>
<event>
 8    1  0.1600673E-013  0.7982837E+02  0.7818608E-02  0.1329539E+00
          2   -1    0    0  501    0  0.00000000000E+00  0.00000000000E+00  0.61657693181E+02  0.61657693234E+02  0.25500000000E-02 0. -1.
         -1   -1    0    0    0  501 -0.00000000000E+00 -0.00000000000E+00 -0.25838496552E+02  0.25838497044E+02  0.50400000000E-02 0.  1.
         24    2    1    2    0    0 -0.88817841970E-15  0.00000000000E+00  0.35819196629E+02  0.87496190277E+02  0.79828368804E+02 0.  0.
         66    2    3    3    0    0 -0.72115952281E+01  0.91102056279E+01  0.59745485052E+02  0.60897667873E+02  0.20000039911E+01 0.  0.
        -13    1    3    3    0    0  0.72115952281E+01 -0.91102056279E+01 -0.23926288424E+02  0.26598522404E+02  0.10566000000E+00 0.  1.
         13    1    4    4    0    0 -0.14931874171E+01  0.22179746880E+01  0.10635049473E+02  0.10966515477E+02  0.10566000000E+00 0. -1.
        -13    1    4    4    0    0 -0.85330211001E+00  0.16038323431E+01  0.10911181740E+02  0.11061891958E+02  0.10566000000E+00 0.  1.
         14    1    4    4    0    0 -0.48651057010E+01  0.52883985968E+01  0.38199253839E+02  0.38869260438E+02  0.00000000000E+00 0. -1.
<mgrwt>
<rscale>  0 0.79828369E+02</rscale>
<asrwt>0</asrwt>
<pdfrwt beam="1">  1        2 0.94857990E-02 0.79828369E+02</pdfrwt>
<pdfrwt beam="2">  1       -1 0.39751534E-02 0.79828369E+02</pdfrwt>
<totfact> 0.15756654E+05</totfact>
</mgrwt>
</event>
<event>
 8    1  0.1600673E-013  0.8218620E+02  0.7818608E-02  0.1322959E+00
         -1   -1    0    0    0  501 -0.00000000000E+00  0.00000000000E+00  0.12018739308E+02  0.12018740365E+02  0.50400000000E-02 0.  1.
          2   -1    0    0  501    0  0.00000000000E+00 -0.00000000000E+00 -0.14050083629E+03  0.14050083631E+03  0.25500000000E-02 0. -1.
         24    2    1    2    0    0  0.35527136788E-14  0.00000000000E+00 -0.12848209698E+03  0.15251957668E+03  0.82186203375E+02 0.  0.
         66    2    3    3    0    0  0.26581262407E+02  0.19825961576E+02 -0.10924121608E+03  0.11418088962E+03  0.19999998130E+01 0.  0.
        -13    1    3    3    0    0 -0.26581262407E+02 -0.19825961576E+02 -0.19240880897E+02  0.38338687057E+02  0.10566000000E+00 0.  1.
         13    1    4    4    0    0  0.15579115014E+02  0.11087521008E+02 -0.61289072227E+02  0.64202830820E+02  0.10566000000E+00 0.  1.
        -13    1    4    4    0    0  0.82298587707E+01  0.59871584201E+01 -0.34293248879E+02  0.35771702840E+02  0.10566000000E+00 0. -1.
        -14    1    4    4    0    0  0.27722886215E+01  0.27512821482E+01 -0.13658894976E+02  0.14206355959E+02  0.00000000000E+00 0.  1.
<mgrwt>
<rscale>  0 0.82186203E+02</rscale>
<asrwt>0</asrwt>
<pdfrwt beam="1">  1        2 0.21615512E-01 0.82186203E+02</pdfrwt>
<pdfrwt beam="2">  1       -1 0.18490370E-02 0.82186203E+02</pdfrwt>
<totfact> 0.18258186E+05</totfact>
</mgrwt>
</event>
<event>
 8    1  0.1600673E-013  0.8024876E+02  0.7818608E-02  0.1328347E+00
         -1   -1    0    0    0  501 -0.00000000000E+00  0.00000000000E+00  0.11965133415E+03  0.11965133425E+03  0.50400000000E-02 0.  1.
          2   -1    0    0  501    0  0.00000000000E+00 -0.00000000000E+00 -0.13455478610E+02  0.13455478852E+02  0.25500000000E-02 0. -1.
         24    2    1    2    0    0  0.00000000000E+00  0.00000000000E+00  0.10619585554E+03  0.13310681311E+03  0.80248762992E+02 0.  0.
         66    2    3    3    0    0  0.31307351564E+02 -0.22723858388E+02  0.70640434190E+02  0.80564228917E+02  0.20000091268E+01 0.  0.
        -13    1    3    3    0    0 -0.31307351564E+02  0.22723858388E+02  0.35555421348E+02  0.52542584188E+02  0.10566000000E+00 0.  1.
         13    1    4    4    0    0  0.19644489083E+02 -0.14680515304E+02  0.44986204883E+02  0.51236639964E+02  0.10566000000E+00 0. -1.
        -13    1    4    4    0    0  0.26730344701E+01 -0.15206577495E+01  0.63467540074E+01  0.70533654192E+01  0.10566000000E+00 0.  1.
        -14    1    4    4    0    0  0.89898280104E+01 -0.65226853340E+01  0.19307475299E+02  0.22274223534E+02  0.00000000000E+00 0.  1.
<mgrwt>
<rscale>  0 0.80248763E+02</rscale>
<asrwt>0</asrwt>
<pdfrwt beam="1">  1        2 0.20700736E-02 0.80248763E+02</pdfrwt>
<pdfrwt beam="2">  1       -1 0.18407898E-01 0.80248763E+02</pdfrwt>
<totfact> 0.11303624E+05</totfact>
</mgrwt>
</event>
<event>
 8    1  0.1600673E-013  0.8082612E+02  0.7818608E-02  0.1326723E+00
          2   -1    0    0  501    0  0.00000000000E+00  0.00000000000E+00  0.51719119333E+02  0.51719119396E+02  0.25500000000E-02 0. -1.
         -1   -1    0    0    0  501 -0.00000000000E+00 -0.00000000000E+00 -0.31578562101E+02  0.31578562504E+02  0.50400000000E-02 0.  1.
         24    2    1    2    0    0  0.00000000000E+00  0.00000000000E+00  0.20140557232E+02  0.83297681900E+02  0.80826120557E+02 0.  0.
         66    2    3    3    0    0 -0.11324271354E+02  0.38195878503E+02  0.16916102571E+02  0.43328036815E+02  0.19999979507E+01 0.  0.
        -13    1    3    3    0    0  0.11324271354E+02 -0.38195878503E+02  0.32244546608E+01  0.39969645084E+02  0.10566000000E+00 0.  1.
         13    1    4    4    0    0 -0.11883763962E+01  0.47341897653E+01  0.17712260296E+01  0.51935726505E+01  0.10566000000E+00 0. -1.
        -13    1    4    4    0    0 -0.17818485636E-01  0.46946662612E+00  0.11793149954E+00  0.49577039610E+00  0.10566000000E+00 0.  1.
        -14    1    4    4    0    0 -0.10118076472E+02  0.32992222111E+02  0.15026945042E+02  0.37638693769E+02  0.00000000000E+00 0.  1.
<mgrwt>
<rscale>  0 0.80826121E+02</rscale>
<asrwt>0</asrwt>
<pdfrwt beam="1">  1        2 0.79567875E-02 0.80826121E+02</pdfrwt>
<pdfrwt beam="2">  1       -1 0.48582404E-02 0.80826121E+02</pdfrwt>
<totfact> 0.14636414E+05</totfact>
</mgrwt>
</event>
<event>
 8    1  0.1600673E-013  0.8045057E+02  0.7818608E-02  0.1327778E+00
          2   -1    0    0  501    0  0.00000000000E+00  0.00000000000E+00  0.31121250406E+02  0.31121250511E+02  0.25500000000E-02 0. -1.
         -1   -1    0    0    0  501 -0.00000000000E+00 -0.00000000000E+00 -0.51992561702E+02  0.51992561946E+02  0.50400000000E-02 0.  1.
         24    2    1    2    0    0  0.00000000000E+00  0.88817841970E-15 -0.20871311295E+02  0.83113812457E+02  0.80450569830E+02 0.  0.
         66    2    3    3    0    0  0.16605041093E+02 -0.69302027825E+01  0.26696725712E+02  0.32256321277E+02  0.19999995616E+01 0.  0.
        -13    1    3    3    0    0 -0.16605041093E+02  0.69302027825E+01 -0.47568037008E+02  0.50857491180E+02  0.10566000000E+00 0.  1.
         13    1    4    4    0    0  0.80065010213E+01 -0.33380302818E+01  0.11818986691E+02  0.14661040727E+02  0.10566000000E+00 0. -1.
        -13    1    4    4    0    0  0.47492897003E+01 -0.16582064123E+01  0.70639908022E+01  0.86727464653E+01  0.10566000000E+00 0.  1.
        -14    1    4    4    0    0  0.38492503713E+01 -0.19339660884E+01  0.78137482192E+01  0.89225340842E+01  0.00000000000E+00 0.  1.
<mgrwt>
<rscale>  0 0.80450570E+02</rscale>
<asrwt>0</asrwt>
<pdfrwt beam="1">  1        2 0.47878847E-02 0.80450570E+02</pdfrwt>
<pdfrwt beam="2">  1       -1 0.79988557E-02 0.80450570E+02</pdfrwt>
<totfact> 0.13341781E+05</totfact>
</mgrwt>
</event>
<event>
 8    1  0.1600673E-013  0.7976578E+02  0.7818608E-02  0.1329717E+00
         -1   -1    0    0    0  501 -0.00000000000E+00  0.00000000000E+00  0.27265355044E+01  0.27265401626E+01  0.50400000000E-02 0.  1.
          2   -1    0    0  501    0  0.00000000000E+00 -0.00000000000E+00 -0.58339365322E+03  0.58339365323E+03  0.25500000000E-02 0. -1.
         24    2    1    2    0    0  0.35527136788E-14  0.35527136788E-14 -0.58066711772E+03  0.58612019339E+03  0.79765779011E+02 0.  0.
         66    2    3    3    0    0 -0.20595876430E+02 -0.27491169245E+02 -0.43906283326E+03  0.44040904401E+03  0.19999961786E+01 0.  0.
        -13    1    3    3    0    0  0.20595876430E+02  0.27491169245E+02 -0.14160428446E+03  0.14571114938E+03  0.10566000000E+00 0.  1.
         13    1    4    4    0    0 -0.12368977138E+02 -0.16145083124E+02 -0.26550376822E+03  0.26628165052E+03  0.10566000000E+00 0. -1.
        -13    1    4    4    0    0 -0.21448450782E+01 -0.35740670719E+01 -0.47558060760E+02  0.47740492489E+02  0.10566000000E+00 0.  1.
        -14    1    4    4    0    0 -0.60820542142E+01 -0.77720190494E+01 -0.12600100428E+03  0.12638690100E+03  0.00000000000E+00 0.  1.
<mgrwt>
<rscale>  0 0.79765779E+02</rscale>
<asrwt>0</asrwt>
<pdfrwt beam="1">  1        2 0.89752770E-01 0.79765779E+02</pdfrwt>
<pdfrwt beam="2">  1       -1 0.41946783E-03 0.79765779E+02</pdfrwt>
<totfact> 0.32154258E+05</totfact>
</mgrwt>
</event>
<event>
 8    1  0.1600673E-013  0.7993471E+02  0.7818608E-02  0.1329237E+00
         -1   -1    0    0    0  501 -0.00000000000E+00  0.00000000000E+00  0.63681856592E+01  0.63681876536E+01  0.50400000000E-02 0.  1.
          2   -1    0    0  501    0  0.00000000000E+00 -0.00000000000E+00 -0.25083895436E+03  0.25083895437E+03  0.25500000000E-02 0. -1.
         24    2    1    2    0    0 -0.17763568394E-14  0.35527136788E-14 -0.24447076870E+03  0.25720714203E+03  0.79934705606E+02 0.  0.
         66    2    3    3    0    0  0.14695661507E+02 -0.29948549049E+02 -0.19299211353E+03  0.19586432533E+03  0.19999993781E+01 0.  0.
        -13    1    3    3    0    0 -0.14695661507E+02  0.29948549049E+02 -0.51478655174E+02  0.61342816693E+02  0.10566000000E+00 0.  1.
         13    1    4    4    0    0  0.32946204862E+01 -0.60129815621E+01 -0.37892060521E+02  0.38507530250E+02  0.10566000000E+00 0. -1.
        -13    1    4    4    0    0  0.37283307639E+01 -0.83189146972E+01 -0.57384758452E+02  0.58104444396E+02  0.10566000000E+00 0.  1.
        -14    1    4    4    0    0  0.76727102573E+01 -0.15616652790E+02 -0.97715294553E+02  0.99252350686E+02  0.00000000000E+00 0.  1.
<mgrwt>
<rscale>  0 0.79934706E+02</rscale>
<asrwt>0</asrwt>
<pdfrwt beam="1">  1        2 0.38590601E-01 0.79934706E+02</pdfrwt>
<pdfrwt beam="2">  1       -1 0.97972122E-03 0.79934706E+02</pdfrwt>
<totfact> 0.23948378E+05</totfact>
</mgrwt>
</event>
<event>
 8    1  0.1600673E-013  0.7908830E+02  0.7818608E-02  0.1331659E+00
          2   -1    0    0  501    0  0.00000000000E+00  0.00000000000E+00  0.29865158133E+03  0.29865158134E+03  0.25500000000E-02 0. -1.
         -1   -1    0    0    0  501 -0.00000000000E+00 -0.00000000000E+00 -0.52359996110E+01  0.52360020367E+01  0.50400000000E-02 0.  1.
         24    2    1    2    0    0  0.00000000000E+00 -0.17763568394E-14  0.29341558172E+03  0.30388758338E+03  0.79088303406E+02 0.  0.
         66    2    3    3    0    0 -0.24839845773E+02 -0.14538305652E+02  0.25085509871E+03  0.25250873415E+03  0.20000019499E+01 0.  0.
        -13    1    3    3    0    0  0.24839845773E+02  0.14538305652E+02  0.42560483014E+02  0.51378849225E+02  0.10566000000E+00 0.  1.
         13    1    4    4    0    0 -0.39648234931E+01 -0.22310839115E+01  0.42870177236E+02  0.43111028996E+02  0.10566000000E+00 0. -1.
        -13    1    4    4    0    0 -0.14974608837E+02 -0.88025443441E+01  0.14285381318E+03  0.14390603462E+03  0.10566000000E+00 0.  1.
        -14    1    4    4    0    0 -0.59004134432E+01 -0.35046773967E+01  0.65131108293E+02  0.65491670539E+02  0.00000000000E+00 0.  1.
<mgrwt>
<rscale>  0 0.79088303E+02</rscale>
<asrwt>0</asrwt>
<pdfrwt beam="1">  1        2 0.45946396E-01 0.79088303E+02</pdfrwt>
<pdfrwt beam="2">  1       -1 0.80553861E-03 0.79088303E+02</pdfrwt>
<totfact> 0.26229008E+05</totfact>
</mgrwt>
</event>
<event>
 8    1  0.1600673E-013  0.8243518E+02  0.7818608E-02  0.1322279E+00
          2   -1    0    0  501    0  0.00000000000E+00  0.00000000000E+00  0.46228159230E+03  0.46228159230E+03  0.25500000000E-02 0. -1.
         -1   -1    0    0    0  501 -0.00000000000E+00 -0.00000000000E+00 -0.36750089104E+01  0.36750123664E+01  0.50400000000E-02 0.  1.
         24    2    1    2    0    0 -0.71054273576E-14  0.17763568394E-14  0.45860658339E+03  0.46595660467E+03  0.82435181267E+02 0.  0.
         66    2    3    3    0    0 -0.40437064484E+02  0.78564578976E+01  0.22982415624E+03  0.23349523100E+03  0.19999981214E+01 0.  0.
        -13    1    3    3    0    0  0.40437064484E+02 -0.78564578976E+01  0.22878242714E+03  0.23246137367E+03  0.10566000000E+00 0.  1.
         13    1    4    4    0    0 -0.32791103371E+02  0.64090212118E+01  0.18412307809E+03  0.18713003784E+03  0.10566000000E+00 0. -1.
        -13    1    4    4    0    0 -0.55095452347E+01  0.12806057430E+01  0.31651184102E+02  0.32152817277E+02  0.10566000000E+00 0.  1.
        -14    1    4    4    0    0 -0.21364158775E+01  0.16683094278E+00  0.14049894056E+02  0.14212375887E+02  0.00000000000E+00 0.  1.
<mgrwt>
<rscale>  0 0.82435181E+02</rscale>
<asrwt>0</asrwt>
<pdfrwt beam="1">  1        2 0.71120275E-01 0.82435181E+02</pdfrwt>
<pdfrwt beam="2">  1       -1 0.56538602E-03 0.82435181E+02</pdfrwt>
<totfact> 0.27447790E+05</totfact>
</mgrwt>
</event>
<event>
 8    1  0.1600673E-013  0.7884999E+02  0.7818608E-02  0.1332347E+00
          2   -1    0    0  501    0  0.00000000000E+00  0.00000000000E+00  0.75485625303E+03  0.75485625303E+03  0.25500000000E-02 0. -1.
         -1   -1    0    0    0  501 -0.00000000000E+00 -0.00000000000E+00 -0.20591042841E+01  0.20591104523E+01  0.50400000000E-02 0.  1.
         24    2    1    2    0    0 -0.35527136788E-14  0.17763568394E-14  0.75279714875E+03  0.75691536349E+03  0.78849986190E+02 0.  0.
         66    2    3    3    0    0 -0.29995600296E+02  0.10355678328E+02  0.60081288812E+03  0.60165364009E+03  0.19999972414E+01 0.  0.
        -13    1    3    3    0    0  0.29995600296E+02 -0.10355678328E+02  0.15198426062E+03  0.15526172340E+03  0.10566000000E+00 0.  1.
         13    1    4    4    0    0 -0.13795163547E+02  0.49475755588E+01  0.26533036235E+03  0.26573482532E+03  0.10566000000E+00 0. -1.
        -13    1    4    4    0    0 -0.63977965556E+01  0.23011655654E+01  0.12362273132E+03  0.12380960393E+03  0.10566000000E+00 0.  1.
        -14    1    4    4    0    0 -0.98026401936E+01  0.31069372034E+01  0.21185979446E+03  0.21210921084E+03  0.00000000000E+00 0.  1.
<mgrwt>
<rscale>  0 0.78849986E+02</rscale>
<asrwt>0</asrwt>
<pdfrwt beam="1">  1        2 0.11613204E+00 0.78849986E+02</pdfrwt>
<pdfrwt beam="2">  1       -1 0.31678491E-03 0.78849986E+02</pdfrwt>
<totfact> 0.35299182E+05</totfact>
</mgrwt>
</event>
<event>
 8    1  0.1600673E-013  0.7986403E+02  0.7818608E-02  0.1329438E+00
          2   -1    0    0  501    0  0.00000000000E+00  0.00000000000E+00  0.79214999921E+03  0.79214999921E+03  0.25500000000E-02 0. -1.
         -1   -1    0    0    0  501 -0.00000000000E+00 -0.00000000000E+00 -0.20129563323E+01  0.20129626418E+01  0.50400000000E-02 0.  1.
         24    2    1    2    0    0  0.00000000000E+00  0.00000000000E+00  0.79013704288E+03  0.79416296186E+03  0.79864031053E+02 0.  0.
         66    2    3    3    0    0 -0.11282405978E+02  0.23863887946E+02  0.69293402331E+03  0.69343949880E+03  0.20000011401E+01 0.  0.
        -13    1    3    3    0    0  0.11282405978E+02 -0.23863887946E+02  0.97203019565E+02  0.10072346305E+03  0.10566000000E+00 0.  1.
         13    1    4    4    0    0 -0.31019932455E+01  0.55139056660E+01  0.17060748569E+03  0.17072478103E+03  0.10566000000E+00 0. -1.
        -13    1    4    4    0    0 -0.54912230405E+01  0.13843862402E+02  0.38658168013E+03  0.38686846942E+03  0.10566000000E+00 0.  1.
        -14    1    4    4    0    0 -0.26891896921E+01  0.45061198781E+01  0.13574485749E+03  0.13584624836E+03  0.00000000000E+00 0.  1.
<mgrwt>
<rscale>  0 0.79864031E+02</rscale>
<asrwt>0</asrwt>
<pdfrwt beam="1">  1        2 0.12186926E+00 0.79864031E+02</pdfrwt>
<pdfrwt beam="2">  1       -1 0.30968601E-03 0.79864031E+02</pdfrwt>
<totfact> 0.34458400E+05</totfact>
</mgrwt>
</event>
<event>
 8    1  0.1600673E-013  0.8051784E+02  0.7818608E-02  0.1327588E+00
         -1   -1    0    0    0  501 -0.00000000000E+00  0.00000000000E+00  0.57710648736E+01  0.57710670743E+01  0.50400000000E-02 0.  1.
          2   -1    0    0  501    0  0.00000000000E+00 -0.00000000000E+00 -0.28084596270E+03  0.28084596271E+03  0.25500000000E-02 0. -1.
         24    2    1    2    0    0  0.88817841970E-15  0.00000000000E+00 -0.27507489782E+03  0.28661702978E+03  0.80517838701E+02 0.  0.
         66    2    3    3    0    0 -0.52496309432E+01  0.15502555691E+02 -0.26845573838E+03  0.26896165401E+03  0.19999999211E+01 0.  0.
        -13    1    3    3    0    0  0.52496309432E+01 -0.15502555691E+02 -0.66191594439E+01  0.17655375775E+02  0.10566000000E+00 0.  1.
         13    1    4    4    0    0 -0.32235514644E+01  0.10717724765E+02 -0.18849375751E+03  0.18882576278E+03  0.10566000000E+00 0. -1.
        -13    1    4    4    0    0 -0.31683986094E+00  0.13305534514E+01 -0.16461923188E+02  0.16518984202E+02  0.10566000000E+00 0.  1.
        -14    1    4    4    0    0 -0.17092396178E+01  0.34542774740E+01 -0.63500057687E+02  0.63616907024E+02  0.00000000000E+00 0.  1.
<mgrwt>
<rscale>  0 0.80517839E+02</rscale>
<asrwt>0</asrwt>
<pdfrwt beam="1">  1        2 0.43207060E-01 0.80517839E+02</pdfrwt>
<pdfrwt beam="2">  1       -1 0.88785653E-03 0.80517839E+02</pdfrwt>
<totfact> 0.24474312E+05</totfact>
</mgrwt>
</event>
<event>
 8    1  0.1600673E-013  0.8681091E+02  0.7818608E-02  0.1310764E+00
         -1   -1    0    0    0  501 -0.00000000000E+00  0.00000000000E+00  0.10553289891E+02  0.10553291094E+02  0.50400000000E-02 0.  1.
          2   -1    0    0  501    0  0.00000000000E+00 -0.00000000000E+00 -0.17852568951E+03  0.17852568953E+03  0.25500000000E-02 0. -1.
         24    2    1    2    0    0  0.00000000000E+00  0.35527136788E-14 -0.16797239962E+03  0.18907898062E+03  0.86810908758E+02 0.  0.
         66    2    3    3    0    0  0.36724664944E+02 -0.20366752447E+02 -0.10774274599E+03  0.11565467973E+03  0.20000026794E+01 0.  0.
        -13    1    3    3    0    0 -0.36724664944E+02  0.20366752447E+02 -0.60229653630E+02  0.73424300888E+02  0.10566000000E+00 0.  1.
         13    1    4    4    0    0  0.22160178768E+01 -0.89088794789E+00 -0.64105990680E+01  0.68418828558E+01  0.10566000000E+00 0. -1.
        -13    1    4    4    0    0  0.11957066402E+02 -0.72477857592E+01 -0.34442727743E+02  0.37172765484E+02  0.10566000000E+00 0.  1.
         14    1    4    4    0    0  0.22551580665E+02 -0.12228078739E+02 -0.66889419179E+02  0.71640031395E+02  0.00000000000E+00 0. -1.
<mgrwt>
<rscale>  0 0.86810909E+02</rscale>
<asrwt>0</asrwt>
<pdfrwt beam="1">  1        2 0.27465489E-01 0.86810909E+02</pdfrwt>
<pdfrwt beam="2">  1       -1 0.16235833E-02 0.86810909E+02</pdfrwt>
<totfact> 0.17076777E+05</totfact>
</mgrwt>
</event>
<event>
 8    1  0.1600673E-013  0.7995863E+02  0.7818608E-02  0.1329169E+00
         -1   -1    0    0    0  501 -0.00000000000E+00  0.00000000000E+00  0.20726916392E+01  0.20726977669E+01  0.50400000000E-02 0.  1.
          2   -1    0    0  501    0  0.00000000000E+00 -0.00000000000E+00 -0.77114371267E+03  0.77114371267E+03  0.25500000000E-02 0. -1.
         24    2    1    2    0    0 -0.35527136788E-14  0.00000000000E+00 -0.76907102103E+03  0.77321641044E+03  0.79958626714E+02 0.  0.
         66    2    3    3    0    0  0.20816621029E+02  0.17377148608E+02 -0.66853353779E+03  0.66908623371E+03  0.19999976447E+01 0.  0.
        -13    1    3    3    0    0 -0.20816621029E+02 -0.17377148608E+02 -0.10053748324E+03  0.10413017673E+03  0.10566000000E+00 0.  1.
         13    1    4    4    0    0  0.84157407370E+01  0.72447234878E+01 -0.27132551313E+03  0.27155267620E+03  0.10566000000E+00 0. -1.
        -13    1    4    4    0    0  0.10206438129E+02  0.75749177481E+01 -0.31031332022E+03  0.31057353176E+03  0.10566000000E+00 0.  1.
        -14    1    4    4    0    0  0.21944421635E+01  0.25575073718E+01 -0.86894704428E+02  0.86960025748E+02  0.00000000000E+00 0.  1.
<mgrwt>
<rscale>  0 0.79958627E+02</rscale>
<asrwt>0</asrwt>
<pdfrwt beam="1">  1        2 0.11863727E+00 0.79958627E+02</pdfrwt>
<pdfrwt beam="2">  1       -1 0.31887672E-03 0.79958627E+02</pdfrwt>
<totfact> 0.34183784E+05</totfact>
</mgrwt>
</event>
<event>
 8    1  0.1600673E-013  0.7326411E+02  0.7818608E-02  0.1349332E+00
          2   -1    0    0  501    0  0.00000000000E+00  0.00000000000E+00  0.26044205491E+02  0.26044205616E+02  0.25500000000E-02 0. -1.
         -1   -1    0    0    0  501 -0.00000000000E+00 -0.00000000000E+00 -0.51524228540E+02  0.51524228787E+02  0.50400000000E-02 0.  1.
         24    2    1    2    0    0 -0.35527136788E-14  0.00000000000E+00 -0.25480023049E+02  0.77568434402E+02  0.73264114278E+02 0.  0.
         66    2    3    3    0    0  0.28196253159E+02  0.10096715842E+02  0.95328955415E+01  0.31493625718E+02  0.20000001166E+01 0.  0.
        -13    1    3    3    0    0 -0.28196253159E+02 -0.10096715842E+02 -0.35012918591E+02  0.46074808684E+02  0.10566000000E+00 0.  1.
         13    1    4    4    0    0  0.10816700352E+02  0.42829058661E+01  0.42074265708E+01  0.12371656783E+02  0.10566000000E+00 0. -1.
        -13    1    4    4    0    0  0.14586764214E+02  0.44262900569E+01  0.45512046129E+01  0.15908813953E+02  0.10566000000E+00 0.  1.
        -14    1    4    4    0    0  0.27927885926E+01  0.13875199186E+01  0.77426435782E+00  0.32131549828E+01  0.00000000000E+00 0.  1.
<mgrwt>
<rscale>  0 0.73264114E+02</rscale>
<asrwt>0</asrwt>
<pdfrwt beam="1">  1        2 0.40068009E-02 0.73264114E+02</pdfrwt>
<pdfrwt beam="2">  1       -1 0.79268044E-02 0.73264114E+02</pdfrwt>
<totfact> 0.16740784E+05</totfact>
</mgrwt>
</event>
<event>
 8    1  0.1600673E-013  0.7854822E+02  0.7818608E-02  0.1333223E+00
          2   -1    0    0  501    0  0.00000000000E+00  0.00000000000E+00  0.23229068169E+02  0.23229068309E+02  0.25500000000E-02 0. -1.
         -1   -1    0    0    0  501 -0.00000000000E+00 -0.00000000000E+00 -0.66401954634E+02  0.66401954825E+02  0.50400000000E-02 0.  1.
         24    2    1    2    0    0 -0.35527136788E-14  0.17763568394E-14 -0.43172886465E+02  0.89631023135E+02  0.78548215654E+02 0.  0.
         66    2    3    3    0    0 -0.28026177877E+02  0.11579985073E+02  0.68329901631E+01  0.31148875755E+02  0.20000013837E+01 0.  0.
        -13    1    3    3    0    0  0.28026177877E+02 -0.11579985073E+02 -0.50005876628E+02  0.58482147379E+02  0.10566000000E+00 0.  1.
         13    1    4    4    0    0 -0.63154019687E+01  0.25820681034E+01  0.14212203433E+01  0.69701082500E+01  0.10566000000E+00 0. -1.
        -13    1    4    4    0    0 -0.18098254092E+02  0.80269654040E+01  0.49622433068E+01  0.20411124355E+02  0.10566000000E+00 0.  1.
        -14    1    4    4    0    0 -0.36125218172E+01  0.97095156583E+00  0.44952651308E+00  0.37676431504E+01  0.00000000000E+00 0.  1.
<mgrwt>
<rscale>  0 0.78548216E+02</rscale>
<asrwt>0</asrwt>
<pdfrwt beam="1">  1        2 0.35737028E-02 0.78548216E+02</pdfrwt>
<pdfrwt beam="2">  1       -1 0.10215685E-01 0.78548216E+02</pdfrwt>
<totfact> 0.13475977E+05</totfact>
</mgrwt>
</event>
<event>
 8    1  0.1600673E-013  0.7970412E+02  0.7818608E-02  0.1329893E+00
         -1   -1    0    0    0  501 -0.00000000000E+00  0.00000000000E+00  0.16708711205E+02  0.16708711966E+02  0.50400000000E-02 0.  1.
          2   -1    0    0  501    0  0.00000000000E+00 -0.00000000000E+00 -0.95051411463E+02  0.95051411497E+02  0.25500000000E-02 0. -1.
         24    2    1    2    0    0  0.00000000000E+00  0.00000000000E+00 -0.78342700258E+02  0.11176012346E+03  0.79704118543E+02 0.  0.
         66    2    3    3    0    0 -0.28568964072E+02  0.18334654751E+02 -0.68401744796E+02  0.76388114296E+02  0.20000104058E+01 0.  0.
        -13    1    3    3    0    0  0.28568964072E+02 -0.18334654751E+02 -0.99409554618E+01  0.35372009167E+02  0.10566000000E+00 0.  1.
         13    1    4    4    0    0 -0.17437316134E+02  0.12229448311E+02 -0.42959248400E+02  0.47949218837E+02  0.10566000000E+00 0. -1.
        -13    1    4    4    0    0 -0.29555887682E+01  0.14035666234E+01 -0.67249339794E+01  0.74793987256E+01  0.10566000000E+00 0.  1.
         14    1    4    4    0    0 -0.81760591696E+01  0.47016398160E+01 -0.18717562416E+02  0.20959496733E+02  0.00000000000E+00 0. -1.
<mgrwt>
<rscale>  0 0.79704119E+02</rscale>
<asrwt>0</asrwt>
<pdfrwt beam="1">  1        2 0.14623294E-01 0.79704119E+02</pdfrwt>
<pdfrwt beam="2">  1       -1 0.25705711E-02 0.79704119E+02</pdfrwt>
<totfact> 0.17652733E+05</totfact>
</mgrwt>
</event>
<event>
 8    1  0.1600673E-013  0.7559095E+02  0.7818608E-02  0.1342051E+00
         -1   -1    0    0    0  501 -0.00000000000E+00  0.00000000000E+00  0.38931869834E+01  0.38931902457E+01  0.50400000000E-02 0.  1.
          2   -1    0    0  501    0  0.00000000000E+00 -0.00000000000E+00 -0.36692237310E+03  0.36692237311E+03  0.25500000000E-02 0. -1.
         24    2    1    2    0    0  0.00000000000E+00  0.35527136788E-14 -0.36302918611E+03  0.37081556335E+03  0.75590952193E+02 0.  0.
         66    2    3    3    0    0 -0.67284455679E+01 -0.19739472434E+02 -0.33611366645E+03  0.33676596549E+03  0.19999966902E+01 0.  0.
        -13    1    3    3    0    0  0.67284455679E+01  0.19739472434E+02 -0.26915519668E+02  0.34049597865E+02  0.10566000000E+00 0.  1.
         13    1    4    4    0    0 -0.24609629317E+01 -0.69083576634E+01 -0.11586590520E+03  0.11609780746E+03  0.10566000000E+00 0. -1.
        -13    1    4    4    0    0 -0.31809234491E+01 -0.10605385663E+02 -0.18768572480E+03  0.18801206062E+03  0.10566000000E+00 0.  1.
        -14    1    4    4    0    0 -0.10865591872E+01 -0.22257291083E+01 -0.32562036439E+02  0.32656097409E+02  0.00000000000E+00 0.  1.
<mgrwt>
<rscale>  0 0.75590952E+02</rscale>
<asrwt>0</asrwt>
<pdfrwt beam="1">  1        2 0.56449569E-01 0.75590952E+02</pdfrwt>
<pdfrwt beam="2">  1       -1 0.59895238E-03 0.75590952E+02</pdfrwt>
<totfact> 0.31771965E+05</totfact>
</mgrwt>
</event>
<event>
 8    1  0.1600673E-013  0.7833442E+02  0.7818608E-02  0.1333846E+00
          2   -1    0    0  501    0  0.00000000000E+00  0.00000000000E+00  0.12140970534E+03  0.12140970536E+03  0.25500000000E-02 0. -1.
         -1   -1    0    0    0  501 -0.00000000000E+00 -0.00000000000E+00 -0.12635483721E+02  0.12635484727E+02  0.50400000000E-02 0.  1.
         24    2    1    2    0    0 -0.17763568394E-14  0.00000000000E+00  0.10877422161E+03  0.13404519009E+03  0.78334422180E+02 0.  0.
         66    2    3    3    0    0 -0.12492415770E+02 -0.31039376371E+02  0.89179544856E+02  0.95270638402E+02  0.19999958614E+01 0.  0.
        -13    1    3    3    0    0  0.12492415770E+02  0.31039376371E+02  0.19594676759E+02  0.38774551688E+02  0.10566000000E+00 0.  1.
         13    1    4    4    0    0 -0.57957683893E+01 -0.15233939042E+02  0.44120914251E+02  0.47035412918E+02  0.10566000000E+00 0. -1.
        -13    1    4    4    0    0 -0.26305860734E+01 -0.70153896042E+01  0.21233960257E+02  0.22517280178E+02  0.10566000000E+00 0.  1.
        -14    1    4    4    0    0 -0.40660613074E+01 -0.87900477248E+01  0.23824670348E+02  0.25717945306E+02  0.00000000000E+00 0.  1.
<mgrwt>
<rscale>  0 0.78334422E+02</rscale>
<asrwt>0</asrwt>
<pdfrwt beam="1">  1        2 0.18678415E-01 0.78334422E+02</pdfrwt>
<pdfrwt beam="2">  1       -1 0.19439208E-02 0.78334422E+02</pdfrwt>
<totfact> 0.19832575E+05</totfact>
</mgrwt>
</event>
<event>
 8    1  0.1600673E-013  0.8332085E+02  0.7818608E-02  0.1319883E+00
         -1   -1    0    0    0  501 -0.00000000000E+00  0.00000000000E+00  0.17818412669E+03  0.17818412676E+03  0.50400000000E-02 0.  1.
          2   -1    0    0  501    0  0.00000000000E+00 -0.00000000000E+00 -0.97404344126E+01  0.97404347464E+01  0.25500000000E-02 0. -1.
         24    2    1    2    0    0 -0.35527136788E-14 -0.35527136788E-14  0.16844369228E+03  0.18792456151E+03  0.83320845830E+02 0.  0.
         66    2    3    3    0    0 -0.21942755058E+02 -0.30900517123E+02  0.45383844806E+02  0.59160965403E+02  0.20000000308E+01 0.  0.
        -13    1    3    3    0    0  0.21942755058E+02  0.30900517123E+02  0.12305984747E+03  0.12876359611E+03  0.10566000000E+00 0.  1.
         13    1    4    4    0    0 -0.14106014666E+02 -0.19970015446E+02  0.29747326122E+02  0.38505788423E+02  0.10566000000E+00 0. -1.
        -13    1    4    4    0    0 -0.63272009440E+01 -0.95079304502E+01  0.13186125406E+02  0.17444749367E+02  0.10566000000E+00 0.  1.
        -14    1    4    4    0    0 -0.15095394481E+01 -0.14225712263E+01  0.24503932781E+01  0.32104276127E+01  0.00000000000E+00 0.  1.
<mgrwt>
<rscale>  0 0.83320846E+02</rscale>
<asrwt>0</asrwt>
<pdfrwt beam="1">  1        2 0.14985285E-02 0.83320846E+02</pdfrwt>
<pdfrwt beam="2">  1       -1 0.27412940E-01 0.83320846E+02</pdfrwt>
<totfact> 0.92905600E+04</totfact>
</mgrwt>
</event>
<event>
 8    1  0.1600673E-013  0.8043882E+02  0.7818608E-02  0.1327811E+00
          2   -1    0    0  501    0  0.00000000000E+00  0.00000000000E+00  0.72267521175E+03  0.72267521176E+03  0.25500000000E-02 0. -1.
         -1   -1    0    0    0  501 -0.00000000000E+00 -0.00000000000E+00 -0.22383483933E+01  0.22383540674E+01  0.50400000000E-02 0.  1.
         24    2    1    2    0    0 -0.35527136788E-14  0.17763568394E-14  0.72043686336E+03  0.72491356582E+03  0.80438820413E+02 0.  0.
         66    2    3    3    0    0  0.26649633448E+02 -0.92915764532E+01  0.61835650323E+03  0.61900347450E+03  0.20000005891E+01 0.  0.
        -13    1    3    3    0    0 -0.26649633448E+02  0.92915764532E+01  0.10208036013E+03  0.10591009132E+03  0.10566000000E+00 0.  1.
         13    1    4    4    0    0  0.15513391741E+02 -0.51699661073E+01  0.37117892100E+03  0.37153895681E+03  0.10566000000E+00 0. -1.
        -13    1    4    4    0    0  0.65136448042E+01 -0.21096043168E+01  0.13446270949E+03  0.13463695409E+03  0.10566000000E+00 0.  1.
         14    1    4    4    0    0  0.46225969026E+01 -0.20120060290E+01  0.11271487274E+03  0.11282756360E+03  0.00000000000E+00 0. -1.
<mgrwt>
<rscale>  0 0.80438820E+02</rscale>
<asrwt>0</asrwt>
<pdfrwt beam="1">  1        2 0.11118081E+00 0.80438820E+02</pdfrwt>
<pdfrwt beam="2">  1       -1 0.34436171E-03 0.80438820E+02</pdfrwt>
<totfact> 0.33214436E+05</totfact>
</mgrwt>
</event>
<event>
 8    1  0.1600673E-013  0.8042074E+02  0.7818608E-02  0.1327862E+00
         -1   -1    0    0    0  501 -0.00000000000E+00  0.00000000000E+00  0.13423268303E+02  0.13423269249E+02  0.50400000000E-02 0.  1.
          2   -1    0    0  501    0  0.00000000000E+00 -0.00000000000E+00 -0.12045306086E+03  0.12045306089E+03  0.25500000000E-02 0. -1.
         24    2    1    2    0    0  0.35527136788E-14  0.00000000000E+00 -0.10702979256E+03  0.13387633014E+03  0.80420739092E+02 0.  0.
         66    2    3    3    0    0 -0.22656103651E+02 -0.19000177191E+02 -0.98849838388E+02  0.10319688131E+03  0.19999993518E+01 0.  0.
        -13    1    3    3    0    0  0.22656103651E+02  0.19000177191E+02 -0.81799541689E+01  0.30679448824E+02  0.10566000000E+00 0.  1.
         13    1    4    4    0    0 -0.36901020789E+01 -0.32332788716E+01 -0.16259981334E+02  0.16984378193E+02  0.10566000000E+00 0. -1.
        -13    1    4    4    0    0 -0.17931331024E+02 -0.15011368169E+02 -0.76747004514E+02  0.80230839910E+02  0.10566000000E+00 0.  1.
        -14    1    4    4    0    0 -0.10346705473E+01 -0.75553014967E+00 -0.58428525398E+01  0.59816632093E+01  0.00000000000E+00 0.  1.
<mgrwt>
<rscale>  0 0.80420739E+02</rscale>
<asrwt>0</asrwt>
<pdfrwt beam="1">  1        2 0.18531239E-01 0.80420739E+02</pdfrwt>
<pdfrwt beam="2">  1       -1 0.20651184E-02 0.80420739E+02</pdfrwt>
<totfact> 0.18447707E+05</totfact>
</mgrwt>
</event>
<event>
 8    1  0.1600673E-013  0.7852612E+02  0.7818608E-02  0.1333287E+00
          2   -1    0    0  501    0  0.00000000000E+00  0.00000000000E+00  0.32182207846E+02  0.32182207947E+02  0.25500000000E-02 0. -1.
         -1   -1    0    0    0  501 -0.00000000000E+00 -0.00000000000E+00 -0.47901871056E+02  0.47901871321E+02  0.50400000000E-02 0.  1.
         24    2    1    2    0    0  0.17763568394E-14 -0.17763568394E-14 -0.15719663209E+02  0.80084079268E+02  0.78526122665E+02 0.  0.
         66    2    3    3    0    0  0.13115298709E+02 -0.13155664173E+02  0.27382330858E+02  0.33149277504E+02  0.19999989272E+01 0.  0.
        -13    1    3    3    0    0 -0.13115298709E+02  0.13155664173E+02 -0.43101994068E+02  0.46934801765E+02  0.10566000000E+00 0.  1.
         13    1    4    4    0    0  0.33848263665E+01 -0.26992143671E+01  0.73859364679E+01  0.85618940238E+01  0.10566000000E+00 0. -1.
        -13    1    4    4    0    0  0.63174568119E+01 -0.73278748886E+01  0.13381772725E+02  0.16513358721E+02  0.10566000000E+00 0.  1.
         14    1    4    4    0    0  0.34130155309E+01 -0.31285749168E+01  0.66146216658E+01  0.80740247588E+01  0.00000000000E+00 0. -1.
<mgrwt>
<rscale>  0 0.78526123E+02</rscale>
<asrwt>0</asrwt>
<pdfrwt beam="1">  1        2 0.49511089E-02 0.78526123E+02</pdfrwt>
<pdfrwt beam="2">  1       -1 0.73695187E-02 0.78526123E+02</pdfrwt>
<totfact> 0.14369671E+05</totfact>
</mgrwt>
</event>
<event>
 8    1  0.1600673E-013  0.8016512E+02  0.7818608E-02  0.1328584E+00
         -1   -1    0    0    0  501 -0.00000000000E+00  0.00000000000E+00  0.62434345900E+02  0.62434346103E+02  0.50400000000E-02 0.  1.
          2   -1    0    0  501    0  0.00000000000E+00 -0.00000000000E+00 -0.25732816157E+02  0.25732816284E+02  0.25500000000E-02 0. -1.
         24    2    1    2    0    0  0.00000000000E+00 -0.35527136788E-14  0.36701529743E+02  0.88167162387E+02  0.80165118586E+02 0.  0.
         66    2    3    3    0    0  0.13183768727E+02  0.30933844600E+02  0.42304195303E+02  0.54077346826E+02  0.19999999890E+01 0.  0.
        -13    1    3    3    0    0 -0.13183768727E+02 -0.30933844600E+02 -0.56026655604E+01  0.34089815561E+02  0.10566000000E+00 0.  1.
         13    1    4    4    0    0  0.33595881952E+01  0.87084743079E+01  0.11833920211E+02  0.15072398257E+02  0.10566000000E+00 0. -1.
        -13    1    4    4    0    0  0.93891661339E+01  0.21683429016E+02  0.29263487163E+02  0.37612370034E+02  0.10566000000E+00 0.  1.
        -14    1    4    4    0    0  0.43501439779E+00  0.54194127613E+00  0.12067879285E+01  0.13925785355E+01  0.00000000000E+00 0.  1.
<mgrwt>
<rscale>  0 0.80165119E+02</rscale>
<asrwt>0</asrwt>
<pdfrwt beam="1">  1        2 0.39588949E-02 0.80165119E+02</pdfrwt>
<pdfrwt beam="2">  1       -1 0.96052838E-02 0.80165119E+02</pdfrwt>
<totfact> 0.12978677E+05</totfact>
</mgrwt>
</event>
<event>
 8    1  0.1600673E-013  0.8327277E+02  0.7818608E-02  0.1320012E+00
         -1   -1    0    0    0  501 -0.00000000000E+00  0.00000000000E+00  0.98934322529E+02  0.98934322657E+02  0.50400000000E-02 0.  1.
          2   -1    0    0  501    0  0.00000000000E+00 -0.00000000000E+00 -0.17522618544E+02  0.17522618729E+02  0.25500000000E-02 0. -1.
         24    2    1    2    0    0  0.71054273576E-14  0.00000000000E+00  0.81411703985E+02  0.11645694139E+03  0.83272766565E+02 0.  0.
         66    2    3    3    0    0 -0.40596873116E+02 -0.31859394844E+01  0.28753741506E+02  0.49890219268E+02  0.20000026855E+01 0.  0.
        -13    1    3    3    0    0  0.40596873116E+02  0.31859394844E+01  0.52657962479E+02  0.66566722119E+02  0.10566000000E+00 0.  1.
         13    1    4    4    0    0 -0.24449533830E+02 -0.21908841747E+01  0.18195723558E+02  0.30556099192E+02  0.10566000000E+00 0. -1.
        -13    1    4    4    0    0 -0.12292155662E+02 -0.10863007818E+01  0.80589820004E+01  0.14738910920E+02  0.10566000000E+00 0.  1.
         14    1    4    4    0    0 -0.38551836245E+01  0.91245472099E-01  0.24990359477E+01  0.45952091555E+01  0.00000000000E+00 0. -1.
<mgrwt>
<rscale>  0 0.83272767E+02</rscale>
<asrwt>0</asrwt>
<pdfrwt beam="1">  1        2 0.26957875E-02 0.83272767E+02</pdfrwt>
<pdfrwt beam="2">  1       -1 0.15220665E-01 0.83272767E+02</pdfrwt>
<totfact> 0.10750968E+05</totfact>
</mgrwt>
</event>
<event>
 8    1  0.1600673E-013  0.8098167E+02  0.7818608E-02  0.1326288E+00
          2   -1    0    0  501    0  0.00000000000E+00  0.00000000000E+00  0.10320170757E+02  0.10320171072E+02  0.25500000000E-02 0. -1.
         -1   -1    0    0    0  501 -0.00000000000E+00 -0.00000000000E+00 -0.15886438189E+03  0.15886438197E+03  0.50400000000E-02 0.  1.
         24    2    1    2    0    0  0.00000000000E+00  0.00000000000E+00 -0.14854421113E+03  0.16918455304E+03  0.80981666608E+02 0.  0.
         66    2    3    3    0    0 -0.22184365074E+02 -0.17407096343E+02 -0.13682728909E+02  0.31406530089E+02  0.20000012467E+01 0.  0.
        -13    1    3    3    0    0  0.22184365074E+02  0.17407096343E+02 -0.13486148222E+03  0.13777802295E+03  0.10566000000E+00 0.  1.
         13    1    4    4    0    0 -0.12988587489E+02 -0.10874112451E+02 -0.87462969308E+01  0.19064590229E+02  0.10566000000E+00 0. -1.
        -13    1    4    4    0    0 -0.48410761693E+01 -0.34623434926E+01 -0.21514915076E+01  0.63296066767E+01  0.10566000000E+00 0.  1.
         14    1    4    4    0    0 -0.43547014155E+01 -0.30706403995E+01 -0.27849404702E+01  0.60123331830E+01  0.00000000000E+00 0. -1.
<mgrwt>
<rscale>  0 0.80981667E+02</rscale>
<asrwt>0</asrwt>
<pdfrwt beam="1">  1        2 0.15877187E-02 0.80981667E+02</pdfrwt>
<pdfrwt beam="2">  1       -1 0.24440672E-01 0.80981667E+02</pdfrwt>
<totfact> 0.10304954E+05</totfact>
</mgrwt>
</event>
<event>
 8    1  0.1600673E-013  0.8048393E+02  0.7818608E-02  0.1327684E+00
         -1   -1    0    0    0  501 -0.00000000000E+00  0.00000000000E+00  0.59240528383E+01  0.59240549822E+01  0.50400000000E-02 0.  1.
          2   -1    0    0  501    0  0.00000000000E+00 -0.00000000000E+00 -0.27336273081E+03  0.27336273082E+03  0.25500000000E-02 0. -1.
         24    2    1    2    0    0  0.00000000000E+00  0.00000000000E+00 -0.26743867797E+03  0.27928678580E+03  0.80483925410E+02 0.  0.
         66    2    3    3    0    0 -0.25021624512E+02  0.10723282759E+02 -0.23652701994E+03  0.23809683251E+03  0.20000002233E+01 0.  0.
        -13    1    3    3    0    0  0.25021624512E+02 -0.10723282759E+02 -0.30911658025E+02  0.41189953292E+02  0.10566000000E+00 0.  1.
         13    1    4    4    0    0 -0.17850622127E+02  0.76472908410E+01 -0.17074536112E+03  0.17184619657E+03  0.10566000000E+00 0. -1.
        -13    1    4    4    0    0 -0.55616131117E+01  0.19810076547E+01 -0.47488939738E+02  0.47854639203E+02  0.10566000000E+00 0.  1.
         14    1    4    4    0    0 -0.16093892729E+01  0.10949842633E+01 -0.18292719085E+02  0.18395996736E+02  0.00000000000E+00 0. -1.
<mgrwt>
<rscale>  0 0.80483925E+02</rscale>
<asrwt>0</asrwt>
<pdfrwt beam="1">  1        2 0.42055795E-01 0.80483925E+02</pdfrwt>
<pdfrwt beam="2">  1       -1 0.91139312E-03 0.80483925E+02</pdfrwt>
<totfact> 0.24262747E+05</totfact>
</mgrwt>
</event>
<event>
 8    1  0.1600673E-013  0.7928711E+02  0.7818608E-02  0.1331087E+00
          2   -1    0    0  501    0  0.00000000000E+00  0.00000000000E+00  0.58881529125E+02  0.58881529180E+02  0.25500000000E-02 0. -1.
         -1   -1    0    0    0  501 -0.00000000000E+00 -0.00000000000E+00 -0.26691075573E+02  0.26691076048E+02  0.50400000000E-02 0.  1.
         24    2    1    2    0    0 -0.17763568394E-14  0.00000000000E+00  0.32190453552E+02  0.85572605228E+02  0.79287107815E+02 0.  0.
         66    2    3    3    0    0 -0.11919045865E+02 -0.64777093558E+01  0.56279737824E+02  0.57926101768E+02  0.20000009041E+01 0.  0.
        -13    1    3    3    0    0  0.11919045865E+02  0.64777093558E+01 -0.24089284272E+02  0.27646503461E+02  0.10566000000E+00 0.  1.
         13    1    4    4    0    0 -0.12468659223E+01 -0.59360744513E+00  0.70602750706E+01  0.71948379089E+01  0.10566000000E+00 0. -1.
        -13    1    4    4    0    0 -0.29579351667E+01 -0.10016056254E+01  0.14370556247E+02  0.14706347105E+02  0.10566000000E+00 0. -1.
         14    1    4    4    0    0 -0.77142447762E+01 -0.48824962853E+01  0.34848906506E+02  0.36024916754E+02  0.00000000000E+00 0. -1.
<mgrwt>
<rscale>  0 0.79287108E+02</rscale>
<asrwt>0</asrwt>
<pdfrwt beam="1">  1        2 0.90586968E-02 0.79287108E+02</pdfrwt>
<pdfrwt beam="2">  1       -1 0.41063194E-02 0.79287108E+02</pdfrwt>
<totfact> 0.15881010E+05</totfact>
</mgrwt>
</event>
<event>
 8    1  0.1600673E-013  0.8004592E+02  0.7818608E-02  0.1328921E+00
         -1   -1    0    0    0  501 -0.00000000000E+00  0.00000000000E+00  0.10952797785E+01  0.10952913744E+01  0.50400000000E-02 0.  1.
          2   -1    0    0  501    0  0.00000000000E+00 -0.00000000000E+00 -0.14624837894E+04  0.14624837894E+04  0.25500000000E-02 0. -1.
         24    2    1    2    0    0  0.35527136788E-14 -0.13877787808E-16 -0.14613885096E+04  0.14635790808E+04  0.80045922029E+02 0.  0.
         66    2    3    3    0    0  0.21684082765E+02 -0.70746554112E-01 -0.13456814285E+04  0.13458576118E+04  0.20000084024E+01 0.  0.
        -13    1    3    3    0    0 -0.21684082765E+02  0.70746554112E-01 -0.11570708119E+03  0.11772146896E+03  0.10566000000E+00 0.  1.
         13    1    4    4    0    0  0.49463363078E+01 -0.13790410978E+00 -0.27876566982E+03  0.27880960366E+03  0.10566000000E+00 0. -1.
        -13    1    4    4    0    0  0.47240690536E+01 -0.40903825452E-01 -0.26234308262E+03  0.26238563730E+03  0.10566000000E+00 0.  1.
         14    1    4    4    0    0  0.12013677403E+02  0.10806138112E+00 -0.80457267601E+03  0.80466237088E+03  0.00000000000E+00 0. -1.
<mgrwt>
<rscale>  0 0.80045922E+02</rscale>
<asrwt>0</asrwt>
<pdfrwt beam="1">  1        2 0.22499594E+00 0.80045922E+02</pdfrwt>
<pdfrwt beam="2">  1       -1 0.16850664E-03 0.80045922E+02</pdfrwt>
<totfact> 0.33504876E+05</totfact>
</mgrwt>
</event>
<event>
 8    1  0.1600673E-013  0.7368452E+02  0.7818608E-02  0.1347994E+00
          2   -1    0    0  501    0  0.00000000000E+00  0.00000000000E+00  0.22259913360E+03  0.22259913362E+03  0.25500000000E-02 0. -1.
         -1   -1    0    0    0  501 -0.00000000000E+00 -0.00000000000E+00 -0.60977403073E+01  0.60977423902E+01  0.50400000000E-02 0.  1.
         24    2    1    2    0    0 -0.17763568394E-14  0.00000000000E+00  0.21650139330E+03  0.22869687601E+03  0.73684515312E+02 0.  0.
         66    2    3    3    0    0  0.14410889524E+02 -0.19977776551E+02  0.19324784901E+03  0.19482175566E+03  0.20000096130E+01 0.  0.
        -13    1    3    3    0    0 -0.14410889524E+02  0.19977776551E+02  0.23253544289E+02  0.33875120352E+02  0.10566000000E+00 0.  1.
         13    1    4    4    0    0  0.61393138445E+01 -0.84835478640E+01  0.76762537336E+02  0.77473608804E+02  0.10566000000E+00 0. -1.
        -13    1    4    4    0    0  0.80789974230E+01 -0.11404800595E+02  0.11528978837E+03  0.11613391470E+03  0.10566000000E+00 0.  1.
        -14    1    4    4    0    0  0.19257825626E+00 -0.89428092224E-01  0.11955233003E+01  0.12142321566E+01  0.00000000000E+00 0.  1.
<mgrwt>
<rscale>  0 0.73684515E+02</rscale>
<asrwt>0</asrwt>
<pdfrwt beam="1">  1        2 0.34246022E-01 0.73684515E+02</pdfrwt>
<pdfrwt beam="2">  1       -1 0.93811403E-03 0.73684515E+02</pdfrwt>
<totfact> 0.28411988E+05</totfact>
</mgrwt>
</event>
<event>
 8    1  0.1600673E-013  0.7737731E+02  0.7818608E-02  0.1336663E+00
          2   -1    0    0  501    0  0.00000000000E+00  0.00000000000E+00  0.16575970683E+02  0.16575970879E+02  0.25500000000E-02 0. -1.
         -1   -1    0    0    0  501 -0.00000000000E+00 -0.00000000000E+00 -0.90300117113E+02  0.90300117254E+02  0.50400000000E-02 0.  1.
         24    2    1    2    0    0  0.00000000000E+00  0.00000000000E+00 -0.73724146430E+02  0.10687608813E+03  0.77377312228E+02 0.  0.
         66    2    3    3    0    0 -0.26305094297E+02  0.16817304116E+02 -0.53888434462E+01  0.31746170645E+02  0.20000033058E+01 0.  0.
        -13    1    3    3    0    0  0.26305094297E+02 -0.16817304116E+02 -0.68335302984E+02  0.75129917487E+02  0.10566000000E+00 0.  1.
         13    1    4    4    0    0 -0.11963013811E+02  0.76276571303E+01 -0.30606433653E+01  0.14514597982E+02  0.10566000000E+00 0. -1.
        -13    1    4    4    0    0 -0.20903079463E+01  0.15689404189E+01 -0.72458495347E+00  0.27142492035E+01  0.10566000000E+00 0.  1.
         14    1    4    4    0    0 -0.12251772539E+02  0.76207065668E+01 -0.16036151275E+01  0.14517323459E+02  0.00000000000E+00 0. -1.
<mgrwt>
<rscale>  0 0.77377312E+02</rscale>
<asrwt>0</asrwt>
<pdfrwt beam="1">  1        2 0.25501494E-02 0.77377312E+02</pdfrwt>
<pdfrwt beam="2">  1       -1 0.13892326E-01 0.77377312E+02</pdfrwt>
<totfact> 0.13155685E+05</totfact>
</mgrwt>
</event>
<event>
 8    1  0.1600673E-013  0.8968866E+02  0.7818608E-02  0.1303607E+00
         -1   -1    0    0    0  501 -0.00000000000E+00  0.00000000000E+00  0.49062341797E+01  0.49062367684E+01  0.50400000000E-02 0.  1.
          2   -1    0    0  501    0  0.00000000000E+00 -0.00000000000E+00 -0.40988937342E+03  0.40988937342E+03  0.25500000000E-02 0. -1.
         24    2    1    2    0    0  0.00000000000E+00  0.00000000000E+00 -0.40498313924E+03  0.41479561019E+03  0.89688656859E+02 0.  0.
         66    2    3    3    0    0  0.12100158687E+02 -0.13867662462E+02 -0.39160496283E+03  0.39204230998E+03  0.20000005196E+01 0.  0.
        -13    1    3    3    0    0 -0.12100158687E+02  0.13867662462E+02 -0.13378176408E+02  0.22753300210E+02  0.10566000000E+00 0.  1.
         13    1    4    4    0    0  0.99356369172E+01 -0.11818837149E+02 -0.31991410132E+03  0.32028650483E+03  0.10566000000E+00 0. -1.
        -13    1    4    4    0    0  0.19051988936E+01 -0.14504766004E+01 -0.57669738057E+02  0.57719524571E+02  0.10566000000E+00 0.  1.
        -14    1    4    4    0    0  0.25932287654E+00 -0.59834871235E+00 -0.14021123453E+02  0.14036280577E+02  0.00000000000E+00 0.  1.
<mgrwt>
<rscale>  0 0.89688657E+02</rscale>
<asrwt>0</asrwt>
<pdfrwt beam="1">  1        2 0.63059877E-01 0.89688657E+02</pdfrwt>
<pdfrwt beam="2">  1       -1 0.75480578E-03 0.89688657E+02</pdfrwt>
<totfact> 0.21105030E+05</totfact>
</mgrwt>
</event>
<event>
 8    1  0.1600673E-013  0.7986386E+02  0.7818608E-02  0.1329438E+00
          2   -1    0    0  501    0  0.00000000000E+00  0.00000000000E+00  0.79981891056E+02  0.79981891097E+02  0.25500000000E-02 0. -1.
         -1   -1    0    0    0  501 -0.00000000000E+00 -0.00000000000E+00 -0.19936502147E+02  0.19936502784E+02  0.50400000000E-02 0.  1.
         24    2    1    2    0    0 -0.35527136788E-14  0.35527136788E-14  0.60045388910E+02  0.99918393880E+02  0.79863863583E+02 0.  0.
         66    2    3    3    0    0 -0.19596454706E+02  0.23839331787E+02  0.61697726718E+02  0.69014087362E+02  0.19999987956E+01 0.  0.
        -13    1    3    3    0    0  0.19596454706E+02 -0.23839331787E+02 -0.16523378086E+01  0.30904306518E+02  0.10566000000E+00 0.  1.
         13    1    4    4    0    0 -0.14465523174E+01  0.19351541159E+01  0.60272472810E+01  0.64943212795E+01  0.10566000000E+00 0.  1.
        -13    1    4    4    0    0 -0.86753767822E+01  0.10483240305E+02  0.26046418762E+02  0.29386860737E+02  0.10566000000E+00 0. -1.
        -14    1    4    4    0    0 -0.94745256064E+01  0.11420937366E+02  0.29624060675E+02  0.33132905346E+02  0.00000000000E+00 0.  1.
<mgrwt>
<rscale>  0 0.79863864E+02</rscale>
<asrwt>0</asrwt>
<pdfrwt beam="1">  1        2 0.12304906E-01 0.79863864E+02</pdfrwt>
<pdfrwt beam="2">  1       -1 0.30671542E-02 0.79863864E+02</pdfrwt>
<totfact> 0.16771503E+05</totfact>
</mgrwt>
</event>
<event>
 8    1  0.1600673E-013  0.8020868E+02  0.7818608E-02  0.1328460E+00
         -1   -1    0    0    0  501 -0.00000000000E+00  0.00000000000E+00  0.46669267712E+01  0.46669294927E+01  0.50400000000E-02 0.  1.
          2   -1    0    0  501    0  0.00000000000E+00 -0.00000000000E+00 -0.34462883681E+03  0.34462883682E+03  0.25500000000E-02 0. -1.
         24    2    1    2    0    0  0.00000000000E+00  0.00000000000E+00 -0.33996191004E+03  0.34929576631E+03  0.80208678373E+02 0.  0.
         66    2    3    3    0    0  0.10815378696E+02 -0.35821376132E+02 -0.23262182202E+03  0.23562057525E+03  0.19999985786E+01 0.  0.
        -13    1    3    3    0    0 -0.10815378696E+02  0.35821376132E+02 -0.10734008801E+03  0.11367519106E+03  0.10566000000E+00 0.  1.
         13    1    4    4    0    0  0.58852068391E+00 -0.25174525353E+01 -0.16364716925E+02  0.16568012794E+02  0.10566000000E+00 0. -1.
        -13    1    4    4    0    0  0.38174989161E+01 -0.15275970729E+02 -0.95890627291E+02  0.97174853465E+02  0.10566000000E+00 0.  1.
         14    1    4    4    0    0  0.64093590962E+01 -0.18027952867E+02 -0.12036647781E+03  0.12187770899E+03  0.00000000000E+00 0. -1.
<mgrwt>
<rscale>  0 0.80208678E+02</rscale>
<asrwt>0</asrwt>
<pdfrwt beam="1">  1        2 0.53019801E-01 0.80208678E+02</pdfrwt>
<pdfrwt beam="2">  1       -1 0.71798922E-03 0.80208678E+02</pdfrwt>
<totfact> 0.26618897E+05</totfact>
</mgrwt>
</event>
<event>
 8    1  0.1600673E-013  0.8538247E+02  0.7818608E-02  0.1314435E+00
          2   -1    0    0  501    0  0.00000000000E+00  0.00000000000E+00  0.29746870375E+03  0.29746870376E+03  0.25500000000E-02 0. -1.
         -1   -1    0    0    0  501 -0.00000000000E+00 -0.00000000000E+00 -0.61268333431E+01  0.61268354161E+01  0.50400000000E-02 0.  1.
         24    2    1    2    0    0  0.00000000000E+00  0.00000000000E+00  0.29134187041E+03  0.30359553918E+03  0.85382468669E+02 0.  0.
         66    2    3    3    0    0  0.17634120745E+02 -0.28562331879E+02  0.23940621437E+03  0.24175629153E+03  0.20000004201E+01 0.  0.
        -13    1    3    3    0    0 -0.17634120745E+02  0.28562331879E+02  0.51935656043E+02  0.61839247646E+02  0.10566000000E+00 0.  1.
         13    1    4    4    0    0  0.11130257366E+02 -0.19449157179E+02  0.15879284493E+03  0.16036624056E+03  0.10566000000E+00 0. -1.
        -13    1    4    4    0    0  0.10548885333E+01 -0.12663485241E+01  0.10586412994E+02  0.10714463707E+02  0.10566000000E+00 0.  1.
         14    1    4    4    0    0  0.54489748456E+01 -0.78468261765E+01  0.70026956440E+02  0.70675587271E+02  0.00000000000E+00 0. -1.
<mgrwt>
<rscale>  0 0.85382469E+02</rscale>
<asrwt>0</asrwt>
<pdfrwt beam="1">  1        2 0.45764430E-01 0.85382469E+02</pdfrwt>
<pdfrwt beam="2">  1       -1 0.94258963E-03 0.85382469E+02</pdfrwt>
<totfact> 0.21415310E+05</totfact>
</mgrwt>
</event>
<event>
 8    1  0.1600673E-013  0.7890830E+02  0.7818608E-02  0.1332178E+00
         -1   -1    0    0    0  501 -0.00000000000E+00  0.00000000000E+00  0.13271779358E+01  0.13271875055E+01  0.50400000000E-02 0.  1.
          2   -1    0    0  501    0  0.00000000000E+00 -0.00000000000E+00 -0.11728828195E+04  0.11728828195E+04  0.25500000000E-02 0. -1.
         24    2    1    2    0    0  0.00000000000E+00  0.00000000000E+00 -0.11715556416E+04  0.11742100070E+04  0.78908296634E+02 0.  0.
         66    2    3    3    0    0  0.22088403604E+02 -0.60306680584E+01 -0.10638113014E+04  0.10640595620E+04  0.19999994031E+01 0.  0.
        -13    1    3    3    0    0 -0.22088403604E+02  0.60306680584E+01 -0.10774434021E+03  0.11015044504E+03  0.10566000000E+00 0.  1.
         13    1    4    4    0    0  0.97523398237E+01 -0.23385752373E+01 -0.47792620740E+03  0.47803142987E+03  0.10566000000E+00 0. -1.
        -13    1    4    4    0    0  0.11463438373E+02 -0.37247552475E+01 -0.55374253785E+03  0.55387371630E+03  0.10566000000E+00 0.  1.
        -14    1    4    4    0    0  0.87262540772E+00  0.32662426430E-01 -0.32142556139E+02  0.32154415826E+02  0.00000000000E+00 0.  1.
<mgrwt>
<rscale>  0 0.78908297E+02</rscale>
<asrwt>0</asrwt>
<pdfrwt beam="1">  1        2 0.18044268E+00 0.78908297E+02</pdfrwt>
<pdfrwt beam="2">  1       -1 0.20418290E-03 0.78908297E+02</pdfrwt>
<totfact> 0.36392068E+05</totfact>
</mgrwt>
</event>
<event>
 8    1  0.1600673E-013  0.7912278E+02  0.7818608E-02  0.1331559E+00
         -1   -1    0    0    0  501 -0.00000000000E+00  0.00000000000E+00  0.11622812791E+01  0.11622922065E+01  0.50400000000E-02 0.  1.
          2   -1    0    0  501    0  0.00000000000E+00 -0.00000000000E+00 -0.13465727527E+04  0.13465727527E+04  0.25500000000E-02 0. -1.
         24    2    1    2    0    0  0.00000000000E+00  0.00000000000E+00 -0.13454104714E+04  0.13477350449E+04  0.79122782222E+02 0.  0.
         66    2    3    3    0    0 -0.91967211649E+01  0.48989062751E+01 -0.13227589317E+04  0.13228014856E+04  0.20000037363E+01 0.  0.
        -13    1    3    3    0    0  0.91967211649E+01 -0.48989062751E+01 -0.22651539729E+02  0.24933559293E+02  0.10566000000E+00 0.  1.
         13    1    4    4    0    0 -0.30225215344E+01  0.18233848328E+01 -0.40893038662E+03  0.40894563531E+03  0.10566000000E+00 0. -1.
        -13    1    4    4    0    0 -0.52857431016E+01  0.30341300576E+01 -0.83602527860E+03  0.83604750023E+03  0.10566000000E+00 0.  1.
        -14    1    4    4    0    0 -0.88845652885E+00  0.41391384768E-01 -0.77803266431E+02  0.77808350038E+02  0.00000000000E+00 0.  1.
<mgrwt>
<rscale>  0 0.79122782E+02</rscale>
<asrwt>0</asrwt>
<pdfrwt beam="1">  1        2 0.20716379E+00 0.79122782E+02</pdfrwt>
<pdfrwt beam="2">  1       -1 0.17881442E-03 0.79122782E+02</pdfrwt>
<totfact> 0.35354886E+05</totfact>
</mgrwt>
</event>
<event>
 8    1  0.1600673E-013  0.7438949E+02  0.7818608E-02  0.1345772E+00
         -1   -1    0    0    0  501 -0.00000000000E+00  0.00000000000E+00  0.97784161396E+02  0.97784161526E+02  0.50400000000E-02 0.  1.
          2   -1    0    0  501    0  0.00000000000E+00 -0.00000000000E+00 -0.14147987868E+02  0.14147988098E+02  0.25500000000E-02 0. -1.
         24    2    1    2    0    0  0.00000000000E+00  0.00000000000E+00  0.83636173528E+02  0.11193214962E+03  0.74389492518E+02 0.  0.
         66    2    3    3    0    0 -0.53612862013E+01 -0.16078771492E+02 -0.79239264093E+01  0.18816450910E+02  0.19999831759E+01 0.  0.
        -13    1    3    3    0    0  0.53612862013E+01  0.16078771492E+02  0.91560099937E+02  0.93115698714E+02  0.10566000000E+00 0.  1.
         13    1    4    4    0    0 -0.17796648141E+01 -0.53843108323E+01 -0.36220225810E+01  0.67296524131E+01  0.10566000000E+00 0. -1.
        -13    1    4    4    0    0 -0.98737945267E+00 -0.35360432520E+01 -0.11814544612E+01  0.38581755719E+01  0.10566000000E+00 0.  1.
        -14    1    4    4    0    0 -0.25942419345E+01 -0.71584174075E+01 -0.31204493671E+01  0.82286229253E+01  0.00000000000E+00 0.  1.
<mgrwt>
<rscale>  0 0.74389493E+02</rscale>
<asrwt>0</asrwt>
<pdfrwt beam="1">  1        2 0.21766135E-02 0.74389493E+02</pdfrwt>
<pdfrwt beam="2">  1       -1 0.15043717E-01 0.74389493E+02</pdfrwt>
<totfact> 0.14273071E+05</totfact>
</mgrwt>
</event>
<event>
 8    1  0.1600673E-013  0.8057865E+02  0.7818608E-02  0.1327417E+00
         -1   -1    0    0    0  501 -0.00000000000E+00  0.00000000000E+00  0.23490737248E+01  0.23490791315E+01  0.50400000000E-02 0.  1.
          2   -1    0    0  501    0  0.00000000000E+00 -0.00000000000E+00 -0.69100763729E+03  0.69100763729E+03  0.25500000000E-02 0. -1.
         24    2    1    2    0    0  0.00000000000E+00  0.00000000000E+00 -0.68865856356E+03  0.69335671642E+03  0.80578651277E+02 0.  0.
         66    2    3    3    0    0  0.35558507728E+02 -0.22097209435E+01 -0.50596463757E+03  0.50722135681E+03  0.19999995591E+01 0.  0.
        -13    1    3    3    0    0 -0.35558507728E+02  0.22097209435E+01 -0.18269392599E+03  0.18613535961E+03  0.10566000000E+00 0.  1.
         13    1    4    4    0    0  0.37775171295E+01 -0.81177215793E-01 -0.54743044330E+02  0.54873384185E+02  0.10566000000E+00 0. -1.
        -13    1    4    4    0    0  0.18297435663E+02 -0.90461472349E+00 -0.24772873867E+03  0.24840522057E+03  0.10566000000E+00 0.  1.
         14    1    4    4    0    0  0.13483554935E+02 -0.12239290042E+01 -0.20349285457E+03  0.20394275206E+03  0.00000000000E+00 0. -1.
<mgrwt>
<rscale>  0 0.80578651E+02</rscale>
<asrwt>0</asrwt>
<pdfrwt beam="1">  1        2 0.10630871E+00 0.80578651E+02</pdfrwt>
<pdfrwt beam="2">  1       -1 0.36139693E-03 0.80578651E+02</pdfrwt>
<totfact> 0.32732549E+05</totfact>
</mgrwt>
</event>
<event>
 8    1  0.1600673E-013  0.8014156E+02  0.7818608E-02  0.1328650E+00
         -1   -1    0    0    0  501 -0.00000000000E+00  0.00000000000E+00  0.62424808362E+02  0.62424808566E+02  0.50400000000E-02 0.  1.
          2   -1    0    0  501    0  0.00000000000E+00 -0.00000000000E+00 -0.25721624896E+02  0.25721625022E+02  0.25500000000E-02 0. -1.
         24    2    1    2    0    0  0.00000000000E+00  0.17763568394E-14  0.36703183466E+02  0.88146433588E+02  0.80141562735E+02 0.  0.
         66    2    3    3    0    0  0.33705541850E+02 -0.98051180332E+01 -0.28353667329E+01  0.35273831922E+02  0.20000057233E+01 0.  0.
        -13    1    3    3    0    0 -0.33705541850E+02  0.98051180332E+01  0.39538550199E+02  0.52872601666E+02  0.10566000000E+00 0.  1.
         13    1    4    4    0    0  0.25960912463E+02 -0.80957272689E+01 -0.24401495103E+01  0.27303393005E+02  0.10566000000E+00 0. -1.
        -13    1    4    4    0    0  0.38450070874E+01 -0.76825415257E+00 -0.52103211799E+00  0.39568841844E+01  0.10566000000E+00 0.  1.
         14    1    4    4    0    0  0.38996222993E+01 -0.94113661167E+00  0.12581489542E+00  0.40135547320E+01  0.00000000000E+00 0. -1.
<mgrwt>
<rscale>  0 0.80141563E+02</rscale>
<asrwt>0</asrwt>
<pdfrwt beam="1">  1        2 0.39571731E-02 0.80141563E+02</pdfrwt>
<pdfrwt beam="2">  1       -1 0.96038167E-02 0.80141563E+02</pdfrwt>
<totfact> 0.12988352E+05</totfact>
</mgrwt>
</event>
<event>
 8    1  0.1600673E-013  0.8183076E+02  0.7818608E-02  0.1323935E+00
         -1   -1    0    0    0  501 -0.00000000000E+00  0.00000000000E+00  0.34907626234E+02  0.34907626598E+02  0.50400000000E-02 0.  1.
          2   -1    0    0  501    0  0.00000000000E+00 -0.00000000000E+00 -0.47957092009E+02  0.47957092076E+02  0.25500000000E-02 0. -1.
         24    2    1    2    0    0  0.00000000000E+00  0.35527136788E-14 -0.13049465774E+02  0.82864718674E+02  0.81830758545E+02 0.  0.
         66    2    3    3    0    0 -0.11149152596E+02 -0.22938896857E+02 -0.38894426779E+02  0.46553979684E+02  0.19999993361E+01 0.  0.
        -13    1    3    3    0    0  0.11149152596E+02  0.22938896857E+02  0.25844961005E+02  0.36310738990E+02  0.10566000000E+00 0.  1.
         13    1    4    4    0    0 -0.58467635376E-01 -0.39341226088E+00 -0.45011697859E+00  0.60988605609E+00  0.10566000000E+00 0.  1.
        -13    1    4    4    0    0 -0.39733959472E+01 -0.73736542724E+01 -0.13736900112E+02  0.16089507184E+02  0.10566000000E+00 0.  1.
         14    1    4    4    0    0 -0.71172890135E+01 -0.15171830324E+02 -0.24707409688E+02  0.29854586445E+02  0.00000000000E+00 0. -1.
<mgrwt>
<rscale>  0 0.81830759E+02</rscale>
<asrwt>0</asrwt>
<pdfrwt beam="1">  1        2 0.73780142E-02 0.81830759E+02</pdfrwt>
<pdfrwt beam="2">  1       -1 0.53704041E-02 0.81830759E+02</pdfrwt>
<totfact> 0.13915951E+05</totfact>
</mgrwt>
</event>
<event>
 8    1  0.1600673E-013  0.7937135E+02  0.7818608E-02  0.1330845E+00
          2   -1    0    0  501    0  0.00000000000E+00  0.00000000000E+00  0.76483749354E+03  0.76483749355E+03  0.25500000000E-02 0. -1.
         -1   -1    0    0    0  501 -0.00000000000E+00 -0.00000000000E+00 -0.20591962767E+01  0.20592024446E+01  0.50400000000E-02 0.  1.
         24    2    1    2    0    0  0.00000000000E+00  0.88817841970E-15  0.76277829726E+03  0.76689669599E+03  0.79371352154E+02 0.  0.
         66    2    3    3    0    0  0.11767880124E+02  0.43233667347E+01  0.74518550216E+03  0.74529363819E+03  0.19999998518E+01 0.  0.
        -13    1    3    3    0    0 -0.11767880124E+02 -0.43233667347E+01  0.17592795105E+02  0.21603057797E+02  0.10566000000E+00 0.  1.
         13    1    4    4    0    0  0.42895162542E+01  0.21505324521E+01  0.24217277628E+03  0.24222033250E+03  0.10566000000E+00 0. -1.
        -13    1    4    4    0    0  0.31375977535E+01  0.10812371805E+01  0.22733798143E+03  0.22736222765E+03  0.10566000000E+00 0.  1.
         14    1    4    4    0    0  0.43407661166E+01  0.10915971021E+01  0.27567474444E+03  0.27571107805E+03  0.00000000000E+00 0. -1.
<mgrwt>
<rscale>  0 0.79371352E+02</rscale>
<asrwt>0</asrwt>
<pdfrwt beam="1">  1        2 0.11766731E+00 0.79371352E+02</pdfrwt>
<pdfrwt beam="2">  1       -1 0.31679988E-03 0.79371352E+02</pdfrwt>
<totfact> 0.34789897E+05</totfact>
</mgrwt>
</event>
<event>
 8    1  0.1600673E-013  0.8100382E+02  0.7818608E-02  0.1326227E+00
         -1   -1    0    0    0  501 -0.00000000000E+00  0.00000000000E+00  0.22817473828E+02  0.22817474384E+02  0.50400000000E-02 0.  1.
          2   -1    0    0  501    0  0.00000000000E+00 -0.00000000000E+00 -0.71892475313E+02  0.71892475358E+02  0.25500000000E-02 0. -1.
         24    2    1    2    0    0  0.00000000000E+00  0.17763568394E-14 -0.49075001485E+02  0.94709949742E+02  0.81003819721E+02 0.  0.
         66    2    3    3    0    0 -0.34347873290E+02  0.77497121519E+01 -0.47894512844E+02  0.59478725588E+02  0.19999997415E+01 0.  0.
        -13    1    3    3    0    0  0.34347873290E+02 -0.77497121519E+01 -0.11804886410E+01  0.35231224155E+02  0.10566000000E+00 0.  1.
         13    1    4    4    0    0 -0.20067260390E+02  0.44983436857E+01 -0.26502687471E+02  0.33545992946E+02  0.10566000000E+00 0. -1.
        -13    1    4    4    0    0 -0.75030972745E+01  0.19598136803E+01 -0.11006148285E+02  0.13464167352E+02  0.10566000000E+00 0.  1.
        -14    1    4    4    0    0 -0.67775156249E+01  0.12915547858E+01 -0.10385677088E+02  0.12468565290E+02  0.00000000000E+00 0.  1.
<mgrwt>
<rscale>  0 0.81003820E+02</rscale>
<asrwt>0</asrwt>
<pdfrwt beam="1">  1        2 0.11060381E-01 0.81003820E+02</pdfrwt>
<pdfrwt beam="2">  1       -1 0.35103807E-02 0.81003820E+02</pdfrwt>
<totfact> 0.15713152E+05</totfact>
</mgrwt>
</event>
<event>
 8    1  0.1600673E-013  0.7987362E+02  0.7818608E-02  0.1329410E+00
          2   -1    0    0  501    0  0.00000000000E+00  0.00000000000E+00  0.46980940276E+03  0.46980940277E+03  0.25500000000E-02 0. -1.
         -1   -1    0    0    0  501 -0.00000000000E+00 -0.00000000000E+00 -0.33948829338E+01  0.33948866749E+01  0.50400000000E-02 0.  1.
         24    2    1    2    0    0  0.44408920985E-15  0.00000000000E+00  0.46641451983E+03  0.47320428944E+03  0.79873620435E+02 0.  0.
         66    2    3    3    0    0  0.33801446616E+01  0.34507192675E+02  0.35046660084E+03  0.35218320531E+03  0.20000176835E+01 0.  0.
        -13    1    3    3    0    0 -0.33801446616E+01 -0.34507192675E+02  0.11594791898E+03  0.12102108413E+03  0.10566000000E+00 0.  1.
         13    1    4    4    0    0  0.93075025743E-01  0.30919608337E+01  0.31719643637E+02  0.31870297163E+02  0.10566000000E+00 0.  1.
        -13    1    4    4    0    0  0.12755734489E+01  0.69824147199E+01  0.66909480256E+02  0.67284997697E+02  0.10566000000E+00 0.  1.
         14    1    4    4    0    0  0.20114961869E+01  0.24432817121E+02  0.25183747695E+03  0.25302791045E+03  0.00000000000E+00 0. -1.
<mgrwt>
<rscale>  0 0.79873620E+02</rscale>
<asrwt>0</asrwt>
<pdfrwt beam="1">  1        2 0.72278376E-01 0.79873620E+02</pdfrwt>
<pdfrwt beam="2">  1       -1 0.52228993E-03 0.79873620E+02</pdfrwt>
<totfact> 0.29966188E+05</totfact>
</mgrwt>
</event>
<event>
 8    1  0.1600673E-013  0.7959893E+02  0.7818608E-02  0.1330193E+00
          2   -1    0    0  501    0  0.00000000000E+00  0.00000000000E+00  0.26789753132E+03  0.26789753133E+03  0.25500000000E-02 0. -1.
         -1   -1    0    0    0  501 -0.00000000000E+00 -0.00000000000E+00 -0.59126974736E+01  0.59126996216E+01  0.50400000000E-02 0.  1.
         24    2    1    2    0    0  0.35527136788E-14  0.35527136788E-14  0.26198483384E+03  0.27381023095E+03  0.79598928443E+02 0.  0.
         66    2    3    3    0    0 -0.20479318902E+02  0.23899689878E+02  0.21472781626E+03  0.21703140960E+03  0.19999997346E+01 0.  0.
        -13    1    3    3    0    0  0.20479318902E+02 -0.23899689878E+02  0.47257017587E+02  0.56778821352E+02  0.10566000000E+00 0.  1.
         13    1    4    4    0    0 -0.34984719297E+01  0.35978769072E+01  0.31825118405E+02  0.32218524944E+02  0.10566000000E+00 0. -1.
        -13    1    4    4    0    0 -0.14377485137E+01  0.20520930548E+01  0.19731790006E+02  0.19890523060E+02  0.10566000000E+00 0.  1.
        -14    1    4    4    0    0 -0.15543098458E+02  0.18249719916E+02  0.16317090785E+03  0.16492236159E+03  0.00000000000E+00 0.  1.
<mgrwt>
<rscale>  0 0.79598928E+02</rscale>
<asrwt>0</asrwt>
<pdfrwt beam="1">  1        2 0.41214985E-01 0.79598928E+02</pdfrwt>
<pdfrwt beam="2">  1       -1 0.90964637E-03 0.79598928E+02</pdfrwt>
<totfact> 0.24795565E+05</totfact>
</mgrwt>
</event>
<event>
 8    1  0.1600673E-013  0.7574180E+02  0.7818608E-02  0.1341589E+00
          2   -1    0    0  501    0  0.00000000000E+00  0.00000000000E+00  0.32170029335E+03  0.32170029336E+03  0.25500000000E-02 0. -1.
         -1   -1    0    0    0  501 -0.00000000000E+00 -0.00000000000E+00 -0.44582005343E+01  0.44582033832E+01  0.50400000000E-02 0.  1.
         24    2    1    2    0    0  0.00000000000E+00  0.00000000000E+00  0.31724209282E+03  0.32615849675E+03  0.75741795225E+02 0.  0.
         66    2    3    3    0    0 -0.85833946405E+01 -0.20176236461E+02  0.29155788998E+03  0.29238802709E+03  0.19999987812E+01 0.  0.
        -13    1    3    3    0    0  0.85833946405E+01  0.20176236461E+02  0.25684202839E+02  0.33770469656E+02  0.10566000000E+00 0.  1.
         13    1    4    4    0    0 -0.52556791364E+01 -0.11614423016E+02  0.16823822891E+03  0.16872056726E+03  0.10566000000E+00 0. -1.
        -13    1    4    4    0    0 -0.22900775231E+01 -0.65162812312E+01  0.85704719665E+02  0.85982652396E+02  0.10566000000E+00 0.  1.
         14    1    4    4    0    0 -0.10376379810E+01 -0.20455322131E+01  0.37614941405E+02  0.37684807437E+02  0.00000000000E+00 0. -1.
<mgrwt>
<rscale>  0 0.75741795E+02</rscale>
<asrwt>0</asrwt>
<pdfrwt beam="1">  1        2 0.49492362E-01 0.75741795E+02</pdfrwt>
<pdfrwt beam="2">  1       -1 0.68587710E-03 0.75741795E+02</pdfrwt>
<totfact> 0.30161962E+05</totfact>
</mgrwt>
</event>
<event>
 8    1  0.1600673E-013  0.8008987E+02  0.7818608E-02  0.1328797E+00
          2   -1    0    0  501    0  0.00000000000E+00  0.00000000000E+00  0.93104024586E+02  0.93104024621E+02  0.25500000000E-02 0. -1.
         -1   -1    0    0    0  501 -0.00000000000E+00 -0.00000000000E+00 -0.17223711631E+02  0.17223712369E+02  0.50400000000E-02 0.  1.
         24    2    1    2    0    0 -0.44408920985E-15 -0.35527136788E-14  0.75880312955E+02  0.11032773699E+03  0.80089872363E+02 0.  0.
         66    2    3    3    0    0  0.34978568244E+01  0.21419344961E+02  0.84282365519E+02  0.87054812973E+02  0.19999958527E+01 0.  0.
        -13    1    3    3    0    0 -0.34978568244E+01 -0.21419344961E+02 -0.84020525647E+01  0.23272924016E+02  0.10566000000E+00 0.  1.
         13    1    4    4    0    0  0.18846837842E+01  0.10532756727E+02  0.39907882887E+02  0.41317566213E+02  0.10566000000E+00 0. -1.
        -13    1    4    4    0    0  0.10432858723E+00  0.48316238406E+01  0.18537606799E+02  0.19157492092E+02  0.10566000000E+00 0.  1.
        -14    1    4    4    0    0  0.15088444530E+01  0.60549643934E+01  0.25836875834E+02  0.26579754669E+02  0.00000000000E+00 0.  1.
<mgrwt>
<rscale>  0 0.80089872E+02</rscale>
<asrwt>0</asrwt>
<pdfrwt beam="1">  1        2 0.14323696E-01 0.80089872E+02</pdfrwt>
<pdfrwt beam="2">  1       -1 0.26498019E-02 0.80089872E+02</pdfrwt>
<totfact> 0.17327204E+05</totfact>
</mgrwt>
</event>
<event>
 8    1  0.1600673E-013  0.8035282E+02  0.7818608E-02  0.1328053E+00
          2   -1    0    0  501    0  0.00000000000E+00  0.00000000000E+00  0.35675891780E+02  0.35675891871E+02  0.25500000000E-02 0. -1.
         -1   -1    0    0    0  501 -0.00000000000E+00 -0.00000000000E+00 -0.45244671880E+02  0.45244672160E+02  0.50400000000E-02 0.  1.
         24    2    1    2    0    0 -0.71054273576E-14  0.17763568394E-14 -0.95687800995E+01  0.80920564032E+02  0.80352822792E+02 0.  0.
         66    2    3    3    0    0 -0.38142247437E+02  0.11201156249E+02 -0.10470098587E+02  0.41157258335E+02  0.20000020868E+01 0.  0.
        -13    1    3    3    0    0  0.38142247437E+02 -0.11201156249E+02  0.90131848741E+00  0.39763305697E+02  0.10566000000E+00 0.  1.
         13    1    4    4    0    0 -0.23709456439E+02  0.74030093278E+01 -0.71414465199E+01  0.25844811746E+02  0.10566000000E+00 0. -1.
        -13    1    4    4    0    0 -0.14279037291E+02  0.37577184792E+01 -0.33759062179E+01  0.15146592387E+02  0.10566000000E+00 0.  1.
        -14    1    4    4    0    0 -0.15375370722E+00  0.40428442291E-01  0.47254150943E-01  0.16585420167E+00  0.00000000000E+00 0.  1.
<mgrwt>
<rscale>  0 0.80352823E+02</rscale>
<asrwt>0</asrwt>
<pdfrwt beam="1">  1        2 0.54885988E-02 0.80352823E+02</pdfrwt>
<pdfrwt beam="2">  1       -1 0.69607188E-02 0.80352823E+02</pdfrwt>
<totfact> 0.13758102E+05</totfact>
</mgrwt>
</event>
<event>
 8    1  0.1600673E-013  0.8154924E+02  0.7818608E-02  0.1324712E+00
          2   -1    0    0  501    0  0.00000000000E+00  0.00000000000E+00  0.14473338786E+04  0.14473338786E+04  0.25500000000E-02 0. -1.
         -1   -1    0    0    0  501 -0.00000000000E+00 -0.00000000000E+00 -0.11487063119E+01  0.11487173685E+01  0.50400000000E-02 0.  1.
         24    2    1    2    0    0  0.00000000000E+00  0.17763568394E-14  0.14461851723E+04  0.14484825960E+04  0.81549238405E+02 0.  0.
         66    2    3    3    0    0  0.11722591852E+01 -0.14191267598E+02  0.14017017943E+04  0.14017755478E+04  0.20000012959E+01 0.  0.
        -13    1    3    3    0    0 -0.11722591852E+01  0.14191267598E+02  0.44483378056E+02  0.46707048236E+02  0.10566000000E+00 0.  1.
         13    1    4    4    0    0  0.10620679499E+01 -0.11764775339E+02  0.10950825057E+04  0.10951462201E+04  0.10566000000E+00 0. -1.
        -13    1    4    4    0    0 -0.57137744421E-01 -0.52444452560E+00  0.90749210430E+02  0.90750805310E+02  0.10566000000E+00 0.  1.
         14    1    4    4    0    0  0.16732897979E+00 -0.19020477338E+01  0.21587007808E+03  0.21587852231E+03  0.00000000000E+00 0. -1.
<mgrwt>
<rscale>  0 0.81549238E+02</rscale>
<asrwt>0</asrwt>
<pdfrwt beam="1">  1        2 0.22266695E+00 0.81549238E+02</pdfrwt>
<pdfrwt beam="2">  1       -1 0.17672474E-03 0.81549238E+02</pdfrwt>
<totfact> 0.32032767E+05</totfact>
</mgrwt>
</event>
<event>
 8    1  0.1600673E-013  0.8015976E+02  0.7818608E-02  0.1328599E+00
          2   -1    0    0  501    0  0.00000000000E+00  0.00000000000E+00  0.23206692666E+03  0.23206692668E+03  0.25500000000E-02 0. -1.
         -1   -1    0    0    0  501 -0.00000000000E+00 -0.00000000000E+00 -0.69221269074E+01  0.69221287422E+01  0.50400000000E-02 0.  1.
         24    2    1    2    0    0  0.00000000000E+00  0.00000000000E+00  0.22514479975E+03  0.23898905542E+03  0.80159763929E+02 0.  0.
         66    2    3    3    0    0 -0.94863457653E+01 -0.73445297718E+01  0.22657967613E+03  0.22690588912E+03  0.20000023687E+01 0.  0.
        -13    1    3    3    0    0  0.94863457653E+01  0.73445297718E+01 -0.14348763734E+01  0.12083166298E+02  0.10566000000E+00 0.  1.
         13    1    4    4    0    0 -0.40165847828E+01 -0.32217486766E+01  0.90341098429E+02  0.90487777336E+02  0.10566000000E+00 0. -1.
        -13    1    4    4    0    0 -0.81891007055E+00 -0.59901478166E+00  0.12288689417E+02  0.12330956331E+02  0.10566000000E+00 0.  1.
         14    1    4    4    0    0 -0.46508509120E+01 -0.35237663136E+01  0.12394988828E+03  0.12408715545E+03  0.00000000000E+00 0. -1.
<mgrwt>
<rscale>  0 0.80159764E+02</rscale>
<asrwt>0</asrwt>
<pdfrwt beam="1">  1        2 0.35702603E-01 0.80159764E+02</pdfrwt>
<pdfrwt beam="2">  1       -1 0.10649428E-02 0.80159764E+02</pdfrwt>
<totfact> 0.23120928E+05</totfact>
</mgrwt>
</event>
<event>
 8    1  0.1600673E-013  0.7946984E+02  0.7818608E-02  0.1330563E+00
          2   -1    0    0  501    0  0.00000000000E+00  0.00000000000E+00  0.11903431154E+04  0.11903431155E+04  0.25500000000E-02 0. -1.
         -1   -1    0    0    0  501 -0.00000000000E+00 -0.00000000000E+00 -0.13263890068E+01  0.13263985822E+01  0.50400000000E-02 0.  1.
         24    2    1    2    0    0  0.17763568394E-14  0.17763568394E-14  0.11890167264E+04  0.11916695140E+04  0.79469836532E+02 0.  0.
         66    2    3    3    0    0  0.79236924510E+01  0.15436426255E+02  0.11304871140E+04  0.11306220337E+04  0.20000064284E+01 0.  0.
        -13    1    3    3    0    0 -0.79236924510E+01 -0.15436426255E+02  0.58529612437E+02  0.61047480322E+02  0.10566000000E+00 0.  1.
         13    1    4    4    0    0  0.44549373065E+01  0.80033178760E+01  0.59288659418E+03  0.59295735452E+03  0.10566000000E+00 0. -1.
        -13    1    4    4    0    0  0.27615572218E+01  0.44531996684E+01  0.34527522621E+03  0.34531500139E+03  0.10566000000E+00 0.  1.
        -14    1    4    4    0    0  0.70719792267E+00  0.29799087108E+01  0.19232529362E+03  0.19234967780E+03  0.00000000000E+00 0.  1.
<mgrwt>
<rscale>  0 0.79469837E+02</rscale>
<asrwt>0</asrwt>
<pdfrwt beam="1">  1        2 0.18313083E+00 0.79469837E+02</pdfrwt>
<pdfrwt beam="2">  1       -1 0.20405933E-03 0.79469837E+02</pdfrwt>
<totfact> 0.35678578E+05</totfact>
</mgrwt>
</event>
<event>
 8    1  0.1600673E-013  0.8163845E+02  0.7818608E-02  0.1324465E+00
         -1   -1    0    0    0  501 -0.00000000000E+00  0.00000000000E+00  0.84353719632E+01  0.84353734689E+01  0.50400000000E-02 0.  1.
          2   -1    0    0  501    0  0.00000000000E+00 -0.00000000000E+00 -0.19752641950E+03  0.19752641951E+03  0.25500000000E-02 0. -1.
         24    2    1    2    0    0  0.88817841970E-15  0.00000000000E+00 -0.18909104753E+03  0.20596179298E+03  0.81638446281E+02 0.  0.
         66    2    3    3    0    0 -0.69172536452E+01  0.39456666757E+02 -0.11406687016E+03  0.12091289349E+03  0.19999988756E+01 0.  0.
        -13    1    3    3    0    0  0.69172536452E+01 -0.39456666757E+02 -0.75024177378E+02  0.85048899492E+02  0.10566000000E+00 0.  1.
         13    1    4    4    0    0 -0.16475254353E+01  0.84517541494E+01 -0.23497662104E+02  0.25025942073E+02  0.10566000000E+00 0. -1.
        -13    1    4    4    0    0 -0.14545549215E+01  0.52911766119E+01 -0.16432767147E+02  0.17325105486E+02  0.10566000000E+00 0.  1.
         14    1    4    4    0    0 -0.38151732884E+01  0.25713735995E+02 -0.74136440906E+02  0.78561845932E+02  0.00000000000E+00 0. -1.
<mgrwt>
<rscale>  0 0.81638446E+02</rscale>
<asrwt>0</asrwt>
<pdfrwt beam="1">  1        2 0.30388676E-01 0.81638446E+02</pdfrwt>
<pdfrwt beam="2">  1       -1 0.12977498E-02 0.81638446E+02</pdfrwt>
<totfact> 0.20818052E+05</totfact>
</mgrwt>
</event>
<event>
 8    1  0.1600673E-013  0.8326710E+02  0.7818608E-02  0.1320027E+00
         -1   -1    0    0    0  501 -0.00000000000E+00  0.00000000000E+00  0.17256637684E+01  0.17256711284E+01  0.50400000000E-02 0.  1.
          2   -1    0    0  501    0  0.00000000000E+00 -0.00000000000E+00 -0.10044533492E+04  0.10044533492E+04  0.25500000000E-02 0. -1.
         24    2    1    2    0    0  0.00000000000E+00 -0.35527136788E-14 -0.10027276854E+04  0.10061790203E+04  0.83267099292E+02 0.  0.
         66    2    3    3    0    0  0.16626576093E+02 -0.26317958791E+02 -0.83527535663E+03  0.83585764301E+03  0.19999996305E+01 0.  0.
        -13    1    3    3    0    0 -0.16626576093E+02  0.26317958791E+02 -0.16745232882E+03  0.17032137734E+03  0.10566000000E+00 0.  1.
         13    1    4    4    0    0  0.33827954582E+01 -0.51702106268E+01 -0.15763493748E+03  0.15775601117E+03  0.10566000000E+00 0.  1.
        -13    1    4    4    0    0  0.76813850524E+01 -0.10738377079E+02 -0.35848006726E+03  0.35872313308E+03  0.10566000000E+00 0. -1.
        -14    1    4    4    0    0  0.55623955821E+01 -0.10409371085E+02 -0.31916035188E+03  0.31937849875E+03  0.00000000000E+00 0.  1.
<mgrwt>
<rscale>  0 0.83267099E+02</rscale>
<asrwt>0</asrwt>
<pdfrwt beam="1">  1        2 0.15453082E+00 0.83267099E+02</pdfrwt>
<pdfrwt beam="2">  1       -1 0.26548810E-03 0.83267099E+02</pdfrwt>
<totfact> 0.31752818E+05</totfact>
</mgrwt>
</event>
<event>
 8    1  0.1600673E-013  0.8027284E+02  0.7818608E-02  0.1328279E+00
          2   -1    0    0  501    0  0.00000000000E+00  0.00000000000E+00  0.17765146615E+03  0.17765146617E+03  0.25500000000E-02 0. -1.
         -1   -1    0    0    0  501 -0.00000000000E+00 -0.00000000000E+00 -0.90679363481E+01  0.90679377487E+01  0.50400000000E-02 0.  1.
         24    2    1    2    0    0  0.00000000000E+00  0.35527136788E-14  0.16858352980E+03  0.18671940392E+03  0.80272842722E+02 0.  0.
         66    2    3    3    0    0  0.20128870929E+01  0.27491878404E+02  0.15212262832E+03  0.15461290093E+03  0.19999983396E+01 0.  0.
        -13    1    3    3    0    0 -0.20128870929E+01 -0.27491878404E+02  0.16460901482E+02  0.32106502990E+02  0.10566000000E+00 0.  1.
         13    1    4    4    0    0 -0.26998785713E+00  0.35692838251E+01  0.19115828771E+02  0.19448361219E+02  0.10566000000E+00 0. -1.
        -13    1    4    4    0    0  0.13302714742E+01  0.86156369630E+01  0.48374338869E+02  0.49153704311E+02  0.10566000000E+00 0.  1.
         14    1    4    4    0    0  0.95260347590E+00  0.15306957616E+02  0.84632460680E+02  0.86010835397E+02  0.00000000000E+00 0. -1.
<mgrwt>
<rscale>  0 0.80272843E+02</rscale>
<asrwt>0</asrwt>
<pdfrwt beam="1">  1        2 0.27330992E-01 0.80272843E+02</pdfrwt>
<pdfrwt beam="2">  1       -1 0.13950674E-02 0.80272843E+02</pdfrwt>
<totfact> 0.20990037E+05</totfact>
</mgrwt>
</event>
<event>
 8    1  0.1600673E-013  0.7938422E+02  0.7818608E-02  0.1330808E+00
          2   -1    0    0  501    0  0.00000000000E+00  0.00000000000E+00  0.97232162949E+01  0.97232166293E+01  0.25500000000E-02 0. -1.
         -1   -1    0    0    0  501 -0.00000000000E+00 -0.00000000000E+00 -0.16203111961E+03  0.16203111969E+03  0.50400000000E-02 0.  1.
         24    2    1    2    0    0  0.00000000000E+00  0.00000000000E+00 -0.15230790331E+03  0.17175433632E+03  0.79384221553E+02 0.  0.
         66    2    3    3    0    0 -0.35128327187E+02 -0.83885900653E+01 -0.11169354522E+03  0.11740449674E+03  0.19999993173E+01 0.  0.
        -13    1    3    3    0    0  0.35128327187E+02  0.83885900653E+01 -0.40614358090E+02  0.54349839571E+02  0.10566000000E+00 0.  1.
         13    1    4    4    0    0 -0.45658568637E+00 -0.21563856645E-01 -0.15141695887E+01  0.15851842378E+01  0.10566000000E+00 0.  1.
        -13    1    4    4    0    0 -0.48066874129E+01 -0.76758397529E+00 -0.13867180253E+02  0.14697050087E+02  0.10566000000E+00 0.  1.
         14    1    4    4    0    0 -0.29865054088E+02 -0.75994422333E+01 -0.96312195380E+02  0.10112226242E+03  0.00000000000E+00 0. -1.
<mgrwt>
<rscale>  0 0.79384222E+02</rscale>
<asrwt>0</asrwt>
<pdfrwt beam="1">  1        2 0.14958796E-02 0.79384222E+02</pdfrwt>
<pdfrwt beam="2">  1       -1 0.24927863E-01 0.79384222E+02</pdfrwt>
<totfact> 0.10781760E+05</totfact>
</mgrwt>
</event>
<event>
 8    1  0.1600673E-013  0.7999394E+02  0.7818608E-02  0.1329069E+00
          2   -1    0    0  501    0  0.00000000000E+00  0.00000000000E+00  0.62917698803E+03  0.62917698803E+03  0.25500000000E-02 0. -1.
         -1   -1    0    0    0  501 -0.00000000000E+00 -0.00000000000E+00 -0.25426169517E+01  0.25426219469E+01  0.50400000000E-02 0.  1.
         24    2    1    2    0    0 -0.35527136788E-14  0.00000000000E+00  0.62663437108E+03  0.63171960998E+03  0.79993941141E+02 0.  0.
         66    2    3    3    0    0  0.18833637270E+02 -0.15116219428E+02  0.56505030984E+03  0.56556967616E+03  0.19999883579E+01 0.  0.
        -13    1    3    3    0    0 -0.18833637270E+02  0.15116219428E+02  0.61584061234E+02  0.66149933822E+02  0.10566000000E+00 0.  1.
         13    1    4    4    0    0  0.40594281318E+01 -0.32676274765E+01  0.10859716851E+03  0.10872218044E+03  0.10566000000E+00 0. -1.
        -13    1    4    4    0    0  0.57331024532E+01 -0.53209390770E+01  0.18350634823E+03  0.18367300254E+03  0.10566000000E+00 0.  1.
         14    1    4    4    0    0  0.90411066854E+01 -0.65276528742E+01  0.27294679310E+03  0.27317449319E+03  0.00000000000E+00 0. -1.
<mgrwt>
<rscale>  0 0.79993941E+02</rscale>
<asrwt>0</asrwt>
<pdfrwt beam="1">  1        2 0.96796627E-01 0.79993941E+02</pdfrwt>
<pdfrwt beam="2">  1       -1 0.39117155E-03 0.79993941E+02</pdfrwt>
<totfact> 0.32587324E+05</totfact>
</mgrwt>
</event>
<event>
 8    1  0.1600673E-013  0.8051597E+02  0.7818608E-02  0.1327594E+00
          2   -1    0    0  501    0  0.00000000000E+00  0.00000000000E+00  0.17475296083E+03  0.17475296085E+03  0.25500000000E-02 0. -1.
         -1   -1    0    0    0  501 -0.00000000000E+00 -0.00000000000E+00 -0.92742652377E+01  0.92742666072E+01  0.50400000000E-02 0.  1.
         24    2    1    2    0    0 -0.35527136788E-14  0.00000000000E+00  0.16547869559E+03  0.18402722745E+03  0.80515972018E+02 0.  0.
         66    2    3    3    0    0 -0.19247048288E+02 -0.19437473863E+02  0.15022264134E+03  0.15270594694E+03  0.20000001080E+01 0.  0.
        -13    1    3    3    0    0  0.19247048288E+02  0.19437473863E+02  0.15256054250E+02  0.31321280518E+02  0.10566000000E+00 0.  1.
         13    1    4    4    0    0 -0.53901984323E+01 -0.60116404372E+01  0.41712550483E+02  0.42486963786E+02  0.10566000000E+00 0. -1.
        -13    1    4    4    0    0 -0.12798117859E+02 -0.12195689713E+02  0.97478934572E+02  0.99069069430E+02  0.10566000000E+00 0.  1.
         14    1    4    4    0    0 -0.10587319966E+01 -0.12301437122E+01  0.11031156285E+02  0.11149913720E+02  0.00000000000E+00 0. -1.
<mgrwt>
<rscale>  0 0.80515972E+02</rscale>
<asrwt>0</asrwt>
<pdfrwt beam="1">  1        2 0.26885070E-01 0.80515972E+02</pdfrwt>
<pdfrwt beam="2">  1       -1 0.14268102E-02 0.80515972E+02</pdfrwt>
<totfact> 0.20707518E+05</totfact>
</mgrwt>
</event>
<event>
 8    1  0.1600673E-013  0.8262367E+02  0.7818608E-02  0.1321767E+00
          2   -1    0    0  501    0  0.00000000000E+00  0.00000000000E+00  0.77357508587E+01  0.77357512790E+01  0.25500000000E-02 0. -1.
         -1   -1    0    0    0  501 -0.00000000000E+00 -0.00000000000E+00 -0.22062079173E+03  0.22062079179E+03  0.50400000000E-02 0.  1.
         24    2    1    2    0    0  0.00000000000E+00 -0.71054273576E-14 -0.21288504087E+03  0.22835654306E+03  0.82623665705E+02 0.  0.
         66    2    3    3    0    0  0.14035518356E+02 -0.37187280829E+02 -0.75632403872E+02  0.85464320891E+02  0.19999997342E+01 0.  0.
        -13    1    3    3    0    0 -0.14035518356E+02  0.37187280829E+02 -0.13725263700E+03  0.14289222217E+03  0.10566000000E+00 0.  1.
         13    1    4    4    0    0  0.29124818595E+01 -0.92297187125E+01 -0.19232843326E+02  0.21530993580E+02  0.10566000000E+00 0. -1.
        -13    1    4    4    0    0  0.51421171178E+00 -0.16062588551E+01 -0.27611534763E+01  0.32372231542E+01  0.10566000000E+00 0.  1.
         14    1    4    4    0    0  0.10608824785E+02 -0.26351303261E+02 -0.53638407070E+02  0.60696104157E+02  0.00000000000E+00 0. -1.
<mgrwt>
<rscale>  0 0.82623666E+02</rscale>
<asrwt>0</asrwt>
<pdfrwt beam="1">  1        2 0.11901157E-02 0.82623666E+02</pdfrwt>
<pdfrwt beam="2">  1       -1 0.33941656E-01 0.82623666E+02</pdfrwt>
<totfact> 0.88958952E+04</totfact>
</mgrwt>
</event>
<event>
 8    1  0.1600673E-013  0.7993917E+02  0.7818608E-02  0.1329224E+00
         -1   -1    0    0    0  501 -0.00000000000E+00  0.00000000000E+00  0.14552713283E+03  0.14552713292E+03  0.50400000000E-02 0.  1.
          2   -1    0    0  501    0  0.00000000000E+00 -0.00000000000E+00 -0.10977800437E+02  0.10977800734E+02  0.25500000000E-02 0. -1.
         24    2    1    2    0    0  0.35527136788E-14  0.71054273576E-14  0.13454933239E+03  0.15650493365E+03  0.79939173187E+02 0.  0.
         66    2    3    3    0    0 -0.20742047882E+02 -0.31621792143E+02  0.42138358266E+02  0.56655198590E+02  0.20000003025E+01 0.  0.
        -13    1    3    3    0    0  0.20742047882E+02  0.31621792143E+02  0.92410974128E+02  0.99849735062E+02  0.10566000000E+00 0.  1.
         13    1    4    4    0    0 -0.11428551086E+02 -0.16323502559E+02  0.23126077242E+02  0.30526957404E+02  0.10566000000E+00 0. -1.
        -13    1    4    4    0    0 -0.50510631362E+01 -0.79730210308E+01  0.96155614725E+01  0.13474141517E+02  0.10566000000E+00 0.  1.
         14    1    4    4    0    0 -0.42624336595E+01 -0.73252685535E+01  0.93967195514E+01  0.12654099668E+02  0.00000000000E+00 0. -1.
<mgrwt>
<rscale>  0 0.79939173E+02</rscale>
<asrwt>0</asrwt>
<pdfrwt beam="1">  1        2 0.16888923E-02 0.79939173E+02</pdfrwt>
<pdfrwt beam="2">  1       -1 0.22388791E-01 0.79939173E+02</pdfrwt>
<totfact> 0.10891072E+05</totfact>
</mgrwt>
</event>
<event>
 8    1  0.1600673E-013  0.7926601E+02  0.7818608E-02  0.1331147E+00
          2   -1    0    0  501    0  0.00000000000E+00  0.00000000000E+00  0.38744194345E+03  0.38744194346E+03  0.25500000000E-02 0. -1.
         -1   -1    0    0    0  501 -0.00000000000E+00 -0.00000000000E+00 -0.40542188429E+01  0.40542219756E+01  0.50400000000E-02 0.  1.
         24    2    1    2    0    0  0.00000000000E+00  0.35527136788E-14  0.38338772461E+03  0.39149616544E+03  0.79266008920E+02 0.  0.
         66    2    3    3    0    0 -0.54345574683E+01 -0.23345507897E+02  0.34754919081E+03  0.34838052068E+03  0.20000006377E+01 0.  0.
        -13    1    3    3    0    0  0.54345574683E+01  0.23345507897E+02  0.35838533798E+02  0.43115644755E+02  0.10566000000E+00 0.  1.
         13    1    4    4    0    0 -0.62838507366E+00 -0.38338464293E+01  0.48115902780E+02  0.48272606213E+02  0.10566000000E+00 0. -1.
        -13    1    4    4    0    0 -0.34492096842E+00 -0.19512114167E+01  0.27013413641E+02  0.27086193476E+02  0.10566000000E+00 0. -1.
         14    1    4    4    0    0 -0.44612514263E+01 -0.17560450051E+02  0.27241987439E+03  0.27302172099E+03  0.00000000000E+00 0. -1.
<mgrwt>
<rscale>  0 0.79266009E+02</rscale>
<asrwt>0</asrwt>
<pdfrwt beam="1">  1        2 0.59606433E-01 0.79266009E+02</pdfrwt>
<pdfrwt beam="2">  1       -1 0.62372642E-03 0.79266009E+02</pdfrwt>
<totfact> 0.28619839E+05</totfact>
</mgrwt>
</event>
<event>
 8    1  0.1600673E-013  0.7762915E+02  0.7818608E-02  0.1335917E+00
          2   -1    0    0  501    0  0.00000000000E+00  0.00000000000E+00  0.83778669215E+02  0.83778669254E+02  0.25500000000E-02 0. -1.
         -1   -1    0    0    0  501 -0.00000000000E+00 -0.00000000000E+00 -0.17982753704E+02  0.17982754410E+02  0.50400000000E-02 0.  1.
         24    2    1    2    0    0  0.17763568394E-14  0.00000000000E+00  0.65795915511E+02  0.10176142366E+03  0.77629149474E+02 0.  0.
         66    2    3    3    0    0 -0.15744978641E+02 -0.20393275276E+02  0.70929794137E+02  0.75490567136E+02  0.20000003226E+01 0.  0.
        -13    1    3    3    0    0  0.15744978641E+02  0.20393275276E+02 -0.51338786261E+01  0.26270856527E+02  0.10566000000E+00 0.  1.
         13    1    4    4    0    0 -0.20849656719E+01 -0.24389302871E+01  0.78503873909E+01  0.84814626699E+01  0.10566000000E+00 0. -1.
        -13    1    4    4    0    0 -0.34712890395E+01 -0.38815665552E+01  0.13195527858E+02  0.14186244253E+02  0.10566000000E+00 0.  1.
         14    1    4    4    0    0 -0.10188723930E+02 -0.14072778434E+02  0.49883878888E+02  0.52822860213E+02  0.00000000000E+00 0. -1.
<mgrwt>
<rscale>  0 0.77629149E+02</rscale>
<asrwt>0</asrwt>
<pdfrwt beam="1">  1        2 0.12889026E-01 0.77629149E+02</pdfrwt>
<pdfrwt beam="2">  1       -1 0.27665776E-02 0.77629149E+02</pdfrwt>
<totfact> 0.18319016E+05</totfact>
</mgrwt>
</event>
<event>
 8    1  0.1600673E-013  0.7937148E+02  0.7818608E-02  0.1330845E+00
          2   -1    0    0  501    0  0.00000000000E+00  0.00000000000E+00  0.47789663779E+03  0.47789663780E+03  0.25500000000E-02 0. -1.
         -1   -1    0    0    0  501 -0.00000000000E+00 -0.00000000000E+00 -0.32956019343E+01  0.32956057882E+01  0.50400000000E-02 0.  1.
         24    2    1    2    0    0  0.17763568394E-14  0.00000000000E+00  0.47460103586E+03  0.48119224358E+03  0.79371481346E+02 0.  0.
         66    2    3    3    0    0 -0.11957681692E+02  0.32578530584E+02  0.35384607914E+03  0.35554942627E+03  0.19999985920E+01 0.  0.
        -13    1    3    3    0    0  0.11957681692E+02 -0.32578530584E+02  0.12075495672E+03  0.12564281731E+03  0.10566000000E+00 0.  1.
         13    1    4    4    0    0 -0.41295549570E+01  0.12115466253E+02  0.12546886338E+03  0.12612011968E+03  0.10566000000E+00 0. -1.
        -13    1    4    4    0    0 -0.10581713705E+01  0.39094279198E+01  0.39477352317E+02  0.39684705660E+02  0.10566000000E+00 0.  1.
         14    1    4    4    0    0 -0.67699553648E+01  0.16553636412E+02  0.18889986344E+03  0.18974460093E+03  0.00000000000E+00 0. -1.
<mgrwt>
<rscale>  0 0.79371481E+02</rscale>
<asrwt>0</asrwt>
<pdfrwt beam="1">  1        2 0.73522543E-01 0.79371481E+02</pdfrwt>
<pdfrwt beam="2">  1       -1 0.50701609E-03 0.79371481E+02</pdfrwt>
<totfact> 0.30633682E+05</totfact>
</mgrwt>
</event>
<event>
 8    1  0.1600673E-013  0.8097018E+02  0.7818608E-02  0.1326321E+00
          2   -1    0    0  501    0  0.00000000000E+00  0.00000000000E+00  0.10263382765E+03  0.10263382769E+03  0.25500000000E-02 0. -1.
         -1   -1    0    0    0  501 -0.00000000000E+00 -0.00000000000E+00 -0.15969809158E+02  0.15969809953E+02  0.50400000000E-02 0.  1.
         24    2    1    2    0    0  0.00000000000E+00  0.00000000000E+00  0.86664018497E+02  0.11860363764E+03  0.80970184384E+02 0.  0.
         66    2    3    3    0    0  0.20611157972E+01  0.40193409178E+02  0.49447247679E+02  0.63787056809E+02  0.19999934173E+01 0.  0.
        -13    1    3    3    0    0 -0.20611157972E+01 -0.40193409178E+02  0.37216770818E+02  0.54816580830E+02  0.10566000000E+00 0.  1.
         13    1    4    4    0    0  0.69740547732E+00  0.48746292016E+01  0.64215635302E+01  0.80929615383E+01  0.10566000000E+00 0. -1.
        -13    1    4    4    0    0  0.10454279529E+01  0.33576623145E+02  0.40898646452E+02  0.52926297689E+02  0.10566000000E+00 0.  1.
        -14    1    4    4    0    0  0.31828236699E+00  0.17421568314E+01  0.21270376968E+01  0.27677975818E+01  0.00000000000E+00 0.  1.
<mgrwt>
<rscale>  0 0.80970184E+02</rscale>
<asrwt>0</asrwt>
<pdfrwt beam="1">  1        2 0.15789819E-01 0.80970184E+02</pdfrwt>
<pdfrwt beam="2">  1       -1 0.24568939E-02 0.80970184E+02</pdfrwt>
<totfact> 0.17288520E+05</totfact>
</mgrwt>
</event>
<event>
 8    1  0.1600673E-013  0.7946671E+02  0.7818608E-02  0.1330572E+00
         -1   -1    0    0    0  501 -0.00000000000E+00  0.00000000000E+00  0.38874156853E+02  0.38874157179E+02  0.50400000000E-02 0.  1.
          2   -1    0    0  501    0  0.00000000000E+00 -0.00000000000E+00 -0.40611546933E+02  0.40611547013E+02  0.25500000000E-02 0. -1.
         24    2    1    2    0    0 -0.71054273576E-14  0.00000000000E+00 -0.17373900806E+01  0.79485704193E+02  0.79466714080E+02 0.  0.
         66    2    3    3    0    0 -0.33175220353E+02 -0.17840872500E+02 -0.13435793628E+02  0.40042633995E+02  0.20000024479E+01 0.  0.
        -13    1    3    3    0    0  0.33175220353E+02  0.17840872500E+02  0.11698403548E+02  0.39443070198E+02  0.10566000000E+00 0.  1.
         13    1    4    4    0    0 -0.71741970051E+01 -0.44124730526E+01 -0.34278856664E+01  0.90939862154E+01  0.10566000000E+00 0. -1.
        -13    1    4    4    0    0 -0.11815005715E+02 -0.63193933029E+01 -0.40275902051E+01  0.13991488078E+02  0.10566000000E+00 0.  1.
         14    1    4    4    0    0 -0.14186017633E+02 -0.71090061446E+01 -0.59803177569E+01  0.16957159701E+02  0.00000000000E+00 0. -1.
<mgrwt>
<rscale>  0 0.79466714E+02</rscale>
<asrwt>0</asrwt>
<pdfrwt beam="1">  1        2 0.62479303E-02 0.79466714E+02</pdfrwt>
<pdfrwt beam="2">  1       -1 0.59806395E-02 0.79466714E+02</pdfrwt>
<totfact> 0.14566367E+05</totfact>
</mgrwt>
</event>
<event>
 8    1  0.1600673E-013  0.7770116E+02  0.7818608E-02  0.1335705E+00
         -1   -1    0    0    0  501 -0.00000000000E+00  0.00000000000E+00  0.82824879347E+00  0.82826412785E+00  0.50400000000E-02 0.  1.
          2   -1    0    0  501    0  0.00000000000E+00 -0.00000000000E+00 -0.18223433955E+04  0.18223433955E+04  0.25500000000E-02 0. -1.
         24    2    1    2    0    0  0.17763568394E-14  0.88817841970E-15 -0.18215151467E+04  0.18231716596E+04  0.77701163411E+02 0.  0.
         66    2    3    3    0    0 -0.89849863836E+01 -0.62055908376E+01 -0.17855658975E+04  0.17856004071E+04  0.19999988036E+01 0.  0.
        -13    1    3    3    0    0  0.89849863836E+01  0.62055908376E+01 -0.35949249180E+02  0.37571252555E+02  0.10566000000E+00 0.  1.
         13    1    4    4    0    0 -0.15831293278E+00  0.21265067868E-01 -0.43136889000E+02  0.43137314147E+02  0.10566000000E+00 0.  1.
        -13    1    4    4    0    0 -0.27676964404E+01 -0.14172899652E+01 -0.57991623997E+03  0.57992458596E+03  0.10566000000E+00 0. -1.
        -14    1    4    4    0    0 -0.60589770104E+01 -0.48095659403E+01 -0.11625127686E+04  0.11625385070E+04  0.00000000000E+00 0.  1.
<mgrwt>
<rscale>  0 0.77701163E+02</rscale>
<asrwt>0</asrwt>
<pdfrwt beam="1">  1        2 0.28035731E+00 0.77701163E+02</pdfrwt>
<pdfrwt beam="2">  1       -1 0.12742553E-03 0.77701163E+02</pdfrwt>
<totfact> 0.32317658E+05</totfact>
</mgrwt>
</event>
<event>
 8    1  0.1600673E-013  0.7984843E+02  0.7818608E-02  0.1329482E+00
         -1   -1    0    0    0  501 -0.00000000000E+00  0.00000000000E+00  0.37972475789E+03  0.37972475792E+03  0.50400000000E-02 0.  1.
          2   -1    0    0  501    0  0.00000000000E+00 -0.00000000000E+00 -0.41976267359E+01  0.41976275104E+01  0.25500000000E-02 0. -1.
         24    2    1    2    0    0  0.00000000000E+00  0.35527136788E-14  0.37552713115E+03  0.38392238543E+03  0.79848430194E+02 0.  0.
         66    2    3    3    0    0 -0.36998968915E+02 -0.14461508502E+02  0.16996849596E+03  0.17456044382E+03  0.19999998117E+01 0.  0.
        -13    1    3    3    0    0  0.36998968915E+02  0.14461508502E+02  0.20555863519E+03  0.20936194161E+03  0.10566000000E+00 0.  1.
         13    1    4    4    0    0 -0.68363547787E+01 -0.24212448764E+01  0.33628832298E+02  0.34402146723E+02  0.10566000000E+00 0.  1.
        -13    1    4    4    0    0 -0.15622564617E+02 -0.60557132233E+01  0.72444929308E+02  0.74357347548E+02  0.10566000000E+00 0. -1.
         14    1    4    4    0    0 -0.14540049519E+02 -0.59845504023E+01  0.63894734355E+02  0.65800949551E+02  0.00000000000E+00 0. -1.
<mgrwt>
<rscale>  0 0.79848430E+02</rscale>
<asrwt>0</asrwt>
<pdfrwt beam="1">  1        2 0.64578869E-03 0.79848430E+02</pdfrwt>
<pdfrwt beam="2">  1       -1 0.58419203E-01 0.79848430E+02</pdfrwt>
<totfact> 0.78188478E+04</totfact>
</mgrwt>
</event>
<event>
 8    1  0.1600673E-013  0.8320397E+02  0.7818608E-02  0.1320197E+00
         -1   -1    0    0    0  501 -0.00000000000E+00  0.00000000000E+00  0.26164828403E+01  0.26164876945E+01  0.50400000000E-02 0.  1.
          2   -1    0    0  501    0  0.00000000000E+00 -0.00000000000E+00 -0.66146940332E+03  0.66146940333E+03  0.25500000000E-02 0. -1.
         24    2    1    2    0    0 -0.88817841970E-15 -0.71054273576E-14 -0.65885292048E+03  0.66408589102E+03  0.83203965209E+02 0.  0.
         66    2    3    3    0    0 -0.78432176159E+01 -0.35089169120E+02 -0.49626446257E+03  0.49756927425E+03  0.20000029848E+01 0.  0.
        -13    1    3    3    0    0  0.78432176159E+01  0.35089169120E+02 -0.16258845791E+03  0.16651661677E+03  0.10566000000E+00 0.  1.
         13    1    4    4    0    0 -0.13471731864E+01 -0.76895984627E+01 -0.11124710506E+03  0.11152073506E+03  0.10566000000E+00 0. -1.
        -13    1    4    4    0    0 -0.19483767903E+01 -0.99627014957E+01 -0.13095194463E+03  0.13134486880E+03  0.10566000000E+00 0.  1.
         14    1    4    4    0    0 -0.45476676392E+01 -0.17436869162E+02 -0.25406541289E+03  0.25470367040E+03  0.00000000000E+00 0. -1.
<mgrwt>
<rscale>  0 0.83203965E+02</rscale>
<asrwt>0</asrwt>
<pdfrwt beam="1">  1        2 0.10176439E+00 0.83203965E+02</pdfrwt>
<pdfrwt beam="2">  1       -1 0.40253672E-03 0.83203965E+02</pdfrwt>
<totfact> 0.29792671E+05</totfact>
</mgrwt>
</event>
<event>
 8    1  0.1600673E-013  0.7950172E+02  0.7818608E-02  0.1330471E+00
          2   -1    0    0  501    0  0.00000000000E+00  0.00000000000E+00  0.14508559142E+02  0.14508559366E+02  0.25500000000E-02 0. -1.
         -1   -1    0    0    0  501 -0.00000000000E+00 -0.00000000000E+00 -0.10891024005E+03  0.10891024017E+03  0.50400000000E-02 0.  1.
         24    2    1    2    0    0  0.00000000000E+00  0.00000000000E+00 -0.94401680909E+02  0.12341879953E+03  0.79501715200E+02 0.  0.
         66    2    3    3    0    0 -0.33469490656E+02 -0.42172903460E+01 -0.14662187255E+02  0.36837101959E+02  0.20000007523E+01 0.  0.
        -13    1    3    3    0    0  0.33469490656E+02  0.42172903460E+01 -0.79739493654E+02  0.86581697574E+02  0.10566000000E+00 0.  1.
         13    1    4    4    0    0 -0.31476543373E+02 -0.38346763707E+01 -0.13711711086E+02  0.34547065150E+02  0.10566000000E+00 0. -1.
        -13    1    4    4    0    0 -0.92983837225E+00 -0.23893815549E+00 -0.68737788319E+00  0.11854717333E+01  0.10566000000E+00 0.  1.
         14    1    4    4    0    0 -0.10631089109E+01 -0.14367581979E+00 -0.26309828627E+00  0.11045650754E+01  0.00000000000E+00 0. -1.
<mgrwt>
<rscale>  0 0.79501715E+02</rscale>
<asrwt>0</asrwt>
<pdfrwt beam="1">  1        2 0.22320861E-02 0.79501715E+02</pdfrwt>
<pdfrwt beam="2">  1       -1 0.16755421E-01 0.79501715E+02</pdfrwt>
<totfact> 0.11818416E+05</totfact>
</mgrwt>
</event>
<event>
 8    1  0.1600673E-013  0.7798029E+02  0.7818608E-02  0.1334883E+00
          2   -1    0    0  501    0  0.00000000000E+00  0.00000000000E+00  0.28853526829E+02  0.28853526941E+02  0.25500000000E-02 0. -1.
         -1   -1    0    0    0  501 -0.00000000000E+00 -0.00000000000E+00 -0.52687884666E+02  0.52687884908E+02  0.50400000000E-02 0.  1.
         24    2    1    2    0    0  0.35527136788E-14 -0.35527136788E-14 -0.23834357838E+02  0.81541411849E+02  0.77980287463E+02 0.  0.
         66    2    3    3    0    0  0.20618082967E+02 -0.30603040276E+02 -0.25009418351E+02  0.44621994862E+02  0.19999999693E+01 0.  0.
        -13    1    3    3    0    0 -0.20618082967E+02  0.30603040276E+02  0.11750605127E+01  0.36919416986E+02  0.10566000000E+00 0.  1.
         13    1    4    4    0    0  0.49707842492E+01 -0.70175262616E+01 -0.59736182936E+01  0.10471372901E+02  0.10566000000E+00 0. -1.
        -13    1    4    4    0    0  0.99977907470E+01 -0.14698961456E+02 -0.12883874897E+02  0.21954969462E+02  0.10566000000E+00 0.  1.
         14    1    4    4    0    0  0.56495079709E+01 -0.88865525588E+01 -0.61519251601E+01  0.12195652499E+02  0.00000000000E+00 0. -1.
<mgrwt>
<rscale>  0 0.77980287E+02</rscale>
<asrwt>0</asrwt>
<pdfrwt beam="1">  1        2 0.44390041E-02 0.77980287E+02</pdfrwt>
<pdfrwt beam="2">  1       -1 0.81058285E-02 0.77980287E+02</pdfrwt>
<totfact> 0.14344177E+05</totfact>
</mgrwt>
</event>
<event>
 8    1  0.1600673E-013  0.7697714E+02  0.7818608E-02  0.1337856E+00
         -1   -1    0    0    0  501 -0.00000000000E+00  0.00000000000E+00  0.23562422826E+02  0.23562423365E+02  0.50400000000E-02 0.  1.
          2   -1    0    0  501    0  0.00000000000E+00 -0.00000000000E+00 -0.62870015442E+02  0.62870015493E+02  0.25500000000E-02 0. -1.
         24    2    1    2    0    0  0.00000000000E+00  0.35527136788E-14 -0.39307592616E+02  0.86432438858E+02  0.76977137188E+02 0.  0.
         66    2    3    3    0    0  0.20949674013E+02  0.20539269462E+02 -0.47594078052E+02  0.55945926493E+02  0.19999985435E+01 0.  0.
        -13    1    3    3    0    0 -0.20949674013E+02 -0.20539269462E+02  0.82864854365E+01  0.30486512365E+02  0.10566000000E+00 0.  1.
         13    1    4    4    0    0  0.52029702803E+01  0.44147169183E+01 -0.11818767110E+02  0.13647528906E+02  0.10566000000E+00 0. -1.
        -13    1    4    4    0    0  0.11253601530E+02  0.10808850334E+02 -0.25057295292E+02  0.29518706007E+02  0.10566000000E+00 0.  1.
        -14    1    4    4    0    0  0.44931022026E+01  0.53157022099E+01 -0.10718015650E+02  0.12779691580E+02  0.00000000000E+00 0.  1.
<mgrwt>
<rscale>  0 0.76977137E+02</rscale>
<asrwt>0</asrwt>
<pdfrwt beam="1">  1        2 0.96723100E-02 0.76977137E+02</pdfrwt>
<pdfrwt beam="2">  1       -1 0.36249882E-02 0.76977137E+02</pdfrwt>
<totfact> 0.17467521E+05</totfact>
</mgrwt>
</event>
<event>
 8    1  0.1600673E-013  0.7714222E+02  0.7818608E-02  0.1337363E+00
         -1   -1    0    0    0  501 -0.00000000000E+00  0.00000000000E+00  0.88771260941E+02  0.88771261084E+02  0.50400000000E-02 0.  1.
          2   -1    0    0  501    0  0.00000000000E+00 -0.00000000000E+00 -0.16759146657E+02  0.16759146851E+02  0.25500000000E-02 0. -1.
         24    2    1    2    0    0  0.35527136788E-14  0.17763568394E-14  0.72012114284E+02  0.10553040794E+03  0.77142221872E+02 0.  0.
         66    2    3    3    0    0  0.25503042611E+02 -0.11871477266E+02 -0.18270560290E-01  0.28201728522E+02  0.20000007251E+01 0.  0.
        -13    1    3    3    0    0 -0.25503042611E+02  0.11871477266E+02  0.72030384845E+02  0.77328679413E+02  0.10566000000E+00 0.  1.
         13    1    4    4    0    0  0.18678935504E+01 -0.87580748936E+00 -0.38822366738E+00  0.21018912259E+01  0.10566000000E+00 0. -1.
        -13    1    4    4    0    0  0.37545832213E+01 -0.12841187673E+01 -0.56868942227E-01  0.39699186750E+01  0.10566000000E+00 0. -1.
         14    1    4    4    0    0  0.19880565840E+02 -0.97115510096E+01  0.42682204931E+00  0.22129918621E+02  0.00000000000E+00 0. -1.
<mgrwt>
<rscale>  0 0.77142222E+02</rscale>
<asrwt>0</asrwt>
<pdfrwt beam="1">  1        2 0.25783302E-02 0.77142222E+02</pdfrwt>
<pdfrwt beam="2">  1       -1 0.13657118E-01 0.77142222E+02</pdfrwt>
<totfact> 0.13301630E+05</totfact>
</mgrwt>
</event>
<event>
 8    1  0.1600673E-013  0.8038816E+02  0.7818608E-02  0.1327954E+00
         -1   -1    0    0    0  501 -0.00000000000E+00  0.00000000000E+00  0.14747704556E+03  0.14747704565E+03  0.50400000000E-02 0.  1.
          2   -1    0    0  501    0  0.00000000000E+00 -0.00000000000E+00 -0.10954680083E+02  0.10954680379E+02  0.25500000000E-02 0. -1.
         24    2    1    2    0    0  0.00000000000E+00  0.00000000000E+00  0.13652236548E+03  0.15843172602E+03  0.80388155445E+02 0.  0.
         66    2    3    3    0    0 -0.22119735033E+02  0.12271307468E+02  0.68053550555E+01  0.26271287082E+02  0.20000006496E+01 0.  0.
        -13    1    3    3    0    0  0.22119735033E+02 -0.12271307468E+02  0.12971701042E+03  0.13216043894E+03  0.10566000000E+00 0.  1.
         13    1    4    4    0    0 -0.86174959693E+01  0.40487631430E+01  0.21405031403E+01  0.97594383803E+01  0.10566000000E+00 0. -1.
        -13    1    4    4    0    0 -0.12010903779E+02  0.69628362817E+01  0.42023083524E+01  0.14505635395E+02  0.10566000000E+00 0.  1.
        -14    1    4    4    0    0 -0.14913352845E+01  0.12597080432E+01  0.46254356280E+00  0.20062133068E+01  0.00000000000E+00 0.  1.
<mgrwt>
<rscale>  0 0.80388155E+02</rscale>
<asrwt>0</asrwt>
<pdfrwt beam="1">  1        2 0.16853355E-02 0.80388155E+02</pdfrwt>
<pdfrwt beam="2">  1       -1 0.22688776E-01 0.80388155E+02</pdfrwt>
<totfact> 0.10702131E+05</totfact>
</mgrwt>
</event>
<event>
 8    1  0.1600673E-013  0.7865544E+02  0.7818608E-02  0.1332911E+00
          2   -1    0    0  501    0  0.00000000000E+00  0.00000000000E+00  0.31692182437E+02  0.31692182539E+02  0.25500000000E-02 0. -1.
         -1   -1    0    0    0  501 -0.00000000000E+00 -0.00000000000E+00 -0.48802870620E+02  0.48802870880E+02  0.50400000000E-02 0.  1.
         24    2    1    2    0    0  0.00000000000E+00  0.17763568394E-14 -0.17110688183E+02  0.80495053419E+02  0.78655438305E+02 0.  0.
         66    2    3    3    0    0  0.36166132086E+02  0.14153071318E+02 -0.14732325041E+02  0.41585333386E+02  0.20000034727E+01 0.  0.
        -13    1    3    3    0    0 -0.36166132086E+02 -0.14153071318E+02 -0.23783631422E+01  0.38909720033E+02  0.10566000000E+00 0.  1.
         13    1    4    4    0    0  0.63446438633E+01  0.22233245936E+01 -0.28312688087E+01  0.72955414538E+01  0.10566000000E+00 0. -1.
        -13    1    4    4    0    0  0.20647178011E+02  0.74725259036E+01 -0.80385380924E+01  0.23383196144E+02  0.10566000000E+00 0. -1.
         14    1    4    4    0    0  0.91743102115E+01  0.44572208209E+01 -0.38625181399E+01  0.10906595788E+02  0.00000000000E+00 0. -1.
<mgrwt>
<rscale>  0 0.78655438E+02</rscale>
<asrwt>0</asrwt>
<pdfrwt beam="1">  1        2 0.48757204E-02 0.78655438E+02</pdfrwt>
<pdfrwt beam="2">  1       -1 0.75081340E-02 0.78655438E+02</pdfrwt>
<totfact> 0.14261011E+05</totfact>
</mgrwt>
</event>
<event>
 8    1  0.1600673E-013  0.8453983E+02  0.7818608E-02  0.1316640E+00
          2   -1    0    0  501    0  0.00000000000E+00  0.00000000000E+00  0.10735719210E+02  0.10735719513E+02  0.25500000000E-02 0. -1.
         -1   -1    0    0    0  501 -0.00000000000E+00 -0.00000000000E+00 -0.16642997590E+03  0.16642997597E+03  0.50400000000E-02 0.  1.
         24    2    1    2    0    0  0.35527136788E-14  0.35527136788E-14 -0.15569425669E+03  0.17716569549E+03  0.84539825478E+02 0.  0.
         66    2    3    3    0    0  0.24401901374E+02  0.26202278092E+02 -0.30902792936E+02  0.47339146749E+02  0.20000089634E+01 0.  0.
        -13    1    3    3    0    0 -0.24401901374E+02 -0.26202278092E+02 -0.12479146375E+03  0.12982654874E+03  0.10566000000E+00 0.  1.
         13    1    4    4    0    0  0.75881974749E+01  0.80844889015E+01 -0.94712397465E+01  0.14582703730E+02  0.10566000000E+00 0. -1.
        -13    1    4    4    0    0  0.15638495355E+01  0.10844320724E+01 -0.18081127902E+01  0.26271760860E+01  0.10566000000E+00 0.  1.
        -14    1    4    4    0    0  0.15249854363E+02  0.17033357118E+02 -0.19623440399E+02  0.30129266933E+02  0.00000000000E+00 0.  1.
<mgrwt>
<rscale>  0 0.84539825E+02</rscale>
<asrwt>0</asrwt>
<pdfrwt beam="1">  1        2 0.16516493E-02 0.84539825E+02</pdfrwt>
<pdfrwt beam="2">  1       -1 0.25604610E-01 0.84539825E+02</pdfrwt>
<totfact> 0.91259016E+04</totfact>
</mgrwt>
</event>
<event>
 8    1  0.1600673E-013  0.7826167E+02  0.7818608E-02  0.1334058E+00
         -1   -1    0    0    0  501 -0.00000000000E+00  0.00000000000E+00  0.30727431447E+01  0.30727472781E+01  0.50400000000E-02 0.  1.
          2   -1    0    0  501    0  0.00000000000E+00 -0.00000000000E+00 -0.49832390786E+03  0.49832390786E+03  0.25500000000E-02 0. -1.
         24    2    1    2    0    0  0.00000000000E+00  0.00000000000E+00 -0.49525116471E+03  0.50139665514E+03  0.78261674134E+02 0.  0.
         66    2    3    3    0    0 -0.35207702678E+02  0.32661950411E+01 -0.35479301341E+03  0.35655621262E+03  0.20000092879E+01 0.  0.
        -13    1    3    3    0    0  0.35207702678E+02 -0.32661950411E+01 -0.14045815130E+03  0.14484044252E+03  0.10566000000E+00 0.  1.
         13    1    4    4    0    0 -0.20100756649E+02  0.14041937621E+01 -0.20679470472E+03  0.20777409184E+03  0.10566000000E+00 0. -1.
        -13    1    4    4    0    0 -0.59880027599E+01  0.86489124481E+00 -0.63250944615E+02  0.63539730662E+02  0.10566000000E+00 0.  1.
        -14    1    4    4    0    0 -0.91189432684E+01  0.99711003426E+00 -0.84747364073E+02  0.85242390113E+02  0.00000000000E+00 0.  1.
<mgrwt>
<rscale>  0 0.78261674E+02</rscale>
<asrwt>0</asrwt>
<pdfrwt beam="1">  1        2 0.76665152E-01 0.78261674E+02</pdfrwt>
<pdfrwt beam="2">  1       -1 0.47273043E-03 0.78261674E+02</pdfrwt>
<totfact> 0.32209248E+05</totfact>
</mgrwt>
</event>
<event>
 8    1  0.1600673E-013  0.8028227E+02  0.7818608E-02  0.1328252E+00
         -1   -1    0    0    0  501 -0.00000000000E+00  0.00000000000E+00  0.58914162115E+02  0.58914162331E+02  0.50400000000E-02 0.  1.
          2   -1    0    0  501    0  0.00000000000E+00 -0.00000000000E+00 -0.27350140791E+02  0.27350140910E+02  0.25500000000E-02 0. -1.
         24    2    1    2    0    0  0.17763568394E-14  0.00000000000E+00  0.31564021324E+02  0.86264303240E+02  0.80282268100E+02 0.  0.
         66    2    3    3    0    0  0.14137463664E+02  0.33530997106E+02 -0.23515829097E+01  0.36520207909E+02  0.19999994470E+01 0.  0.
        -13    1    3    3    0    0 -0.14137463664E+02 -0.33530997106E+02  0.33915604234E+02  0.49744095331E+02  0.10566000000E+00 0.  1.
         13    1    4    4    0    0  0.36514645891E+01  0.84681538440E+01 -0.12235003280E+01  0.93032757811E+01  0.10566000000E+00 0. -1.
        -13    1    4    4    0    0  0.20998954151E+00  0.10134692887E+01 -0.15840666593E-01  0.10404953479E+01  0.10566000000E+00 0. -1.
         14    1    4    4    0    0  0.10276009533E+02  0.24049373973E+02 -0.11122419151E+01  0.26176436780E+02  0.00000000000E+00 0. -1.
<mgrwt>
<rscale>  0 0.80282268E+02</rscale>
<asrwt>0</asrwt>
<pdfrwt beam="1">  1        2 0.42077140E-02 0.80282268E+02</pdfrwt>
<pdfrwt beam="2">  1       -1 0.90637173E-02 0.80282268E+02</pdfrwt>
<totfact> 0.13081823E+05</totfact>
</mgrwt>
</event>
<event>
 8    1  0.1600673E-013  0.8200933E+02  0.7818608E-02  0.1323444E+00
          2   -1    0    0  501    0  0.00000000000E+00  0.00000000000E+00  0.13726585413E+03  0.13726585416E+03  0.25500000000E-02 0. -1.
         -1   -1    0    0    0  501 -0.00000000000E+00 -0.00000000000E+00 -0.12249096006E+02  0.12249097043E+02  0.50400000000E-02 0.  1.
         24    2    1    2    0    0 -0.35527136788E-14  0.00000000000E+00  0.12501675813E+03  0.14951495120E+03  0.82009333736E+02 0.  0.
         66    2    3    3    0    0  0.19040901296E+02  0.17904270099E+02  0.12009043256E+03  0.12291798413E+03  0.20000045477E+01 0.  0.
        -13    1    3    3    0    0 -0.19040901296E+02 -0.17904270099E+02  0.49263255630E+01  0.26596967074E+02  0.10566000000E+00 0.  1.
         13    1    4    4    0    0  0.98280217243E+01  0.97907927169E+01  0.67355031849E+02  0.68768896403E+02  0.10566000000E+00 0. -1.
        -13    1    4    4    0    0  0.88168061321E+01  0.75990598413E+01  0.50203740247E+02  0.51535506980E+02  0.10566000000E+00 0.  1.
         14    1    4    4    0    0  0.39607343992E+00  0.51441754092E+00  0.25316604670E+01  0.26135807423E+01  0.00000000000E+00 0. -1.
<mgrwt>
<rscale>  0 0.82009334E+02</rscale>
<asrwt>0</asrwt>
<pdfrwt beam="1">  1        2 0.21117823E-01 0.82009334E+02</pdfrwt>
<pdfrwt beam="2">  1       -1 0.18844764E-02 0.82009334E+02</pdfrwt>
<totfact> 0.18228559E+05</totfact>
</mgrwt>
</event>
<event>
 8    1  0.1600673E-013  0.7161736E+02  0.7818608E-02  0.1354678E+00
         -1   -1    0    0    0  501 -0.00000000000E+00  0.00000000000E+00  0.12525231480E+02  0.12525232494E+02  0.50400000000E-02 0.  1.
          2   -1    0    0  501    0  0.00000000000E+00 -0.00000000000E+00 -0.10237426359E+03  0.10237426362E+03  0.25500000000E-02 0. -1.
         24    2    1    2    0    0  0.00000000000E+00  0.71054273576E-14 -0.89849032108E+02  0.11489949611E+03  0.71617355692E+02 0.  0.
         66    2    3    3    0    0  0.27540658049E+02 -0.22264107150E+02 -0.53152386347E+02  0.63901130579E+02  0.20000004735E+01 0.  0.
        -13    1    3    3    0    0 -0.27540658049E+02  0.22264107150E+02 -0.36696645761E+02  0.50998365534E+02  0.10566000000E+00 0.  1.
         13    1    4    4    0    0  0.78397334748E+01 -0.66353034644E+01 -0.16217325203E+02  0.19196392207E+02  0.10566000000E+00 0. -1.
        -13    1    4    4    0    0  0.70175357516E+01 -0.49644633793E+01 -0.13425465051E+02  0.15941956609E+02  0.10566000000E+00 0.  1.
        -14    1    4    4    0    0  0.12683388823E+02 -0.10664340307E+02 -0.23509596094E+02  0.28762781762E+02  0.00000000000E+00 0.  1.
<mgrwt>
<rscale>  0 0.71617356E+02</rscale>
<asrwt>0</asrwt>
<pdfrwt beam="1">  1        2 0.15749886E-01 0.71617356E+02</pdfrwt>
<pdfrwt beam="2">  1       -1 0.19269588E-02 0.71617356E+02</pdfrwt>
<totfact> 0.23945203E+05</totfact>
</mgrwt>
</event>
<event>
 8    1  0.1600673E-013  0.7863564E+02  0.7818608E-02  0.1332968E+00
          2   -1    0    0  501    0  0.00000000000E+00  0.00000000000E+00  0.49551101575E+03  0.49551101576E+03  0.25500000000E-02 0. -1.
         -1   -1    0    0    0  501 -0.00000000000E+00 -0.00000000000E+00 -0.31197893919E+01  0.31197934629E+01  0.50400000000E-02 0.  1.
         24    2    1    2    0    0  0.00000000000E+00  0.00000000000E+00  0.49239122636E+03  0.49863080922E+03  0.78635641464E+02 0.  0.
         66    2    3    3    0    0  0.96242726781E+01  0.32049898576E+02  0.37693395758E+03  0.37842176339E+03  0.20000002807E+01 0.  0.
        -13    1    3    3    0    0 -0.96242726781E+01 -0.32049898576E+02  0.11545726877E+03  0.12020904583E+03  0.10566000000E+00 0.  1.
         13    1    4    4    0    0  0.49744275705E+00  0.22759362373E+01  0.24173196624E+02  0.24285426373E+02  0.10566000000E+00 0. -1.
        -13    1    4    4    0    0  0.20582769835E+01  0.90443709850E+01  0.10198115551E+03  0.10240216987E+03  0.10566000000E+00 0.  1.
         14    1    4    4    0    0  0.70685529375E+01  0.20729591354E+02  0.25077960545E+03  0.25173416714E+03  0.00000000000E+00 0. -1.
<mgrwt>
<rscale>  0 0.78635641E+02</rscale>
<asrwt>0</asrwt>
<pdfrwt beam="1">  1        2 0.76232423E-01 0.78635641E+02</pdfrwt>
<pdfrwt beam="2">  1       -1 0.47996817E-03 0.78635641E+02</pdfrwt>
<totfact> 0.31754856E+05</totfact>
</mgrwt>
</event>
<event>
 8    1  0.1600673E-013  0.8380077E+02  0.7818608E-02  0.1318599E+00
          2   -1    0    0  501    0  0.00000000000E+00  0.00000000000E+00  0.41661740236E+03  0.41661740237E+03  0.25500000000E-02 0. -1.
         -1   -1    0    0    0  501 -0.00000000000E+00 -0.00000000000E+00 -0.42140380535E+01  0.42140410674E+01  0.50400000000E-02 0.  1.
         24    2    1    2    0    0  0.35527136788E-14  0.35527136788E-14  0.41240336431E+03  0.42083144344E+03  0.83800769044E+02 0.  0.
         66    2    3    3    0    0  0.22088380629E+02  0.21867957689E+02  0.34724592588E+03  0.34863998218E+03  0.19999998338E+01 0.  0.
        -13    1    3    3    0    0 -0.22088380629E+02 -0.21867957689E+02  0.65157438423E+02  0.72191461255E+02  0.10566000000E+00 0.  1.
         13    1    4    4    0    0  0.15999437250E+01  0.23184446869E+01  0.32093514004E+02  0.32217073282E+02  0.10566000000E+00 0.  1.
        -13    1    4    4    0    0  0.99185953083E+01  0.91848449101E+01  0.14753971918E+03  0.14815775311E+03  0.10566000000E+00 0. -1.
        -14    1    4    4    0    0  0.10569841595E+02  0.10364668092E+02  0.16761269270E+03  0.16826515579E+03  0.00000000000E+00 0.  1.
<mgrwt>
<rscale>  0 0.83800769E+02</rscale>
<asrwt>0</asrwt>
<pdfrwt beam="1">  1        2 0.64094994E-01 0.83800769E+02</pdfrwt>
<pdfrwt beam="2">  1       -1 0.64831369E-03 0.83800769E+02</pdfrwt>
<totfact> 0.25378372E+05</totfact>
</mgrwt>
</event>
<event>
 8    1  0.1600673E-013  0.8075407E+02  0.7818608E-02  0.1326925E+00
         -1   -1    0    0    0  501 -0.00000000000E+00  0.00000000000E+00  0.94056361074E+02  0.94056361209E+02  0.50400000000E-02 0.  1.
          2   -1    0    0  501    0  0.00000000000E+00 -0.00000000000E+00 -0.17333277191E+02  0.17333277378E+02  0.25500000000E-02 0. -1.
         24    2    1    2    0    0  0.00000000000E+00 -0.17763568394E-14  0.76723083883E+02  0.11138963859E+03  0.80754071006E+02 0.  0.
         66    2    3    3    0    0  0.16427743426E+02  0.15892533057E+02 -0.74851048183E+01  0.24134417715E+02  0.19999908125E+01 0.  0.
        -13    1    3    3    0    0 -0.16427743426E+02 -0.15892533057E+02  0.84208188701E+02  0.87255220872E+02  0.10566000000E+00 0.  1.
         13    1    4    4    0    0  0.11998484536E+02  0.10697807583E+02 -0.57132942817E+01  0.17060469332E+02  0.10566000000E+00 0. -1.
        -13    1    4    4    0    0  0.22313153961E+01  0.24822823285E+01 -0.11216591013E+01  0.35227513580E+01  0.10566000000E+00 0.  1.
         14    1    4    4    0    0  0.21979434939E+01  0.27124431450E+01 -0.65015143534E+00  0.35511970244E+01  0.00000000000E+00 0. -1.
<mgrwt>
<rscale>  0 0.80754071E+02</rscale>
<asrwt>0</asrwt>
<pdfrwt beam="1">  1        2 0.26666581E-02 0.80754071E+02</pdfrwt>
<pdfrwt beam="2">  1       -1 0.14470209E-01 0.80754071E+02</pdfrwt>
<totfact> 0.11731399E+05</totfact>
</mgrwt>
</event>
<event>
 8    1  0.1600673E-013  0.8454593E+02  0.7818608E-02  0.1316624E+00
          2   -1    0    0  501    0  0.00000000000E+00  0.00000000000E+00  0.30716207969E+03  0.30716207970E+03  0.25500000000E-02 0. -1.
         -1   -1    0    0    0  501 -0.00000000000E+00 -0.00000000000E+00 -0.58177859318E+01  0.58177881149E+01  0.50400000000E-02 0.  1.
         24    2    1    2    0    0  0.00000000000E+00  0.00000000000E+00  0.30134429376E+03  0.31297986782E+03  0.84545929987E+02 0.  0.
         66    2    3    3    0    0  0.36247048872E+02 -0.21651410671E+02  0.14506155755E+03  0.15109430040E+03  0.19999998217E+01 0.  0.
        -13    1    3    3    0    0 -0.36247048872E+02  0.21651410671E+02  0.15628273621E+03  0.16188556742E+03  0.10566000000E+00 0.  1.
         13    1    4    4    0    0  0.19245418778E+02 -0.12038218965E+02  0.77797499869E+02  0.81041760899E+02  0.10566000000E+00 0. -1.
        -13    1    4    4    0    0  0.11130978720E+02 -0.57844999273E+01  0.41850626463E+02  0.43690333325E+02  0.10566000000E+00 0.  1.
         14    1    4    4    0    0  0.58706513739E+01 -0.38286917793E+01  0.25413431216E+02  0.26362206176E+02  0.00000000000E+00 0. -1.
<mgrwt>
<rscale>  0 0.84545930E+02</rscale>
<asrwt>0</asrwt>
<pdfrwt beam="1">  1        2 0.47255727E-01 0.84545930E+02</pdfrwt>
<pdfrwt beam="2">  1       -1 0.89504374E-03 0.84545930E+02</pdfrwt>
<totfact> 0.22236790E+05</totfact>
</mgrwt>
</event>
<event>
 8    1  0.1600673E-013  0.7801682E+02  0.7818608E-02  0.1334776E+00
         -1   -1    0    0    0  501 -0.00000000000E+00  0.00000000000E+00  0.15248674333E+03  0.15248674342E+03  0.50400000000E-02 0.  1.
          2   -1    0    0  501    0  0.00000000000E+00 -0.00000000000E+00 -0.99789392428E+01  0.99789395686E+01  0.25500000000E-02 0. -1.
         24    2    1    2    0    0  0.00000000000E+00  0.00000000000E+00  0.14250780409E+03  0.16246568299E+03  0.78016818194E+02 0.  0.
         66    2    3    3    0    0  0.34053160295E+02 -0.18240569713E+02  0.82184223509E+02  0.90832718174E+02  0.19999968688E+01 0.  0.
        -13    1    3    3    0    0 -0.34053160295E+02  0.18240569713E+02  0.60323580582E+02  0.71632964812E+02  0.10566000000E+00 0.  1.
         13    1    4    4    0    0  0.13031312366E+02 -0.65128805252E+01  0.31187162746E+02  0.34422129493E+02  0.10566000000E+00 0. -1.
        -13    1    4    4    0    0  0.88727013509E+01 -0.45568104651E+01  0.22538395864E+02  0.24647105369E+02  0.10566000000E+00 0.  1.
        -14    1    4    4    0    0  0.12149146578E+02 -0.71708787231E+01  0.28458664899E+02  0.31763483312E+02  0.00000000000E+00 0.  1.
<mgrwt>
<rscale>  0 0.78016818E+02</rscale>
<asrwt>0</asrwt>
<pdfrwt beam="1">  1        2 0.15352215E-02 0.78016818E+02</pdfrwt>
<pdfrwt beam="2">  1       -1 0.23459498E-01 0.78016818E+02</pdfrwt>
<totfact> 0.11445672E+05</totfact>
</mgrwt>
</event>
<event>
 8    1  0.1600673E-013  0.8073390E+02  0.7818608E-02  0.1326982E+00
          2   -1    0    0  501    0  0.00000000000E+00  0.00000000000E+00  0.13710599836E+03  0.13710599839E+03  0.25500000000E-02 0. -1.
         -1   -1    0    0    0  501 -0.00000000000E+00 -0.00000000000E+00 -0.11884896647E+02  0.11884897715E+02  0.50400000000E-02 0.  1.
         24    2    1    2    0    0  0.35527136788E-14 -0.17763568394E-14  0.12522110172E+03  0.14899089610E+03  0.80733901220E+02 0.  0.
         66    2    3    3    0    0 -0.30444855278E+02  0.96309659580E+01  0.10814754664E+03  0.11278092282E+03  0.19999973235E+01 0.  0.
        -13    1    3    3    0    0  0.30444855278E+02 -0.96309659580E+01  0.17073555075E+02  0.36209973283E+02  0.10566000000E+00 0.  1.
         13    1    4    4    0    0 -0.98375577732E+01  0.25124172090E+01  0.32731571214E+02  0.34270347260E+02  0.10566000000E+00 0. -1.
        -13    1    4    4    0    0 -0.17828145869E+01  0.79149035212E+00  0.60314426677E+01  0.63399013808E+01  0.10566000000E+00 0.  1.
         14    1    4    4    0    0 -0.18824482918E+02  0.63270583969E+01  0.69384532759E+02  0.72170674178E+02  0.00000000000E+00 0. -1.
<mgrwt>
<rscale>  0 0.80733901E+02</rscale>
<asrwt>0</asrwt>
<pdfrwt beam="1">  1        2 0.21093231E-01 0.80733901E+02</pdfrwt>
<pdfrwt beam="2">  1       -1 0.18284457E-02 0.80733901E+02</pdfrwt>
<totfact> 0.18998718E+05</totfact>
</mgrwt>
</event>
<event>
 8    1  0.1600673E-013  0.7683528E+02  0.7818608E-02  0.1338280E+00
         -1   -1    0    0    0  501 -0.00000000000E+00  0.00000000000E+00  0.14662847611E+03  0.14662847620E+03  0.50400000000E-02 0.  1.
          2   -1    0    0  501    0  0.00000000000E+00 -0.00000000000E+00 -0.10065678064E+02  0.10065678387E+02  0.25500000000E-02 0. -1.
         24    2    1    2    0    0  0.00000000000E+00  0.00000000000E+00  0.13656279805E+03  0.15669415459E+03  0.76835280116E+02 0.  0.
         66    2    3    3    0    0  0.25826897675E+02 -0.18345179131E+02  0.24099645982E+02  0.39854324143E+02  0.19999939013E+01 0.  0.
        -13    1    3    3    0    0 -0.25826897675E+02  0.18345179131E+02  0.11246315207E+03  0.11683983044E+03  0.10566000000E+00 0.  1.
         13    1    4    4    0    0  0.10209450796E+02 -0.71918626806E+01  0.88548333576E+01  0.15309311291E+02  0.10566000000E+00 0. -1.
        -13    1    4    4    0    0  0.98847613510E+01 -0.76788770574E+01  0.94471746852E+01  0.15682280874E+02  0.10566000000E+00 0.  1.
        -14    1    4    4    0    0  0.57326855282E+01 -0.34744393933E+01  0.57976379389E+01  0.88627319791E+01  0.00000000000E+00 0.  1.
<mgrwt>
<rscale>  0 0.76835280E+02</rscale>
<asrwt>0</asrwt>
<pdfrwt beam="1">  1        2 0.15485658E-02 0.76835280E+02</pdfrwt>
<pdfrwt beam="2">  1       -1 0.22558228E-01 0.76835280E+02</pdfrwt>
<totfact> 0.12013479E+05</totfact>
</mgrwt>
</event>
<event>
 8    1  0.1600673E-013  0.7946683E+02  0.7818608E-02  0.1330571E+00
         -1   -1    0    0    0  501 -0.00000000000E+00  0.00000000000E+00  0.63831057493E+02  0.63831057691E+02  0.50400000000E-02 0.  1.
          2   -1    0    0  501    0  0.00000000000E+00 -0.00000000000E+00 -0.24733166727E+02  0.24733166858E+02  0.25500000000E-02 0. -1.
         24    2    1    2    0    0  0.17763568394E-14 -0.10658141036E-13  0.39097890766E+02  0.88564224550E+02  0.79466828349E+02 0.  0.
         66    2    3    3    0    0 -0.14209839914E+02  0.27188538135E+02 -0.85360620603E+01  0.31906120256E+02  0.19999995011E+01 0.  0.
        -13    1    3    3    0    0  0.14209839914E+02 -0.27188538135E+02  0.47633952826E+02  0.56658104294E+02  0.10566000000E+00 0.  1.
         13    1    4    4    0    0 -0.89776482252E+01  0.18295896291E+02 -0.53055205155E+01  0.21059385098E+02  0.10566000000E+00 0.  1.
        -13    1    4    4    0    0 -0.49083439202E+01  0.83378909646E+01 -0.32410045950E+01  0.10204290303E+02  0.10566000000E+00 0. -1.
        -14    1    4    4    0    0 -0.32384776894E+00  0.55475087919E+00  0.10463050204E-01  0.64244485431E+00  0.00000000000E+00 0.  1.
<mgrwt>
<rscale>  0 0.79466828E+02</rscale>
<asrwt>0</asrwt>
<pdfrwt beam="1">  1        2 0.38051026E-02 0.79466828E+02</pdfrwt>
<pdfrwt beam="2">  1       -1 0.98201627E-02 0.79466828E+02</pdfrwt>
<totfact> 0.13200525E+05</totfact>
</mgrwt>
</event>
<event>
 8    1  0.1600673E-013  0.8047564E+02  0.7818608E-02  0.1327707E+00
          2   -1    0    0  501    0  0.00000000000E+00  0.00000000000E+00  0.75866392986E+03  0.75866392986E+03  0.25500000000E-02 0. -1.
         -1   -1    0    0    0  501 -0.00000000000E+00 -0.00000000000E+00 -0.21341201235E+01  0.21341260748E+01  0.50400000000E-02 0.  1.
         24    2    1    2    0    0 -0.17763568394E-14  0.00000000000E+00  0.75652980973E+03  0.76079805594E+03  0.80475641660E+02 0.  0.
         66    2    3    3    0    0  0.13258525200E+02  0.70828950710E+01  0.73110206183E+03  0.73125931154E+03  0.20000015979E+01 0.  0.
        -13    1    3    3    0    0 -0.13258525200E+02 -0.70828950710E+01  0.25427747898E+02  0.29538744393E+02  0.10566000000E+00 0.  1.
         13    1    4    4    0    0  0.40543313669E+01  0.26198614769E+01  0.27054924734E+03  0.27059232746E+03  0.10566000000E+00 0. -1.
        -13    1    4    4    0    0  0.52956588540E+01  0.25271176356E+01  0.24809648139E+03  0.24816588317E+03  0.10566000000E+00 0.  1.
         14    1    4    4    0    0  0.39085349792E+01  0.19359159585E+01  0.21245633310E+03  0.21250110092E+03  0.00000000000E+00 0. -1.
<mgrwt>
<rscale>  0 0.80475642E+02</rscale>
<asrwt>0</asrwt>
<pdfrwt beam="1">  1        2 0.11671757E+00 0.80475642E+02</pdfrwt>
<pdfrwt beam="2">  1       -1 0.32832653E-03 0.80475642E+02</pdfrwt>
<totfact> 0.33510195E+05</totfact>
</mgrwt>
</event>
<event>
 8    1  0.1600673E-013  0.8206249E+02  0.7818608E-02  0.1323298E+00
         -1   -1    0    0    0  501 -0.00000000000E+00  0.00000000000E+00  0.11598457002E+01  0.11598566505E+01  0.50400000000E-02 0.  1.
          2   -1    0    0  501    0  0.00000000000E+00 -0.00000000000E+00 -0.14515338197E+04  0.14515338197E+04  0.25500000000E-02 0. -1.
         24    2    1    2    0    0  0.00000000000E+00  0.00000000000E+00 -0.14503739740E+04  0.14526936763E+04  0.82062493620E+02 0.  0.
         66    2    3    3    0    0 -0.50026780925E+01 -0.24315998358E+02 -0.13033903938E+04  0.13036283264E+04  0.20000000470E+01 0.  0.
        -13    1    3    3    0    0  0.50026780925E+01  0.24315998358E+02 -0.14698358014E+03  0.14906534996E+03  0.10566000000E+00 0.  1.
         13    1    4    4    0    0 -0.38990215732E+01 -0.16184499248E+02 -0.90809260245E+03  0.90824519055E+03  0.10566000000E+00 0. -1.
        -13    1    4    4    0    0 -0.84201689343E+00 -0.61655922838E+01 -0.30689848933E+03  0.30696158952E+03  0.10566000000E+00 0.  1.
         14    1    4    4    0    0 -0.26163962590E+00 -0.19659068260E+01 -0.88399302058E+02  0.88421546295E+02  0.00000000000E+00 0. -1.
<mgrwt>
<rscale>  0 0.82062494E+02</rscale>
<asrwt>0</asrwt>
<pdfrwt beam="1">  1        2 0.22331144E+00 0.82062494E+02</pdfrwt>
<pdfrwt beam="2">  1       -1 0.17843980E-03 0.82062494E+02</pdfrwt>
<totfact> 0.31483609E+05</totfact>
</mgrwt>
</event>
<event>
 8    1  0.1600673E-013  0.8187250E+02  0.7818608E-02  0.1323820E+00
          2   -1    0    0  501    0  0.00000000000E+00  0.00000000000E+00  0.28601334381E+02  0.28601334494E+02  0.25500000000E-02 0. -1.
         -1   -1    0    0    0  501 -0.00000000000E+00 -0.00000000000E+00 -0.58590847836E+02  0.58590848052E+02  0.50400000000E-02 0.  1.
         24    2    1    2    0    0  0.00000000000E+00  0.00000000000E+00 -0.29989513455E+02  0.87192182547E+02  0.81872497092E+02 0.  0.
         66    2    3    3    0    0  0.40228041714E+02  0.34866928426E+01 -0.79943067461E+01  0.41211179412E+02  0.20000002552E+01 0.  0.
        -13    1    3    3    0    0 -0.40228041714E+02 -0.34866928426E+01 -0.21995206709E+02  0.45981003135E+02  0.10566000000E+00 0.  1.
         13    1    4    4    0    0  0.24569928760E+02  0.25108952567E+01 -0.46982219222E+01  0.25141011267E+02  0.10566000000E+00 0. -1.
        -13    1    4    4    0    0  0.31868444361E+00  0.13681362350E+00 -0.12849753044E+00  0.38464710203E+00  0.10566000000E+00 0.  1.
        -14    1    4    4    0    0  0.15339428510E+02  0.83898396244E+00 -0.31675872934E+01  0.15685521042E+02  0.00000000000E+00 0.  1.
<mgrwt>
<rscale>  0 0.81872497E+02</rscale>
<asrwt>0</asrwt>
<pdfrwt beam="1">  1        2 0.44002053E-02 0.81872497E+02</pdfrwt>
<pdfrwt beam="2">  1       -1 0.90139767E-02 0.81872497E+02</pdfrwt>
<totfact> 0.12488511E+05</totfact>
</mgrwt>
</event>
<event>
 8    1  0.1600673E-013  0.7996382E+02  0.7818608E-02  0.1329154E+00
          2   -1    0    0  501    0  0.00000000000E+00  0.00000000000E+00  0.84999602567E+01  0.84999606392E+01  0.25500000000E-02 0. -1.
         -1   -1    0    0    0  501 -0.00000000000E+00 -0.00000000000E+00 -0.18806592515E+03  0.18806592522E+03  0.50400000000E-02 0.  1.
         24    2    1    2    0    0  0.71054273576E-14 -0.44408920985E-15 -0.17956596489E+03  0.19656588586E+03  0.79963815158E+02 0.  0.
         66    2    3    3    0    0  0.39073697369E+02 -0.31108760642E+01 -0.70779476520E+02  0.80933093827E+02  0.20000010075E+01 0.  0.
        -13    1    3    3    0    0 -0.39073697369E+02  0.31108760642E+01 -0.10878648837E+03  0.11563279203E+03  0.10566000000E+00 0.  1.
         13    1    4    4    0    0  0.30002626904E+02 -0.17999615890E+01 -0.54257042634E+02  0.62026085821E+02  0.10566000000E+00 0. -1.
        -13    1    4    4    0    0  0.64941831937E+01 -0.77812332406E+00 -0.11223732889E+02  0.12990890472E+02  0.10566000000E+00 0.  1.
         14    1    4    4    0    0  0.25768872710E+01 -0.53279115114E+00 -0.52987009974E+01  0.59161175342E+01  0.00000000000E+00 0. -1.
<mgrwt>
<rscale>  0 0.79963815E+02</rscale>
<asrwt>0</asrwt>
<pdfrwt beam="1">  1        2 0.13076864E-02 0.79963815E+02</pdfrwt>
<pdfrwt beam="2">  1       -1 0.28933216E-01 0.79963815E+02</pdfrwt>
<totfact> 0.10155574E+05</totfact>
</mgrwt>
</event>
<event>
 8    1  0.1600673E-013  0.7824726E+02  0.7818608E-02  0.1334100E+00
         -1   -1    0    0    0  501 -0.00000000000E+00  0.00000000000E+00  0.51863605940E+01  0.51863630429E+01  0.50400000000E-02 0.  1.
          2   -1    0    0  501    0  0.00000000000E+00 -0.00000000000E+00 -0.29513143940E+03  0.29513143941E+03  0.25500000000E-02 0. -1.
         24    2    1    2    0    0  0.00000000000E+00 -0.35527136788E-14 -0.28994507881E+03  0.30031780245E+03  0.78247260316E+02 0.  0.
         66    2    3    3    0    0 -0.25744059246E+02  0.21915460955E+02 -0.22043477995E+03  0.22302138064E+03  0.19999980305E+01 0.  0.
        -13    1    3    3    0    0  0.25744059246E+02 -0.21915460955E+02 -0.69510298854E+02  0.77296421820E+02  0.10566000000E+00 0.  1.
         13    1    4    4    0    0 -0.17843085791E+02  0.14571632084E+02 -0.15300836829E+03  0.15473293154E+03  0.10566000000E+00 0. -1.
        -13    1    4    4    0    0 -0.63141585130E+01  0.55307308957E+01 -0.50993185152E+02  0.51679528616E+02  0.10566000000E+00 0.  1.
         14    1    4    4    0    0 -0.15868149420E+01  0.18130979759E+01 -0.16433226506E+02  0.16608920475E+02  0.00000000000E+00 0. -1.
<mgrwt>
<rscale>  0 0.78247260E+02</rscale>
<asrwt>0</asrwt>
<pdfrwt beam="1">  1        2 0.45404824E-01 0.78247260E+02</pdfrwt>
<pdfrwt beam="2">  1       -1 0.79790205E-03 0.78247260E+02</pdfrwt>
<totfact> 0.26858066E+05</totfact>
</mgrwt>
</event>
<event>
 8    1  0.1600673E-013  0.8101077E+02  0.7818608E-02  0.1326207E+00
          2   -1    0    0  501    0  0.00000000000E+00  0.00000000000E+00  0.33092234275E+03  0.33092234276E+03  0.25500000000E-02 0. -1.
         -1   -1    0    0    0  501 -0.00000000000E+00 -0.00000000000E+00 -0.49579174262E+01  0.49579199880E+01  0.50400000000E-02 0.  1.
         24    2    1    2    0    0 -0.17763568394E-14  0.00000000000E+00  0.32596442533E+03  0.33588026275E+03  0.81010766735E+02 0.  0.
         66    2    3    3    0    0  0.10429756717E+02  0.32931202758E+02  0.25058669575E+03  0.25296429794E+03  0.20000013303E+01 0.  0.
        -13    1    3    3    0    0 -0.10429756717E+02 -0.32931202758E+02  0.75377729576E+02  0.82915964810E+02  0.10566000000E+00 0.  1.
         13    1    4    4    0    0  0.44896257102E+01  0.11403072524E+02  0.86374992948E+02  0.87240113324E+02  0.10566000000E+00 0.  1.
        -13    1    4    4    0    0  0.36990214361E+01  0.12710357552E+02  0.98561187435E+02  0.99446240660E+02  0.10566000000E+00 0. -1.
         14    1    4    4    0    0  0.22411095708E+01  0.88177726817E+01  0.65650515367E+02  0.66277943957E+02  0.00000000000E+00 0. -1.
<mgrwt>
<rscale>  0 0.81010767E+02</rscale>
<asrwt>0</asrwt>
<pdfrwt beam="1">  1        2 0.50911131E-01 0.81010767E+02</pdfrwt>
<pdfrwt beam="2">  1       -1 0.76275670E-03 0.81010767E+02</pdfrwt>
<totfact> 0.25558883E+05</totfact>
</mgrwt>
</event>
<event>
 8    1  0.1600673E-013  0.7873943E+02  0.7818608E-02  0.1332667E+00
         -1   -1    0    0    0  501 -0.00000000000E+00  0.00000000000E+00  0.42576011196E+01  0.42576041027E+01  0.50400000000E-02 0.  1.
          2   -1    0    0  501    0  0.00000000000E+00 -0.00000000000E+00 -0.36404868778E+03  0.36404868779E+03  0.25500000000E-02 0. -1.
         24    2    1    2    0    0  0.00000000000E+00  0.00000000000E+00 -0.35979108666E+03  0.36830629190E+03  0.78739434890E+02 0.  0.
         66    2    3    3    0    0 -0.25711047678E+02  0.88622679565E+01 -0.31300234704E+03  0.31418794855E+03  0.20000000327E+01 0.  0.
        -13    1    3    3    0    0  0.25711047678E+02 -0.88622679565E+01 -0.46788739627E+02  0.54118343341E+02  0.10566000000E+00 0.  1.
         13    1    4    4    0    0 -0.12550343207E+02  0.46830236254E+01 -0.16198196485E+03  0.16253494986E+03  0.10566000000E+00 0. -1.
        -13    1    4    4    0    0 -0.47069154188E+01  0.16191132791E+01 -0.50070242630E+02  0.50317163489E+02  0.10566000000E+00 0.  1.
         14    1    4    4    0    0 -0.84537890529E+01  0.25601310519E+01 -0.10095013956E+03  0.10133583521E+03  0.00000000000E+00 0. -1.
<mgrwt>
<rscale>  0 0.78739435E+02</rscale>
<asrwt>0</asrwt>
<pdfrwt beam="1">  1        2 0.56007466E-01 0.78739435E+02</pdfrwt>
<pdfrwt beam="2">  1       -1 0.65501607E-03 0.78739435E+02</pdfrwt>
<totfact> 0.28487904E+05</totfact>
</mgrwt>
</event>
<event>
 8    1  0.1600673E-013  0.8159096E+02  0.7818608E-02  0.1324596E+00
          2   -1    0    0  501    0  0.00000000000E+00  0.00000000000E+00  0.48523361525E+03  0.48523361525E+03  0.25500000000E-02 0. -1.
         -1   -1    0    0    0  501 -0.00000000000E+00 -0.00000000000E+00 -0.34298329598E+01  0.34298366629E+01  0.50400000000E-02 0.  1.
         24    2    1    2    0    0  0.00000000000E+00  0.00000000000E+00  0.48180378229E+03  0.48866345192E+03  0.81590959137E+02 0.  0.
         66    2    3    3    0    0 -0.21897997001E+02 -0.26473898309E+02  0.37251898456E+03  0.37410531060E+03  0.19999986952E+01 0.  0.
        -13    1    3    3    0    0  0.21897997001E+02  0.26473898309E+02  0.10928479773E+03  0.11455814132E+03  0.10566000000E+00 0.  1.
         13    1    4    4    0    0 -0.53769842220E+01 -0.71343764790E+01  0.95841106266E+02  0.96256636662E+02  0.10566000000E+00 0. -1.
        -13    1    4    4    0    0 -0.12719892131E+02 -0.15721488587E+02  0.22265859757E+03  0.22357509498E+03  0.10566000000E+00 0.  1.
        -14    1    4    4    0    0 -0.38011206476E+01 -0.36180332429E+01  0.54019280725E+02  0.54273578957E+02  0.00000000000E+00 0.  1.
<mgrwt>
<rscale>  0 0.81590959E+02</rscale>
<asrwt>0</asrwt>
<pdfrwt beam="1">  1        2 0.74651281E-01 0.81590959E+02</pdfrwt>
<pdfrwt beam="2">  1       -1 0.52766721E-03 0.81590959E+02</pdfrwt>
<totfact> 0.28648813E+05</totfact>
</mgrwt>
</event>
<event>
 8    1  0.1600673E-013  0.7932342E+02  0.7818608E-02  0.1330983E+00
          2   -1    0    0  501    0  0.00000000000E+00  0.00000000000E+00  0.42636404430E+03  0.42636404431E+03  0.25500000000E-02 0. -1.
         -1   -1    0    0    0  501 -0.00000000000E+00 -0.00000000000E+00 -0.36894537287E+01  0.36894571712E+01  0.50400000000E-02 0.  1.
         24    2    1    2    0    0  0.00000000000E+00  0.88817841970E-15  0.42267459057E+03  0.43005350148E+03  0.79323417851E+02 0.  0.
         66    2    3    3    0    0 -0.38806092877E+02  0.63767457081E+01  0.23829025631E+03  0.24152188711E+03  0.19999930801E+01 0.  0.
        -13    1    3    3    0    0  0.38806092877E+02 -0.63767457081E+01  0.18438433426E+03  0.18853161437E+03  0.10566000000E+00 0.  1.
         13    1    4    4    0    0 -0.31896444330E+02  0.55717861687E+01  0.19627206855E+03  0.19892502110E+03  0.10566000000E+00 0. -1.
        -13    1    4    4    0    0 -0.68940213451E+01  0.85256831825E+00  0.41704693139E+02  0.42279392107E+02  0.10566000000E+00 0. -1.
         14    1    4    4    0    0 -0.15627202213E-01 -0.47608778938E-01  0.31349462011E+00  0.31747390777E+00  0.00000000000E+00 0. -1.
<mgrwt>
<rscale>  0 0.79323418E+02</rscale>
<asrwt>0</asrwt>
<pdfrwt beam="1">  1        2 0.65594417E-01 0.79323418E+02</pdfrwt>
<pdfrwt beam="2">  1       -1 0.56760898E-03 0.79323418E+02</pdfrwt>
<totfact> 0.29532207E+05</totfact>
</mgrwt>
</event>
<event>
 8    1  0.1600673E-013  0.8412505E+02  0.7818608E-02  0.1317737E+00
         -1   -1    0    0    0  501 -0.00000000000E+00  0.00000000000E+00  0.69777910252E+01  0.69777928454E+01  0.50400000000E-02 0.  1.
          2   -1    0    0  501    0  0.00000000000E+00 -0.00000000000E+00 -0.25355529472E+03  0.25355529474E+03  0.25500000000E-02 0. -1.
         24    2    1    2    0    0  0.00000000000E+00  0.00000000000E+00 -0.24657750370E+03  0.26053308758E+03  0.84125052124E+02 0.  0.
         66    2    3    3    0    0  0.16374731324E+02  0.14885829862E+01 -0.24317965069E+03  0.24374308239E+03  0.19999991984E+01 0.  0.
        -13    1    3    3    0    0 -0.16374731324E+02 -0.14885829862E+01 -0.33978530051E+01  0.16790005191E+02  0.10566000000E+00 0.  1.
         13    1    4    4    0    0  0.70039757499E+01  0.12210148386E+01 -0.10799012006E+03  0.10822395183E+03  0.10566000000E+00 0. -1.
        -13    1    4    4    0    0  0.13210044530E+01  0.34690915215E+00 -0.16376336493E+02  0.16433531565E+02  0.10566000000E+00 0.  1.
         14    1    4    4    0    0  0.80497511210E+01 -0.79341004604E-01 -0.11881319414E+03  0.11908559900E+03  0.00000000000E+00 0. -1.
<mgrwt>
<rscale>  0 0.84125052E+02</rscale>
<asrwt>0</asrwt>
<pdfrwt beam="1">  1        2 0.39008500E-01 0.84125052E+02</pdfrwt>
<pdfrwt beam="2">  1       -1 0.10735066E-02 0.84125052E+02</pdfrwt>
<totfact> 0.21012738E+05</totfact>
</mgrwt>
</event>
<event>
 8    1  0.1600673E-013  0.7980352E+02  0.7818608E-02  0.1329610E+00
         -1   -1    0    0    0  501 -0.00000000000E+00  0.00000000000E+00  0.20166598303E+03  0.20166598310E+03  0.50400000000E-02 0.  1.
          2   -1    0    0  501    0  0.00000000000E+00 -0.00000000000E+00 -0.78949876105E+01  0.78949880223E+01  0.25500000000E-02 0. -1.
         24    2    1    2    0    0  0.00000000000E+00  0.00000000000E+00  0.19377099542E+03  0.20956097112E+03  0.79803520906E+02 0.  0.
         66    2    3    3    0    0  0.29012428696E+02  0.22996358575E+02  0.58033009527E+02  0.68864967246E+02  0.19999981335E+01 0.  0.
        -13    1    3    3    0    0 -0.29012428696E+02 -0.22996358575E+02  0.13573798590E+03  0.14069600387E+03  0.10566000000E+00 0.  1.
         13    1    4    4    0    0  0.10113112366E+02  0.70242404287E+01  0.19542092881E+02  0.23098042201E+02  0.10566000000E+00 0. -1.
        -13    1    4    4    0    0  0.23311364156E+01  0.23346287467E+01  0.52011897583E+01  0.61602132520E+01  0.10566000000E+00 0.  1.
        -14    1    4    4    0    0  0.16568179914E+02  0.13637489400E+02  0.33289726888E+02  0.39606711793E+02  0.00000000000E+00 0.  1.
<mgrwt>
<rscale>  0 0.79803521E+02</rscale>
<asrwt>0</asrwt>
<pdfrwt beam="1">  1        2 0.12146134E-02 0.79803521E+02</pdfrwt>
<pdfrwt beam="2">  1       -1 0.31025538E-01 0.79803521E+02</pdfrwt>
<totfact> 0.99977385E+04</totfact>
</mgrwt>
</event>
<event>
 8    1  0.1600673E-013  0.7990918E+02  0.7818608E-02  0.1329309E+00
          2   -1    0    0  501    0  0.00000000000E+00  0.00000000000E+00  0.82465035595E+02  0.82465035634E+02  0.25500000000E-02 0. -1.
         -1   -1    0    0    0  501 -0.00000000000E+00 -0.00000000000E+00 -0.19358133760E+02  0.19358134416E+02  0.50400000000E-02 0.  1.
         24    2    1    2    0    0  0.00000000000E+00  0.00000000000E+00  0.63106901835E+02  0.10182317005E+03  0.79909179072E+02 0.  0.
         66    2    3    3    0    0  0.24681829646E+02  0.18515719476E+02  0.63867940880E+02  0.70958709471E+02  0.19999987733E+01 0.  0.
        -13    1    3    3    0    0 -0.24681829646E+02 -0.18515719476E+02 -0.76103904548E+00  0.30864460579E+02  0.10566000000E+00 0.  1.
         13    1    4    4    0    0  0.85267559342E+00  0.85750536155E+00  0.29101486404E+01  0.31531730459E+01  0.10566000000E+00 0. -1.
        -13    1    4    4    0    0  0.52466721227E+01  0.40197114446E+01  0.12284708787E+02  0.13950300444E+02  0.10566000000E+00 0.  1.
         14    1    4    4    0    0  0.18582481930E+02  0.13638502670E+02  0.48673083453E+02  0.53855235981E+02  0.00000000000E+00 0. -1.
<mgrwt>
<rscale>  0 0.79909179E+02</rscale>
<asrwt>0</asrwt>
<pdfrwt beam="1">  1        2 0.12686928E-01 0.79909179E+02</pdfrwt>
<pdfrwt beam="2">  1       -1 0.29781745E-02 0.79909179E+02</pdfrwt>
<totfact> 0.16878637E+05</totfact>
</mgrwt>
</event>
<event>
 8    1  0.1600673E-013  0.7797377E+02  0.7818608E-02  0.1334902E+00
          2   -1    0    0  501    0  0.00000000000E+00  0.00000000000E+00  0.66097188099E+02  0.66097188148E+02  0.25500000000E-02 0. -1.
         -1   -1    0    0    0  501 -0.00000000000E+00 -0.00000000000E+00 -0.22996093996E+02  0.22996094548E+02  0.50400000000E-02 0.  1.
         24    2    1    2    0    0  0.71054273576E-14  0.00000000000E+00  0.43101094103E+02  0.89093282696E+02  0.77973769363E+02 0.  0.
         66    2    3    3    0    0  0.32673778183E+02 -0.11754927349E+02  0.41754182700E+02  0.54343039070E+02  0.20000061551E+01 0.  0.
        -13    1    3    3    0    0 -0.32673778183E+02  0.11754927349E+02  0.13469114024E+01  0.34750243626E+02  0.10566000000E+00 0.  1.
         13    1    4    4    0    0  0.85904957371E+01 -0.33675780727E+01  0.11493839884E+02  0.14739630877E+02  0.10566000000E+00 0. -1.
        -13    1    4    4    0    0  0.17624235279E+02 -0.66401198543E+01  0.23064840485E+02  0.29777556842E+02  0.10566000000E+00 0.  1.
        -14    1    4    4    0    0  0.64590471670E+01 -0.17472294223E+01  0.71955023315E+01  0.98258513505E+01  0.00000000000E+00 0.  1.
<mgrwt>
<rscale>  0 0.77973769E+02</rscale>
<asrwt>0</asrwt>
<pdfrwt beam="1">  1        2 0.10168798E-01 0.77973769E+02</pdfrwt>
<pdfrwt beam="2">  1       -1 0.35378606E-02 0.77973769E+02</pdfrwt>
<totfact> 0.17069529E+05</totfact>
</mgrwt>
</event>
<event>
 8    1  0.1600673E-013  0.7840076E+02  0.7818608E-02  0.1333652E+00
         -1   -1    0    0    0  501 -0.00000000000E+00  0.00000000000E+00  0.14520190306E+01  0.14520277776E+01  0.50400000000E-02 0.  1.
          2   -1    0    0  501    0  0.00000000000E+00 -0.00000000000E+00 -0.10582954327E+04  0.10582954327E+04  0.25500000000E-02 0. -1.
         24    2    1    2    0    0  0.17763568394E-14  0.00000000000E+00 -0.10568434136E+04  0.10597474604E+04  0.78400758789E+02 0.  0.
         66    2    3    3    0    0 -0.95400978204E+01 -0.12775824431E+02 -0.10124466825E+04  0.10125742047E+04  0.20000001591E+01 0.  0.
        -13    1    3    3    0    0  0.95400978204E+01  0.12775824431E+02 -0.44396731118E+02  0.47173255710E+02  0.10566000000E+00 0.  1.
         13    1    4    4    0    0 -0.24719381919E+01 -0.33108703749E+01 -0.24806468011E+03  0.24809911129E+03  0.10566000000E+00 0. -1.
        -13    1    4    4    0    0 -0.69538489917E+00 -0.33431881924E+00 -0.60853657720E+02  0.60858640727E+02  0.10566000000E+00 0.  1.
        -14    1    4    4    0    0 -0.63727747293E+01 -0.91306352369E+01 -0.70352834469E+03  0.70361645272E+03  0.00000000000E+00 0.  1.
<mgrwt>
<rscale>  0 0.78400759E+02</rscale>
<asrwt>0</asrwt>
<pdfrwt beam="1">  1        2 0.16281407E+00 0.78400759E+02</pdfrwt>
<pdfrwt beam="2">  1       -1 0.22338906E-03 0.78400759E+02</pdfrwt>
<totfact> 0.37169871E+05</totfact>
</mgrwt>
</event>
<event>
 8    1  0.1600673E-013  0.8236860E+02  0.7818608E-02  0.1322461E+00
          2   -1    0    0  501    0  0.00000000000E+00  0.00000000000E+00  0.70513813947E+02  0.70513813993E+02  0.25500000000E-02 0. -1.
         -1   -1    0    0    0  501 -0.00000000000E+00 -0.00000000000E+00 -0.24054103904E+02  0.24054104432E+02  0.50400000000E-02 0.  1.
         24    2    1    2    0    0  0.71054273576E-14  0.00000000000E+00  0.46459710044E+02  0.94567918425E+02  0.82368601651E+02 0.  0.
         66    2    3    3    0    0 -0.39519821238E+02  0.10769548792E+02  0.27884787046E+02  0.49591942835E+02  0.19999984210E+01 0.  0.
        -13    1    3    3    0    0  0.39519821238E+02 -0.10769548792E+02  0.18574922998E+02  0.44975975590E+02  0.10566000000E+00 0.  1.
         13    1    4    4    0    0 -0.17212908314E+02  0.55428004067E+01  0.12592715937E+02  0.22036209014E+02  0.10566000000E+00 0. -1.
        -13    1    4    4    0    0 -0.45368079928E+01  0.95236055665E+00  0.34137599554E+01  0.57579977824E+01  0.10566000000E+00 0.  1.
         14    1    4    4    0    0 -0.17770104931E+02  0.42743878283E+01  0.11878311154E+02  0.21797736039E+02  0.00000000000E+00 0. -1.
<mgrwt>
<rscale>  0 0.82368602E+02</rscale>
<asrwt>0</asrwt>
<pdfrwt beam="1">  1        2 0.10848279E-01 0.82368602E+02</pdfrwt>
<pdfrwt beam="2">  1       -1 0.37006315E-02 0.82368602E+02</pdfrwt>
<totfact> 0.14945051E+05</totfact>
</mgrwt>
</event>
<event>
 8    1  0.1600673E-013  0.7989139E+02  0.7818608E-02  0.1329360E+00
          2   -1    0    0  501    0  0.00000000000E+00  0.00000000000E+00  0.12719442164E+03  0.12719442167E+03  0.25500000000E-02 0. -1.
         -1   -1    0    0    0  501 -0.00000000000E+00 -0.00000000000E+00 -0.12545035755E+02  0.12545036768E+02  0.50400000000E-02 0.  1.
         24    2    1    2    0    0  0.17763568394E-14  0.00000000000E+00  0.11464938589E+03  0.13973945843E+03  0.79891392274E+02 0.  0.
         66    2    3    3    0    0 -0.92752096855E+01  0.10011005646E+02  0.12297934263E+03  0.12375042807E+03  0.19999961256E+01 0.  0.
        -13    1    3    3    0    0  0.92752096855E+01 -0.10011005646E+02 -0.83299567425E+01  0.15989030368E+02  0.10566000000E+00 0.  1.
         13    1    4    4    0    0 -0.48226801940E+01  0.41753384370E+01  0.56653174249E+02  0.57011270919E+02  0.10566000000E+00 0. -1.
        -13    1    4    4    0    0 -0.27170530713E+01  0.37869976489E+01  0.46214701893E+02  0.46449257945E+02  0.10566000000E+00 0.  1.
        -14    1    4    4    0    0 -0.17354764201E+01  0.20486695596E+01  0.20111466487E+02  0.20289899202E+02  0.00000000000E+00 0.  1.
<mgrwt>
<rscale>  0 0.79891392E+02</rscale>
<asrwt>0</asrwt>
<pdfrwt beam="1">  1        2 0.19568373E-01 0.79891392E+02</pdfrwt>
<pdfrwt beam="2">  1       -1 0.19300056E-02 0.79891392E+02</pdfrwt>
<totfact> 0.19087667E+05</totfact>
</mgrwt>
</event>
<event>
 8    1  0.1600673E-013  0.8048107E+02  0.7818608E-02  0.1327692E+00
         -1   -1    0    0    0  501 -0.00000000000E+00  0.00000000000E+00  0.12640845036E+01  0.12640945510E+01  0.50400000000E-02 0.  1.
          2   -1    0    0  501    0  0.00000000000E+00 -0.00000000000E+00 -0.12810016426E+04  0.12810016426E+04  0.25500000000E-02 0. -1.
         24    2    1    2    0    0  0.22204460493E-15  0.00000000000E+00 -0.12797375581E+04  0.12822657371E+04  0.80481072777E+02 0.  0.
         66    2    3    3    0    0 -0.11446224181E+01  0.21005292386E+02 -0.11863468530E+04  0.11865350345E+04  0.19999998576E+01 0.  0.
        -13    1    3    3    0    0  0.11446224181E+01 -0.21005292386E+02 -0.93390705138E+02  0.95730702697E+02  0.10566000000E+00 0.  1.
         13    1    4    4    0    0  0.60142923891E-01  0.52798288068E+01 -0.29602283729E+03  0.29606994371E+03  0.10566000000E+00 0. -1.
        -13    1    4    4    0    0 -0.28899839358E+00  0.12075943840E+02 -0.66694735833E+03  0.66705674563E+03  0.10566000000E+00 0.  1.
        -14    1    4    4    0    0 -0.91576694836E+00  0.36495197388E+01 -0.22337665733E+03  0.22340834511E+03  0.00000000000E+00 0.  1.
<mgrwt>
<rscale>  0 0.80481073E+02</rscale>
<asrwt>0</asrwt>
<pdfrwt beam="1">  1        2 0.19707614E+00 0.80481073E+02</pdfrwt>
<pdfrwt beam="2">  1       -1 0.19447634E-03 0.80481073E+02</pdfrwt>
<totfact> 0.34175324E+05</totfact>
</mgrwt>
</event>
<event>
 8    1  0.1600673E-013  0.8125934E+02  0.7818608E-02  0.1325515E+00
         -1   -1    0    0    0  501 -0.00000000000E+00  0.00000000000E+00  0.16393199730E+02  0.16393200504E+02  0.50400000000E-02 0.  1.
          2   -1    0    0  501    0  0.00000000000E+00 -0.00000000000E+00 -0.10069847357E+03  0.10069847360E+03  0.25500000000E-02 0. -1.
         24    2    1    2    0    0 -0.44408920985E-15  0.71054273576E-14 -0.84305273842E+02  0.11709167411E+03  0.81259343757E+02 0.  0.
         66    2    3    3    0    0 -0.37349846478E+01 -0.38459293777E+02 -0.60158280515E+02  0.71526820999E+02  0.20000048910E+01 0.  0.
        -13    1    3    3    0    0  0.37349846478E+01  0.38459293777E+02 -0.24146993327E+02  0.45564853110E+02  0.10566000000E+00 0.  1.
         13    1    4    4    0    0 -0.27871014441E+01 -0.22299201548E+02 -0.36045250241E+02  0.42476976742E+02  0.10566000000E+00 0. -1.
        -13    1    4    4    0    0 -0.35585487732E+00 -0.39410025790E+01 -0.54946587015E+01  0.67720434363E+01  0.10566000000E+00 0.  1.
        -14    1    4    4    0    0 -0.59202832637E+00 -0.12219089650E+02 -0.18618371572E+02  0.22277800821E+02  0.00000000000E+00 0.  1.
<mgrwt>
<rscale>  0 0.81259344E+02</rscale>
<asrwt>0</asrwt>
<pdfrwt beam="1">  1        2 0.15492072E-01 0.81259344E+02</pdfrwt>
<pdfrwt beam="2">  1       -1 0.25220309E-02 0.81259344E+02</pdfrwt>
<totfact> 0.17032138E+05</totfact>
</mgrwt>
</event>
<event>
 8    1  0.1600673E-013  0.7975593E+02  0.7818608E-02  0.1329746E+00
         -1   -1    0    0    0  501 -0.00000000000E+00  0.00000000000E+00  0.69398391835E+02  0.69398392018E+02  0.50400000000E-02 0.  1.
          2   -1    0    0  501    0  0.00000000000E+00 -0.00000000000E+00 -0.22914824974E+02  0.22914825116E+02  0.25500000000E-02 0. -1.
         24    2    1    2    0    0  0.00000000000E+00 -0.35527136788E-14  0.46483566861E+02  0.92313217133E+02  0.79755928115E+02 0.  0.
         66    2    3    3    0    0 -0.74816212074E+01  0.25143274087E+02 -0.11468737068E+02  0.28700014239E+02  0.19999999248E+01 0.  0.
        -13    1    3    3    0    0  0.74816212074E+01 -0.25143274087E+02  0.57952303929E+02  0.63613202894E+02  0.10566000000E+00 0.  1.
         13    1    4    4    0    0 -0.53116451687E+00  0.11544412037E+01 -0.72292350456E+00  0.14658283207E+01  0.10566000000E+00 0. -1.
        -13    1    4    4    0    0 -0.42651337119E+01  0.12030671254E+02 -0.57198556590E+01  0.13987720657E+02  0.10566000000E+00 0.  1.
         14    1    4    4    0    0 -0.26853229786E+01  0.11958161630E+02 -0.50259579049E+01  0.13246465261E+02  0.00000000000E+00 0. -1.
<mgrwt>
<rscale>  0 0.79755928E+02</rscale>
<asrwt>0</asrwt>
<pdfrwt beam="1">  1        2 0.35253577E-02 0.79755928E+02</pdfrwt>
<pdfrwt beam="2">  1       -1 0.10676676E-01 0.79755928E+02</pdfrwt>
<totfact> 0.12870036E+05</totfact>
</mgrwt>
</event>
<event>
 8    1  0.1600673E-013  0.8334609E+02  0.7818608E-02  0.1319815E+00
          2   -1    0    0  501    0  0.00000000000E+00  0.00000000000E+00  0.44201556062E+03  0.44201556062E+03  0.25500000000E-02 0. -1.
         -1   -1    0    0    0  501 -0.00000000000E+00 -0.00000000000E+00 -0.39289159497E+01  0.39289191824E+01  0.50400000000E-02 0.  1.
         24    2    1    2    0    0  0.00000000000E+00  0.00000000000E+00  0.43808664467E+03  0.44594447981E+03  0.83346090696E+02 0.  0.
         66    2    3    3    0    0 -0.22101786406E+01 -0.41445627042E+02  0.23771371318E+03  0.24131811854E+03  0.20000022119E+01 0.  0.
        -13    1    3    3    0    0  0.22101786406E+01  0.41445627042E+02  0.20037293148E+03  0.20462636127E+03  0.10566000000E+00 0.  1.
         13    1    4    4    0    0 -0.18929952099E+01 -0.22714600378E+02  0.13008592115E+03  0.13206776498E+03  0.10566000000E+00 0. -1.
        -13    1    4    4    0    0 -0.15027383634E+00 -0.14035773273E+01  0.70396520725E+01  0.71805624346E+01  0.10566000000E+00 0.  1.
         14    1    4    4    0    0 -0.16690959440E+00 -0.17327449337E+02  0.10058813996E+03  0.10206979112E+03  0.00000000000E+00 0. -1.
<mgrwt>
<rscale>  0 0.83346091E+02</rscale>
<asrwt>0</asrwt>
<pdfrwt beam="1">  1        2 0.68002326E-01 0.83346091E+02</pdfrwt>
<pdfrwt beam="2">  1       -1 0.60444947E-03 0.83346091E+02</pdfrwt>
<totfact> 0.26270802E+05</totfact>
</mgrwt>
</event>
<event>
 8    1  0.1600673E-013  0.7938879E+02  0.7818608E-02  0.1330795E+00
         -1   -1    0    0    0  501 -0.00000000000E+00  0.00000000000E+00  0.21765467715E+02  0.21765468299E+02  0.50400000000E-02 0.  1.
          2   -1    0    0  501    0  0.00000000000E+00 -0.00000000000E+00 -0.72391960913E+02  0.72391960958E+02  0.25500000000E-02 0. -1.
         24    2    1    2    0    0  0.44408920985E-15  0.00000000000E+00 -0.50626493198E+02  0.94157429256E+02  0.79388788066E+02 0.  0.
         66    2    3    3    0    0 -0.20674888754E+01  0.30636296763E+02 -0.55116854690E+02  0.63124677203E+02  0.20000028746E+01 0.  0.
        -13    1    3    3    0    0  0.20674888754E+01 -0.30636296763E+02  0.44903614926E+01  0.31032752053E+02  0.10566000000E+00 0.  1.
         13    1    4    4    0    0 -0.32867072610E+00  0.68959373330E+01 -0.12905702760E+02  0.14636608347E+02  0.10566000000E+00 0. -1.
        -13    1    4    4    0    0 -0.55714565337E-01  0.12209931221E+00 -0.44973290297E+00  0.48107803364E+00  0.10566000000E+00 0. -1.
        -14    1    4    4    0    0 -0.16831035839E+01  0.23618260118E+02 -0.41761419027E+02  0.48006990823E+02  0.00000000000E+00 0.  1.
<mgrwt>
<rscale>  0 0.79388788E+02</rscale>
<asrwt>0</asrwt>
<pdfrwt beam="1">  1        2 0.11137225E-01 0.79388788E+02</pdfrwt>
<pdfrwt beam="2">  1       -1 0.33485336E-02 0.79388788E+02</pdfrwt>
<totfact> 0.16621370E+05</totfact>
</mgrwt>
</event>
<event>
 8    1  0.1600673E-013  0.7618646E+02  0.7818608E-02  0.1340236E+00
         -1   -1    0    0    0  501 -0.00000000000E+00  0.00000000000E+00  0.14636680451E+02  0.14636681319E+02  0.50400000000E-02 0.  1.
          2   -1    0    0  501    0  0.00000000000E+00 -0.00000000000E+00 -0.99140919002E+02  0.99140919034E+02  0.25500000000E-02 0. -1.
         24    2    1    2    0    0  0.00000000000E+00  0.00000000000E+00 -0.84504238550E+02  0.11377760035E+03  0.76186455549E+02 0.  0.
         66    2    3    3    0    0  0.44203682083E+01 -0.12252099037E+02 -0.95699226667E+02  0.96602254392E+02  0.19999957736E+01 0.  0.
        -13    1    3    3    0    0 -0.44203682083E+01  0.12252099037E+02  0.11194988117E+02  0.17175345961E+02  0.10566000000E+00 0.  1.
         13    1    4    4    0    0  0.36386198166E+01 -0.11460558546E+02 -0.87933799070E+02  0.88752172589E+02  0.10566000000E+00 0. -1.
        -13    1    4    4    0    0  0.77038920151E+00 -0.81218552348E+00 -0.76573755946E+01  0.77394902854E+01  0.10566000000E+00 0.  1.
         14    1    4    4    0    0  0.11359190189E-01  0.20645032589E-01 -0.10805200216E+00  0.11059151750E+00  0.00000000000E+00 0. -1.
<mgrwt>
<rscale>  0 0.76186456E+02</rscale>
<asrwt>0</asrwt>
<pdfrwt beam="1">  1        2 0.15252449E-01 0.76186456E+02</pdfrwt>
<pdfrwt beam="2">  1       -1 0.22517971E-02 0.76186456E+02</pdfrwt>
<totfact> 0.20148089E+05</totfact>
</mgrwt>
</event>
<event>
 8    1  0.1600673E-013  0.8028043E+02  0.7818608E-02  0.1328257E+00
         -1   -1    0    0    0  501 -0.00000000000E+00  0.00000000000E+00  0.25900854045E+01  0.25900903081E+01  0.50400000000E-02 0.  1.
          2   -1    0    0  501    0  0.00000000000E+00 -0.00000000000E+00 -0.62207805420E+03  0.62207805421E+03  0.25500000000E-02 0. -1.
         24    2    1    2    0    0  0.00000000000E+00  0.22204460493E-15 -0.61948796880E+03  0.62466814451E+03  0.80280429043E+02 0.  0.
         66    2    3    3    0    0 -0.35398059317E+02 -0.14556612422E+01 -0.45635443653E+03  0.45773192296E+03  0.20000007280E+01 0.  0.
        -13    1    3    3    0    0  0.35398059317E+02  0.14556612422E+01 -0.16313353227E+03  0.16693622155E+03  0.10566000000E+00 0.  1.
         13    1    4    4    0    0 -0.28405741900E+02 -0.90667390988E+00 -0.37099243568E+03  0.37207943604E+03  0.10566000000E+00 0. -1.
        -13    1    4    4    0    0 -0.39002324494E+01 -0.15496085748E-01 -0.45180519505E+02  0.45348677600E+02  0.10566000000E+00 0.  1.
         14    1    4    4    0    0 -0.30920849670E+01 -0.53349124653E+00 -0.40181481347E+02  0.40303809319E+02  0.00000000000E+00 0. -1.
<mgrwt>
<rscale>  0 0.80280429E+02</rscale>
<asrwt>0</asrwt>
<pdfrwt beam="1">  1        2 0.95704197E-01 0.80280429E+02</pdfrwt>
<pdfrwt beam="2">  1       -1 0.39847555E-03 0.80280429E+02</pdfrwt>
<totfact> 0.32188194E+05</totfact>
</mgrwt>
</event>
<event>
 8    1  0.1600673E-013  0.7622361E+02  0.7818608E-02  0.1340123E+00
          2   -1    0    0  501    0  0.00000000000E+00  0.00000000000E+00  0.16834752785E+02  0.16834752978E+02  0.25500000000E-02 0. -1.
         -1   -1    0    0    0  501 -0.00000000000E+00 -0.00000000000E+00 -0.86280422201E+02  0.86280422348E+02  0.50400000000E-02 0.  1.
         24    2    1    2    0    0  0.71054273576E-14 -0.17763568394E-14 -0.69445669415E+02  0.10311517533E+03  0.76223607774E+02 0.  0.
         66    2    3    3    0    0  0.32976423451E+02 -0.15835133046E+02 -0.20410280633E+02  0.41937757440E+02  0.20000003431E+01 0.  0.
        -13    1    3    3    0    0 -0.32976423451E+02  0.15835133046E+02 -0.49035388782E+02  0.61177417886E+02  0.10566000000E+00 0.  1.
         13    1    4    4    0    0  0.97003368052E+01 -0.51383105928E+01 -0.53534854223E+01  0.12213506461E+02  0.10566000000E+00 0.  1.
        -13    1    4    4    0    0  0.11256374031E+02 -0.52627801281E+01 -0.68639051763E+01  0.14196026532E+02  0.10566000000E+00 0. -1.
         14    1    4    4    0    0  0.12019712615E+02 -0.54340423252E+01 -0.81928900347E+01  0.15528224446E+02  0.00000000000E+00 0. -1.
<mgrwt>
<rscale>  0 0.76223608E+02</rscale>
<asrwt>0</asrwt>
<pdfrwt beam="1">  1        2 0.25899620E-02 0.76223608E+02</pdfrwt>
<pdfrwt beam="2">  1       -1 0.13273911E-01 0.76223608E+02</pdfrwt>
<totfact> 0.13781564E+05</totfact>
</mgrwt>
</event>
<event>
 8    1  0.1600673E-013  0.7967105E+02  0.7818608E-02  0.1329988E+00
          2   -1    0    0  501    0  0.00000000000E+00  0.00000000000E+00  0.52809648946E+03  0.52809648947E+03  0.25500000000E-02 0. -1.
         -1   -1    0    0    0  501 -0.00000000000E+00 -0.00000000000E+00 -0.30048826047E+01  0.30048868314E+01  0.50400000000E-02 0.  1.
         24    2    1    2    0    0  0.17763568394E-14  0.00000000000E+00  0.52509160686E+03  0.53110137630E+03  0.79671050673E+02 0.  0.
         66    2    3    3    0    0 -0.15213474058E+02 -0.28669802404E+02  0.41638849015E+03  0.41765629660E+03  0.19999986998E+01 0.  0.
        -13    1    3    3    0    0  0.15213474058E+02  0.28669802404E+02  0.10870311670E+03  0.11344507970E+03  0.10566000000E+00 0.  1.
         13    1    4    4    0    0 -0.13821609786E+02 -0.26119967635E+02  0.37160009745E+03  0.37277330000E+03  0.10566000000E+00 0. -1.
        -13    1    4    4    0    0 -0.12908471029E+01 -0.24338338268E+01  0.42043760156E+02  0.42134057073E+02  0.10566000000E+00 0.  1.
         14    1    4    4    0    0 -0.10101716948E+00 -0.11600094236E+00  0.27446325494E+01  0.27489395262E+01  0.00000000000E+00 0. -1.
<mgrwt>
<rscale>  0 0.79671051E+02</rscale>
<asrwt>0</asrwt>
<pdfrwt beam="1">  1        2 0.81245535E-01 0.79671051E+02</pdfrwt>
<pdfrwt beam="2">  1       -1 0.46229041E-03 0.79671051E+02</pdfrwt>
<totfact> 0.31311885E+05</totfact>
</mgrwt>
</event>
<event>
 8    1  0.1600673E-013  0.7964036E+02  0.7818608E-02  0.1330075E+00
         -1   -1    0    0    0  501 -0.00000000000E+00  0.00000000000E+00  0.17268157924E+01  0.17268231475E+01  0.50400000000E-02 0.  1.
          2   -1    0    0  501    0  0.00000000000E+00 -0.00000000000E+00 -0.91824700197E+03  0.91824700197E+03  0.25500000000E-02 0. -1.
         24    2    1    2    0    0  0.00000000000E+00  0.00000000000E+00 -0.91652018618E+03  0.91997382512E+03  0.79640361857E+02 0.  0.
         66    2    3    3    0    0 -0.25151335174E+02  0.93084164579E+01 -0.79817436670E+03  0.79862729477E+03  0.20000014940E+01 0.  0.
        -13    1    3    3    0    0  0.25151335174E+02 -0.93084164579E+01 -0.11834581947E+03  0.12134653035E+03  0.10566000000E+00 0.  1.
         13    1    4    4    0    0 -0.43201132256E+00  0.31471823445E+00 -0.21776563054E+02  0.21783377695E+02  0.10566000000E+00 0. -1.
        -13    1    4    4    0    0 -0.17093832915E+02  0.66090566990E+01 -0.53270401313E+03  0.53301918870E+03  0.10566000000E+00 0.  1.
         14    1    4    4    0    0 -0.76254909367E+01  0.23846415244E+01 -0.24369379052E+03  0.24382472837E+03  0.00000000000E+00 0. -1.
<mgrwt>
<rscale>  0 0.79640362E+02</rscale>
<asrwt>0</asrwt>
<pdfrwt beam="1">  1        2 0.14126838E+00 0.79640362E+02</pdfrwt>
<pdfrwt beam="2">  1       -1 0.26566527E-03 0.79640362E+02</pdfrwt>
<totfact> 0.35431605E+05</totfact>
</mgrwt>
</event>
<event>
 8    1  0.1600673E-013  0.8098730E+02  0.7818608E-02  0.1326273E+00
          2   -1    0    0  501    0  0.00000000000E+00  0.00000000000E+00  0.67576931114E+02  0.67576931162E+02  0.25500000000E-02 0. -1.
         -1   -1    0    0    0  501 -0.00000000000E+00 -0.00000000000E+00 -0.24264724409E+02  0.24264724933E+02  0.50400000000E-02 0.  1.
         24    2    1    2    0    0  0.00000000000E+00 -0.17763568394E-14  0.43312206705E+02  0.91841656095E+02  0.80987298662E+02 0.  0.
         66    2    3    3    0    0 -0.45315145947E+01 -0.10308220582E+02  0.65749713207E+02  0.66736937452E+02  0.19999994065E+01 0.  0.
        -13    1    3    3    0    0  0.45315145947E+01  0.10308220582E+02 -0.22437506502E+02  0.25104718643E+02  0.10566000000E+00 0.  1.
         13    1    4    4    0    0 -0.57519762023E+00 -0.25820797188E+01  0.13371255020E+02  0.13630833167E+02  0.10566000000E+00 0. -1.
        -13    1    4    4    0    0 -0.22705656005E+01 -0.46702432552E+01  0.27793085804E+02  0.28274253708E+02  0.10566000000E+00 0.  1.
         14    1    4    4    0    0 -0.16857513740E+01 -0.30558976080E+01  0.24585372382E+02  0.24831850577E+02  0.00000000000E+00 0. -1.
<mgrwt>
<rscale>  0 0.80987299E+02</rscale>
<asrwt>0</asrwt>
<pdfrwt beam="1">  1        2 0.10396451E-01 0.80987299E+02</pdfrwt>
<pdfrwt beam="2">  1       -1 0.37330346E-02 0.80987299E+02</pdfrwt>
<totfact> 0.15485294E+05</totfact>
</mgrwt>
</event>
<event>
 8    1  0.1600673E-013  0.7985896E+02  0.7818608E-02  0.1329452E+00
          2   -1    0    0  501    0  0.00000000000E+00  0.00000000000E+00  0.31156510521E+03  0.31156510522E+03  0.25500000000E-02 0. -1.
         -1   -1    0    0    0  501 -0.00000000000E+00 -0.00000000000E+00 -0.51172702956E+01  0.51172727776E+01  0.50400000000E-02 0.  1.
         24    2    1    2    0    0  0.35527136788E-14 -0.22204460493E-15  0.30644783491E+03  0.31668237800E+03  0.79858956985E+02 0.  0.
         66    2    3    3    0    0 -0.23018213412E+02  0.16467082079E+01  0.28241610252E+03  0.28336443805E+03  0.19999975485E+01 0.  0.
        -13    1    3    3    0    0  0.23018213412E+02 -0.16467082079E+01  0.24031732390E+02  0.33317939947E+02  0.10566000000E+00 0.  1.
         13    1    4    4    0    0 -0.68798385007E+01  0.49846784819E+00  0.77524322947E+02  0.77830665296E+02  0.10566000000E+00 0. -1.
        -13    1    4    4    0    0 -0.89388828569E+01  0.12667682657E-01  0.11049017573E+03  0.11085122410E+03  0.10566000000E+00 0.  1.
         14    1    4    4    0    0 -0.71994920548E+01  0.11355726770E+01  0.94401603846E+02  0.94682548655E+02  0.00000000000E+00 0. -1.
<mgrwt>
<rscale>  0 0.79858957E+02</rscale>
<asrwt>0</asrwt>
<pdfrwt beam="1">  1        2 0.47933093E-01 0.79858957E+02</pdfrwt>
<pdfrwt beam="2">  1       -1 0.78727255E-03 0.79858957E+02</pdfrwt>
<totfact> 0.25965524E+05</totfact>
</mgrwt>
</event>
<event>
 8    1  0.1600673E-013  0.7897862E+02  0.7818608E-02  0.1331975E+00
          2   -1    0    0  501    0  0.00000000000E+00  0.00000000000E+00  0.88476274657E+01  0.88476278332E+01  0.25500000000E-02 0. -1.
         -1   -1    0    0    0  501 -0.00000000000E+00 -0.00000000000E+00 -0.17625128982E+03  0.17625128989E+03  0.50400000000E-02 0.  1.
         24    2    1    2    0    0  0.35527136788E-14  0.17763568394E-14 -0.16740366235E+03  0.18509891773E+03  0.78978624788E+02 0.  0.
         66    2    3    3    0    0  0.26088715004E+02  0.14568983178E+02 -0.23339655635E+02  0.37968616572E+02  0.19999994622E+01 0.  0.
        -13    1    3    3    0    0 -0.26088715004E+02 -0.14568983178E+02 -0.14406400672E+03  0.14713030115E+03  0.10566000000E+00 0.  1.
         13    1    4    4    0    0  0.23392371839E+01  0.11933542150E+01 -0.14245808154E+01  0.29894346322E+01  0.10566000000E+00 0.  1.
        -13    1    4    4    0    0  0.13292301676E+02  0.71708495631E+01 -0.12168226698E+02  0.19395444628E+02  0.10566000000E+00 0. -1.
        -14    1    4    4    0    0  0.10457176144E+02  0.62047793996E+01 -0.97468481221E+01  0.15583737313E+02  0.00000000000E+00 0.  1.
<mgrwt>
<rscale>  0 0.78978625E+02</rscale>
<asrwt>0</asrwt>
<pdfrwt beam="1">  1        2 0.13611736E-02 0.78978625E+02</pdfrwt>
<pdfrwt beam="2">  1       -1 0.27115580E-01 0.78978625E+02</pdfrwt>
<totfact> 0.10675887E+05</totfact>
</mgrwt>
</event>
<event>
 8    1  0.1600673E-013  0.7995586E+02  0.7818608E-02  0.1329177E+00
          2   -1    0    0  501    0  0.00000000000E+00  0.00000000000E+00  0.42698844652E+03  0.42698844653E+03  0.25500000000E-02 0. -1.
         -1   -1    0    0    0  501 -0.00000000000E+00 -0.00000000000E+00 -0.37430386200E+01  0.37430420132E+01  0.50400000000E-02 0.  1.
         24    2    1    2    0    0 -0.35527136788E-14  0.00000000000E+00  0.42324540790E+03  0.43073148854E+03  0.79955862275E+02 0.  0.
         66    2    3    3    0    0  0.20941791018E+02 -0.11596616112E+02  0.38407424770E+03  0.38482472355E+03  0.19999986079E+01 0.  0.
        -13    1    3    3    0    0 -0.20941791018E+02  0.11596616112E+02  0.39171160203E+02  0.45906764992E+02  0.10566000000E+00 0.  1.
         13    1    4    4    0    0  0.49551441779E+01 -0.25343550553E+01  0.92524449398E+02  0.92691754271E+02  0.10566000000E+00 0. -1.
        -13    1    4    4    0    0  0.10069458806E+02 -0.57302609432E+01  0.19600798944E+03  0.19635012854E+03  0.10566000000E+00 0.  1.
        -14    1    4    4    0    0  0.59171880340E+01 -0.33320001139E+01  0.95541808862E+02  0.95782840737E+02  0.00000000000E+00 0.  1.
<mgrwt>
<rscale>  0 0.79955862E+02</rscale>
<asrwt>0</asrwt>
<pdfrwt beam="1">  1        2 0.65690476E-01 0.79955862E+02</pdfrwt>
<pdfrwt beam="2">  1       -1 0.57585283E-03 0.79955862E+02</pdfrwt>
<totfact> 0.28941078E+05</totfact>
</mgrwt>
</event>
<event>
 8    1  0.1600673E-013  0.8164842E+02  0.7818608E-02  0.1324437E+00
         -1   -1    0    0    0  501 -0.00000000000E+00  0.00000000000E+00  0.26721795407E+01  0.26721842937E+01  0.50400000000E-02 0.  1.
          2   -1    0    0  501    0  0.00000000000E+00 -0.00000000000E+00 -0.62369109910E+03  0.62369109911E+03  0.25500000000E-02 0. -1.
         24    2    1    2    0    0  0.35527136788E-14  0.35527136788E-14 -0.62101891956E+03  0.62636328340E+03  0.81648419089E+02 0.  0.
         66    2    3    3    0    0 -0.30373654335E+02 -0.20027054609E+02 -0.45235163596E+03  0.45381675195E+03  0.20000003711E+01 0.  0.
        -13    1    3    3    0    0  0.30373654335E+02  0.20027054609E+02 -0.16866728360E+03  0.17254653145E+03  0.10566000000E+00 0.  1.
         13    1    4    4    0    0 -0.26224548047E+01 -0.15107140287E+01 -0.44021397865E+02  0.44125436657E+02  0.10566000000E+00 0.  1.
        -13    1    4    4    0    0 -0.12143516093E+02 -0.77400429271E+01 -0.17684233273E+03  0.17742771783E+03  0.10566000000E+00 0. -1.
         14    1    4    4    0    0 -0.15607683437E+02 -0.10776297653E+02 -0.23148790537E+03  0.23226359746E+03  0.00000000000E+00 0. -1.
<mgrwt>
<rscale>  0 0.81648419E+02</rscale>
<asrwt>0</asrwt>
<pdfrwt beam="1">  1        2 0.95952361E-01 0.81648419E+02</pdfrwt>
<pdfrwt beam="2">  1       -1 0.41110541E-03 0.81648419E+02</pdfrwt>
<totfact> 0.30823750E+05</totfact>
</mgrwt>
</event>
<event>
 8    1  0.1600673E-013  0.8534107E+02  0.7818608E-02  0.1314543E+00
         -1   -1    0    0    0  501 -0.00000000000E+00  0.00000000000E+00  0.12249085177E+03  0.12249085187E+03  0.50400000000E-02 0.  1.
          2   -1    0    0  501    0  0.00000000000E+00 -0.00000000000E+00 -0.14864576395E+02  0.14864576614E+02  0.25500000000E-02 0. -1.
         24    2    1    2    0    0  0.00000000000E+00 -0.44408920985E-15  0.10762627537E+03  0.13735542849E+03  0.85341072080E+02 0.  0.
         66    2    3    3    0    0  0.37749487458E+02  0.21482116978E+01  0.22093201382E+02  0.43837748194E+02  0.20000006313E+01 0.  0.
        -13    1    3    3    0    0 -0.37749487458E+02 -0.21482116978E+01  0.85533073990E+02  0.93517680292E+02  0.10566000000E+00 0.  1.
         13    1    4    4    0    0  0.13728904790E+02  0.10251251315E+01  0.83957342432E+01  0.16125545751E+02  0.10566000000E+00 0. -1.
        -13    1    4    4    0    0  0.15809021189E+02  0.64918949434E-01  0.91309751936E+01  0.18256923001E+02  0.10566000000E+00 0.  1.
        -14    1    4    4    0    0  0.82115614795E+01  0.10581676169E+01  0.45664919457E+01  0.94552794420E+01  0.00000000000E+00 0.  1.
<mgrwt>
<rscale>  0 0.85341072E+02</rscale>
<asrwt>0</asrwt>
<pdfrwt beam="1">  1        2 0.22868579E-02 0.85341072E+02</pdfrwt>
<pdfrwt beam="2">  1       -1 0.18844746E-01 0.85341072E+02</pdfrwt>
<totfact> 0.96326472E+04</totfact>
</mgrwt>
</event>
<event>
 8    1  0.1600673E-013  0.8071114E+02  0.7818608E-02  0.1327045E+00
         -1   -1    0    0    0  501 -0.00000000000E+00  0.00000000000E+00  0.23747318201E+01  0.23747371684E+01  0.50400000000E-02 0.  1.
          2   -1    0    0  501    0  0.00000000000E+00 -0.00000000000E+00 -0.68579117663E+03  0.68579117663E+03  0.25500000000E-02 0. -1.
         24    2    1    2    0    0  0.17763568394E-14  0.00000000000E+00 -0.68341644481E+03  0.68816591380E+03  0.80711138537E+02 0.  0.
         66    2    3    3    0    0 -0.15056834310E+02  0.60198324995E+00 -0.66088432244E+03  0.66105911861E+03  0.20000008151E+01 0.  0.
        -13    1    3    3    0    0  0.15056834310E+02 -0.60198324995E+00 -0.22532122370E+02  0.27106795196E+02  0.10566000000E+00 0.  1.
         13    1    4    4    0    0 -0.38920659415E+00 -0.39484350918E-01 -0.27838167440E+02  0.27841116559E+02  0.10566000000E+00 0. -1.
        -13    1    4    4    0    0 -0.41464412245E+01  0.75681410376E+00 -0.19350349511E+03  0.19354942399E+03  0.10566000000E+00 0.  1.
         14    1    4    4    0    0 -0.10521186491E+02 -0.11534650289E+00 -0.43954265989E+03  0.43966857806E+03  0.00000000000E+00 0. -1.
<mgrwt>
<rscale>  0 0.80711139E+02</rscale>
<asrwt>0</asrwt>
<pdfrwt beam="1">  1        2 0.10550618E+00 0.80711139E+02</pdfrwt>
<pdfrwt beam="2">  1       -1 0.36534432E-03 0.80711139E+02</pdfrwt>
<totfact> 0.32534935E+05</totfact>
</mgrwt>
</event>
<event>
 8    1  0.1600673E-013  0.7961537E+02  0.7818608E-02  0.1330147E+00
         -1   -1    0    0    0  501 -0.00000000000E+00  0.00000000000E+00  0.36409396230E+01  0.36409431113E+01  0.50400000000E-02 0.  1.
          2   -1    0    0  501    0  0.00000000000E+00 -0.00000000000E+00 -0.43523133033E+03  0.43523133033E+03  0.25500000000E-02 0. -1.
         24    2    1    2    0    0  0.00000000000E+00  0.00000000000E+00 -0.43159039070E+03  0.43887227345E+03  0.79615369442E+02 0.  0.
         66    2    3    3    0    0  0.10134118941E+02 -0.33507359811E+02 -0.32011449504E+03  0.32202908791E+03  0.19999991707E+01 0.  0.
        -13    1    3    3    0    0 -0.10134118941E+02  0.33507359811E+02 -0.11147589567E+03  0.11684318554E+03  0.10566000000E+00 0.  1.
         13    1    4    4    0    0  0.38677929080E+01 -0.13648214198E+02 -0.12888091003E+03  0.12965929858E+03  0.10566000000E+00 0. -1.
        -13    1    4    4    0    0  0.48957896256E+01 -0.16452980097E+02 -0.15280827001E+03  0.15376946335E+03  0.10566000000E+00 0.  1.
        -14    1    4    4    0    0  0.13705364080E+01 -0.34061655154E+01 -0.38425314992E+02  0.38600325981E+02  0.00000000000E+00 0.  1.
<mgrwt>
<rscale>  0 0.79615369E+02</rscale>
<asrwt>0</asrwt>
<pdfrwt beam="1">  1        2 0.66958625E-01 0.79615369E+02</pdfrwt>
<pdfrwt beam="2">  1       -1 0.56014517E-03 0.79615369E+02</pdfrwt>
<totfact> 0.29456731E+05</totfact>
</mgrwt>
</event>
<event>
 8    1  0.1600673E-013  0.7993141E+02  0.7818608E-02  0.1329246E+00
         -1   -1    0    0    0  501 -0.00000000000E+00  0.00000000000E+00  0.54039168231E+02  0.54039168466E+02  0.50400000000E-02 0.  1.
          2   -1    0    0  501    0  0.00000000000E+00 -0.00000000000E+00 -0.29557402412E+02  0.29557402522E+02  0.25500000000E-02 0. -1.
         24    2    1    2    0    0  0.00000000000E+00 -0.35527136788E-14  0.24481765820E+02  0.83596570988E+02  0.79931406989E+02 0.  0.
         66    2    3    3    0    0 -0.26390193579E+02 -0.22359866028E+02 -0.86383722621E+01  0.35707525930E+02  0.20000016867E+01 0.  0.
        -13    1    3    3    0    0  0.26390193579E+02  0.22359866028E+02  0.33120138082E+02  0.47889045058E+02  0.10566000000E+00 0.  1.
         13    1    4    4    0    0 -0.55007710156E+01 -0.38397084444E+01 -0.19485866714E+01  0.69864151577E+01  0.10566000000E+00 0. -1.
        -13    1    4    4    0    0 -0.26872062414E+01 -0.20252749320E+01 -0.76231161504E+00  0.34518254544E+01  0.10566000000E+00 0. -1.
        -14    1    4    4    0    0 -0.18202216323E+02 -0.16494882652E+02 -0.59274739756E+01  0.25269285318E+02  0.00000000000E+00 0.  1.
<mgrwt>
<rscale>  0 0.79931407E+02</rscale>
<asrwt>0</asrwt>
<pdfrwt beam="1">  1        2 0.45472927E-02 0.79931407E+02</pdfrwt>
<pdfrwt beam="2">  1       -1 0.83137183E-02 0.79931407E+02</pdfrwt>
<totfact> 0.13448138E+05</totfact>
</mgrwt>
</event>
<event>
 8    1  0.1600673E-013  0.8832478E+02  0.7818608E-02  0.1306960E+00
          2   -1    0    0  501    0  0.00000000000E+00  0.00000000000E+00  0.46184006298E+03  0.46184006299E+03  0.25500000000E-02 0. -1.
         -1   -1    0    0    0  501 -0.00000000000E+00 -0.00000000000E+00 -0.42229254416E+01  0.42229284491E+01  0.50400000000E-02 0.  1.
         24    2    1    2    0    0  0.00000000000E+00  0.71054273576E-14  0.45761713754E+03  0.46606299144E+03  0.88324783711E+02 0.  0.
         66    2    3    3    0    0 -0.86583539589E+01  0.40089003160E+02  0.31502087816E+03  0.31768577074E+03  0.19999971853E+01 0.  0.
        -13    1    3    3    0    0  0.86583539589E+01 -0.40089003160E+02  0.14259625938E+03  0.14837722070E+03  0.10566000000E+00 0.  1.
         13    1    4    4    0    0 -0.22354980458E+00  0.10963191286E+01  0.88663736624E+01  0.89373170529E+01  0.10566000000E+00 0.  1.
        -13    1    4    4    0    0 -0.27663302552E+01  0.17124733612E+02  0.13272304228E+03  0.13385188158E+03  0.10566000000E+00 0.  1.
         14    1    4    4    0    0 -0.56684738991E+01  0.21867950420E+02  0.17343146221E+03  0.17489657212E+03  0.00000000000E+00 0. -1.
<mgrwt>
<rscale>  0 0.88324784E+02</rscale>
<asrwt>0</asrwt>
<pdfrwt beam="1">  1        2 0.71052294E-01 0.88324784E+02</pdfrwt>
<pdfrwt beam="2">  1       -1 0.64968128E-03 0.88324784E+02</pdfrwt>
<totfact> 0.22893365E+05</totfact>
</mgrwt>
</event>
<event>
 8    1  0.1600673E-013  0.7716983E+02  0.7818608E-02  0.1337280E+00
         -1   -1    0    0    0  501 -0.00000000000E+00  0.00000000000E+00  0.18075836014E+02  0.18075836717E+02  0.50400000000E-02 0.  1.
          2   -1    0    0  501    0  0.00000000000E+00 -0.00000000000E+00 -0.82363866718E+02  0.82363866757E+02  0.25500000000E-02 0. -1.
         24    2    1    2    0    0  0.00000000000E+00  0.00000000000E+00 -0.64288030703E+02  0.10043970347E+03  0.77169833110E+02 0.  0.
         66    2    3    3    0    0 -0.89086484096E+01  0.11932229100E+02 -0.78458137272E+02  0.79883799408E+02  0.19999989663E+01 0.  0.
        -13    1    3    3    0    0  0.89086484096E+01 -0.11932229100E+02  0.14170106569E+02  0.20555904066E+02  0.10566000000E+00 0.  1.
         13    1    4    4    0    0 -0.43115783912E+01  0.48636919622E+01 -0.34114933127E+02  0.34728734991E+02  0.10566000000E+00 0. -1.
        -13    1    4    4    0    0 -0.40571420356E+00  0.57778952509E+00 -0.59066033751E+01  0.59495858862E+01  0.10566000000E+00 0.  1.
         14    1    4    4    0    0 -0.41913558148E+01  0.64907476131E+01 -0.38436600769E+02  0.39205478531E+02  0.00000000000E+00 0. -1.
<mgrwt>
<rscale>  0 0.77169833E+02</rscale>
<asrwt>0</asrwt>
<pdfrwt beam="1">  1        2 0.12671364E-01 0.77169833E+02</pdfrwt>
<pdfrwt beam="2">  1       -1 0.27808980E-02 0.77169833E+02</pdfrwt>
<totfact> 0.18531290E+05</totfact>
</mgrwt>
</event>
<event>
 8    1  0.1600673E-013  0.7900765E+02  0.7818608E-02  0.1331891E+00
         -1   -1    0    0    0  501 -0.00000000000E+00  0.00000000000E+00  0.27131929597E+02  0.27131930065E+02  0.50400000000E-02 0.  1.
          2   -1    0    0  501    0  0.00000000000E+00 -0.00000000000E+00 -0.57517182371E+02  0.57517182427E+02  0.25500000000E-02 0. -1.
         24    2    1    2    0    0 -0.17763568394E-14  0.00000000000E+00 -0.30385252774E+02  0.84649112492E+02  0.79007649374E+02 0.  0.
         66    2    3    3    0    0  0.13318106882E+02 -0.36829156693E+01 -0.54824172961E+02  0.56574073353E+02  0.19999990363E+01 0.  0.
        -13    1    3    3    0    0 -0.13318106882E+02  0.36829156693E+01  0.24438920186E+02  0.28075039139E+02  0.10566000000E+00 0.  1.
         13    1    4    4    0    0  0.75996845397E+01 -0.21518546589E+01 -0.33953231262E+02  0.34859987962E+02  0.10566000000E+00 0. -1.
        -13    1    4    4    0    0  0.21126317589E+01 -0.13507538914E+00 -0.69339171587E+01  0.72506433859E+01  0.10566000000E+00 0.  1.
         14    1    4    4    0    0  0.36057905838E+01 -0.13959856213E+01 -0.13937024540E+02  0.14463442005E+02  0.00000000000E+00 0. -1.
<mgrwt>
<rscale>  0 0.79007649E+02</rscale>
<asrwt>0</asrwt>
<pdfrwt beam="1">  1        2 0.88487973E-02 0.79007649E+02</pdfrwt>
<pdfrwt beam="2">  1       -1 0.41741431E-02 0.79007649E+02</pdfrwt>
<totfact> 0.15948968E+05</totfact>
</mgrwt>
</event>
<event>
 8    1  0.1600673E-013  0.8219484E+02  0.7818608E-02  0.1322936E+00
         -1   -1    0    0    0  501 -0.00000000000E+00  0.00000000000E+00  0.17403609593E+01  0.17403682571E+01  0.50400000000E-02 0.  1.
          2   -1    0    0  501    0  0.00000000000E+00 -0.00000000000E+00 -0.97048514095E+03  0.97048514095E+03  0.25500000000E-02 0. -1.
         24    2    1    2    0    0 -0.35527136788E-14 -0.88817841970E-15 -0.96874477999E+03  0.97222550921E+03  0.82194841688E+02 0.  0.
         66    2    3    3    0    0 -0.28537061339E+02 -0.49387885967E+01 -0.82915199081E+03  0.82966003843E+03  0.20000015109E+01 0.  0.
        -13    1    3    3    0    0  0.28537061339E+02  0.49387885967E+01 -0.13959278918E+03  0.14256547078E+03  0.10566000000E+00 0.  1.
         13    1    4    4    0    0 -0.12369564953E+02 -0.18615112980E+01 -0.36304019073E+03  0.36325564361E+03  0.10566000000E+00 0. -1.
        -13    1    4    4    0    0 -0.47103723400E+01 -0.12928168191E+01 -0.15289432593E+03  0.15297236695E+03  0.10566000000E+00 0.  1.
        -14    1    4    4    0    0 -0.11457124046E+02 -0.17844604796E+01 -0.31321747414E+03  0.31343202788E+03  0.00000000000E+00 0.  1.
<mgrwt>
<rscale>  0 0.82194842E+02</rscale>
<asrwt>0</asrwt>
<pdfrwt beam="1">  1        2 0.14930497E+00 0.82194842E+02</pdfrwt>
<pdfrwt beam="2">  1       -1 0.26774918E-03 0.82194842E+02</pdfrwt>
<totfact> 0.32785874E+05</totfact>
</mgrwt>
</event>
<event>
 8    1  0.1600673E-013  0.7048627E+02  0.7818608E-02  0.1358447E+00
          2   -1    0    0  501    0  0.00000000000E+00  0.00000000000E+00  0.15390255116E+04  0.15390255116E+04  0.25500000000E-02 0. -1.
         -1   -1    0    0    0  501 -0.00000000000E+00 -0.00000000000E+00 -0.80704726958E+00  0.80706300679E+00  0.50400000000E-02 0.  1.
         24    2    1    2    0    0  0.00000000000E+00  0.88817841970E-15  0.15382184644E+04  0.15398325746E+04  0.70486266887E+02 0.  0.
         66    2    3    3    0    0  0.15697945230E+02 -0.54705375121E+01  0.14479063535E+04  0.14480031632E+04  0.19999983322E+01 0.  0.
        -13    1    3    3    0    0 -0.15697945230E+02  0.54705375121E+01  0.90312110882E+02  0.91829411416E+02  0.10566000000E+00 0.  1.
         13    1    4    4    0    0  0.13169997175E+02 -0.45296248447E+01  0.11784637513E+04  0.11785460494E+04  0.10566000000E+00 0. -1.
        -13    1    4    4    0    0  0.24846731502E+01 -0.91777855566E+00  0.26860203590E+03  0.26861511643E+03  0.10566000000E+00 0.  1.
        -14    1    4    4    0    0  0.43274905176E-01 -0.23134111671E-01  0.84056628683E+00  0.84199737950E+00  0.00000000000E+00 0.  1.
<mgrwt>
<rscale>  0 0.70486267E+02</rscale>
<asrwt>0</asrwt>
<pdfrwt beam="1">  1        2 0.23677509E+00 0.70486267E+02</pdfrwt>
<pdfrwt beam="2">  1       -1 0.12416132E-03 0.70486267E+02</pdfrwt>
<totfact> 0.45653619E+05</totfact>
</mgrwt>
</event>
<event>
 8    1  0.1600673E-013  0.8123159E+02  0.7818608E-02  0.1325592E+00
         -1   -1    0    0    0  501 -0.00000000000E+00  0.00000000000E+00  0.36449589724E+01  0.36449624569E+01  0.50400000000E-02 0.  1.
          2   -1    0    0  501    0  0.00000000000E+00 -0.00000000000E+00 -0.45258180539E+03  0.45258180540E+03  0.25500000000E-02 0. -1.
         24    2    1    2    0    0  0.17763568394E-14 -0.17763568394E-14 -0.44893684642E+03  0.45622676785E+03  0.81231592593E+02 0.  0.
         66    2    3    3    0    0  0.14014606232E+02 -0.11528955515E+02 -0.42852649158E+03  0.42891523637E+03  0.20000013545E+01 0.  0.
        -13    1    3    3    0    0 -0.14014606232E+02  0.11528955515E+02 -0.20410354836E+02  0.27311531478E+02  0.10566000000E+00 0.  1.
         13    1    4    4    0    0  0.85934599575E+01 -0.64527838460E+01 -0.26881779096E+03  0.26903252940E+03  0.10566000000E+00 0. -1.
        -13    1    4    4    0    0  0.34351500127E+00 -0.52801879621E+00 -0.14698695600E+02  0.14712566832E+02  0.10566000000E+00 0.  1.
         14    1    4    4    0    0  0.50776312730E+01 -0.45481528727E+01 -0.14501000502E+03  0.14517014015E+03  0.00000000000E+00 0. -1.
<mgrwt>
<rscale>  0 0.81231593E+02</rscale>
<asrwt>0</asrwt>
<pdfrwt beam="1">  1        2 0.69627925E-01 0.81231593E+02</pdfrwt>
<pdfrwt beam="2">  1       -1 0.56076355E-03 0.81231593E+02</pdfrwt>
<totfact> 0.28322481E+05</totfact>
</mgrwt>
</event>
<event>
 8    1  0.1600673E-013  0.8055247E+02  0.7818608E-02  0.1327491E+00
         -1   -1    0    0    0  501 -0.00000000000E+00  0.00000000000E+00  0.23754808853E+02  0.23754809387E+02  0.50400000000E-02 0.  1.
          2   -1    0    0  501    0  0.00000000000E+00 -0.00000000000E+00 -0.68288288459E+02  0.68288288506E+02  0.25500000000E-02 0. -1.
         24    2    1    2    0    0  0.35527136788E-14  0.00000000000E+00 -0.44533479606E+02  0.92043097894E+02  0.80552473978E+02 0.  0.
         66    2    3    3    0    0 -0.29643671332E+02  0.25547149069E+02 -0.33045977631E+02  0.51258567233E+02  0.20000003983E+01 0.  0.
        -13    1    3    3    0    0  0.29643671332E+02 -0.25547149069E+02 -0.11487501975E+02  0.40784530661E+02  0.10566000000E+00 0.  1.
         13    1    4    4    0    0 -0.62945024126E+01  0.53461005522E+01 -0.70243849011E+01  0.10842264478E+02  0.10566000000E+00 0. -1.
        -13    1    4    4    0    0 -0.65194162489E+01  0.64453749595E+01 -0.84006160421E+01  0.12434916989E+02  0.10566000000E+00 0.  1.
        -14    1    4    4    0    0 -0.16829752670E+02  0.13755673557E+02 -0.17620976688E+02  0.27981385766E+02  0.00000000000E+00 0.  1.
<mgrwt>
<rscale>  0 0.80552474E+02</rscale>
<asrwt>0</asrwt>
<pdfrwt beam="1">  1        2 0.10505890E-01 0.80552474E+02</pdfrwt>
<pdfrwt beam="2">  1       -1 0.36545861E-02 0.80552474E+02</pdfrwt>
<totfact> 0.15753038E+05</totfact>
</mgrwt>
</event>
<event>
 8    1  0.1600673E-013  0.7560727E+02  0.7818608E-02  0.1342001E+00
         -1   -1    0    0    0  501 -0.00000000000E+00  0.00000000000E+00  0.52507025753E+03  0.52507025756E+03  0.50400000000E-02 0.  1.
          2   -1    0    0  501    0  0.00000000000E+00 -0.00000000000E+00 -0.27217584982E+01  0.27217596927E+01  0.25500000000E-02 0. -1.
         24    2    1    2    0    0  0.00000000000E+00 -0.35527136788E-14  0.52234849903E+03  0.52779201725E+03  0.75607268360E+02 0.  0.
         66    2    3    3    0    0 -0.25810315808E+02 -0.25038994811E+02  0.34215983105E+03  0.34405010342E+03  0.20000042123E+01 0.  0.
        -13    1    3    3    0    0  0.25810315808E+02  0.25038994811E+02  0.18018866798E+03  0.18374191383E+03  0.10566000000E+00 0.  1.
         13    1    4    4    0    0 -0.57844812198E+01 -0.58817149861E+01  0.72255623984E+02  0.72725106776E+02  0.10566000000E+00 0. -1.
        -13    1    4    4    0    0 -0.83190521627E+01 -0.75553508488E+01  0.10585396865E+03  0.10644887880E+03  0.10566000000E+00 0.  1.
        -14    1    4    4    0    0 -0.11706782425E+02 -0.11601928976E+02  0.16405023841E+03  0.16487611784E+03  0.00000000000E+00 0.  1.
<mgrwt>
<rscale>  0 0.75607268E+02</rscale>
<asrwt>0</asrwt>
<pdfrwt beam="1">  1        2 0.41873214E-03 0.75607268E+02</pdfrwt>
<pdfrwt beam="2">  1       -1 0.80780045E-01 0.75607268E+02</pdfrwt>
<totfact> 0.74870383E+04</totfact>
</mgrwt>
</event>
<event>
 8    1  0.1600673E-013  0.7898063E+02  0.7818608E-02  0.1331969E+00
         -1   -1    0    0    0  501 -0.00000000000E+00  0.00000000000E+00  0.67033842032E+02  0.67033842222E+02  0.50400000000E-02 0.  1.
          2   -1    0    0  501    0  0.00000000000E+00 -0.00000000000E+00 -0.23264146001E+02  0.23264146141E+02  0.25500000000E-02 0. -1.
         24    2    1    2    0    0  0.00000000000E+00  0.00000000000E+00  0.43769696031E+02  0.90297988363E+02  0.78980633143E+02 0.  0.
         66    2    3    3    0    0  0.18802364220E+02  0.24944957879E+02 -0.56756244241E+01  0.31811830147E+02  0.20000002105E+01 0.  0.
        -13    1    3    3    0    0 -0.18802364220E+02 -0.24944957879E+02  0.49445320456E+02  0.58486158216E+02  0.10566000000E+00 0.  1.
         13    1    4    4    0    0  0.10639406998E+02  0.13766736699E+02 -0.33108373436E+01  0.17711375683E+02  0.10566000000E+00 0. -1.
        -13    1    4    4    0    0  0.39241308792E+01  0.47338644645E+01 -0.15642133732E+01  0.63455656516E+01  0.10566000000E+00 0.  1.
         14    1    4    4    0    0  0.42388263422E+01  0.64443567153E+01 -0.80057370730E+00  0.77548888125E+01  0.00000000000E+00 0. -1.
<mgrwt>
<rscale>  0 0.78980633E+02</rscale>
<asrwt>0</asrwt>
<pdfrwt beam="1">  1        2 0.35790994E-02 0.78980633E+02</pdfrwt>
<pdfrwt beam="2">  1       -1 0.10312899E-01 0.78980633E+02</pdfrwt>
<totfact> 0.13271716E+05</totfact>
</mgrwt>
</event>
<event>
 8    1  0.1600673E-013  0.7467627E+02  0.7818608E-02  0.1344876E+00
          2   -1    0    0  501    0  0.00000000000E+00  0.00000000000E+00  0.11849407874E+04  0.11849407874E+04  0.25500000000E-02 0. -1.
         -1   -1    0    0    0  501 -0.00000000000E+00 -0.00000000000E+00 -0.11765396168E+01  0.11765504118E+01  0.50400000000E-02 0.  1.
         24    2    1    2    0    0  0.00000000000E+00 -0.35527136788E-14  0.11837642477E+04  0.11861173378E+04  0.74676266206E+02 0.  0.
         66    2    3    3    0    0 -0.99853754198E+01 -0.19697950977E+02  0.10699763793E+04  0.10702061340E+04  0.19999914280E+01 0.  0.
        -13    1    3    3    0    0  0.99853754198E+01  0.19697950977E+02  0.11378786846E+03  0.11591120381E+03  0.10566000000E+00 0.  1.
         13    1    4    4    0    0 -0.71519554238E+01 -0.12278293632E+02  0.69043832553E+03  0.69058453464E+03  0.10566000000E+00 0. -1.
        -13    1    4    4    0    0 -0.10454816358E+01 -0.34537226973E+01  0.17779961206E+03  0.17783625739E+03  0.10566000000E+00 0.  1.
        -14    1    4    4    0    0 -0.17879383602E+01 -0.39659346477E+01  0.20173844169E+03  0.20178534193E+03  0.00000000000E+00 0.  1.
<mgrwt>
<rscale>  0 0.74676266E+02</rscale>
<asrwt>0</asrwt>
<pdfrwt beam="1">  1        2 0.18229949E+00 0.74676266E+02</pdfrwt>
<pdfrwt beam="2">  1       -1 0.18100602E-03 0.74676266E+02</pdfrwt>
<totfact> 0.41925994E+05</totfact>
</mgrwt>
</event>
<event>
 8    1  0.1600673E-013  0.8180532E+02  0.7818608E-02  0.1324005E+00
          2   -1    0    0  501    0  0.00000000000E+00  0.00000000000E+00  0.38446372117E+03  0.38446372118E+03  0.25500000000E-02 0. -1.
         -1   -1    0    0    0  501 -0.00000000000E+00 -0.00000000000E+00 -0.43515857129E+01  0.43515886315E+01  0.50400000000E-02 0.  1.
         24    2    1    2    0    0  0.00000000000E+00  0.88817841970E-15  0.38011213546E+03  0.38881530981E+03  0.81805315358E+02 0.  0.
         66    2    3    3    0    0  0.21832203867E+02 -0.60301379764E+01  0.35190988578E+03  0.35264369469E+03  0.20000007053E+01 0.  0.
        -13    1    3    3    0    0 -0.21832203867E+02  0.60301379764E+01  0.28202249673E+02  0.36171615120E+02  0.10566000000E+00 0.  1.
         13    1    4    4    0    0  0.81207520175E+01 -0.25844212709E+01  0.11909715385E+03  0.11940171300E+03  0.10566000000E+00 0. -1.
        -13    1    4    4    0    0  0.25448241630E+01 -0.50593130148E+00  0.43153228042E+02  0.43231289028E+02  0.10566000000E+00 0.  1.
         14    1    4    4    0    0  0.11166627686E+02 -0.29397854040E+01  0.18965950389E+03  0.19001069266E+03  0.00000000000E+00 0. -1.
<mgrwt>
<rscale>  0 0.81805315E+02</rscale>
<asrwt>0</asrwt>
<pdfrwt beam="1">  1        2 0.59148287E-01 0.81805315E+02</pdfrwt>
<pdfrwt beam="2">  1       -1 0.66947471E-03 0.81805315E+02</pdfrwt>
<totfact> 0.26282912E+05</totfact>
</mgrwt>
</event>
<event>
 8    1  0.1600673E-013  0.8023140E+02  0.7818608E-02  0.1328396E+00
          2   -1    0    0  501    0  0.00000000000E+00  0.00000000000E+00  0.10968897667E+03  0.10968897670E+03  0.25500000000E-02 0. -1.
         -1   -1    0    0    0  501 -0.00000000000E+00 -0.00000000000E+00 -0.14671205458E+02  0.14671206324E+02  0.50400000000E-02 0.  1.
         24    2    1    2    0    0  0.35527136788E-14 -0.88817841970E-15  0.95017771216E+02  0.12436018303E+03  0.80231404549E+02 0.  0.
         66    2    3    3    0    0 -0.27916794066E+02  0.49104898328E+01  0.91483593510E+02  0.95795136601E+02  0.20000033952E+01 0.  0.
        -13    1    3    3    0    0  0.27916794066E+02 -0.49104898328E+01  0.35341777068E+01  0.28565046428E+02  0.10566000000E+00 0.  1.
         13    1    4    4    0    0 -0.10408259443E+02  0.20395315932E+01  0.34407420041E+02  0.36005183955E+02  0.10566000000E+00 0. -1.
        -13    1    4    4    0    0 -0.12254696314E+02  0.24773084442E+01  0.41868870328E+02  0.43695859134E+02  0.10566000000E+00 0.  1.
        -14    1    4    4    0    0 -0.52538383084E+01  0.39364979547E+00  0.15207303141E+02  0.16094093511E+02  0.00000000000E+00 0.  1.
<mgrwt>
<rscale>  0 0.80231405E+02</rscale>
<asrwt>0</asrwt>
<pdfrwt beam="1">  1        2 0.16875226E-01 0.80231405E+02</pdfrwt>
<pdfrwt beam="2">  1       -1 0.22571087E-02 0.80231405E+02</pdfrwt>
<totfact> 0.18058870E+05</totfact>
</mgrwt>
</event>
<event>
 8    1  0.1600673E-013  0.7994055E+02  0.7818608E-02  0.1329220E+00
          2   -1    0    0  501    0  0.00000000000E+00  0.00000000000E+00  0.84189926560E+03  0.84189926561E+03  0.25500000000E-02 0. -1.
         -1   -1    0    0    0  501 -0.00000000000E+00 -0.00000000000E+00 -0.18976377909E+01  0.18976444839E+01  0.50400000000E-02 0.  1.
         24    2    1    2    0    0  0.00000000000E+00  0.17763568394E-14  0.84000162781E+03  0.84379691009E+03  0.79940545106E+02 0.  0.
         66    2    3    3    0    0  0.86503365429E+01  0.13024542114E+02  0.80825492763E+03  0.80840861886E+03  0.19999982706E+01 0.  0.
        -13    1    3    3    0    0 -0.86503365429E+01 -0.13024542114E+02  0.31746700182E+02  0.35388291228E+02  0.10566000000E+00 0.  1.
         13    1    4    4    0    0  0.10544857099E+01  0.11789518283E+01  0.86648269216E+02  0.86662769340E+02  0.10566000000E+00 0. -1.
        -13    1    4    4    0    0  0.22364301071E+01  0.30842475699E+01  0.23402769511E+03  0.23405872648E+03  0.10566000000E+00 0.  1.
         14    1    4    4    0    0  0.53594207258E+01  0.87613427158E+01  0.48757896331E+03  0.48768712304E+03  0.00000000000E+00 0. -1.
<mgrwt>
<rscale>  0 0.79940545E+02</rscale>
<asrwt>0</asrwt>
<pdfrwt beam="1">  1        2 0.12952266E+00 0.79940545E+02</pdfrwt>
<pdfrwt beam="2">  1       -1 0.29194548E-03 0.79940545E+02</pdfrwt>
<totfact> 0.34714277E+05</totfact>
</mgrwt>
</event>
<event>
 8    1  0.1600673E-013  0.8072401E+02  0.7818608E-02  0.1327009E+00
         -1   -1    0    0    0  501 -0.00000000000E+00  0.00000000000E+00  0.35005066386E+02  0.35005066749E+02  0.50400000000E-02 0.  1.
          2   -1    0    0  501    0  0.00000000000E+00 -0.00000000000E+00 -0.46538731704E+02  0.46538731774E+02  0.25500000000E-02 0. -1.
         24    2    1    2    0    0 -0.35527136788E-14  0.00000000000E+00 -0.11533665318E+02  0.81543798522E+02  0.80724009079E+02 0.  0.
         66    2    3    3    0    0  0.28083550714E+02  0.27334824728E+02 -0.15417636856E+02  0.42161380332E+02  0.20000004134E+01 0.  0.
        -13    1    3    3    0    0 -0.28083550714E+02 -0.27334824728E+02  0.38839715382E+01  0.39382418191E+02  0.10566000000E+00 0.  1.
         13    1    4    4    0    0  0.24284937111E+02  0.23631628780E+02 -0.12851051966E+02  0.36240484957E+02  0.10566000000E+00 0. -1.
        -13    1    4    4    0    0  0.28062495225E+01  0.23811060401E+01 -0.18178383447E+01  0.41061420628E+01  0.10566000000E+00 0.  1.
        -14    1    4    4    0    0  0.99236407982E+00  0.13220899080E+01 -0.74874654571E+00  0.18147533114E+01  0.00000000000E+00 0.  1.
<mgrwt>
<rscale>  0 0.80724009E+02</rscale>
<asrwt>0</asrwt>
<pdfrwt beam="1">  1        2 0.71598048E-02 0.80724009E+02</pdfrwt>
<pdfrwt beam="2">  1       -1 0.53853949E-02 0.80724009E+02</pdfrwt>
<totfact> 0.14353954E+05</totfact>
</mgrwt>
</event>
<event>
 8    1  0.1600673E-013  0.7908874E+02  0.7818608E-02  0.1331658E+00
         -1   -1    0    0    0  501 -0.00000000000E+00  0.00000000000E+00  0.26595961533E+02  0.26595962011E+02  0.50400000000E-02 0.  1.
          2   -1    0    0  501    0  0.00000000000E+00 -0.00000000000E+00 -0.58796790468E+02  0.58796790524E+02  0.25500000000E-02 0. -1.
         24    2    1    2    0    0  0.00000000000E+00 -0.88817841970E-15 -0.32200828935E+02  0.85392752535E+02  0.79088740041E+02 0.  0.
         66    2    3    3    0    0 -0.86301991525E+01 -0.55778979546E+01 -0.57311965735E+02  0.58260232592E+02  0.20000005726E+01 0.  0.
        -13    1    3    3    0    0  0.86301991525E+01  0.55778979546E+01  0.25111136800E+02  0.27132519942E+02  0.10566000000E+00 0.  1.
         13    1    4    4    0    0 -0.51155798363E+01 -0.30014926327E+01 -0.30069433040E+02  0.30648981752E+02  0.10566000000E+00 0. -1.
        -13    1    4    4    0    0 -0.13812821915E+01 -0.16852738347E+01 -0.13789092358E+02  0.13960598858E+02  0.10566000000E+00 0.  1.
        -14    1    4    4    0    0 -0.21333371247E+01 -0.89113148731E+00 -0.13453440337E+02  0.13650651982E+02  0.00000000000E+00 0.  1.
<mgrwt>
<rscale>  0 0.79088740E+02</rscale>
<asrwt>0</asrwt>
<pdfrwt beam="1">  1        2 0.90456600E-02 0.79088740E+02</pdfrwt>
<pdfrwt beam="2">  1       -1 0.40916865E-02 0.79088740E+02</pdfrwt>
<totfact> 0.15984279E+05</totfact>
</mgrwt>
</event>
<event>
 8    1  0.1600673E-013  0.8028601E+02  0.7818608E-02  0.1328242E+00
          2   -1    0    0  501    0  0.00000000000E+00  0.00000000000E+00  0.40302291936E+03  0.40302291937E+03  0.25500000000E-02 0. -1.
         -1   -1    0    0    0  501 -0.00000000000E+00 -0.00000000000E+00 -0.39984333829E+01  0.39984365594E+01  0.50400000000E-02 0.  1.
         24    2    1    2    0    0 -0.35527136788E-14  0.17763568394E-14  0.39902448598E+03  0.40702135593E+03  0.80286012305E+02 0.  0.
         66    2    3    3    0    0  0.23880349836E+02 -0.10762574299E+02  0.35368542963E+03  0.35465967807E+03  0.20000001601E+01 0.  0.
        -13    1    3    3    0    0 -0.23880349836E+02  0.10762574299E+02  0.45339056348E+02  0.52361677861E+02  0.10566000000E+00 0.  1.
         13    1    4    4    0    0  0.53569969061E+01 -0.20711768877E+01  0.68910863417E+02  0.69149876721E+02  0.10566000000E+00 0. -1.
        -13    1    4    4    0    0  0.15121534499E+01 -0.51021734620E+00  0.21499348037E+02  0.21558758309E+02  0.10566000000E+00 0.  1.
         14    1    4    4    0    0  0.17011199480E+02 -0.81811800655E+01  0.26327521818E+03  0.26395104304E+03  0.00000000000E+00 0. -1.
<mgrwt>
<rscale>  0 0.80286012E+02</rscale>
<asrwt>0</asrwt>
<pdfrwt beam="1">  1        2 0.62003560E-01 0.80286012E+02</pdfrwt>
<pdfrwt beam="2">  1       -1 0.61514351E-03 0.80286012E+02</pdfrwt>
<totfact> 0.28065111E+05</totfact>
</mgrwt>
</event>
<event>
 8    1  0.1600673E-013  0.7962920E+02  0.7818608E-02  0.1330107E+00
         -1   -1    0    0    0  501 -0.00000000000E+00  0.00000000000E+00  0.58119837795E+01  0.58119859648E+01  0.50400000000E-02 0.  1.
          2   -1    0    0  501    0  0.00000000000E+00 -0.00000000000E+00 -0.27274718400E+03  0.27274718402E+03  0.25500000000E-02 0. -1.
         24    2    1    2    0    0  0.35527136788E-14  0.35527136788E-14 -0.26693520022E+03  0.27855916998E+03  0.79629203571E+02 0.  0.
         66    2    3    3    0    0  0.24604888134E+02  0.27350456844E+02 -0.18657555414E+03  0.19017856186E+03  0.19999942822E+01 0.  0.
        -13    1    3    3    0    0 -0.24604888134E+02 -0.27350456844E+02 -0.80359646084E+02  0.88380608124E+02  0.10566000000E+00 0.  1.
         13    1    4    4    0    0  0.11124172625E+02  0.13048534976E+02 -0.87544353858E+02  0.89207827785E+02  0.10566000000E+00 0. -1.
        -13    1    4    4    0    0  0.99798561983E+01  0.11369752101E+02 -0.76195966263E+02  0.77683365217E+02  0.10566000000E+00 0.  1.
        -14    1    4    4    0    0  0.35008593103E+01  0.29321697676E+01 -0.22835234020E+02  0.23287368855E+02  0.00000000000E+00 0.  1.
<mgrwt>
<rscale>  0 0.79629204E+02</rscale>
<asrwt>0</asrwt>
<pdfrwt beam="1">  1        2 0.41961095E-01 0.79629204E+02</pdfrwt>
<pdfrwt beam="2">  1       -1 0.89415174E-03 0.79629204E+02</pdfrwt>
<totfact> 0.24932119E+05</totfact>
</mgrwt>
</event>
<event>
 8    1  0.1600673E-013  0.7965504E+02  0.7818608E-02  0.1330033E+00
         -1   -1    0    0    0  501 -0.00000000000E+00  0.00000000000E+00  0.16627622702E+02  0.16627623466E+02  0.50400000000E-02 0.  1.
          2   -1    0    0  501    0  0.00000000000E+00 -0.00000000000E+00 -0.95397367911E+02  0.95397367945E+02  0.25500000000E-02 0. -1.
         24    2    1    2    0    0  0.00000000000E+00 -0.71054273576E-14 -0.78769745209E+02  0.11202499141E+03  0.79655043408E+02 0.  0.
         66    2    3    3    0    0  0.25540638507E+01  0.38360077562E+02 -0.53903346980E+02  0.66238883063E+02  0.20000052639E+01 0.  0.
        -13    1    3    3    0    0 -0.25540638507E+01 -0.38360077562E+02 -0.24866398229E+02  0.45786108348E+02  0.10566000000E+00 0.  1.
         13    1    4    4    0    0  0.62296079396E+00  0.14019867276E+02 -0.18941747925E+02  0.23574260054E+02  0.10566000000E+00 0. -1.
        -13    1    4    4    0    0  0.39814140322E+00  0.13310601669E+02 -0.19182499283E+02  0.23351875217E+02  0.10566000000E+00 0.  1.
        -14    1    4    4    0    0  0.15329616535E+01  0.11029608617E+02 -0.15779099772E+02  0.19312747792E+02  0.00000000000E+00 0.  1.
<mgrwt>
<rscale>  0 0.79655043E+02</rscale>
<asrwt>0</asrwt>
<pdfrwt beam="1">  1        2 0.14676518E-01 0.79655043E+02</pdfrwt>
<pdfrwt beam="2">  1       -1 0.25580959E-02 0.79655043E+02</pdfrwt>
<totfact> 0.17699548E+05</totfact>
</mgrwt>
</event>
<event>
 8    1  0.1600673E-013  0.8563804E+02  0.7818608E-02  0.1313772E+00
          2   -1    0    0  501    0  0.00000000000E+00  0.00000000000E+00  0.17206799207E+03  0.17206799209E+03  0.25500000000E-02 0. -1.
         -1   -1    0    0    0  501 -0.00000000000E+00 -0.00000000000E+00 -0.10655487451E+02  0.10655488643E+02  0.50400000000E-02 0.  1.
         24    2    1    2    0    0  0.00000000000E+00 -0.88817841970E-15  0.16141250462E+03  0.18272348073E+03  0.85638039233E+02 0.  0.
         66    2    3    3    0    0 -0.22836272820E+02  0.43882958486E+01  0.15740543833E+03  0.15912644191E+03  0.20000007569E+01 0.  0.
        -13    1    3    3    0    0  0.22836272820E+02 -0.43882958486E+01  0.40070662885E+01  0.23597038820E+02  0.10566000000E+00 0.  1.
         13    1    4    4    0    0 -0.80672525532E+01  0.89143186298E+00  0.57208492898E+02  0.57781467948E+02  0.10566000000E+00 0. -1.
        -13    1    4    4    0    0 -0.66492880378E+01  0.11314886717E+01  0.42821789109E+02  0.43349856799E+02  0.10566000000E+00 0.  1.
        -14    1    4    4    0    0 -0.81197322294E+01  0.23653753139E+01  0.57375156324E+02  0.57995117166E+02  0.00000000000E+00 0.  1.
<mgrwt>
<rscale>  0 0.85638039E+02</rscale>
<asrwt>0</asrwt>
<pdfrwt beam="1">  1        2 0.26471998E-01 0.85638039E+02</pdfrwt>
<pdfrwt beam="2">  1       -1 0.16393059E-02 0.85638039E+02</pdfrwt>
<totfact> 0.17486845E+05</totfact>
</mgrwt>
</event>
<event>
 8    1  0.1600673E-013  0.7746451E+02  0.7818608E-02  0.1336405E+00
          2   -1    0    0  501    0  0.00000000000E+00  0.00000000000E+00  0.16705169057E+02  0.16705169251E+02  0.25500000000E-02 0. -1.
         -1   -1    0    0    0  501 -0.00000000000E+00 -0.00000000000E+00 -0.89803789564E+02  0.89803789705E+02  0.50400000000E-02 0.  1.
         24    2    1    2    0    0  0.00000000000E+00  0.35527136788E-14 -0.73098620507E+02  0.10650895896E+03  0.77464508118E+02 0.  0.
         66    2    3    3    0    0 -0.22703077358E+02  0.23155561286E+02 -0.75180267872E+01  0.33348620133E+02  0.19999995096E+01 0.  0.
        -13    1    3    3    0    0  0.22703077358E+02 -0.23155561286E+02 -0.65580593720E+02  0.73160338823E+02  0.10566000000E+00 0.  1.
         13    1    4    4    0    0 -0.17554214171E+02  0.17438448369E+02 -0.52066710916E+01  0.25285776725E+02  0.10566000000E+00 0. -1.
        -13    1    4    4    0    0 -0.49382692238E+01  0.54484590109E+01 -0.23471444308E+01  0.77196152453E+01  0.10566000000E+00 0.  1.
        -14    1    4    4    0    0 -0.21059396259E+00  0.26865390604E+00  0.35788735261E-01  0.34322816301E+00  0.00000000000E+00 0.  1.
<mgrwt>
<rscale>  0 0.77464508E+02</rscale>
<asrwt>0</asrwt>
<pdfrwt beam="1">  1        2 0.25700261E-02 0.77464508E+02</pdfrwt>
<pdfrwt beam="2">  1       -1 0.13815967E-01 0.77464508E+02</pdfrwt>
<totfact> 0.13133751E+05</totfact>
</mgrwt>
</event>
<event>
 8    1  0.1600673E-013  0.7776761E+02  0.7818608E-02  0.1335509E+00
         -1   -1    0    0    0  501 -0.00000000000E+00  0.00000000000E+00  0.69772227704E+01  0.69772245908E+01  0.50400000000E-02 0.  1.
          2   -1    0    0  501    0  0.00000000000E+00 -0.00000000000E+00 -0.21669795827E+03  0.21669795829E+03  0.25500000000E-02 0. -1.
         24    2    1    2    0    0 -0.88817841970E-15 -0.35527136788E-14 -0.20972073550E+03  0.22367518288E+03  0.77767605956E+02 0.  0.
         66    2    3    3    0    0 -0.52664776254E+01 -0.31637144886E+02 -0.16802921783E+03  0.17107443638E+03  0.20000030855E+01 0.  0.
        -13    1    3    3    0    0  0.52664776254E+01  0.31637144886E+02 -0.41691517668E+02  0.52600746503E+02  0.10566000000E+00 0.  1.
         13    1    4    4    0    0 -0.26739337416E+01 -0.18198068870E+02 -0.98366291745E+02  0.10007126535E+03  0.10566000000E+00 0.  1.
        -13    1    4    4    0    0 -0.18687853041E+01 -0.72922707874E+01 -0.39738534733E+02  0.40445418511E+02  0.10566000000E+00 0. -1.
        -14    1    4    4    0    0 -0.72375857973E+00 -0.61468052280E+01 -0.29924391356E+02  0.30557752519E+02  0.00000000000E+00 0.  1.
<mgrwt>
<rscale>  0 0.77767606E+02</rscale>
<asrwt>0</asrwt>
<pdfrwt beam="1">  1        2 0.33338142E-01 0.77767606E+02</pdfrwt>
<pdfrwt beam="2">  1       -1 0.10734192E-02 0.77767606E+02</pdfrwt>
<totfact> 0.24439844E+05</totfact>
</mgrwt>
</event>
<event>
 8    1  0.1600673E-013  0.8019083E+02  0.7818608E-02  0.1328511E+00
         -1   -1    0    0    0  501 -0.00000000000E+00  0.00000000000E+00  0.65086431032E+02  0.65086431228E+02  0.50400000000E-02 0.  1.
          2   -1    0    0  501    0  0.00000000000E+00 -0.00000000000E+00 -0.24700115680E+02  0.24700115812E+02  0.25500000000E-02 0. -1.
         24    2    1    2    0    0  0.00000000000E+00 -0.88817841970E-15  0.40386315352E+02  0.89786547039E+02  0.80190832154E+02 0.  0.
         66    2    3    3    0    0  0.38447429519E+02 -0.64276070296E+01  0.30596141369E+02  0.49594786200E+02  0.19999957042E+01 0.  0.
        -13    1    3    3    0    0 -0.38447429519E+02  0.64276070296E+01  0.97901739838E+01  0.40191760840E+02  0.10566000000E+00 0.  1.
         13    1    4    4    0    0  0.10831198604E+02 -0.23646375792E+01  0.87263430198E+01  0.14109096379E+02  0.10566000000E+00 0. -1.
        -13    1    4    4    0    0  0.21584802631E+02 -0.26339528767E+01  0.16848915424E+02  0.27508880882E+02  0.10566000000E+00 0.  1.
        -14    1    4    4    0    0  0.60314282832E+01 -0.14290165737E+01  0.50208829243E+01  0.79768089386E+01  0.00000000000E+00 0.  1.
<mgrwt>
<rscale>  0 0.80190832E+02</rscale>
<asrwt>0</asrwt>
<pdfrwt beam="1">  1        2 0.38000178E-02 0.80190832E+02</pdfrwt>
<pdfrwt beam="2">  1       -1 0.10013297E-01 0.80190832E+02</pdfrwt>
<totfact> 0.12862343E+05</totfact>
</mgrwt>
</event>
<event>
 8    1  0.1600673E-013  0.7796589E+02  0.7818608E-02  0.1334925E+00
          2   -1    0    0  501    0  0.00000000000E+00  0.00000000000E+00  0.74125272271E+02  0.74125272315E+02  0.25500000000E-02 0. -1.
         -1   -1    0    0    0  501 -0.00000000000E+00 -0.00000000000E+00 -0.20501372089E+02  0.20501372708E+02  0.50400000000E-02 0.  1.
         24    2    1    2    0    0  0.35527136788E-14  0.00000000000E+00  0.53623900183E+02  0.94626645024E+02  0.77965885345E+02 0.  0.
         66    2    3    3    0    0  0.26288535857E+02  0.53042203113E+01  0.61124542910E+02  0.66778975894E+02  0.20000012467E+01 0.  0.
        -13    1    3    3    0    0 -0.26288535857E+02 -0.53042203113E+01 -0.75006427270E+01  0.27847669129E+02  0.10566000000E+00 0.  1.
         13    1    4    4    0    0  0.52960209622E+01  0.11282497215E+01  0.12172638416E+02  0.13323103073E+02  0.10566000000E+00 0. -1.
        -13    1    4    4    0    0  0.11561547096E+02  0.14533183571E+01  0.27268213126E+02  0.29653804421E+02  0.10566000000E+00 0.  1.
        -14    1    4    4    0    0  0.94309677982E+01  0.27226522327E+01  0.21683691368E+02  0.23802068400E+02  0.00000000000E+00 0.  1.
<mgrwt>
<rscale>  0 0.77965885E+02</rscale>
<asrwt>0</asrwt>
<pdfrwt beam="1">  1        2 0.11403888E-01 0.77965885E+02</pdfrwt>
<pdfrwt beam="2">  1       -1 0.31540573E-02 0.77965885E+02</pdfrwt>
<totfact> 0.17554616E+05</totfact>
</mgrwt>
</event>
<event>
 8    1  0.1600673E-013  0.8019218E+02  0.7818608E-02  0.1328507E+00
          2   -1    0    0  501    0  0.00000000000E+00  0.00000000000E+00  0.34714874205E+03  0.34714874206E+03  0.25500000000E-02 0. -1.
         -1   -1    0    0    0  501 -0.00000000000E+00 -0.00000000000E+00 -0.46311444095E+01  0.46311471519E+01  0.50400000000E-02 0.  1.
         24    2    1    2    0    0  0.00000000000E+00  0.00000000000E+00  0.34251759764E+03  0.35177988921E+03  0.80192180168E+02 0.  0.
         66    2    3    3    0    0  0.80473162318E+01  0.25208704808E+02  0.30336444918E+03  0.30452295009E+03  0.20000023156E+01 0.  0.
        -13    1    3    3    0    0 -0.80473162318E+01 -0.25208704808E+02  0.39153148462E+02  0.47256939121E+02  0.10566000000E+00 0.  1.
         13    1    4    4    0    0  0.40057853503E+01  0.12757889960E+02  0.15502338502E+03  0.15559907178E+03  0.10566000000E+00 0. -1.
        -13    1    4    4    0    0  0.38517528452E+01  0.11462278871E+02  0.13240899256E+03  0.13296004028E+03  0.10566000000E+00 0.  1.
        -14    1    4    4    0    0  0.18977803633E+00  0.98853597635E+00  0.15932071606E+02  0.15963838033E+02  0.00000000000E+00 0.  1.
<mgrwt>
<rscale>  0 0.80192180E+02</rscale>
<asrwt>0</asrwt>
<pdfrwt beam="1">  1        2 0.53407517E-01 0.80192180E+02</pdfrwt>
<pdfrwt beam="2">  1       -1 0.71248373E-03 0.80192180E+02</pdfrwt>
<totfact> 0.26702745E+05</totfact>
</mgrwt>
</event>
<event>
 8    1  0.1600673E-013  0.7702919E+02  0.7818608E-02  0.1337700E+00
         -1   -1    0    0    0  501 -0.00000000000E+00  0.00000000000E+00  0.23773196459E+02  0.23773196993E+02  0.50400000000E-02 0.  1.
          2   -1    0    0  501    0  0.00000000000E+00 -0.00000000000E+00 -0.62396916495E+02  0.62396916547E+02  0.25500000000E-02 0. -1.
         24    2    1    2    0    0  0.35527136788E-14  0.00000000000E+00 -0.38623720035E+02  0.86170113540E+02  0.77029193934E+02 0.  0.
         66    2    3    3    0    0 -0.28435646575E+02  0.21459111538E+02 -0.35624027137E+02  0.50419745910E+02  0.20000010055E+01 0.  0.
        -13    1    3    3    0    0  0.28435646575E+02 -0.21459111538E+02 -0.29996928988E+01  0.35750367630E+02  0.10566000000E+00 0.  1.
         13    1    4    4    0    0 -0.19823583095E+02  0.14957606525E+02 -0.26025482900E+02  0.35972786435E+02  0.10566000000E+00 0. -1.
        -13    1    4    4    0    0 -0.50080923915E+01  0.36167693180E+01 -0.56499508906E+01  0.83722827714E+01  0.10566000000E+00 0.  1.
         14    1    4    4    0    0 -0.36039710892E+01  0.28847356956E+01 -0.39485933456E+01  0.60746767037E+01  0.00000000000E+00 0. -1.
<mgrwt>
<rscale>  0 0.77029194E+02</rscale>
<asrwt>0</asrwt>
<pdfrwt beam="1">  1        2 0.95995255E-02 0.77029194E+02</pdfrwt>
<pdfrwt beam="2">  1       -1 0.36574149E-02 0.77029194E+02</pdfrwt>
<totfact> 0.17405226E+05</totfact>
</mgrwt>
</event>
<event>
 8    1  0.1600673E-013  0.7972961E+02  0.7818608E-02  0.1329821E+00
         -1   -1    0    0    0  501 -0.00000000000E+00  0.00000000000E+00  0.54818109211E+01  0.54818132380E+01  0.50400000000E-02 0.  1.
          2   -1    0    0  501    0  0.00000000000E+00 -0.00000000000E+00 -0.28990462164E+03  0.28990462165E+03  0.25500000000E-02 0. -1.
         24    2    1    2    0    0 -0.17763568394E-14  0.00000000000E+00 -0.28442281072E+03  0.29538643489E+03  0.79729609677E+02 0.  0.
         66    2    3    3    0    0 -0.15959165396E+02  0.35240412510E+02 -0.17756804898E+03  0.18174430844E+03  0.19999992401E+01 0.  0.
        -13    1    3    3    0    0  0.15959165396E+02 -0.35240412510E+02 -0.10685476173E+03  0.11364212644E+03  0.10566000000E+00 0.  1.
         13    1    4    4    0    0 -0.14532889883E+02  0.31134449987E+02 -0.15595402532E+03  0.15969417034E+03  0.10566000000E+00 0. -1.
        -13    1    4    4    0    0 -0.69487033723E+00  0.24818748194E+01 -0.12372986541E+02  0.12639007373E+02  0.10566000000E+00 0.  1.
         14    1    4    4    0    0 -0.73140517496E+00  0.16240877045E+01 -0.92410371245E+01  0.94111307258E+01  0.00000000000E+00 0. -1.
<mgrwt>
<rscale>  0 0.79729610E+02</rscale>
<asrwt>0</asrwt>
<pdfrwt beam="1">  1        2 0.44600699E-01 0.79729610E+02</pdfrwt>
<pdfrwt beam="2">  1       -1 0.84335593E-03 0.79729610E+02</pdfrwt>
<totfact> 0.25404917E+05</totfact>
</mgrwt>
</event>
<event>
 8    1  0.1600673E-013  0.7952680E+02  0.7818608E-02  0.1330400E+00
         -1   -1    0    0    0  501 -0.00000000000E+00  0.00000000000E+00  0.14077221491E+02  0.14077222394E+02  0.50400000000E-02 0.  1.
          2   -1    0    0  501    0  0.00000000000E+00 -0.00000000000E+00 -0.11231817428E+03  0.11231817431E+03  0.25500000000E-02 0. -1.
         24    2    1    2    0    0 -0.35527136788E-14  0.00000000000E+00 -0.98240952786E+02  0.12639539670E+03  0.79526797387E+02 0.  0.
         66    2    3    3    0    0  0.28989708090E+02  0.16200112556E+02 -0.83836892502E+02  0.90196847852E+02  0.19999990192E+01 0.  0.
        -13    1    3    3    0    0 -0.28989708090E+02 -0.16200112556E+02 -0.14404060285E+02  0.36198548848E+02  0.10566000000E+00 0.  1.
         13    1    4    4    0    0  0.10975871871E+02  0.66773474811E+01 -0.31388684466E+02  0.33916329536E+02  0.10566000000E+00 0. -1.
        -13    1    4    4    0    0  0.12088397511E+02  0.66066194920E+01 -0.33942150736E+02  0.36631373658E+02  0.10566000000E+00 0. -1.
         14    1    4    4    0    0  0.59254387086E+01  0.29161455833E+01 -0.18506057300E+02  0.19649144657E+02  0.00000000000E+00 0. -1.
<mgrwt>
<rscale>  0 0.79526797E+02</rscale>
<asrwt>0</asrwt>
<pdfrwt beam="1">  1        2 0.17279719E-01 0.79526797E+02</pdfrwt>
<pdfrwt beam="2">  1       -1 0.21657265E-02 0.79526797E+02</pdfrwt>
<totfact> 0.18617254E+05</totfact>
</mgrwt>
</event>
<event>
 8    1  0.1600673E-013  0.7932895E+02  0.7818608E-02  0.1330967E+00
          2   -1    0    0  501    0  0.00000000000E+00  0.00000000000E+00  0.16496228447E+03  0.16496228449E+03  0.25500000000E-02 0. -1.
         -1   -1    0    0    0  501 -0.00000000000E+00 -0.00000000000E+00 -0.95371531564E+01  0.95371544882E+01  0.50400000000E-02 0.  1.
         24    2    1    2    0    0  0.00000000000E+00  0.00000000000E+00  0.15542513132E+03  0.17449943898E+03  0.79328952848E+02 0.  0.
         66    2    3    3    0    0  0.18772849003E+02  0.17020303303E+02  0.14481300475E+03  0.14702692584E+03  0.19999980273E+01 0.  0.
        -13    1    3    3    0    0 -0.18772849003E+02 -0.17020303303E+02  0.10612126569E+02  0.27472513146E+02  0.10566000000E+00 0.  1.
         13    1    4    4    0    0  0.11159048454E+02  0.98411374935E+01  0.88315246788E+02  0.89559847749E+02  0.10566000000E+00 0. -1.
        -13    1    4    4    0    0  0.73949801268E+01  0.71364516941E+01  0.54881611158E+02  0.55835625555E+02  0.10566000000E+00 0.  1.
        -14    1    4    4    0    0  0.21882042245E+00  0.42714115430E-01  0.16161468048E+01  0.16314525331E+01  0.00000000000E+00 0.  1.
<mgrwt>
<rscale>  0 0.79328953E+02</rscale>
<asrwt>0</asrwt>
<pdfrwt beam="1">  1        2 0.25378813E-01 0.79328953E+02</pdfrwt>
<pdfrwt beam="2">  1       -1 0.14672544E-02 0.79328953E+02</pdfrwt>
<totfact> 0.21127708E+05</totfact>
</mgrwt>
</event>
<event>
 8    1  0.1600673E-013  0.8038773E+02  0.7818608E-02  0.1327955E+00
         -1   -1    0    0    0  501 -0.00000000000E+00  0.00000000000E+00  0.48949987867E+01  0.48950013813E+01  0.50400000000E-02 0.  1.
          2   -1    0    0  501    0  0.00000000000E+00 -0.00000000000E+00 -0.33004020571E+03  0.33004020572E+03  0.25500000000E-02 0. -1.
         24    2    1    2    0    0  0.00000000000E+00  0.00000000000E+00 -0.32514520692E+03  0.33493520710E+03  0.80387731468E+02 0.  0.
         66    2    3    3    0    0  0.93626047512E+01  0.44274115261E+01 -0.32437819679E+03  0.32454964938E+03  0.20000039286E+01 0.  0.
        -13    1    3    3    0    0 -0.93626047512E+01 -0.44274115261E+01 -0.76701012457E+00  0.10385557718E+02  0.10566000000E+00 0.  1.
         13    1    4    4    0    0  0.37537371743E+01  0.16368593475E+01 -0.14056389784E+03  0.14062357694E+03  0.10566000000E+00 0. -1.
        -13    1    4    4    0    0  0.43693351427E+01  0.16339524476E+01 -0.12402258801E+03  0.12411033152E+03  0.10566000000E+00 0.  1.
         14    1    4    4    0    0  0.12395324343E+01  0.11565997310E+01 -0.59791710944E+02  0.59815740915E+02  0.00000000000E+00 0. -1.
<mgrwt>
<rscale>  0 0.80387731E+02</rscale>
<asrwt>0</asrwt>
<pdfrwt beam="1">  1        2 0.50775399E-01 0.80387731E+02</pdfrwt>
<pdfrwt beam="2">  1       -1 0.75307719E-03 0.80387731E+02</pdfrwt>
<totfact> 0.26056228E+05</totfact>
</mgrwt>
</event>
<event>
 8    1  0.1600673E-013  0.7983559E+02  0.7818608E-02  0.1329519E+00
          2   -1    0    0  501    0  0.00000000000E+00  0.00000000000E+00  0.13886447383E+02  0.13886447617E+02  0.25500000000E-02 0. -1.
         -1   -1    0    0    0  501 -0.00000000000E+00 -0.00000000000E+00 -0.11474716903E+03  0.11474716914E+03  0.50400000000E-02 0.  1.
         24    2    1    2    0    0  0.35527136788E-14  0.35527136788E-14 -0.10086072164E+03  0.12863361675E+03  0.79835594749E+02 0.  0.
         66    2    3    3    0    0  0.25538848916E+02  0.26573327471E+02 -0.25864846918E+02  0.45070664876E+02  0.19999973631E+01 0.  0.
        -13    1    3    3    0    0 -0.25538848916E+02 -0.26573327471E+02 -0.74995874724E+02  0.83562951877E+02  0.10566000000E+00 0.  1.
         13    1    4    4    0    0  0.85131528325E+01  0.91044344389E+01 -0.84243779163E+01  0.15044793282E+02  0.10566000000E+00 0. -1.
        -13    1    4    4    0    0  0.14941195172E+02  0.15664645043E+02 -0.15971402746E+02  0.26901994112E+02  0.10566000000E+00 0.  1.
        -14    1    4    4    0    0  0.20845009118E+01  0.18042479888E+01 -0.14690662554E+01  0.31238774815E+01  0.00000000000E+00 0.  1.
<mgrwt>
<rscale>  0 0.79835595E+02</rscale>
<asrwt>0</asrwt>
<pdfrwt beam="1">  1        2 0.21363766E-02 0.79835595E+02</pdfrwt>
<pdfrwt beam="2">  1       -1 0.17653410E-01 0.79835595E+02</pdfrwt>
<totfact> 0.11560128E+05</totfact>
</mgrwt>
</event>
<event>
 8    1  0.1600673E-013  0.8155152E+02  0.7818608E-02  0.1324705E+00
         -1   -1    0    0    0  501 -0.00000000000E+00  0.00000000000E+00  0.19984962460E+01  0.19985026011E+01  0.50400000000E-02 0.  1.
          2   -1    0    0  501    0  0.00000000000E+00 -0.00000000000E+00 -0.83195558965E+03  0.83195558965E+03  0.25500000000E-02 0. -1.
         24    2    1    2    0    0 -0.17763568394E-14 -0.35527136788E-14 -0.82995709340E+03  0.83395409225E+03  0.81551524187E+02 0.  0.
         66    2    3    3    0    0 -0.15862080477E+02 -0.16300079810E+02 -0.76100871977E+03  0.76135114749E+03  0.20000016819E+01 0.  0.
        -13    1    3    3    0    0  0.15862080477E+02  0.16300079810E+02 -0.68948373625E+02  0.72602944765E+02  0.10566000000E+00 0.  1.
         13    1    4    4    0    0 -0.30558971782E+01 -0.26345781931E+01 -0.11745898924E+03  0.11752831500E+03  0.10566000000E+00 0.  1.
        -13    1    4    4    0    0 -0.54156418831E+01 -0.56198921055E+01 -0.25350160323E+03  0.25362173875E+03  0.10566000000E+00 0. -1.
        -14    1    4    4    0    0 -0.73905414159E+01 -0.80456095118E+01 -0.39004812731E+03  0.39020109374E+03  0.00000000000E+00 0.  1.
<mgrwt>
<rscale>  0 0.81551524E+02</rscale>
<asrwt>0</asrwt>
<pdfrwt beam="1">  1        2 0.12799289E+00 0.81551524E+02</pdfrwt>
<pdfrwt beam="2">  1       -1 0.30746211E-03 0.81551524E+02</pdfrwt>
<totfact> 0.32900898E+05</totfact>
</mgrwt>
</event>
<event>
 8    1  0.1600673E-013  0.7712950E+02  0.7818608E-02  0.1337401E+00
          2   -1    0    0  501    0  0.00000000000E+00  0.00000000000E+00  0.63487004167E+03  0.63487004167E+03  0.25500000000E-02 0. -1.
         -1   -1    0    0    0  501 -0.00000000000E+00 -0.00000000000E+00 -0.23425867522E+01  0.23425921739E+01  0.50400000000E-02 0.  1.
         24    2    1    2    0    0  0.00000000000E+00  0.00000000000E+00  0.63252745491E+03  0.63721263385E+03  0.77129498326E+02 0.  0.
         66    2    3    3    0    0  0.25027525428E+02 -0.14264766518E+02  0.52797492261E+03  0.52876401113E+03  0.19999930393E+01 0.  0.
        -13    1    3    3    0    0 -0.25027525428E+02  0.14264766518E+02  0.10455253230E+03  0.10844862271E+03  0.10566000000E+00 0.  1.
         13    1    4    4    0    0  0.11231006149E+02 -0.65368665428E+01  0.24794609237E+03  0.24828641124E+03  0.10566000000E+00 0. -1.
        -13    1    4    4    0    0  0.64460788014E+01 -0.42912641257E+01  0.13851774157E+03  0.13873407215E+03  0.10566000000E+00 0.  1.
        -14    1    4    4    0    0  0.73504404775E+01 -0.34366358489E+01  0.14151108867E+03  0.14174352774E+03  0.00000000000E+00 0.  1.
<mgrwt>
<rscale>  0 0.77129498E+02</rscale>
<asrwt>0</asrwt>
<pdfrwt beam="1">  1        2 0.97672190E-01 0.77129498E+02</pdfrwt>
<pdfrwt beam="2">  1       -1 0.36039884E-03 0.77129498E+02</pdfrwt>
<totfact> 0.35908345E+05</totfact>
</mgrwt>
</event>
<event>
 8    1  0.1600673E-013  0.7953711E+02  0.7818608E-02  0.1330370E+00
         -1   -1    0    0    0  501 -0.00000000000E+00  0.00000000000E+00  0.13129751649E+02  0.13129752616E+02  0.50400000000E-02 0.  1.
          2   -1    0    0  501    0  0.00000000000E+00 -0.00000000000E+00 -0.12045451165E+03  0.12045451168E+03  0.25500000000E-02 0. -1.
         24    2    1    2    0    0  0.00000000000E+00  0.00000000000E+00 -0.10732476000E+03  0.13358426429E+03  0.79537108053E+02 0.  0.
         66    2    3    3    0    0  0.61265856643E+01 -0.11486898830E+02 -0.11676328004E+03  0.11750381899E+03  0.20000033192E+01 0.  0.
        -13    1    3    3    0    0 -0.61265856643E+01  0.11486898830E+02  0.94385200424E+01  0.16080445307E+02  0.10566000000E+00 0.  1.
         13    1    4    4    0    0  0.13130876262E+01 -0.16457995403E+01 -0.20769895568E+02  0.20876603680E+02  0.10566000000E+00 0. -1.
        -13    1    4    4    0    0  0.12013457410E+01 -0.39992353540E+01 -0.35071363968E+02  0.35319241918E+02  0.10566000000E+00 0.  1.
        -14    1    4    4    0    0  0.36121522971E+01 -0.58418639356E+01 -0.60922020507E+02  0.61307973389E+02  0.00000000000E+00 0.  1.
<mgrwt>
<rscale>  0 0.79537108E+02</rscale>
<asrwt>0</asrwt>
<pdfrwt beam="1">  1        2 0.18531463E-01 0.79537108E+02</pdfrwt>
<pdfrwt beam="2">  1       -1 0.20199620E-02 0.79537108E+02</pdfrwt>
<totfact> 0.18999349E+05</totfact>
</mgrwt>
</event>
<event>
 8    1  0.1600673E-013  0.8828510E+02  0.7818608E-02  0.1307059E+00
         -1   -1    0    0    0  501 -0.00000000000E+00  0.00000000000E+00  0.38555830063E+01  0.38555863004E+01  0.50400000000E-02 0.  1.
          2   -1    0    0  501    0  0.00000000000E+00 -0.00000000000E+00 -0.50538765416E+03  0.50538765417E+03  0.25500000000E-02 0. -1.
         24    2    1    2    0    0  0.17763568394E-14  0.00000000000E+00 -0.50153207115E+03  0.50924324047E+03  0.88285103871E+02 0.  0.
         66    2    3    3    0    0  0.15656746522E+02  0.39617159347E+02 -0.31714216379E+03  0.31999657041E+03  0.19999984455E+01 0.  0.
        -13    1    3    3    0    0 -0.15656746522E+02 -0.39617159347E+02 -0.18438990737E+03  0.18924667006E+03  0.10566000000E+00 0.  1.
         13    1    4    4    0    0  0.50158539546E+01  0.11151411263E+02 -0.94664469143E+02  0.95450959378E+02  0.10566000000E+00 0. -1.
        -13    1    4    4    0    0  0.36951239436E+01  0.11163665643E+02 -0.85790617450E+02  0.86592855236E+02  0.10566000000E+00 0.  1.
        -14    1    4    4    0    0  0.69457686237E+01  0.17302082440E+02 -0.13668707719E+03  0.13795275579E+03  0.00000000000E+00 0.  1.
<mgrwt>
<rscale>  0 0.88285104E+02</rscale>
<asrwt>0</asrwt>
<pdfrwt beam="1">  1        2 0.77751894E-01 0.88285104E+02</pdfrwt>
<pdfrwt beam="2">  1       -1 0.59316727E-03 0.88285104E+02</pdfrwt>
<totfact> 0.23605877E+05</totfact>
</mgrwt>
</event>
<event>
 8    1  0.1600673E-013  0.7903493E+02  0.7818608E-02  0.1331813E+00
         -1   -1    0    0    0  501 -0.00000000000E+00  0.00000000000E+00  0.21537838756E+02  0.21537839345E+02  0.50400000000E-02 0.  1.
          2   -1    0    0  501    0  0.00000000000E+00 -0.00000000000E+00 -0.72506349996E+02  0.72506350041E+02  0.25500000000E-02 0. -1.
         24    2    1    2    0    0  0.00000000000E+00  0.00000000000E+00 -0.50968511240E+02  0.94044189386E+02  0.79034931639E+02 0.  0.
         66    2    3    3    0    0  0.13565523287E+02  0.29832680556E+02 -0.51722057007E+02  0.61263230790E+02  0.20000036581E+01 0.  0.
        -13    1    3    3    0    0 -0.13565523287E+02 -0.29832680556E+02  0.75354576648E+00  0.32780958596E+02  0.10566000000E+00 0.  1.
         13    1    4    4    0    0  0.94282692810E+01  0.20759449798E+02 -0.36039946970E+02  0.42646640655E+02  0.10566000000E+00 0. -1.
        -13    1    4    4    0    0  0.18116004477E+01  0.36581381233E+01 -0.73960903060E+01  0.84485020306E+01  0.10566000000E+00 0.  1.
         14    1    4    4    0    0  0.23256535582E+01  0.54150926352E+01 -0.82860197305E+01  0.10168088104E+02  0.00000000000E+00 0. -1.
<mgrwt>
<rscale>  0 0.79034932E+02</rscale>
<asrwt>0</asrwt>
<pdfrwt beam="1">  1        2 0.11154823E-01 0.79034932E+02</pdfrwt>
<pdfrwt beam="2">  1       -1 0.33135137E-02 0.79034932E+02</pdfrwt>
<totfact> 0.16829653E+05</totfact>
</mgrwt>
</event>
<event>
 8    1  0.1600673E-013  0.7947983E+02  0.7818608E-02  0.1330534E+00
         -1   -1    0    0    0  501 -0.00000000000E+00  0.00000000000E+00  0.72324300839E+01  0.72324318400E+01  0.50400000000E-02 0.  1.
          2   -1    0    0  501    0  0.00000000000E+00 -0.00000000000E+00 -0.21835824906E+03  0.21835824908E+03  0.25500000000E-02 0. -1.
         24    2    1    2    0    0  0.00000000000E+00  0.00000000000E+00 -0.21112581898E+03  0.22559068092E+03  0.79479833149E+02 0.  0.
         66    2    3    3    0    0  0.34463220735E+02  0.18435012904E+02 -0.12563788730E+03  0.13159195267E+03  0.19999999668E+01 0.  0.
        -13    1    3    3    0    0 -0.34463220735E+02 -0.18435012904E+02 -0.85487931683E+02  0.93998728245E+02  0.10566000000E+00 0.  1.
         13    1    4    4    0    0  0.45319852722E+01  0.28813804556E+01 -0.17351434240E+02  0.18163828838E+02  0.10566000000E+00 0. -1.
        -13    1    4    4    0    0  0.32950276799E+01  0.17479547230E+01 -0.10534189202E+02  0.11175547382E+02  0.10566000000E+00 0.  1.
        -14    1    4    4    0    0  0.26636207783E+02  0.13805677725E+02 -0.97752263855E+02  0.10225257645E+03  0.00000000000E+00 0.  1.
<mgrwt>
<rscale>  0 0.79479833E+02</rscale>
<asrwt>0</asrwt>
<pdfrwt beam="1">  1        2 0.33593572E-01 0.79479833E+02</pdfrwt>
<pdfrwt beam="2">  1       -1 0.11126819E-02 0.79479833E+02</pdfrwt>
<totfact> 0.23141249E+05</totfact>
</mgrwt>
</event>
<event>
 8    1  0.1600673E-013  0.8289604E+02  0.7818608E-02  0.1321028E+00
         -1   -1    0    0    0  501 -0.00000000000E+00  0.00000000000E+00  0.34791310256E+02  0.34791310621E+02  0.50400000000E-02 0.  1.
          2   -1    0    0  501    0  0.00000000000E+00 -0.00000000000E+00 -0.49378369973E+02  0.49378370038E+02  0.25500000000E-02 0. -1.
         24    2    1    2    0    0 -0.17763568394E-14  0.00000000000E+00 -0.14587059717E+02  0.84169680659E+02  0.82896036281E+02 0.  0.
         66    2    3    3    0    0 -0.11694408239E+02  0.30814568381E+02 -0.32775851346E+02  0.46524759175E+02  0.19999940793E+01 0.  0.
        -13    1    3    3    0    0  0.11694408239E+02 -0.30814568381E+02  0.18188791629E+02  0.37644921484E+02  0.10566000000E+00 0.  1.
         13    1    4    4    0    0 -0.31813027514E+01  0.78003911391E+01 -0.87798614087E+01  0.12168151853E+02  0.10566000000E+00 0. -1.
        -13    1    4    4    0    0 -0.44628086544E+01  0.10967712713E+02 -0.10628009536E+02  0.15911415210E+02  0.10566000000E+00 0.  1.
        -14    1    4    4    0    0 -0.40502968334E+01  0.12046464529E+02 -0.13367980401E+02  0.18445192113E+02  0.00000000000E+00 0.  1.
<mgrwt>
<rscale>  0 0.82896036E+02</rscale>
<asrwt>0</asrwt>
<pdfrwt beam="1">  1        2 0.75966723E-02 0.82896036E+02</pdfrwt>
<pdfrwt beam="2">  1       -1 0.53525093E-02 0.82896036E+02</pdfrwt>
<totfact> 0.13515236E+05</totfact>
</mgrwt>
</event>
<event>
 8    1  0.1600673E-013  0.8163429E+02  0.7818608E-02  0.1324477E+00
         -1   -1    0    0    0  501 -0.00000000000E+00  0.00000000000E+00  0.18192037168E+01  0.18192106983E+01  0.50400000000E-02 0.  1.
          2   -1    0    0  501    0  0.00000000000E+00 -0.00000000000E+00 -0.91580515817E+03  0.91580515817E+03  0.25500000000E-02 0. -1.
         24    2    1    2    0    0 -0.17763568394E-14 -0.44408920985E-15 -0.91398595445E+03  0.91762436887E+03  0.81634290648E+02 0.  0.
         66    2    3    3    0    0 -0.11017145665E+02 -0.34051056147E+01 -0.89710043314E+03  0.89717677153E+03  0.19999989335E+01 0.  0.
        -13    1    3    3    0    0  0.11017145665E+02  0.34051056147E+01 -0.16885521311E+02  0.20447597336E+02  0.10566000000E+00 0.  1.
         13    1    4    4    0    0 -0.44161139992E+00 -0.21902923993E+00 -0.35391515782E+02  0.35395106270E+02  0.10566000000E+00 0. -1.
        -13    1    4    4    0    0  0.29222593836E-01 -0.49652131880E-03 -0.50571628082E+01  0.50583509082E+01  0.10566000000E+00 0. -1.
        -14    1    4    4    0    0 -0.10604756859E+02 -0.31855798535E+01 -0.85665175455E+03  0.85672331436E+03  0.00000000000E+00 0.  1.
<mgrwt>
<rscale>  0 0.81634291E+02</rscale>
<asrwt>0</asrwt>
<pdfrwt beam="1">  1        2 0.14089273E+00 0.81634291E+02</pdfrwt>
<pdfrwt beam="2">  1       -1 0.27987877E-03 0.81634291E+02</pdfrwt>
<totfact> 0.33217675E+05</totfact>
</mgrwt>
</event>
<event>
 8    1  0.1600673E-013  0.7991830E+02  0.7818608E-02  0.1329283E+00
         -1   -1    0    0    0  501 -0.00000000000E+00  0.00000000000E+00  0.83714555187E+02  0.83714555339E+02  0.50400000000E-02 0.  1.
          2   -1    0    0  501    0  0.00000000000E+00 -0.00000000000E+00 -0.19073549350E+02  0.19073549521E+02  0.25500000000E-02 0. -1.
         24    2    1    2    0    0  0.35527136788E-14  0.00000000000E+00  0.64641005837E+02  0.10278810486E+03  0.79918301189E+02 0.  0.
         66    2    3    3    0    0  0.22547030637E+02 -0.29994336209E+02  0.14766764679E+02  0.40374325209E+02  0.20000004487E+01 0.  0.
        -13    1    3    3    0    0 -0.22547030637E+02  0.29994336209E+02  0.49874241157E+02  0.62413779650E+02  0.10566000000E+00 0.  1.
         13    1    4    4    0    0  0.17920511648E+02 -0.23778999110E+02  0.12137929562E+02  0.32154720252E+02  0.10566000000E+00 0. -1.
        -13    1    4    4    0    0  0.38890497012E+01 -0.55537408565E+01  0.21119205524E+01  0.71021206365E+01  0.10566000000E+00 0.  1.
         14    1    4    4    0    0  0.73746928789E+00 -0.66159624300E+00  0.51691456467E+00  0.11174843205E+01  0.00000000000E+00 0. -1.
<mgrwt>
<rscale>  0 0.79918301E+02</rscale>
<asrwt>0</asrwt>
<pdfrwt beam="1">  1        2 0.29343922E-02 0.79918301E+02</pdfrwt>
<pdfrwt beam="2">  1       -1 0.12879162E-01 0.79918301E+02</pdfrwt>
<totfact> 0.12332872E+05</totfact>
</mgrwt>
</event>
<event>
 8    1  0.1600673E-013  0.7864632E+02  0.7818608E-02  0.1332937E+00
          2   -1    0    0  501    0  0.00000000000E+00  0.00000000000E+00  0.46397891774E+03  0.46397891774E+03  0.25500000000E-02 0. -1.
         -1   -1    0    0    0  501 -0.00000000000E+00 -0.00000000000E+00 -0.33327159563E+01  0.33327197673E+01  0.50400000000E-02 0.  1.
         24    2    1    2    0    0  0.71054273576E-14  0.00000000000E+00  0.46064620178E+03  0.46731163751E+03  0.78646318022E+02 0.  0.
         66    2    3    3    0    0  0.31268125374E+02 -0.15190182518E+02  0.33936787747E+03  0.34114951792E+03  0.20000014745E+01 0.  0.
        -13    1    3    3    0    0 -0.31268125374E+02  0.15190182518E+02  0.12127832431E+03  0.12616211959E+03  0.10566000000E+00 0.  1.
         13    1    4    4    0    0  0.43189086690E+01 -0.20433016690E+01  0.53546577448E+02  0.53759419400E+02  0.10566000000E+00 0. -1.
        -13    1    4    4    0    0  0.10934760202E+02 -0.53970737740E+01  0.11466721917E+03  0.11531383136E+03  0.10566000000E+00 0.  1.
         14    1    4    4    0    0  0.16014456502E+02 -0.77498070752E+01  0.17115408085E+03  0.17207626716E+03  0.00000000000E+00 0. -1.
<mgrwt>
<rscale>  0 0.78646318E+02</rscale>
<asrwt>0</asrwt>
<pdfrwt beam="1">  1        2 0.71381426E-01 0.78646318E+02</pdfrwt>
<pdfrwt beam="2">  1       -1 0.51272544E-03 0.78646318E+02</pdfrwt>
<totfact> 0.31071652E+05</totfact>
</mgrwt>
</event>
<event>
 8    1  0.1600673E-013  0.8483279E+02  0.7818608E-02  0.1315870E+00
          2   -1    0    0  501    0  0.00000000000E+00  0.00000000000E+00  0.15754409701E+03  0.15754409703E+03  0.25500000000E-02 0. -1.
         -1   -1    0    0    0  501 -0.00000000000E+00 -0.00000000000E+00 -0.11419980742E+02  0.11419981854E+02  0.50400000000E-02 0.  1.
         24    2    1    2    0    0 -0.35527136788E-14  0.88817841970E-15  0.14612411627E+03  0.16896407888E+03  0.84832791998E+02 0.  0.
         66    2    3    3    0    0 -0.27861887144E+02  0.77963105982E+01  0.13481659366E+03  0.13790062052E+03  0.19999997927E+01 0.  0.
        -13    1    3    3    0    0  0.27861887144E+02 -0.77963105982E+01  0.11307522609E+02  0.31063458367E+02  0.10566000000E+00 0.  1.
         13    1    4    4    0    0 -0.13919970456E+02  0.44612590413E+01  0.68979383695E+02  0.70511239875E+02  0.10566000000E+00 0. -1.
        -13    1    4    4    0    0 -0.13487268934E+02  0.32648580526E+01  0.64477366836E+02  0.65953830211E+02  0.10566000000E+00 0.  1.
        -14    1    4    4    0    0 -0.45464775351E+00  0.70193504282E-01  0.13598431263E+01  0.14355504296E+01  0.00000000000E+00 0.  1.
<mgrwt>
<rscale>  0 0.84832792E+02</rscale>
<asrwt>0</asrwt>
<pdfrwt beam="1">  1        2 0.24237553E-01 0.84832792E+02</pdfrwt>
<pdfrwt beam="2">  1       -1 0.17569202E-02 0.84832792E+02</pdfrwt>
<totfact> 0.17412305E+05</totfact>
</mgrwt>
</event>
<event>
 8    1  0.1600673E-013  0.8651320E+02  0.7818608E-02  0.1311522E+00
          2   -1    0    0  501    0  0.00000000000E+00  0.00000000000E+00  0.33174863205E+03  0.33174863206E+03  0.25500000000E-02 0. -1.
         -1   -1    0    0    0  501 -0.00000000000E+00 -0.00000000000E+00 -0.56402127741E+01  0.56402150260E+01  0.50400000000E-02 0.  1.
         24    2    1    2    0    0 -0.35527136788E-14 -0.35527136788E-14  0.32610841928E+03  0.33738884708E+03  0.86513195613E+02 0.  0.
         66    2    3    3    0    0 -0.24324276131E+02 -0.17056705445E+02  0.28563170967E+03  0.28717951733E+03  0.19999986656E+01 0.  0.
        -13    1    3    3    0    0  0.24324276131E+02  0.17056705445E+02  0.40476709602E+02  0.50209329753E+02  0.10566000000E+00 0.  1.
         13    1    4    4    0    0 -0.62768695791E+01 -0.48745701580E+01  0.81612591124E+02  0.81998699501E+02  0.10566000000E+00 0. -1.
        -13    1    4    4    0    0 -0.56917387568E+01 -0.33489690756E+01  0.59042932347E+02  0.59411198508E+02  0.10566000000E+00 0.  1.
         14    1    4    4    0    0 -0.12355667795E+02 -0.88331662113E+01  0.14497618620E+03  0.14576961932E+03  0.00000000000E+00 0. -1.
<mgrwt>
<rscale>  0 0.86513196E+02</rscale>
<asrwt>0</asrwt>
<pdfrwt beam="1">  1        2 0.51038239E-01 0.86513196E+02</pdfrwt>
<pdfrwt beam="2">  1       -1 0.86772543E-03 0.86513196E+02</pdfrwt>
<totfact> 0.21521491E+05</totfact>
</mgrwt>
</event>
<event>
 8    1  0.1600673E-013  0.7997917E+02  0.7818608E-02  0.1329111E+00
         -1   -1    0    0    0  501 -0.00000000000E+00  0.00000000000E+00  0.83314648700E+02  0.83314648852E+02  0.50400000000E-02 0.  1.
          2   -1    0    0  501    0  0.00000000000E+00 -0.00000000000E+00 -0.19194306465E+02  0.19194306635E+02  0.25500000000E-02 0. -1.
         24    2    1    2    0    0 -0.35527136788E-14  0.00000000000E+00  0.64120342234E+02  0.10250895549E+03  0.79979170206E+02 0.  0.
         66    2    3    3    0    0 -0.23851187155E+02  0.18225286495E+02 -0.17362485227E+01  0.30133946632E+02  0.19999960453E+01 0.  0.
        -13    1    3    3    0    0  0.23851187155E+02 -0.18225286495E+02  0.65856590757E+02  0.72375008855E+02  0.10566000000E+00 0.  1.
         13    1    4    4    0    0 -0.11895632627E+02  0.96906317591E+01 -0.40598649021E+00  0.15348954641E+02  0.10566000000E+00 0. -1.
        -13    1    4    4    0    0 -0.20745673942E+01  0.11712367034E+01  0.48567320723E-01  0.23851935160E+01  0.10566000000E+00 0. -1.
        -14    1    4    4    0    0 -0.98809871331E+01  0.73634180329E+01 -0.13788293532E+01  0.12399798476E+02  0.00000000000E+00 0.  1.
<mgrwt>
<rscale>  0 0.79979170E+02</rscale>
<asrwt>0</asrwt>
<pdfrwt beam="1">  1        2 0.29529703E-02 0.79979170E+02</pdfrwt>
<pdfrwt beam="2">  1       -1 0.12817638E-01 0.79979170E+02</pdfrwt>
<totfact> 0.12321703E+05</totfact>
</mgrwt>
</event>
<event>
 8    1  0.1600673E-013  0.7924319E+02  0.7818608E-02  0.1331213E+00
          2   -1    0    0  501    0  0.00000000000E+00  0.00000000000E+00  0.17166006203E+03  0.17166006205E+03  0.25500000000E-02 0. -1.
         -1   -1    0    0    0  501 -0.00000000000E+00 -0.00000000000E+00 -0.91452302636E+01  0.91452316524E+01  0.50400000000E-02 0.  1.
         24    2    1    2    0    0  0.00000000000E+00  0.71054273576E-14  0.16251483177E+03  0.18080529370E+03  0.79243193313E+02 0.  0.
         66    2    3    3    0    0  0.10522852197E+02 -0.31106009910E+02  0.13179241565E+03  0.13583650133E+03  0.20000003358E+01 0.  0.
        -13    1    3    3    0    0 -0.10522852197E+02  0.31106009910E+02  0.30722416121E+02  0.44968792370E+02  0.10566000000E+00 0.  1.
         13    1    4    4    0    0  0.60226805274E+01 -0.16776920553E+02  0.72901892441E+02  0.75049549163E+02  0.10566000000E+00 0. -1.
        -13    1    4    4    0    0  0.18039857538E+01 -0.72012983108E+01  0.30625296830E+02  0.31512426627E+02  0.10566000000E+00 0.  1.
        -14    1    4    4    0    0  0.26961859157E+01 -0.71277910465E+01  0.28265226376E+02  0.29274525543E+02  0.00000000000E+00 0.  1.
<mgrwt>
<rscale>  0 0.79243193E+02</rscale>
<asrwt>0</asrwt>
<pdfrwt beam="1">  1        2 0.26409239E-01 0.79243193E+02</pdfrwt>
<pdfrwt beam="2">  1       -1 0.14069587E-02 0.79243193E+02</pdfrwt>
<totfact> 0.21470223E+05</totfact>
</mgrwt>
</event>
<event>
 8    1  0.1600673E-013  0.8263578E+02  0.7818608E-02  0.1321734E+00
         -1   -1    0    0    0  501 -0.00000000000E+00  0.00000000000E+00  0.11742415165E+01  0.11742523326E+01  0.50400000000E-02 0.  1.
          2   -1    0    0  501    0  0.00000000000E+00 -0.00000000000E+00 -0.14538406373E+04  0.14538406373E+04  0.25500000000E-02 0. -1.
         24    2    1    2    0    0  0.00000000000E+00  0.17763568394E-14 -0.14526663957E+04  0.14550148896E+04  0.82635776879E+02 0.  0.
         66    2    3    3    0    0  0.13755033250E+02  0.15627294560E+02 -0.13546714237E+04  0.13548328604E+04  0.20000003392E+01 0.  0.
        -13    1    3    3    0    0 -0.13755033250E+02 -0.15627294560E+02 -0.97994972003E+02  0.10018202921E+03  0.10566000000E+00 0.  1.
         13    1    4    4    0    0  0.21834354893E+01  0.30641674707E+01 -0.23236198866E+03  0.23239247288E+03  0.10566000000E+00 0. -1.
        -13    1    4    4    0    0  0.18399767309E+01  0.28185282106E+01 -0.23229660687E+03  0.23232101572E+03  0.10566000000E+00 0.  1.
        -14    1    4    4    0    0  0.97316210298E+01  0.97445988786E+01 -0.89001282820E+03  0.89011937178E+03  0.00000000000E+00 0.  1.
<mgrwt>
<rscale>  0 0.82635777E+02</rscale>
<asrwt>0</asrwt>
<pdfrwt beam="1">  1        2 0.22366635E+00 0.82635777E+02</pdfrwt>
<pdfrwt beam="2">  1       -1 0.18065454E-03 0.82635777E+02</pdfrwt>
<totfact> 0.30901172E+05</totfact>
</mgrwt>
</event>
<event>
 8    1  0.1600673E-013  0.8031373E+02  0.7818608E-02  0.1328163E+00
          2   -1    0    0  501    0  0.00000000000E+00  0.00000000000E+00  0.36375121445E+03  0.36375121446E+03  0.25500000000E-02 0. -1.
         -1   -1    0    0    0  501 -0.00000000000E+00 -0.00000000000E+00 -0.44331766289E+01  0.44331794938E+01  0.50400000000E-02 0.  1.
         24    2    1    2    0    0  0.00000000000E+00  0.00000000000E+00  0.35931803782E+03  0.36818439395E+03  0.80313732616E+02 0.  0.
         66    2    3    3    0    0 -0.21210389672E+02  0.22882763508E+02  0.29547942129E+03  0.29712891127E+03  0.20000014016E+01 0.  0.
        -13    1    3    3    0    0  0.21210389672E+02 -0.22882763508E+02  0.63838616524E+02  0.71055482685E+02  0.10566000000E+00 0.  1.
         13    1    4    4    0    0 -0.24318706663E+01  0.29335420788E+01  0.37985807593E+02  0.38176595010E+02  0.10566000000E+00 0. -1.
        -13    1    4    4    0    0 -0.15311527218E+02  0.15436287964E+02  0.20732180749E+03  0.20845878460E+03  0.10566000000E+00 0.  1.
        -14    1    4    4    0    0 -0.34669917877E+01  0.45129334650E+01  0.50171806214E+02  0.50493531658E+02  0.00000000000E+00 0.  1.
<mgrwt>
<rscale>  0 0.80313733E+02</rscale>
<asrwt>0</asrwt>
<pdfrwt beam="1">  1        2 0.55961735E-01 0.80313733E+02</pdfrwt>
<pdfrwt beam="2">  1       -1 0.68202728E-03 0.80313733E+02</pdfrwt>
<totfact> 0.27043543E+05</totfact>
</mgrwt>
</event>
<event>
 8    1  0.1600673E-013  0.7784307E+02  0.7818608E-02  0.1335286E+00
          2   -1    0    0  501    0  0.00000000000E+00  0.00000000000E+00  0.19937829679E+03  0.19937829680E+03  0.25500000000E-02 0. -1.
         -1   -1    0    0    0  501 -0.00000000000E+00 -0.00000000000E+00 -0.75980475230E+01  0.75980491946E+01  0.50400000000E-02 0.  1.
         24    2    1    2    0    0  0.00000000000E+00  0.00000000000E+00  0.19178024926E+03  0.20697634600E+03  0.77843071592E+02 0.  0.
         66    2    3    3    0    0 -0.12388440169E+02  0.23784985287E+02  0.17086052700E+03  0.17296392300E+03  0.19999989196E+01 0.  0.
        -13    1    3    3    0    0  0.12388440169E+02 -0.23784985287E+02  0.20919722261E+02  0.34012423001E+02  0.10566000000E+00 0.  1.
         13    1    4    4    0    0 -0.77511438200E+01  0.13206547480E+02  0.95238658394E+02  0.96461942462E+02  0.10566000000E+00 0.  1.
        -13    1    4    4    0    0 -0.28257888828E+01  0.56325217332E+01  0.41738955627E+02  0.42212106850E+02  0.10566000000E+00 0. -1.
        -14    1    4    4    0    0 -0.18115074665E+01  0.49459160738E+01  0.33882912981E+02  0.34289873683E+02  0.00000000000E+00 0.  1.
<mgrwt>
<rscale>  0 0.77843072E+02</rscale>
<asrwt>0</asrwt>
<pdfrwt beam="1">  1        2 0.30673586E-01 0.77843072E+02</pdfrwt>
<pdfrwt beam="2">  1       -1 0.11689304E-02 0.77843072E+02</pdfrwt>
<totfact> 0.23680246E+05</totfact>
</mgrwt>
</event>
<event>
 8    1  0.1600673E-013  0.7931014E+02  0.7818608E-02  0.1331021E+00
          2   -1    0    0  501    0  0.00000000000E+00  0.00000000000E+00  0.63663386326E+02  0.63663386377E+02  0.25500000000E-02 0. -1.
         -1   -1    0    0    0  501 -0.00000000000E+00 -0.00000000000E+00 -0.24700611306E+02  0.24700611820E+02  0.50400000000E-02 0.  1.
         24    2    1    2    0    0 -0.17763568394E-14  0.35527136788E-14  0.38962775020E+02  0.88363998196E+02  0.79310140209E+02 0.  0.
         66    2    3    3    0    0  0.15763694753E+02  0.30383115458E+02  0.41746006659E+02  0.54021818306E+02  0.20000009751E+01 0.  0.
        -13    1    3    3    0    0 -0.15763694753E+02 -0.30383115458E+02 -0.27832316394E+01  0.34342179890E+02  0.10566000000E+00 0.  1.
         13    1    4    4    0    0  0.13310538425E+01  0.30842814841E+01  0.37323597082E+01  0.50225660406E+01  0.10566000000E+00 0. -1.
        -13    1    4    4    0    0  0.54228470852E+01  0.11765232267E+02  0.16356402987E+02  0.20865546806E+02  0.10566000000E+00 0.  1.
         14    1    4    4    0    0  0.90097938254E+01  0.15533601707E+02  0.21657243965E+02  0.28133705460E+02  0.00000000000E+00 0. -1.
<mgrwt>
<rscale>  0 0.79310140E+02</rscale>
<asrwt>0</asrwt>
<pdfrwt beam="1">  1        2 0.97943670E-02 0.79310140E+02</pdfrwt>
<pdfrwt beam="2">  1       -1 0.38000942E-02 0.79310140E+02</pdfrwt>
<totfact> 0.16158314E+05</totfact>
</mgrwt>
</event>
<event>
 8    1  0.1600673E-013  0.7963988E+02  0.7818608E-02  0.1330077E+00
         -1   -1    0    0    0  501 -0.00000000000E+00  0.00000000000E+00  0.45045548409E+01  0.45045576605E+01  0.50400000000E-02 0.  1.
          2   -1    0    0  501    0  0.00000000000E+00 -0.00000000000E+00 -0.35200529316E+03  0.35200529317E+03  0.25500000000E-02 0. -1.
         24    2    1    2    0    0 -0.35527136788E-14  0.00000000000E+00 -0.34750073832E+03  0.35650985083E+03  0.79639880753E+02 0.  0.
         66    2    3    3    0    0  0.16200258761E+02  0.22766542954E+02 -0.30070089578E+03  0.30200296789E+03  0.20000074495E+01 0.  0.
        -13    1    3    3    0    0 -0.16200258761E+02 -0.22766542954E+02 -0.46799842538E+02  0.54506882938E+02  0.10566000000E+00 0.  1.
         13    1    4    4    0    0  0.92422560643E+01  0.11490142413E+02 -0.16072420314E+03  0.16139926675E+03  0.10566000000E+00 0. -1.
        -13    1    4    4    0    0  0.68710232499E+01  0.11023346770E+02 -0.13769967697E+03  0.13831101668E+03  0.10566000000E+00 0.  1.
        -14    1    4    4    0    0  0.86979446562E-01  0.25305377148E+00 -0.22770156737E+01  0.22926844558E+01  0.00000000000E+00 0.  1.
<mgrwt>
<rscale>  0 0.79639881E+02</rscale>
<asrwt>0</asrwt>
<pdfrwt beam="1">  1        2 0.54154639E-01 0.79639881E+02</pdfrwt>
<pdfrwt beam="2">  1       -1 0.69300894E-03 0.79639881E+02</pdfrwt>
<totfact> 0.27325167E+05</totfact>
</mgrwt>
</event>
<event>
 8    1  0.1600673E-013  0.8010616E+02  0.7818608E-02  0.1328750E+00
          2   -1    0    0  501    0  0.00000000000E+00  0.00000000000E+00  0.10083519023E+02  0.10083519345E+02  0.25500000000E-02 0. -1.
         -1   -1    0    0    0  501 -0.00000000000E+00 -0.00000000000E+00 -0.15909615169E+03  0.15909615177E+03  0.50400000000E-02 0.  1.
         24    2    1    2    0    0  0.00000000000E+00  0.00000000000E+00 -0.14901263267E+03  0.16917967112E+03  0.80106157219E+02 0.  0.
         66    2    3    3    0    0  0.23562137551E+02 -0.23217281195E+02 -0.26950546273E+02  0.42714733006E+02  0.19999998266E+01 0.  0.
        -13    1    3    3    0    0 -0.23562137551E+02  0.23217281195E+02 -0.12206208639E+03  0.12646493811E+03  0.10566000000E+00 0.  1.
         13    1    4    4    0    0  0.46643898844E+01 -0.53975625450E+01 -0.58604528883E+01  0.92328915575E+01  0.10566000000E+00 0. -1.
        -13    1    4    4    0    0  0.93915785333E+01 -0.80828326694E+01 -0.10393959027E+02  0.16173418921E+02  0.10566000000E+00 0.  1.
        -14    1    4    4    0    0  0.95061691338E+01 -0.97368859802E+01 -0.10696134358E+02  0.17308422528E+02  0.00000000000E+00 0.  1.
<mgrwt>
<rscale>  0 0.80106157E+02</rscale>
<asrwt>0</asrwt>
<pdfrwt beam="1">  1        2 0.15513108E-02 0.80106157E+02</pdfrwt>
<pdfrwt beam="2">  1       -1 0.24476329E-01 0.80106157E+02</pdfrwt>
<totfact> 0.10588444E+05</totfact>
</mgrwt>
</event>
<event>
 8    1  0.1600673E-013  0.7052245E+02  0.7818608E-02  0.1358325E+00
         -1   -1    0    0    0  501 -0.00000000000E+00  0.00000000000E+00  0.46911270767E+01  0.46911297841E+01  0.50400000000E-02 0.  1.
          2   -1    0    0  501    0  0.00000000000E+00 -0.00000000000E+00 -0.26504367474E+03  0.26504367475E+03  0.25500000000E-02 0. -1.
         24    2    1    2    0    0  0.17763568394E-14  0.88817841970E-15 -0.26035254766E+03  0.26973480454E+03  0.70522448224E+02 0.  0.
         66    2    3    3    0    0 -0.14333661562E+02  0.69524719255E+01 -0.25047695369E+03  0.25099102584E+03  0.19999999339E+01 0.  0.
        -13    1    3    3    0    0  0.14333661562E+02 -0.69524719255E+01 -0.98755939708E+01  0.18743778700E+02  0.10566000000E+00 0.  1.
         13    1    4    4    0    0 -0.22555700342E+01  0.45970152003E+00 -0.32203427803E+02  0.32285768505E+02  0.10566000000E+00 0. -1.
        -13    1    4    4    0    0 -0.33424170705E+01  0.14482340575E+01 -0.60121661397E+02  0.60232005337E+02  0.10566000000E+00 0. -1.
         14    1    4    4    0    0 -0.87356744570E+01  0.50445363480E+01 -0.15815186449E+03  0.15847325199E+03  0.00000000000E+00 0. -1.
<mgrwt>
<rscale>  0 0.70522448E+02</rscale>
<asrwt>0</asrwt>
<pdfrwt beam="1">  1        2 0.40775938E-01 0.70522448E+02</pdfrwt>
<pdfrwt beam="2">  1       -1 0.72171228E-03 0.70522448E+02</pdfrwt>
<totfact> 0.33866682E+05</totfact>
</mgrwt>
</event>
<event>
 8    1  0.1600673E-013  0.7933727E+02  0.7818608E-02  0.1330943E+00
          2   -1    0    0  501    0  0.00000000000E+00  0.00000000000E+00  0.49822827143E+02  0.49822827208E+02  0.25500000000E-02 0. -1.
         -1   -1    0    0    0  501 -0.00000000000E+00 -0.00000000000E+00 -0.31583931150E+02  0.31583931552E+02  0.50400000000E-02 0.  1.
         24    2    1    2    0    0 -0.35527136788E-14  0.35527136788E-14  0.18238895993E+02  0.81406758761E+02  0.79337273994E+02 0.  0.
         66    2    3    3    0    0 -0.22948034219E+02  0.31177868212E+02  0.36291666023E+00  0.38766008979E+02  0.20000007327E+01 0.  0.
        -13    1    3    3    0    0  0.22948034219E+02 -0.31177868212E+02  0.17875979333E+02  0.42640749781E+02  0.10566000000E+00 0.  1.
         13    1    4    4    0    0 -0.63813816346E+01  0.97812998345E+01 -0.33568758833E+00  0.11684164849E+02  0.10566000000E+00 0. -1.
        -13    1    4    4    0    0 -0.10104753854E+01  0.11823123429E+01  0.18280962463E+00  0.15695561076E+01  0.10566000000E+00 0.  1.
        -14    1    4    4    0    0 -0.15556177199E+02  0.20214256035E+02  0.51579462394E+00  0.25512288023E+02  0.00000000000E+00 0.  1.
<mgrwt>
<rscale>  0 0.79337274E+02</rscale>
<asrwt>0</asrwt>
<pdfrwt beam="1">  1        2 0.76650503E-02 0.79337274E+02</pdfrwt>
<pdfrwt beam="2">  1       -1 0.48590664E-02 0.79337274E+02</pdfrwt>
<totfact> 0.15275448E+05</totfact>
</mgrwt>
</event>
<event>
 8    1  0.1600673E-013  0.8217470E+02  0.7818608E-02  0.1322991E+00
          2   -1    0    0  501    0  0.00000000000E+00  0.00000000000E+00  0.64205612129E+03  0.64205612130E+03  0.25500000000E-02 0. -1.
         -1   -1    0    0    0  501 -0.00000000000E+00 -0.00000000000E+00 -0.26293166220E+01  0.26293214524E+01  0.50400000000E-02 0.  1.
         24    2    1    2    0    0  0.00000000000E+00  0.00000000000E+00  0.63942680467E+03  0.64468544275E+03  0.82174701476E+02 0.  0.
         66    2    3    3    0    0 -0.63433695189E+00  0.36442323626E+02  0.46828431257E+03  0.46970484639E+03  0.19999980720E+01 0.  0.
        -13    1    3    3    0    0  0.63433695189E+00 -0.36442323626E+02  0.17114249210E+03  0.17498059636E+03  0.10566000000E+00 0.  1.
         13    1    4    4    0    0  0.53975582798E-01  0.17663459590E+02  0.23199009798E+03  0.23266159426E+03  0.10566000000E+00 0. -1.
        -13    1    4    4    0    0 -0.89818027425E+00  0.10268942436E+02  0.12592364372E+03  0.12634489748E+03  0.10566000000E+00 0.  1.
        -14    1    4    4    0    0  0.20986773956E+00  0.85099215997E+01  0.11037057087E+03  0.11069835466E+03  0.00000000000E+00 0.  1.
<mgrwt>
<rscale>  0 0.82174701E+02</rscale>
<asrwt>0</asrwt>
<pdfrwt beam="1">  1        2 0.98777885E-01 0.82174701E+02</pdfrwt>
<pdfrwt beam="2">  1       -1 0.40451054E-03 0.82174701E+02</pdfrwt>
<totfact> 0.30544109E+05</totfact>
</mgrwt>
</event>
<event>
 8    1  0.1600673E-013  0.7647381E+02  0.7818608E-02  0.1339367E+00
          2   -1    0    0  501    0  0.00000000000E+00  0.00000000000E+00  0.32581959195E+02  0.32581959295E+02  0.25500000000E-02 0. -1.
         -1   -1    0    0    0  501 -0.00000000000E+00 -0.00000000000E+00 -0.44873324184E+02  0.44873324467E+02  0.50400000000E-02 0.  1.
         24    2    1    2    0    0  0.00000000000E+00  0.00000000000E+00 -0.12291364989E+02  0.77455283762E+02  0.76473808127E+02 0.  0.
         66    2    3    3    0    0 -0.24706391818E+02  0.54897531326E+01  0.22844663300E+02  0.34152918537E+02  0.20000043006E+01 0.  0.
        -13    1    3    3    0    0  0.24706391818E+02 -0.54897531326E+01 -0.35136028289E+02  0.43302365225E+02  0.10566000000E+00 0.  1.
         13    1    4    4    0    0 -0.15585345032E+01  0.47324663609E+00  0.19600471115E+01  0.25506745953E+01  0.10566000000E+00 0. -1.
        -13    1    4    4    0    0 -0.20897345768E+01  0.37857453315E+00  0.14505455926E+01  0.25740155070E+01  0.10566000000E+00 0.  1.
         14    1    4    4    0    0 -0.21058122738E+02  0.46379319633E+01  0.19434070596E+02  0.29028228435E+02  0.00000000000E+00 0. -1.
<mgrwt>
<rscale>  0 0.76473808E+02</rscale>
<asrwt>0</asrwt>
<pdfrwt beam="1">  1        2 0.50126091E-02 0.76473808E+02</pdfrwt>
<pdfrwt beam="2">  1       -1 0.69035884E-02 0.76473808E+02</pdfrwt>
<totfact> 0.15503646E+05</totfact>
</mgrwt>
</event>
<event>
 8    1  0.1600673E-013  0.8222887E+02  0.7818608E-02  0.1322843E+00
          2   -1    0    0  501    0  0.00000000000E+00  0.00000000000E+00  0.10723495480E+03  0.10723495483E+03  0.25500000000E-02 0. -1.
         -1   -1    0    0    0  501 -0.00000000000E+00 -0.00000000000E+00 -0.15763484360E+02  0.15763485166E+02  0.50400000000E-02 0.  1.
         24    2    1    2    0    0  0.00000000000E+00  0.00000000000E+00  0.91471470442E+02  0.12299844000E+03  0.82228865597E+02 0.  0.
         66    2    3    3    0    0  0.39202702810E+02 -0.10980744777E+02  0.54086030464E+02  0.67725381916E+02  0.20000001934E+01 0.  0.
        -13    1    3    3    0    0 -0.39202702810E+02  0.10980744777E+02  0.37385439977E+02  0.55273058083E+02  0.10566000000E+00 0.  1.
         13    1    4    4    0    0  0.12852174517E+02 -0.30961562414E+01  0.17519298424E+02  0.21947700439E+02  0.10566000000E+00 0. -1.
        -13    1    4    4    0    0  0.16832678136E+02 -0.48997642910E+01  0.22203610027E+02  0.28290602780E+02  0.10566000000E+00 0.  1.
        -14    1    4    4    0    0  0.95178501573E+01 -0.29848242443E+01  0.14363122014E+02  0.17487078697E+02  0.00000000000E+00 0.  1.
<mgrwt>
<rscale>  0 0.82228866E+02</rscale>
<asrwt>0</asrwt>
<pdfrwt beam="1">  1        2 0.16497686E-01 0.82228866E+02</pdfrwt>
<pdfrwt beam="2">  1       -1 0.24251515E-02 0.82228866E+02</pdfrwt>
<totfact> 0.16797487E+05</totfact>
</mgrwt>
</event>
<event>
 8    1  0.1600673E-013  0.8899398E+02  0.7818608E-02  0.1305306E+00
          2   -1    0    0  501    0  0.00000000000E+00  0.00000000000E+00  0.20511174341E+02  0.20511174500E+02  0.25500000000E-02 0. -1.
         -1   -1    0    0    0  501 -0.00000000000E+00 -0.00000000000E+00 -0.96531881961E+02  0.96531882093E+02  0.50400000000E-02 0.  1.
         24    2    1    2    0    0  0.00000000000E+00  0.00000000000E+00 -0.76020707620E+02  0.11704305659E+03  0.88993983558E+02 0.  0.
         66    2    3    3    0    0  0.27881162057E+02 -0.22662160061E+02 -0.35566273010E+01  0.36160507196E+02  0.19999966676E+01 0.  0.
        -13    1    3    3    0    0 -0.27881162057E+02  0.22662160061E+02 -0.72464080319E+02  0.80882549396E+02  0.10566000000E+00 0.  1.
         13    1    4    4    0    0  0.66787956492E+01 -0.59555193506E+01 -0.38487563460E+00  0.89573330489E+01  0.10566000000E+00 0. -1.
        -13    1    4    4    0    0  0.73675249474E+01 -0.63298232967E+01 -0.14936913830E+01  0.98279888482E+01  0.10566000000E+00 0.  1.
         14    1    4    4    0    0  0.13834841461E+02 -0.10376817413E+02 -0.16780602835E+01  0.17375185299E+02  0.00000000000E+00 0. -1.
<mgrwt>
<rscale>  0 0.88993984E+02</rscale>
<asrwt>0</asrwt>
<pdfrwt beam="1">  1        2 0.31555653E-02 0.88993984E+02</pdfrwt>
<pdfrwt beam="2">  1       -1 0.14851059E-01 0.88993984E+02</pdfrwt>
<totfact> 0.91625747E+04</totfact>
</mgrwt>
</event>
<event>
 8    1  0.1600673E-013  0.7867446E+02  0.7818608E-02  0.1332856E+00
         -1   -1    0    0    0  501 -0.00000000000E+00  0.00000000000E+00  0.10160303205E+02  0.10160304455E+02  0.50400000000E-02 0.  1.
          2   -1    0    0  501    0  0.00000000000E+00 -0.00000000000E+00 -0.15230032640E+03  0.15230032642E+03  0.25500000000E-02 0. -1.
         24    2    1    2    0    0  0.00000000000E+00 -0.35527136788E-14 -0.14214002319E+03  0.16246063087E+03  0.78674458314E+02 0.  0.
         66    2    3    3    0    0 -0.10589173474E+01 -0.18784219384E+02 -0.14239311711E+03  0.14364458920E+03  0.20000004210E+01 0.  0.
        -13    1    3    3    0    0  0.10589173474E+01  0.18784219384E+02  0.25309391712E+00  0.18816041677E+02  0.10566000000E+00 0.  1.
         13    1    4    4    0    0 -0.29647758822E+00 -0.28368387439E+01 -0.20544798322E+02  0.20742117904E+02  0.10566000000E+00 0. -1.
        -13    1    4    4    0    0 -0.83480575803E+00 -0.14472078964E+02 -0.11381459638E+03  0.11473409033E+03  0.10566000000E+00 0. -1.
         14    1    4    4    0    0  0.72365998851E-01 -0.14753016763E+01 -0.80337224054E+01  0.81683809633E+01  0.00000000000E+00 0. -1.
<mgrwt>
<rscale>  0 0.78674458E+02</rscale>
<asrwt>0</asrwt>
<pdfrwt beam="1">  1        2 0.23430818E-01 0.78674458E+02</pdfrwt>
<pdfrwt beam="2">  1       -1 0.15631238E-02 0.78674458E+02</pdfrwt>
<totfact> 0.21040034E+05</totfact>
</mgrwt>
</event>
<event>
 8    1  0.1600673E-013  0.7986397E+02  0.7818608E-02  0.1329438E+00
         -1   -1    0    0    0  501 -0.00000000000E+00  0.00000000000E+00  0.35713532674E+01  0.35713568237E+01  0.50400000000E-02 0.  1.
          2   -1    0    0  501    0  0.00000000000E+00 -0.00000000000E+00 -0.44648694673E+03  0.44648694674E+03  0.25500000000E-02 0. -1.
         24    2    1    2    0    0  0.00000000000E+00  0.00000000000E+00 -0.44291559346E+03  0.45005830356E+03  0.79863969798E+02 0.  0.
         66    2    3    3    0    0 -0.19801621425E+02 -0.31456119451E+02 -0.30344747154E+03  0.30572203003E+03  0.19999989566E+01 0.  0.
        -13    1    3    3    0    0  0.19801621425E+02  0.31456119451E+02 -0.13946812192E+03  0.14433627353E+03  0.10566000000E+00 0.  1.
         13    1    4    4    0    0 -0.81099549281E+01 -0.12136062374E+02 -0.12120259125E+03  0.12207839558E+03  0.10566000000E+00 0. -1.
        -13    1    4    4    0    0 -0.38705055532E+01 -0.58270267194E+01 -0.52109769778E+02  0.52577317581E+02  0.10566000000E+00 0.  1.
        -14    1    4    4    0    0 -0.78211609432E+01 -0.13493030358E+02 -0.13013511051E+03  0.13106631686E+03  0.00000000000E+00 0.  1.
<mgrwt>
<rscale>  0 0.79863970E+02</rscale>
<asrwt>0</asrwt>
<pdfrwt beam="1">  1        2 0.68690255E-01 0.79863970E+02</pdfrwt>
<pdfrwt beam="2">  1       -1 0.54943959E-03 0.79863970E+02</pdfrwt>
<totfact> 0.29471643E+05</totfact>
</mgrwt>
</event>
<event>
 8    1  0.1600673E-013  0.8015747E+02  0.7818608E-02  0.1328605E+00
         -1   -1    0    0    0  501 -0.00000000000E+00  0.00000000000E+00  0.13670285522E+01  0.13670378429E+01  0.50400000000E-02 0.  1.
          2   -1    0    0  501    0  0.00000000000E+00 -0.00000000000E+00 -0.11750300179E+04  0.11750300179E+04  0.25500000000E-02 0. -1.
         24    2    1    2    0    0  0.35527136788E-14 -0.35527136788E-14 -0.11736629894E+04  0.11763970558E+04  0.80157471282E+02 0.  0.
         66    2    3    3    0    0  0.20799751475E+02 -0.17029914899E+02 -0.10229671049E+04  0.10233222100E+04  0.19999999248E+01 0.  0.
        -13    1    3    3    0    0 -0.20799751475E+02  0.17029914899E+02 -0.15069588445E+03  0.15307484580E+03  0.10566000000E+00 0.  1.
         13    1    4    4    0    0  0.97692031304E+01 -0.70872826079E+01 -0.46701364083E+03  0.46716958247E+03  0.10566000000E+00 0. -1.
        -13    1    4    4    0    0  0.56177060976E+00 -0.36228067194E+00 -0.31049113323E+02  0.31056487819E+02  0.10566000000E+00 0.  1.
        -14    1    4    4    0    0  0.10468777734E+02 -0.95803516188E+01 -0.52490435076E+03  0.52509613966E+03  0.00000000000E+00 0.  1.
<mgrwt>
<rscale>  0 0.80157471E+02</rscale>
<asrwt>0</asrwt>
<pdfrwt beam="1">  1        2 0.18077304E+00 0.80157471E+02</pdfrwt>
<pdfrwt beam="2">  1       -1 0.21031374E-03 0.80157471E+02</pdfrwt>
<totfact> 0.34933136E+05</totfact>
</mgrwt>
</event>
<event>
 8    1  0.1600673E-013  0.8102607E+02  0.7818608E-02  0.1326165E+00
          2   -1    0    0  501    0  0.00000000000E+00  0.00000000000E+00  0.17670436166E+03  0.17670436168E+03  0.25500000000E-02 0. -1.
         -1   -1    0    0    0  501 -0.00000000000E+00 -0.00000000000E+00 -0.92884297026E+01  0.92884310700E+01  0.50400000000E-02 0.  1.
         24    2    1    2    0    0  0.00000000000E+00  0.71054273576E-14  0.16741593196E+03  0.18599279275E+03  0.81026074082E+02 0.  0.
         66    2    3    3    0    0 -0.74116526604E+01 -0.22642400088E+02  0.15890484246E+03  0.16069337210E+03  0.20000000955E+01 0.  0.
        -13    1    3    3    0    0  0.74116526604E+01  0.22642400088E+02  0.85110894933E+01  0.25299420652E+02  0.10566000000E+00 0.  1.
         13    1    4    4    0    0 -0.70400230212E+00 -0.26039099342E+01  0.15044077562E+02  0.15284351472E+02  0.10566000000E+00 0. -1.
        -13    1    4    4    0    0 -0.35148212944E+00 -0.76069600825E+00  0.70991273091E+01  0.71491937091E+01  0.10566000000E+00 0.  1.
        -14    1    4    4    0    0 -0.63561682288E+01 -0.19277794146E+02  0.13676163759E+03  0.13825982692E+03  0.00000000000E+00 0.  1.
<mgrwt>
<rscale>  0 0.81026074E+02</rscale>
<asrwt>0</asrwt>
<pdfrwt beam="1">  1        2 0.27185285E-01 0.81026074E+02</pdfrwt>
<pdfrwt beam="2">  1       -1 0.14289894E-02 0.81026074E+02</pdfrwt>
<totfact> 0.20440429E+05</totfact>
</mgrwt>
</event>
<event>
 8    1  0.1600673E-013  0.7939047E+02  0.7818608E-02  0.1330790E+00
         -1   -1    0    0    0  501 -0.00000000000E+00  0.00000000000E+00  0.33894635484E+02  0.33894635858E+02  0.50400000000E-02 0.  1.
          2   -1    0    0  501    0  0.00000000000E+00 -0.00000000000E+00 -0.46488522930E+02  0.46488523000E+02  0.25500000000E-02 0. -1.
         24    2    1    2    0    0  0.00000000000E+00  0.71054273576E-14 -0.12593887446E+02  0.80383158858E+02  0.79390466852E+02 0.  0.
         66    2    3    3    0    0 -0.17877249912E+02 -0.34150130225E+02 -0.15792533240E+02  0.41704095300E+02  0.19999999582E+01 0.  0.
        -13    1    3    3    0    0  0.17877249912E+02  0.34150130225E+02  0.31986457932E+01  0.38679063559E+02  0.10566000000E+00 0.  1.
         13    1    4    4    0    0 -0.11748950035E+02 -0.21061734836E+02 -0.92009924160E+01  0.25812863590E+02  0.10566000000E+00 0. -1.
        -13    1    4    4    0    0 -0.50301396803E+01 -0.10347218070E+02 -0.51641987749E+01  0.12611397227E+02  0.10566000000E+00 0.  1.
        -14    1    4    4    0    0 -0.10981601966E+01 -0.27411773189E+01 -0.14273420487E+01  0.32798344828E+01  0.00000000000E+00 0.  1.
<mgrwt>
<rscale>  0 0.79390467E+02</rscale>
<asrwt>0</asrwt>
<pdfrwt beam="1">  1        2 0.71520805E-02 0.79390467E+02</pdfrwt>
<pdfrwt beam="2">  1       -1 0.52145594E-02 0.79390467E+02</pdfrwt>
<totfact> 0.15022642E+05</totfact>
</mgrwt>
</event>
<event>
 8    1  0.1600673E-013  0.7921884E+02  0.7818608E-02  0.1331283E+00
          2   -1    0    0  501    0  0.00000000000E+00  0.00000000000E+00  0.75027292281E+02  0.75027292324E+02  0.25500000000E-02 0. -1.
         -1   -1    0    0    0  501 -0.00000000000E+00 -0.00000000000E+00 -0.20911136392E+02  0.20911136999E+02  0.50400000000E-02 0.  1.
         24    2    1    2    0    0 -0.11102230246E-15  0.00000000000E+00  0.54116155889E+02  0.95938429323E+02  0.79218835467E+02 0.  0.
         66    2    3    3    0    0 -0.65490168328E+00  0.33151751342E+02  0.53258557828E+02  0.62768953119E+02  0.19999951121E+01 0.  0.
        -13    1    3    3    0    0  0.65490168328E+00 -0.33151751342E+02  0.85759806157E+00  0.33169476205E+02  0.10566000000E+00 0.  1.
         13    1    4    4    0    0 -0.89439247954E+00  0.15643494984E+02  0.23654164190E+02  0.28373394594E+02  0.10566000000E+00 0. -1.
        -13    1    4    4    0    0  0.73698423349E-01  0.87673157121E+01  0.14741295624E+02  0.17151915839E+02  0.10566000000E+00 0.  1.
         14    1    4    4    0    0  0.16579237292E+00  0.87409406455E+01  0.14863098013E+02  0.17243642685E+02  0.00000000000E+00 0. -1.
<mgrwt>
<rscale>  0 0.79218835E+02</rscale>
<asrwt>0</asrwt>
<pdfrwt beam="1">  1        2 0.11542660E-01 0.79218835E+02</pdfrwt>
<pdfrwt beam="2">  1       -1 0.32170980E-02 0.79218835E+02</pdfrwt>
<totfact> 0.16866871E+05</totfact>
</mgrwt>
</event>
<event>
 8    1  0.1600673E-013  0.8039529E+02  0.7818608E-02  0.1327933E+00
          2   -1    0    0  501    0  0.00000000000E+00  0.00000000000E+00  0.51770601323E+03  0.51770601324E+03  0.25500000000E-02 0. -1.
         -1   -1    0    0    0  501 -0.00000000000E+00 -0.00000000000E+00 -0.31211722241E+01  0.31211762933E+01  0.50400000000E-02 0.  1.
         24    2    1    2    0    0 -0.35527136788E-14  0.00000000000E+00  0.51458484101E+03  0.52082718953E+03  0.80395290660E+02 0.  0.
         66    2    3    3    0    0 -0.20420284979E+02  0.28322854264E+02  0.38615225453E+03  0.38773281495E+03  0.19999992018E+01 0.  0.
        -13    1    3    3    0    0  0.20420284979E+02 -0.28322854264E+02  0.12843258648E+03  0.13309437458E+03  0.10566000000E+00 0.  1.
         13    1    4    4    0    0 -0.11257595996E+02  0.14412252689E+02  0.20480477963E+03  0.20561968636E+03  0.10566000000E+00 0. -1.
        -13    1    4    4    0    0 -0.27522425829E+01  0.49249876009E+01  0.60337564524E+02  0.60600851470E+02  0.10566000000E+00 0.  1.
        -14    1    4    4    0    0 -0.64104464007E+01  0.89856139740E+01  0.12100991038E+03  0.12151227712E+03  0.00000000000E+00 0.  1.
<mgrwt>
<rscale>  0 0.80395291E+02</rscale>
<asrwt>0</asrwt>
<pdfrwt beam="1">  1        2 0.79646939E-01 0.80395291E+02</pdfrwt>
<pdfrwt beam="2">  1       -1 0.48018150E-03 0.80395291E+02</pdfrwt>
<totfact> 0.30394446E+05</totfact>
</mgrwt>
</event>
<event>
 8    1  0.1600673E-013  0.7949411E+02  0.7818608E-02  0.1330493E+00
          2   -1    0    0  501    0  0.00000000000E+00  0.00000000000E+00  0.51734351610E+01  0.51734357894E+01  0.25500000000E-02 0. -1.
         -1   -1    0    0    0  501 -0.00000000000E+00 -0.00000000000E+00 -0.30537319203E+03  0.30537319208E+03  0.50400000000E-02 0.  1.
         24    2    1    2    0    0  0.00000000000E+00  0.71054273576E-14 -0.30019975687E+03  0.31054662787E+03  0.79494113315E+02 0.  0.
         66    2    3    3    0    0 -0.86776288174E+01 -0.38459906420E+02 -0.16907492359E+03  0.17362256602E+03  0.20000004376E+01 0.  0.
        -13    1    3    3    0    0  0.86776288174E+01  0.38459906420E+02 -0.13112483328E+03  0.13692406184E+03  0.10566000000E+00 0.  1.
         13    1    4    4    0    0 -0.21792900242E+01 -0.92848162670E+01 -0.43306640748E+02  0.44344485734E+02  0.10566000000E+00 0. -1.
        -13    1    4    4    0    0 -0.24440812104E+01 -0.83940166759E+01 -0.35909998070E+02  0.36959060788E+02  0.10566000000E+00 0.  1.
         14    1    4    4    0    0 -0.40542575828E+01 -0.20781073477E+02 -0.89858284772E+02  0.92319019501E+02  0.00000000000E+00 0. -1.
<mgrwt>
<rscale>  0 0.79494113E+02</rscale>
<asrwt>0</asrwt>
<pdfrwt beam="1">  1        2 0.79591339E-03 0.79494113E+02</pdfrwt>
<pdfrwt beam="2">  1       -1 0.46980477E-01 0.79494113E+02</pdfrwt>
<totfact> 0.87215530E+04</totfact>
</mgrwt>
</event>
<event>
 8    1  0.1600673E-013  0.7854372E+02  0.7818608E-02  0.1333236E+00
         -1   -1    0    0    0  501 -0.00000000000E+00  0.00000000000E+00  0.18084741235E+01  0.18084811464E+01  0.50400000000E-02 0.  1.
          2   -1    0    0  501    0  0.00000000000E+00 -0.00000000000E+00 -0.85280502292E+03  0.85280502292E+03  0.25500000000E-02 0. -1.
         24    2    1    2    0    0  0.00000000000E+00  0.35527136788E-14 -0.85099654879E+03  0.85461350407E+03  0.78543715697E+02 0.  0.
         66    2    3    3    0    0 -0.12157122477E+02  0.19469175970E+02 -0.77215519545E+03  0.77249886103E+03  0.19999985543E+01 0.  0.
        -13    1    3    3    0    0  0.12157122477E+02 -0.19469175970E+02 -0.78841353347E+02  0.82114643039E+02  0.10566000000E+00 0.  1.
         13    1    4    4    0    0 -0.92320577970E+01  0.14902033338E+02 -0.60875667458E+03  0.60900903236E+03  0.10566000000E+00 0. -1.
        -13    1    4    4    0    0 -0.94966355270E+00  0.13776640165E+01 -0.42318859629E+02  0.42352058549E+02  0.10566000000E+00 0.  1.
        -14    1    4    4    0    0 -0.19754011273E+01  0.31894786158E+01 -0.12107966124E+03  0.12113777012E+03  0.00000000000E+00 0.  1.
<mgrwt>
<rscale>  0 0.78543716E+02</rscale>
<asrwt>0</asrwt>
<pdfrwt beam="1">  1        2 0.13120045E+00 0.78543716E+02</pdfrwt>
<pdfrwt beam="2">  1       -1 0.27822801E-03 0.78543716E+02</pdfrwt>
<totfact> 0.36406046E+05</totfact>
</mgrwt>
</event>
<event>
 8    1  0.1600673E-013  0.7963103E+02  0.7818608E-02  0.1330102E+00
          2   -1    0    0  501    0  0.00000000000E+00  0.00000000000E+00  0.12054289123E+02  0.12054289392E+02  0.25500000000E-02 0. -1.
         -1   -1    0    0    0  501 -0.00000000000E+00 -0.00000000000E+00 -0.13151130344E+03  0.13151130354E+03  0.50400000000E-02 0.  1.
         24    2    1    2    0    0  0.00000000000E+00  0.00000000000E+00 -0.11945701432E+03  0.14356559293E+03  0.79631031662E+02 0.  0.
         66    2    3    3    0    0 -0.21666138816E+01 -0.32270404481E+02 -0.17979687522E+02  0.37058634289E+02  0.19999977203E+01 0.  0.
        -13    1    3    3    0    0  0.21666138816E+01  0.32270404481E+02 -0.10147732680E+03  0.10650695864E+03  0.10566000000E+00 0.  1.
         13    1    4    4    0    0 -0.10542775974E+01 -0.14087480002E+02 -0.79760059220E+01  0.16223329762E+02  0.10566000000E+00 0. -1.
        -13    1    4    4    0    0 -0.32293713745E+00 -0.14703337050E+02 -0.79483170189E+01  0.16717634889E+02  0.10566000000E+00 0.  1.
        -14    1    4    4    0    0 -0.78939914672E+00 -0.34795874294E+01 -0.20553645806E+01  0.41176696384E+01  0.00000000000E+00 0.  1.
<mgrwt>
<rscale>  0 0.79631032E+02</rscale>
<asrwt>0</asrwt>
<pdfrwt beam="1">  1        2 0.18545061E-02 0.79631032E+02</pdfrwt>
<pdfrwt beam="2">  1       -1 0.20232507E-01 0.79631032E+02</pdfrwt>
<totfact> 0.11273450E+05</totfact>
</mgrwt>
</event>
<event>
 8    1  0.1600673E-013  0.7785009E+02  0.7818608E-02  0.1335266E+00
          2   -1    0    0  501    0  0.00000000000E+00  0.00000000000E+00  0.33204541815E+03  0.33204541816E+03  0.25500000000E-02 0. -1.
         -1   -1    0    0    0  501 -0.00000000000E+00 -0.00000000000E+00 -0.45631070573E+01  0.45631098406E+01  0.50400000000E-02 0.  1.
         24    2    1    2    0    0  0.71054273576E-14  0.00000000000E+00  0.32748231110E+03  0.33660852800E+03  0.77850093410E+02 0.  0.
         66    2    3    3    0    0  0.37082335336E+02 -0.21397728477E+01  0.21380263262E+03  0.21701438649E+03  0.20000017138E+01 0.  0.
        -13    1    3    3    0    0 -0.37082335336E+02  0.21397728477E+01  0.11367967848E+03  0.11959414151E+03  0.10566000000E+00 0.  1.
         13    1    4    4    0    0  0.81297929138E+01 -0.21207566995E+00  0.47435866680E+02  0.48128069987E+02  0.10566000000E+00 0. -1.
        -13    1    4    4    0    0  0.15679637718E+02 -0.65602752155E+00  0.94123591871E+02  0.95422969571E+02  0.10566000000E+00 0.  1.
        -14    1    4    4    0    0  0.13272904704E+02 -0.12716696562E+01  0.72243174070E+02  0.73463346934E+02  0.00000000000E+00 0.  1.
<mgrwt>
<rscale>  0 0.77850093E+02</rscale>
<asrwt>0</asrwt>
<pdfrwt beam="1">  1        2 0.51083919E-01 0.77850093E+02</pdfrwt>
<pdfrwt beam="2">  1       -1 0.70201657E-03 0.77850093E+02</pdfrwt>
<totfact> 0.28398238E+05</totfact>
</mgrwt>
</event>
<event>
 8    1  0.1600673E-013  0.8006360E+02  0.7818608E-02  0.1328871E+00
         -1   -1    0    0    0  501 -0.00000000000E+00  0.00000000000E+00  0.49162230015E+01  0.49162255849E+01  0.50400000000E-02 0.  1.
          2   -1    0    0  501    0  0.00000000000E+00 -0.00000000000E+00 -0.32597065648E+03  0.32597065649E+03  0.25500000000E-02 0. -1.
         24    2    1    2    0    0  0.00000000000E+00  0.00000000000E+00 -0.32105443347E+03  0.33088688207E+03  0.80063596428E+02 0.  0.
         66    2    3    3    0    0 -0.17366694612E+02 -0.70374664227E+01 -0.30670929799E+03  0.30728768523E+03  0.20000015063E+01 0.  0.
        -13    1    3    3    0    0  0.17366694612E+02  0.70374664227E+01 -0.14345135487E+02  0.23599196842E+02  0.10566000000E+00 0.  1.
         13    1    4    4    0    0 -0.73491697253E+01 -0.26444316114E+01 -0.11975119278E+03  0.12000567758E+03  0.10566000000E+00 0. -1.
        -13    1    4    4    0    0 -0.25400731801E+01 -0.11617656848E+01 -0.57480357512E+02  0.57548278297E+02  0.10566000000E+00 0.  1.
        -14    1    4    4    0    0 -0.74774517069E+01 -0.32312691266E+01 -0.12947774770E+03  0.12973372936E+03  0.00000000000E+00 0.  1.
<mgrwt>
<rscale>  0 0.80063596E+02</rscale>
<asrwt>0</asrwt>
<pdfrwt beam="1">  1        2 0.50149315E-01 0.80063596E+02</pdfrwt>
<pdfrwt beam="2">  1       -1 0.75634246E-03 0.80063596E+02</pdfrwt>
<totfact> 0.26216086E+05</totfact>
</mgrwt>
</event>
<event>
 8    1  0.1600673E-013  0.7156001E+02  0.7818608E-02  0.1354867E+00
         -1   -1    0    0    0  501 -0.00000000000E+00  0.00000000000E+00  0.12670015507E+02  0.12670016510E+02  0.50400000000E-02 0.  1.
          2   -1    0    0  501    0  0.00000000000E+00 -0.00000000000E+00 -0.10104239943E+03  0.10104239947E+03  0.25500000000E-02 0. -1.
         24    2    1    2    0    0  0.00000000000E+00  0.35527136788E-14 -0.88372383928E+02  0.11371241598E+03  0.71560011921E+02 0.  0.
         66    2    3    3    0    0  0.40111826927E+01 -0.27596520847E+02 -0.79772254158E+02  0.84529699422E+02  0.20000003789E+01 0.  0.
        -13    1    3    3    0    0 -0.40111826927E+01  0.27596520847E+02 -0.86001297700E+01  0.29182716555E+02  0.10566000000E+00 0.  1.
         13    1    4    4    0    0  0.89832737727E+00 -0.38731368114E+01 -0.11615185537E+02  0.12277291230E+02  0.10566000000E+00 0. -1.
        -13    1    4    4    0    0  0.28499813139E+00 -0.64782259367E+01 -0.17199739802E+02  0.18381807542E+02  0.10566000000E+00 0.  1.
        -14    1    4    4    0    0  0.28278571840E+01 -0.17245158098E+02 -0.50957328819E+02  0.53870600650E+02  0.00000000000E+00 0.  1.
<mgrwt>
<rscale>  0 0.71560012E+02</rscale>
<asrwt>0</asrwt>
<pdfrwt beam="1">  1        2 0.15544984E-01 0.71560012E+02</pdfrwt>
<pdfrwt beam="2">  1       -1 0.19492333E-02 0.71560012E+02</pdfrwt>
<totfact> 0.23909773E+05</totfact>
</mgrwt>
</event>
<event>
 8    1  0.1600673E-013  0.7926140E+02  0.7818608E-02  0.1331161E+00
         -1   -1    0    0    0  501 -0.00000000000E+00  0.00000000000E+00  0.14351372532E+01  0.14351461031E+01  0.50400000000E-02 0.  1.
          2   -1    0    0  501    0  0.00000000000E+00 -0.00000000000E+00 -0.10943814661E+04  0.10943814661E+04  0.25500000000E-02 0. -1.
         24    2    1    2    0    0  0.17763568394E-14  0.35527136788E-14 -0.10929463289E+04  0.10958166123E+04  0.79261402002E+02 0.  0.
         66    2    3    3    0    0 -0.10811246949E+02 -0.20572429024E+02 -0.99019796503E+03  0.99047267395E+03  0.19999988111E+01 0.  0.
        -13    1    3    3    0    0  0.10811246949E+02  0.20572429024E+02 -0.10274836387E+03  0.10534393831E+03  0.10566000000E+00 0.  1.
         13    1    4    4    0    0 -0.44026329743E+01 -0.10112887696E+02 -0.46333958410E+03  0.46347085673E+03  0.10566000000E+00 0. -1.
        -13    1    4    4    0    0 -0.62743838509E+01 -0.10257382754E+02 -0.52033683599E+03  0.52047575913E+03  0.10566000000E+00 0.  1.
        -14    1    4    4    0    0 -0.13423012336E+00 -0.20215857404E+00 -0.65215449365E+01  0.65260580885E+01  0.00000000000E+00 0.  1.
<mgrwt>
<rscale>  0 0.79261402E+02</rscale>
<asrwt>0</asrwt>
<pdfrwt beam="1">  1        2 0.16836571E+00 0.79261402E+02</pdfrwt>
<pdfrwt beam="2">  1       -1 0.22079190E-03 0.79261402E+02</pdfrwt>
<totfact> 0.36116120E+05</totfact>
</mgrwt>
</event>
<event>
 8    1  0.1600673E-013  0.7906375E+02  0.7818608E-02  0.1331730E+00
         -1   -1    0    0    0  501 -0.00000000000E+00  0.00000000000E+00  0.27884308256E+01  0.27884353804E+01  0.50400000000E-02 0.  1.
          2   -1    0    0  501    0  0.00000000000E+00 -0.00000000000E+00 -0.56044707140E+03  0.56044707141E+03  0.25500000000E-02 0. -1.
         24    2    1    2    0    0  0.17763568394E-14  0.00000000000E+00 -0.55765864058E+03  0.56323550679E+03  0.79063750843E+02 0.  0.
         66    2    3    3    0    0  0.12027425484E+02  0.27839390455E+01 -0.54635015390E+03  0.54649327529E+03  0.19999997998E+01 0.  0.
        -13    1    3    3    0    0 -0.12027425484E+02 -0.27839390455E+01 -0.11308486682E+02  0.16742231495E+02  0.10566000000E+00 0.  1.
         13    1    4    4    0    0  0.71426846429E+00  0.56360678128E+00 -0.40272875005E+02  0.40283290049E+02  0.10566000000E+00 0.  1.
        -13    1    4    4    0    0  0.32464649782E+01  0.90049989452E+00 -0.16903154385E+03  0.16906514843E+03  0.10566000000E+00 0.  1.
         14    1    4    4    0    0  0.80666920413E+01  0.13198323697E+01 -0.33704573504E+03  0.33714483681E+03  0.00000000000E+00 0. -1.
<mgrwt>
<rscale>  0 0.79063751E+02</rscale>
<asrwt>0</asrwt>
<pdfrwt beam="1">  1        2 0.86222537E-01 0.79063751E+02</pdfrwt>
<pdfrwt beam="2">  1       -1 0.42899016E-03 0.79063751E+02</pdfrwt>
<totfact> 0.32520529E+05</totfact>
</mgrwt>
</event>
<event>
 8    1  0.1600673E-013  0.7877340E+02  0.7818608E-02  0.1332569E+00
         -1   -1    0    0    0  501 -0.00000000000E+00  0.00000000000E+00  0.29887683579E+01  0.29887726074E+01  0.50400000000E-02 0.  1.
          2   -1    0    0  501    0  0.00000000000E+00 -0.00000000000E+00 -0.51904690333E+03  0.51904690333E+03  0.25500000000E-02 0. -1.
         24    2    1    2    0    0  0.44408920985E-15  0.00000000000E+00 -0.51605813497E+03  0.52203567594E+03  0.78773398347E+02 0.  0.
         66    2    3    3    0    0 -0.35345791487E+01  0.17237184182E+02 -0.49152877910E+03  0.49184769436E+03  0.19999998809E+01 0.  0.
        -13    1    3    3    0    0  0.35345791487E+01 -0.17237184182E+02 -0.24529355870E+02  0.30187981578E+02  0.10566000000E+00 0.  1.
         13    1    4    4    0    0 -0.51206344241E+00  0.13269396393E+01 -0.34814039770E+02  0.34843241912E+02  0.10566000000E+00 0.  1.
        -13    1    4    4    0    0 -0.31225566331E+01  0.14428367107E+02 -0.42133912939E+03  0.42159767700E+03  0.10566000000E+00 0. -1.
        -14    1    4    4    0    0  0.10004092686E+00  0.14818774357E+01 -0.35375609940E+02  0.35406775447E+02  0.00000000000E+00 0.  1.
<mgrwt>
<rscale>  0 0.78773398E+02</rscale>
<asrwt>0</asrwt>
<pdfrwt beam="1">  1        2 0.79853298E-01 0.78773398E+02</pdfrwt>
<pdfrwt beam="2">  1       -1 0.45981126E-03 0.78773398E+02</pdfrwt>
<totfact> 0.32076917E+05</totfact>
</mgrwt>
</event>
<event>
 8    1  0.1600673E-013  0.7980195E+02  0.7818608E-02  0.1329614E+00
          2   -1    0    0  501    0  0.00000000000E+00  0.00000000000E+00  0.69004135585E+03  0.69004135585E+03  0.25500000000E-02 0. -1.
         -1   -1    0    0    0  501 -0.00000000000E+00 -0.00000000000E+00 -0.23072324767E+01  0.23072379815E+01  0.50400000000E-02 0.  1.
         24    2    1    2    0    0  0.00000000000E+00  0.00000000000E+00  0.68773412337E+03  0.69234859383E+03  0.79801948189E+02 0.  0.
         66    2    3    3    0    0 -0.14000928196E+02 -0.33019497122E+02  0.49529347401E+03  0.49659434005E+03  0.20000002197E+01 0.  0.
        -13    1    3    3    0    0  0.14000928196E+02  0.33019497122E+02  0.19244064937E+03  0.19575425378E+03  0.10566000000E+00 0.  1.
         13    1    4    4    0    0 -0.70437791254E+01 -0.18011624815E+02  0.26639367372E+03  0.26709480342E+03  0.10566000000E+00 0. -1.
        -13    1    4    4    0    0 -0.68089612765E+00 -0.14170940726E+01  0.17800294381E+02  0.17869902609E+02  0.10566000000E+00 0.  1.
         14    1    4    4    0    0 -0.62762529430E+01 -0.13590778235E+02  0.21109950590E+03  0.21162963402E+03  0.00000000000E+00 0. -1.
<mgrwt>
<rscale>  0 0.79801948E+02</rscale>
<asrwt>0</asrwt>
<pdfrwt beam="1">  1        2 0.10616023E+00 0.79801948E+02</pdfrwt>
<pdfrwt beam="2">  1       -1 0.35495919E-03 0.79801948E+02</pdfrwt>
<totfact> 0.33556463E+05</totfact>
</mgrwt>
</event>
<event>
 8    1  0.1600673E-013  0.7908158E+02  0.7818608E-02  0.1331678E+00
         -1   -1    0    0    0  501 -0.00000000000E+00  0.00000000000E+00  0.64539826838E+01  0.64539846517E+01  0.50400000000E-02 0.  1.
          2   -1    0    0  501    0  0.00000000000E+00 -0.00000000000E+00 -0.24224943740E+03  0.24224943741E+03  0.25500000000E-02 0. -1.
         24    2    1    2    0    0  0.00000000000E+00  0.00000000000E+00 -0.23579545472E+03  0.24870342206E+03  0.79081576123E+02 0.  0.
         66    2    3    3    0    0  0.32282117053E+02 -0.21178407748E+02 -0.91509229615E+02  0.99340823152E+02  0.20000008840E+01 0.  0.
        -13    1    3    3    0    0 -0.32282117053E+02  0.21178407748E+02 -0.14428622510E+03  0.14936259891E+03  0.10566000000E+00 0.  1.
         13    1    4    4    0    0  0.20947128695E+02 -0.14139674107E+02 -0.59736085143E+02  0.64862343595E+02  0.10566000000E+00 0. -1.
        -13    1    4    4    0    0  0.94998705390E+01 -0.61662900291E+01 -0.27716837808E+02  0.29941692255E+02  0.10566000000E+00 0.  1.
        -14    1    4    4    0    0  0.18351178192E+01 -0.87244361273E+00 -0.40563066640E+01  0.45367873016E+01  0.00000000000E+00 0.  1.
<mgrwt>
<rscale>  0 0.79081576E+02</rscale>
<asrwt>0</asrwt>
<pdfrwt beam="1">  1        2 0.37269137E-01 0.79081576E+02</pdfrwt>
<pdfrwt beam="2">  1       -1 0.99292076E-03 0.79081576E+02</pdfrwt>
<totfact> 0.24328370E+05</totfact>
</mgrwt>
</event>
<event>
 8    1  0.1600673E-013  0.7941882E+02  0.7818608E-02  0.1330709E+00
         -1   -1    0    0    0  501 -0.00000000000E+00  0.00000000000E+00  0.23010101409E+02  0.23010101961E+02  0.50400000000E-02 0.  1.
          2   -1    0    0  501    0  0.00000000000E+00 -0.00000000000E+00 -0.68528034249E+02  0.68528034296E+02  0.25500000000E-02 0. -1.
         24    2    1    2    0    0  0.00000000000E+00  0.00000000000E+00 -0.45517932840E+02  0.91538136257E+02  0.79418815022E+02 0.  0.
         66    2    3    3    0    0  0.31996471740E+02 -0.10665218728E+02 -0.46876512867E+02  0.57783462536E+02  0.19999974439E+01 0.  0.
        -13    1    3    3    0    0 -0.31996471740E+02  0.10665218728E+02  0.13585800273E+01  0.33754673721E+02  0.10566000000E+00 0.  1.
         13    1    4    4    0    0  0.97563159485E+01 -0.26503386227E+01 -0.14659471759E+02  0.17807899146E+02  0.10566000000E+00 0. -1.
        -13    1    4    4    0    0  0.83079791633E+01 -0.34784448874E+01 -0.12742163501E+02  0.15604358088E+02  0.10566000000E+00 0.  1.
        -14    1    4    4    0    0  0.13932176628E+02 -0.45364352180E+01 -0.19474877607E+02  0.24371205302E+02  0.00000000000E+00 0.  1.
<mgrwt>
<rscale>  0 0.79418815E+02</rscale>
<asrwt>0</asrwt>
<pdfrwt beam="1">  1        2 0.10542774E-01 0.79418815E+02</pdfrwt>
<pdfrwt beam="2">  1       -1 0.35400157E-02 0.79418815E+02</pdfrwt>
<totfact> 0.16383500E+05</totfact>
</mgrwt>
</event>
<event>
 8    1  0.1600673E-013  0.8051870E+02  0.7818608E-02  0.1327586E+00
         -1   -1    0    0    0  501 -0.00000000000E+00  0.00000000000E+00  0.26467020772E+02  0.26467021252E+02  0.50400000000E-02 0.  1.
          2   -1    0    0  501    0  0.00000000000E+00 -0.00000000000E+00 -0.61239058238E+02  0.61239058291E+02  0.25500000000E-02 0. -1.
         24    2    1    2    0    0  0.00000000000E+00  0.00000000000E+00 -0.34772037465E+02  0.87706079543E+02  0.80518704655E+02 0.  0.
         66    2    3    3    0    0 -0.26688453485E+01 -0.23176148145E+02 -0.53103194181E+02  0.58036245554E+02  0.19999968676E+01 0.  0.
        -13    1    3    3    0    0  0.26688453485E+01  0.23176148145E+02  0.18331156716E+02  0.29669833989E+02  0.10566000000E+00 0.  1.
         13    1    4    4    0    0 -0.13601145932E+01 -0.82432812038E+01 -0.20133787318E+02  0.21798673182E+02  0.10566000000E+00 0. -1.
        -13    1    4    4    0    0  0.22156752680E+00 -0.17502273509E+01 -0.39929005945E+01  0.43665555237E+01  0.10566000000E+00 0.  1.
        -14    1    4    4    0    0 -0.15302982821E+01 -0.13182639591E+02 -0.28976506268E+02  0.31871016848E+02  0.00000000000E+00 0.  1.
<mgrwt>
<rscale>  0 0.80518705E+02</rscale>
<asrwt>0</asrwt>
<pdfrwt beam="1">  1        2 0.94213935E-02 0.80518705E+02</pdfrwt>
<pdfrwt beam="2">  1       -1 0.40718494E-02 0.80518705E+02</pdfrwt>
<totfact> 0.15367586E+05</totfact>
</mgrwt>
</event>
<event>
 8    1  0.1600673E-013  0.8019415E+02  0.7818608E-02  0.1328501E+00
          2   -1    0    0  501    0  0.00000000000E+00  0.00000000000E+00  0.54279490851E+03  0.54279490852E+03  0.25500000000E-02 0. -1.
         -1   -1    0    0    0  501 -0.00000000000E+00 -0.00000000000E+00 -0.29620287195E+01  0.29620330073E+01  0.50400000000E-02 0.  1.
         24    2    1    2    0    0  0.00000000000E+00  0.00000000000E+00  0.53983287979E+03  0.54575694153E+03  0.80194146408E+02 0.  0.
         66    2    3    3    0    0  0.33106753516E+02  0.16091639576E+02  0.37785348473E+03  0.37964753908E+03  0.20000031588E+01 0.  0.
        -13    1    3    3    0    0 -0.33106753516E+02 -0.16091639576E+02  0.16197939507E+03  0.16610940245E+03  0.10566000000E+00 0.  1.
         13    1    4    4    0    0  0.19684170380E+02  0.96053773303E+01  0.22129291635E+03  0.22237422474E+03  0.10566000000E+00 0. -1.
        -13    1    4    4    0    0  0.43587098136E+00  0.35206947349E+00  0.45053386624E+01  0.45412748128E+01  0.10566000000E+00 0.  1.
         14    1    4    4    0    0  0.12986712155E+02  0.61341927726E+01  0.15205522972E+03  0.15273203953E+03  0.00000000000E+00 0. -1.
<mgrwt>
<rscale>  0 0.80194146E+02</rscale>
<asrwt>0</asrwt>
<pdfrwt beam="1">  1        2 0.83506773E-01 0.80194146E+02</pdfrwt>
<pdfrwt beam="2">  1       -1 0.45569780E-03 0.80194146E+02</pdfrwt>
<totfact> 0.31041898E+05</totfact>
</mgrwt>
</event>
<event>
 8    1  0.1600673E-013  0.8132627E+02  0.7818608E-02  0.1325329E+00
          2   -1    0    0  501    0  0.00000000000E+00  0.00000000000E+00  0.22678051476E+02  0.22678051619E+02  0.25500000000E-02 0. -1.
         -1   -1    0    0    0  501 -0.00000000000E+00 -0.00000000000E+00 -0.72911491196E+02  0.72911491370E+02  0.50400000000E-02 0.  1.
         24    2    1    2    0    0  0.17763568394E-14  0.00000000000E+00 -0.50233439720E+02  0.95589542989E+02  0.81326270434E+02 0.  0.
         66    2    3    3    0    0  0.14718378160E+02 -0.37072546203E+02 -0.34272786881E+02  0.52627257892E+02  0.20000037620E+01 0.  0.
        -13    1    3    3    0    0 -0.14718378160E+02  0.37072546203E+02 -0.15960652839E+02  0.42962285097E+02  0.10566000000E+00 0.  1.
         13    1    4    4    0    0  0.16691103228E+01 -0.49853467527E+01 -0.40050915079E+01  0.66099571509E+01  0.10566000000E+00 0. -1.
        -13    1    4    4    0    0  0.90640446848E+01 -0.21095839515E+02 -0.20565841513E+02  0.30824606276E+02  0.10566000000E+00 0.  1.
        -14    1    4    4    0    0  0.39852231523E+01 -0.10991359936E+02 -0.97018538596E+01  0.15192694466E+02  0.00000000000E+00 0.  1.
<mgrwt>
<rscale>  0 0.81326270E+02</rscale>
<asrwt>0</asrwt>
<pdfrwt beam="1">  1        2 0.34889310E-02 0.81326270E+02</pdfrwt>
<pdfrwt beam="2">  1       -1 0.11217152E-01 0.81326270E+02</pdfrwt>
<totfact> 0.12148812E+05</totfact>
</mgrwt>
</event>
<event>
 8    1  0.1600673E-013  0.8688311E+02  0.7818608E-02  0.1310580E+00
         -1   -1    0    0    0  501 -0.00000000000E+00  0.00000000000E+00  0.36393273845E+01  0.36393308744E+01  0.50400000000E-02 0.  1.
          2   -1    0    0  501    0  0.00000000000E+00 -0.00000000000E+00 -0.51854853586E+03  0.51854853587E+03  0.25500000000E-02 0. -1.
         24    2    1    2    0    0  0.17763568394E-14  0.00000000000E+00 -0.51490920848E+03  0.52218786674E+03  0.86883112274E+02 0.  0.
         66    2    3    3    0    0  0.13849992445E+02 -0.38119996327E+02 -0.35074100780E+03  0.35308385825E+03  0.19999983130E+01 0.  0.
        -13    1    3    3    0    0 -0.13849992445E+02  0.38119996327E+02 -0.16416820068E+03  0.16910400849E+03  0.10566000000E+00 0.  1.
         13    1    4    4    0    0  0.37982020708E+01 -0.10921906167E+02 -0.93500259836E+02  0.94212653751E+02  0.10566000000E+00 0. -1.
        -13    1    4    4    0    0  0.19405467889E+01 -0.47531109673E+01 -0.47895094969E+02  0.48169586586E+02  0.10566000000E+00 0.  1.
         14    1    4    4    0    0  0.81112435855E+01 -0.22444979193E+02 -0.20934565299E+03  0.21070161791E+03  0.00000000000E+00 0. -1.
<mgrwt>
<rscale>  0 0.86883112E+02</rscale>
<asrwt>0</asrwt>
<pdfrwt beam="1">  1        2 0.79776639E-01 0.86883112E+02</pdfrwt>
<pdfrwt beam="2">  1       -1 0.55989720E-03 0.86883112E+02</pdfrwt>
<totfact> 0.24821409E+05</totfact>
</mgrwt>
</event>
<event>
 8    1  0.1600673E-013  0.8290783E+02  0.7818608E-02  0.1320996E+00
         -1   -1    0    0    0  501 -0.00000000000E+00  0.00000000000E+00  0.89408438032E+02  0.89408438175E+02  0.50400000000E-02 0.  1.
          2   -1    0    0  501    0  0.00000000000E+00 -0.00000000000E+00 -0.19219963211E+02  0.19219963380E+02  0.25500000000E-02 0. -1.
         24    2    1    2    0    0 -0.17763568394E-14  0.00000000000E+00  0.70188474821E+02  0.10862840155E+03  0.82907826088E+02 0.  0.
         66    2    3    3    0    0  0.12422974545E+02 -0.31543040351E+02  0.39121675165E+01  0.34184773452E+02  0.19999975393E+01 0.  0.
        -13    1    3    3    0    0 -0.12422974545E+02  0.31543040351E+02  0.66276307305E+02  0.74443628103E+02  0.10566000000E+00 0.  1.
         13    1    4    4    0    0  0.80143486776E+01 -0.21042924880E+02  0.29411529383E+01  0.22708941342E+02  0.10566000000E+00 0. -1.
        -13    1    4    4    0    0  0.11625744919E+01 -0.20231474763E+01  0.48509090780E+00  0.23856199162E+01  0.10566000000E+00 0.  1.
        -14    1    4    4    0    0  0.32460513759E+01 -0.84769679945E+01  0.48592367035E+00  0.90902121939E+01  0.00000000000E+00 0.  1.
<mgrwt>
<rscale>  0 0.82907826E+02</rscale>
<asrwt>0</asrwt>
<pdfrwt beam="1">  1        2 0.29569174E-02 0.82907826E+02</pdfrwt>
<pdfrwt beam="2">  1       -1 0.13755144E-01 0.82907826E+02</pdfrwt>
<totfact> 0.11107829E+05</totfact>
</mgrwt>
</event>
<event>
 8    1  0.1600673E-013  0.8074513E+02  0.7818608E-02  0.1326950E+00
          2   -1    0    0  501    0  0.00000000000E+00  0.00000000000E+00  0.22288946413E+03  0.22288946414E+03  0.25500000000E-02 0. -1.
         -1   -1    0    0    0  501 -0.00000000000E+00 -0.00000000000E+00 -0.73127896153E+01  0.73127913521E+01  0.50400000000E-02 0.  1.
         24    2    1    2    0    0  0.00000000000E+00 -0.17763568394E-14  0.21557667451E+03  0.23020225549E+03  0.80745128899E+02 0.  0.
         66    2    3    3    0    0  0.29473879114E+02 -0.10476852742E+02  0.18051022125E+03  0.18321139147E+03  0.19999986941E+01 0.  0.
        -13    1    3    3    0    0 -0.29473879114E+02  0.10476852742E+02  0.35066453261E+02  0.46990864024E+02  0.10566000000E+00 0.  1.
         13    1    4    4    0    0  0.16279521006E+01 -0.49858665335E+00  0.11139797324E+02  0.11269652397E+02  0.10566000000E+00 0. -1.
        -13    1    4    4    0    0  0.51355131816E+01 -0.21507568259E+01  0.28754062018E+02  0.29288333806E+02  0.10566000000E+00 0.  1.
        -14    1    4    4    0    0  0.22710413832E+02 -0.78275092624E+01  0.14061636191E+03  0.14265340527E+03  0.00000000000E+00 0.  1.
<mgrwt>
<rscale>  0 0.80745129E+02</rscale>
<asrwt>0</asrwt>
<pdfrwt beam="1">  1        2 0.34290691E-01 0.80745129E+02</pdfrwt>
<pdfrwt beam="2">  1       -1 0.11250446E-02 0.80745129E+02</pdfrwt>
<totfact> 0.22359612E+05</totfact>
</mgrwt>
</event>
<event>
 8    1  0.1600673E-013  0.8047246E+02  0.7818608E-02  0.1327716E+00
          2   -1    0    0  501    0  0.00000000000E+00  0.00000000000E+00  0.24125529594E+03  0.24125529595E+03  0.25500000000E-02 0. -1.
         -1   -1    0    0    0  501 -0.00000000000E+00 -0.00000000000E+00 -0.67105423544E+01  0.67105442471E+01  0.50400000000E-02 0.  1.
         24    2    1    2    0    0 -0.71054273576E-14  0.00000000000E+00  0.23454475359E+03  0.24796584020E+03  0.80472457846E+02 0.  0.
         66    2    3    3    0    0  0.38662943626E+02 -0.43891651966E+01  0.14859607249E+03  0.15361927202E+03  0.19999990508E+01 0.  0.
        -13    1    3    3    0    0 -0.38662943626E+02  0.43891651966E+01  0.85948681098E+02  0.94346568181E+02  0.10566000000E+00 0.  1.
         13    1    4    4    0    0  0.19608019264E+02 -0.22848988789E+01  0.77527418148E+02  0.80001293184E+02  0.10566000000E+00 0. -1.
        -13    1    4    4    0    0  0.39733541614E+01 -0.71921238941E+00  0.16420056814E+02  0.16909590165E+02  0.10566000000E+00 0.  1.
         14    1    4    4    0    0  0.15081570200E+02 -0.13850539282E+01  0.54648597526E+02  0.56708388671E+02  0.00000000000E+00 0. -1.
<mgrwt>
<rscale>  0 0.80472458E+02</rscale>
<asrwt>0</asrwt>
<pdfrwt beam="1">  1        2 0.37116200E-01 0.80472458E+02</pdfrwt>
<pdfrwt beam="2">  1       -1 0.10323913E-02 0.80472458E+02</pdfrwt>
<totfact> 0.23204076E+05</totfact>
</mgrwt>
</event>
<event>
 8    1  0.1600673E-013  0.8974249E+02  0.7818608E-02  0.1303476E+00
         -1   -1    0    0    0  501 -0.00000000000E+00  0.00000000000E+00  0.25780024563E+01  0.25780073829E+01  0.50400000000E-02 0.  1.
          2   -1    0    0  501    0  0.00000000000E+00 -0.00000000000E+00 -0.78100265552E+03  0.78100265553E+03  0.25500000000E-02 0. -1.
         24    2    1    2    0    0  0.00000000000E+00 -0.35527136788E-14 -0.77842465307E+03  0.78358066291E+03  0.89742491522E+02 0.  0.
         66    2    3    3    0    0  0.23102693090E+02  0.31457265221E+02 -0.58231440087E+03  0.58362432731E+03  0.20000030920E+01 0.  0.
        -13    1    3    3    0    0 -0.23102693090E+02 -0.31457265221E+02 -0.19611025220E+03  0.19995633560E+03  0.10566000000E+00 0.  1.
         13    1    4    4    0    0  0.10408538516E+01  0.17909715627E+01 -0.30396094822E+02  0.30466780276E+02  0.10566000000E+00 0.  1.
        -13    1    4    4    0    0  0.12716564614E+02  0.18423602554E+02 -0.33308615197E+03  0.33383758917E+03  0.10566000000E+00 0. -1.
         14    1    4    4    0    0  0.93452746251E+01  0.11242691104E+02 -0.21883215407E+03  0.21931995786E+03  0.00000000000E+00 0. -1.
<mgrwt>
<rscale>  0 0.89742492E+02</rscale>
<asrwt>0</asrwt>
<pdfrwt beam="1">  1        2 0.12015407E+00 0.89742492E+02</pdfrwt>
<pdfrwt beam="2">  1       -1 0.39661676E-03 0.89742492E+02</pdfrwt>
<totfact> 0.25343323E+05</totfact>
</mgrwt>
</event>
<event>
 8    1  0.1600673E-013  0.8259783E+02  0.7818608E-02  0.1321837E+00
          2   -1    0    0  501    0  0.00000000000E+00  0.00000000000E+00  0.48851780523E+02  0.48851780590E+02  0.25500000000E-02 0. -1.
         -1   -1    0    0    0  501 -0.00000000000E+00 -0.00000000000E+00 -0.34913776870E+02  0.34913777234E+02  0.50400000000E-02 0.  1.
         24    2    1    2    0    0  0.00000000000E+00  0.22204460493E-15  0.13938003653E+02  0.83765557823E+02  0.82597825223E+02 0.  0.
         66    2    3    3    0    0  0.33523125511E+02  0.13344533260E+01  0.31354902436E+02  0.45964231961E+02  0.20000007961E+01 0.  0.
        -13    1    3    3    0    0 -0.33523125511E+02 -0.13344533260E+01 -0.17416898783E+02  0.37801325863E+02  0.10566000000E+00 0.  1.
         13    1    4    4    0    0  0.10132234770E+02  0.10955967092E+01  0.10096542677E+02  0.14346213843E+02  0.10566000000E+00 0. -1.
        -13    1    4    4    0    0  0.15812798625E+01  0.17069828580E+00  0.15236457439E+01  0.22050497266E+01  0.10566000000E+00 0. -1.
         14    1    4    4    0    0  0.21809610880E+02  0.68158330947E-01  0.19734714016E+02  0.29412968391E+02  0.00000000000E+00 0. -1.
<mgrwt>
<rscale>  0 0.82597825E+02</rscale>
<asrwt>0</asrwt>
<pdfrwt beam="1">  1        2 0.75156585E-02 0.82597825E+02</pdfrwt>
<pdfrwt beam="2">  1       -1 0.53713504E-02 0.82597825E+02</pdfrwt>
<totfact> 0.13617889E+05</totfact>
</mgrwt>
</event>
<event>
 8    1  0.1600673E-013  0.7721303E+02  0.7818608E-02  0.1337152E+00
          2   -1    0    0  501    0  0.00000000000E+00  0.00000000000E+00  0.86254052378E+02  0.86254052416E+02  0.25500000000E-02 0. -1.
         -1   -1    0    0    0  501 -0.00000000000E+00 -0.00000000000E+00 -0.17279917268E+02  0.17279918003E+02  0.50400000000E-02 0.  1.
         24    2    1    2    0    0  0.44408920985E-15  0.00000000000E+00  0.68974135110E+02  0.10353397042E+03  0.77213028152E+02 0.  0.
         66    2    3    3    0    0  0.33468915240E+01 -0.10665218514E+02  0.84023383008E+02  0.84787248167E+02  0.19999977004E+01 0.  0.
        -13    1    3    3    0    0 -0.33468915240E+01  0.10665218514E+02 -0.15049247898E+02  0.18746722251E+02  0.10566000000E+00 0.  1.
         13    1    4    4    0    0  0.20266710320E+01 -0.48833570481E+01  0.35009844044E+02  0.35406989642E+02  0.10566000000E+00 0. -1.
        -13    1    4    4    0    0  0.91854824988E+00 -0.40680243063E+01  0.30663767507E+02  0.30946249440E+02  0.10566000000E+00 0.  1.
        -14    1    4    4    0    0  0.40167224216E+00 -0.17138371596E+01  0.18349771458E+02  0.18434009085E+02  0.00000000000E+00 0.  1.
<mgrwt>
<rscale>  0 0.77213028E+02</rscale>
<asrwt>0</asrwt>
<pdfrwt beam="1">  1        2 0.13269854E-01 0.77213028E+02</pdfrwt>
<pdfrwt beam="2">  1       -1 0.26584489E-02 0.77213028E+02</pdfrwt>
<totfact> 0.18726374E+05</totfact>
</mgrwt>
</event>
<event>
 8    1  0.1600673E-013  0.8045757E+02  0.7818608E-02  0.1327758E+00
         -1   -1    0    0    0  501 -0.00000000000E+00  0.00000000000E+00  0.32601746584E+01  0.32601785541E+01  0.50400000000E-02 0.  1.
          2   -1    0    0  501    0  0.00000000000E+00 -0.00000000000E+00 -0.49640110540E+03  0.49640110541E+03  0.25500000000E-02 0. -1.
         24    2    1    2    0    0  0.35527136788E-14  0.00000000000E+00 -0.49314093074E+03  0.49966128396E+03  0.80457573395E+02 0.  0.
         66    2    3    3    0    0 -0.29031120197E+02 -0.72551777556E+01 -0.41346567113E+03  0.41455193252E+03  0.20000026826E+01 0.  0.
        -13    1    3    3    0    0  0.29031120197E+02  0.72551777556E+01 -0.79675259619E+02  0.85109351446E+02  0.10566000000E+00 0.  1.
         13    1    4    4    0    0 -0.18308478054E+02 -0.46883605802E+01 -0.24818421505E+03  0.24890278596E+03  0.10566000000E+00 0. -1.
        -13    1    4    4    0    0 -0.15749494146E+01 -0.45000740294E+00 -0.24800195912E+02  0.24854453397E+02  0.10566000000E+00 0.  1.
         14    1    4    4    0    0 -0.91476927282E+01 -0.21168097725E+01 -0.14048126016E+03  0.14079469316E+03  0.00000000000E+00 0. -1.
<mgrwt>
<rscale>  0 0.80457573E+02</rscale>
<asrwt>0</asrwt>
<pdfrwt beam="1">  1        2 0.76369341E-01 0.80457573E+02</pdfrwt>
<pdfrwt beam="2">  1       -1 0.50156603E-03 0.80457573E+02</pdfrwt>
<totfact> 0.29932767E+05</totfact>
</mgrwt>
</event>
<event>
 8    1  0.1600673E-013  0.7985242E+02  0.7818608E-02  0.1329471E+00
          2   -1    0    0  501    0  0.00000000000E+00  0.00000000000E+00  0.39640364453E+02  0.39640364535E+02  0.25500000000E-02 0. -1.
         -1   -1    0    0    0  501 -0.00000000000E+00 -0.00000000000E+00 -0.40214115976E+02  0.40214116292E+02  0.50400000000E-02 0.  1.
         24    2    1    2    0    0  0.00000000000E+00  0.71054273576E-14 -0.57375152309E+00  0.79854480828E+02  0.79852419609E+02 0.  0.
         66    2    3    3    0    0  0.11498956777E+01 -0.35335603864E+02 -0.18785373475E+02  0.40085127065E+02  0.19999986784E+01 0.  0.
        -13    1    3    3    0    0 -0.11498956777E+01  0.35335603864E+02  0.18211621952E+02  0.39769353762E+02  0.10566000000E+00 0.  1.
         13    1    4    4    0    0  0.14124674948E+00 -0.15349358415E+02 -0.78834711184E+01  0.17256391144E+02  0.10566000000E+00 0. -1.
        -13    1    4    4    0    0  0.71844614836E+00 -0.19272529181E+02 -0.10520569457E+02  0.21969071251E+02  0.10566000000E+00 0.  1.
        -14    1    4    4    0    0  0.29020277989E+00 -0.71371626802E+00 -0.38133289985E+00  0.85966467020E+00  0.00000000000E+00 0.  1.
<mgrwt>
<rscale>  0 0.79852420E+02</rscale>
<asrwt>0</asrwt>
<pdfrwt beam="1">  1        2 0.60985176E-02 0.79852420E+02</pdfrwt>
<pdfrwt beam="2">  1       -1 0.61867871E-02 0.79852420E+02</pdfrwt>
<totfact> 0.14301669E+05</totfact>
</mgrwt>
</event>
<event>
 8    1  0.1600673E-013  0.7972511E+02  0.7818608E-02  0.1329833E+00
          2   -1    0    0  501    0  0.00000000000E+00  0.00000000000E+00  0.12090397648E+03  0.12090397651E+03  0.25500000000E-02 0. -1.
         -1   -1    0    0    0  501 -0.00000000000E+00 -0.00000000000E+00 -0.13142853701E+02  0.13142854667E+02  0.50400000000E-02 0.  1.
         24    2    1    2    0    0  0.00000000000E+00 -0.35527136788E-14  0.10776112278E+03  0.13404683118E+03  0.79725111259E+02 0.  0.
         66    2    3    3    0    0  0.20396825949E+02 -0.21115746710E+02  0.99189983505E+02  0.10346283437E+03  0.20000001633E+01 0.  0.
        -13    1    3    3    0    0 -0.20396825949E+02  0.21115746710E+02  0.85711392750E+01  0.30583996803E+02  0.10566000000E+00 0.  1.
         13    1    4    4    0    0  0.15613851458E+02 -0.16424532491E+02  0.76813196990E+02  0.80086428443E+02  0.10566000000E+00 0. -1.
        -13    1    4    4    0    0  0.19190212261E+01 -0.14722858987E+01  0.91921081113E+01  0.95055922382E+01  0.10566000000E+00 0.  1.
         14    1    4    4    0    0  0.28639532645E+01 -0.32189283210E+01  0.13184678404E+02  0.13870813691E+02  0.00000000000E+00 0. -1.
<mgrwt>
<rscale>  0 0.79725111E+02</rscale>
<asrwt>0</asrwt>
<pdfrwt beam="1">  1        2 0.18600612E-01 0.79725111E+02</pdfrwt>
<pdfrwt beam="2">  1       -1 0.20219776E-02 0.79725111E+02</pdfrwt>
<totfact> 0.18901243E+05</totfact>
</mgrwt>
</event>
<event>
 8    1  0.1600673E-013  0.8006733E+02  0.7818608E-02  0.1328860E+00
          2   -1    0    0  501    0  0.00000000000E+00  0.00000000000E+00  0.16945296552E+03  0.16945296554E+03  0.25500000000E-02 0. -1.
         -1   -1    0    0    0  501 -0.00000000000E+00 -0.00000000000E+00 -0.94580465009E+01  0.94580478437E+01  0.50400000000E-02 0.  1.
         24    2    1    2    0    0 -0.88817841970E-15  0.00000000000E+00  0.15999491902E+03  0.17891101338E+03  0.80067325406E+02 0.  0.
         66    2    3    3    0    0 -0.46937915419E+01  0.26523127941E+02  0.14615169160E+03  0.14862646115E+03  0.19999999956E+01 0.  0.
        -13    1    3    3    0    0  0.46937915419E+01 -0.26523127941E+02  0.13843227417E+02  0.30284552236E+02  0.10566000000E+00 0.  1.
         13    1    4    4    0    0 -0.21637311439E+01  0.10556815210E+02  0.61142838834E+02  0.62085312148E+02  0.10566000000E+00 0. -1.
        -13    1    4    4    0    0 -0.25554660691E+01  0.15847206152E+02  0.83609181469E+02  0.85136189365E+02  0.10566000000E+00 0.  1.
        -14    1    4    4    0    0  0.25405671128E-01  0.11910657928E+00  0.13996712998E+01  0.14049596339E+01  0.00000000000E+00 0.  1.
<mgrwt>
<rscale>  0 0.80067325E+02</rscale>
<asrwt>0</asrwt>
<pdfrwt beam="1">  1        2 0.26069686E-01 0.80067325E+02</pdfrwt>
<pdfrwt beam="2">  1       -1 0.14550843E-02 0.80067325E+02</pdfrwt>
<totfact> 0.20800545E+05</totfact>
</mgrwt>
</event>
<event>
 8    1  0.1600673E-013  0.7638588E+02  0.7818608E-02  0.1339632E+00
          2   -1    0    0  501    0  0.00000000000E+00  0.00000000000E+00  0.97007315631E+03  0.97007315632E+03  0.25500000000E-02 0. -1.
         -1   -1    0    0    0  501 -0.00000000000E+00 -0.00000000000E+00 -0.15036974087E+01  0.15037058550E+01  0.50400000000E-02 0.  1.
         24    2    1    2    0    0  0.00000000000E+00  0.00000000000E+00  0.96856945891E+03  0.97157686217E+03  0.76385878175E+02 0.  0.
         66    2    3    3    0    0 -0.56107016810E+01  0.12960786371E+02  0.93561118889E+03  0.93571991469E+03  0.20000010032E+01 0.  0.
        -13    1    3    3    0    0  0.56107016810E+01 -0.12960786371E+02  0.32958270013E+02  0.35856947486E+02  0.10566000000E+00 0.  1.
         13    1    4    4    0    0 -0.44990867196E+00  0.85541159157E+00  0.51762422700E+02  0.51771553141E+02  0.10566000000E+00 0. -1.
        -13    1    4    4    0    0 -0.31715125277E+01  0.92748417877E+01  0.66532544620E+03  0.66539765683E+03  0.10566000000E+00 0.  1.
        -14    1    4    4    0    0 -0.19892804814E+01  0.28305329918E+01  0.21852331999E+03  0.21855070472E+03  0.00000000000E+00 0.  1.
<mgrwt>
<rscale>  0 0.76385878E+02</rscale>
<asrwt>0</asrwt>
<pdfrwt beam="1">  1        2 0.14924220E+00 0.76385878E+02</pdfrwt>
<pdfrwt beam="2">  1       -1 0.23133844E-03 0.76385878E+02</pdfrwt>
<totfact> 0.39649372E+05</totfact>
</mgrwt>
</event>
<event>
 8    1  0.1600673E-013  0.8074608E+02  0.7818608E-02  0.1326947E+00
         -1   -1    0    0    0  501 -0.00000000000E+00  0.00000000000E+00  0.55233109432E+01  0.55233132427E+01  0.50400000000E-02 0.  1.
          2   -1    0    0  501    0  0.00000000000E+00 -0.00000000000E+00 -0.29510959880E+03  0.29510959882E+03  0.25500000000E-02 0. -1.
         24    2    1    2    0    0  0.00000000000E+00  0.00000000000E+00 -0.28958628786E+03  0.30063291206E+03  0.80746081610E+02 0.  0.
         66    2    3    3    0    0 -0.19071754421E+01 -0.22948964915E+02 -0.26823593259E+03  0.26923002775E+03  0.19999995813E+01 0.  0.
        -13    1    3    3    0    0  0.19071754421E+01  0.22948964915E+02 -0.21350355267E+02  0.31402884308E+02  0.10566000000E+00 0.  1.
         13    1    4    4    0    0 -0.11615059814E+01 -0.11890631995E+02 -0.13231845603E+03  0.13285676948E+03  0.10566000000E+00 0. -1.
        -13    1    4    4    0    0 -0.59689214744E+00 -0.24048219872E+01 -0.28539845637E+02  0.28647397823E+02  0.10566000000E+00 0.  1.
        -14    1    4    4    0    0 -0.14877731332E+00 -0.86535109329E+01 -0.10737763093E+03  0.10772586045E+03  0.00000000000E+00 0.  1.
<mgrwt>
<rscale>  0 0.80746082E+02</rscale>
<asrwt>0</asrwt>
<pdfrwt beam="1">  1        2 0.45401464E-01 0.80746082E+02</pdfrwt>
<pdfrwt beam="2">  1       -1 0.84974056E-03 0.80746082E+02</pdfrwt>
<totfact> 0.24733433E+05</totfact>
</mgrwt>
</event>
<event>
 8    1  0.1600673E-013  0.7554605E+02  0.7818608E-02  0.1342188E+00
         -1   -1    0    0    0  501 -0.00000000000E+00  0.00000000000E+00  0.21110590948E+01  0.21110651111E+01  0.50400000000E-02 0.  1.
          2   -1    0    0  501    0  0.00000000000E+00 -0.00000000000E+00 -0.67586898517E+03  0.67586898517E+03  0.25500000000E-02 0. -1.
         24    2    1    2    0    0 -0.44408920985E-15  0.00000000000E+00 -0.67375792607E+03  0.67798005028E+03  0.75546049775E+02 0.  0.
         66    2    3    3    0    0 -0.38447578100E+01 -0.19787938838E+02 -0.62351598683E+03  0.62384495715E+03  0.20000094872E+01 0.  0.
        -13    1    3    3    0    0  0.38447578100E+01  0.19787938838E+02 -0.50241939239E+02  0.54135093134E+02  0.10566000000E+00 0.  1.
         13    1    4    4    0    0 -0.48015350226E+00 -0.39613179577E+01 -0.13152641466E+03  0.13158697316E+03  0.10566000000E+00 0. -1.
        -13    1    4    4    0    0 -0.43394266205E-01 -0.15484658887E+00 -0.11061864696E+02  0.11063538092E+02  0.10566000000E+00 0. -1.
         14    1    4    4    0    0 -0.33212100415E+01 -0.15671774291E+02 -0.48092770747E+03  0.48119444590E+03  0.00000000000E+00 0. -1.
<mgrwt>
<rscale>  0 0.75546050E+02</rscale>
<asrwt>0</asrwt>
<pdfrwt beam="1">  1        2 0.10397967E+00 0.75546050E+02</pdfrwt>
<pdfrwt beam="2">  1       -1 0.32477933E-03 0.75546050E+02</pdfrwt>
<totfact> 0.38488745E+05</totfact>
</mgrwt>
</event>
<event>
 8    1  0.1600673E-013  0.8094776E+02  0.7818608E-02  0.1326383E+00
          2   -1    0    0  501    0  0.00000000000E+00  0.00000000000E+00  0.29155704714E+03  0.29155704715E+03  0.25500000000E-02 0. -1.
         -1   -1    0    0    0  501 -0.00000000000E+00 -0.00000000000E+00 -0.56185736061E+01  0.56185758666E+01  0.50400000000E-02 0.  1.
         24    2    1    2    0    0  0.00000000000E+00  0.00000000000E+00  0.28593847354E+03  0.29717562302E+03  0.80947762595E+02 0.  0.
         66    2    3    3    0    0  0.21887352472E+02  0.14727714427E+02  0.25562328108E+03  0.25698876163E+03  0.20000011966E+01 0.  0.
        -13    1    3    3    0    0 -0.21887352472E+02 -0.14727714427E+02  0.30315192456E+02  0.40186861388E+02  0.10566000000E+00 0.  1.
         13    1    4    4    0    0  0.11177473581E+02  0.77708637320E+01  0.13487133648E+03  0.13555667010E+03  0.10566000000E+00 0. -1.
        -13    1    4    4    0    0  0.56171234686E+01  0.41681834855E+01  0.70261351355E+02  0.70608742291E+02  0.10566000000E+00 0.  1.
        -14    1    4    4    0    0  0.50927554228E+01  0.27886672100E+01  0.50490593241E+02  0.50823349245E+02  0.00000000000E+00 0.  1.
<mgrwt>
<rscale>  0 0.80947763E+02</rscale>
<asrwt>0</asrwt>
<pdfrwt beam="1">  1        2 0.44854935E-01 0.80947763E+02</pdfrwt>
<pdfrwt beam="2">  1       -1 0.86439603E-03 0.80947763E+02</pdfrwt>
<totfact> 0.24464297E+05</totfact>
</mgrwt>
</event>
<event>
 8    1  0.1600673E-013  0.7346949E+02  0.7818608E-02  0.1348677E+00
          2   -1    0    0  501    0  0.00000000000E+00  0.00000000000E+00  0.32498660990E+03  0.32498660991E+03  0.25500000000E-02 0. -1.
         -1   -1    0    0    0  501 -0.00000000000E+00 -0.00000000000E+00 -0.41522969706E+01  0.41523000293E+01  0.50400000000E-02 0.  1.
         24    2    1    2    0    0  0.17763568394E-14  0.35527136788E-14  0.32083431293E+03  0.32913890994E+03  0.73469488110E+02 0.  0.
         66    2    3    3    0    0  0.86249860525E+01  0.25860180140E+02  0.27066364492E+03  0.27204034258E+03  0.20000029362E+01 0.  0.
        -13    1    3    3    0    0 -0.86249860525E+01 -0.25860180140E+02  0.50170668011E+02  0.57098567355E+02  0.10566000000E+00 0.  1.
         13    1    4    4    0    0  0.12726151636E+01  0.34243746711E+01  0.35163167456E+02  0.35352586904E+02  0.10566000000E+00 0. -1.
        -13    1    4    4    0    0  0.22792981594E+01  0.53698173051E+01  0.52474910175E+02  0.52798271751E+02  0.10566000000E+00 0.  1.
         14    1    4    4    0    0  0.50730727294E+01  0.17065988164E+02  0.18302556729E+03  0.18388948393E+03  0.00000000000E+00 0. -1.
<mgrwt>
<rscale>  0 0.73469488E+02</rscale>
<asrwt>0</asrwt>
<pdfrwt beam="1">  1        2 0.49997942E-01 0.73469488E+02</pdfrwt>
<pdfrwt beam="2">  1       -1 0.63881513E-03 0.73469488E+02</pdfrwt>
<totfact> 0.32764882E+05</totfact>
</mgrwt>
</event>
<event>
 8    1  0.1600673E-013  0.7942908E+02  0.7818608E-02  0.1330679E+00
         -1   -1    0    0    0  501 -0.00000000000E+00  0.00000000000E+00  0.53482477474E+01  0.53482501222E+01  0.50400000000E-02 0.  1.
          2   -1    0    0  501    0  0.00000000000E+00 -0.00000000000E+00 -0.29490863074E+03  0.29490863075E+03  0.25500000000E-02 0. -1.
         24    2    1    2    0    0  0.00000000000E+00  0.00000000000E+00 -0.28956038299E+03  0.30025688087E+03  0.79429082287E+02 0.  0.
         66    2    3    3    0    0 -0.28059707715E+01 -0.10450591743E+02 -0.28922104980E+03  0.28943030936E+03  0.19999965823E+01 0.  0.
        -13    1    3    3    0    0  0.28059707715E+01  0.10450591743E+02 -0.33933319052E+00  0.10826571516E+02  0.10566000000E+00 0.  1.
         13    1    4    4    0    0 -0.64278373040E+00 -0.21073264674E+01 -0.49247200357E+02  0.49296570903E+02  0.10566000000E+00 0. -1.
        -13    1    4    4    0    0 -0.14356568807E+01 -0.38441617120E+01 -0.13184088780E+03  0.13190477456E+03  0.10566000000E+00 0.  1.
        -14    1    4    4    0    0 -0.72753016044E+00 -0.44991035632E+01 -0.10813296164E+03  0.10822896390E+03  0.00000000000E+00 0.  1.
<mgrwt>
<rscale>  0 0.79429082E+02</rscale>
<asrwt>0</asrwt>
<pdfrwt beam="1">  1        2 0.45370546E-01 0.79429082E+02</pdfrwt>
<pdfrwt beam="2">  1       -1 0.82280776E-03 0.79429082E+02</pdfrwt>
<totfact> 0.25817141E+05</totfact>
</mgrwt>
</event>
<event>
 8    1  0.1600673E-013  0.8105799E+02  0.7818608E-02  0.1326076E+00
         -1   -1    0    0    0  501 -0.00000000000E+00  0.00000000000E+00  0.17336303051E+01  0.17336376312E+01  0.50400000000E-02 0.  1.
          2   -1    0    0  501    0  0.00000000000E+00 -0.00000000000E+00 -0.94748919100E+03  0.94748919100E+03  0.25500000000E-02 0. -1.
         24    2    1    2    0    0  0.00000000000E+00  0.00000000000E+00 -0.94575556069E+03  0.94922282863E+03  0.81057990451E+02 0.  0.
         66    2    3    3    0    0  0.23766084571E+02  0.36677060681E+01 -0.85484461861E+03  0.85518512663E+03  0.19999995622E+01 0.  0.
        -13    1    3    3    0    0 -0.23766084571E+02 -0.36677060681E+01 -0.90910942084E+02  0.94037702005E+02  0.10566000000E+00 0.  1.
         13    1    4    4    0    0  0.17522063150E+02  0.28502605258E+01 -0.60831502562E+03  0.60857401213E+03  0.10566000000E+00 0. -1.
        -13    1    4    4    0    0  0.24610326314E+01 -0.37578846555E-02 -0.90661244231E+02  0.90694702520E+02  0.10566000000E+00 0.  1.
         14    1    4    4    0    0  0.37829887896E+01  0.82120342697E+00 -0.15586834875E+03  0.15591641197E+03  0.00000000000E+00 0. -1.
<mgrwt>
<rscale>  0 0.81057990E+02</rscale>
<asrwt>0</asrwt>
<pdfrwt beam="1">  1        2 0.14576715E+00 0.81057990E+02</pdfrwt>
<pdfrwt beam="2">  1       -1 0.26671368E-03 0.81057990E+02</pdfrwt>
<totfact> 0.33938167E+05</totfact>
</mgrwt>
</event>
<event>
 8    1  0.1600673E-013  0.7956914E+02  0.7818608E-02  0.1330279E+00
         -1   -1    0    0    0  501 -0.00000000000E+00  0.00000000000E+00  0.13184610313E+03  0.13184610323E+03  0.50400000000E-02 0.  1.
          2   -1    0    0  501    0  0.00000000000E+00 -0.00000000000E+00 -0.12004995584E+02  0.12004995855E+02  0.25500000000E-02 0. -1.
         24    2    1    2    0    0  0.00000000000E+00  0.00000000000E+00  0.11984110755E+03  0.14385109909E+03  0.79569137542E+02 0.  0.
         66    2    3    3    0    0 -0.28011887390E+01 -0.38156956163E+02  0.40402556157E+02  0.55679138840E+02  0.19999989963E+01 0.  0.
        -13    1    3    3    0    0  0.28011887390E+01  0.38156956163E+02  0.79438551393E+02  0.88171960245E+02  0.10566000000E+00 0.  1.
         13    1    4    4    0    0 -0.60951261098E+00 -0.14324734438E+02  0.15210655209E+02  0.20903222676E+02  0.10566000000E+00 0. -1.
        -13    1    4    4    0    0 -0.19501814947E+01 -0.19182015381E+02  0.19514457397E+02  0.27433157555E+02  0.10566000000E+00 0.  1.
        -14    1    4    4    0    0 -0.24149463332E+00 -0.46502063444E+01  0.56774435516E+01  0.73427586086E+01  0.00000000000E+00 0.  1.
<mgrwt>
<rscale>  0 0.79569138E+02</rscale>
<asrwt>0</asrwt>
<pdfrwt beam="1">  1        2 0.18469224E-02 0.79569138E+02</pdfrwt>
<pdfrwt beam="2">  1       -1 0.20284016E-01 0.79569138E+02</pdfrwt>
<totfact> 0.11288685E+05</totfact>
</mgrwt>
</event>
<event>
 8    1  0.1600673E-013  0.7988180E+02  0.7818608E-02  0.1329387E+00
         -1   -1    0    0    0  501 -0.00000000000E+00  0.00000000000E+00  0.40173576739E+01  0.40173608354E+01  0.50400000000E-02 0.  1.
          2   -1    0    0  501    0  0.00000000000E+00 -0.00000000000E+00 -0.39709554858E+03  0.39709554859E+03  0.25500000000E-02 0. -1.
         24    2    1    2    0    0  0.00000000000E+00  0.00000000000E+00 -0.39307819091E+03  0.40111290942E+03  0.79881799806E+02 0.  0.
         66    2    3    3    0    0 -0.34678815553E+01  0.16626412589E+02 -0.37804299407E+03  0.37842960927E+03  0.20000013148E+01 0.  0.
        -13    1    3    3    0    0  0.34678815553E+01 -0.16626412589E+02 -0.15035196832E+02  0.22683300154E+02  0.10566000000E+00 0.  1.
         13    1    4    4    0    0 -0.19667960318E+01  0.96214807393E+01 -0.23231632640E+03  0.23252382212E+03  0.10566000000E+00 0. -1.
        -13    1    4    4    0    0 -0.92566257937E+00  0.52755564002E+01 -0.10096028922E+03  0.10110232198E+03  0.10566000000E+00 0.  1.
        -14    1    4    4    0    0 -0.57542294411E+00  0.17293754499E+01 -0.44766378449E+02  0.44803465161E+02  0.00000000000E+00 0.  1.
<mgrwt>
<rscale>  0 0.79881800E+02</rscale>
<asrwt>0</asrwt>
<pdfrwt beam="1">  1        2 0.61091592E-01 0.79881800E+02</pdfrwt>
<pdfrwt beam="2">  1       -1 0.61805559E-03 0.79881800E+02</pdfrwt>
<totfact> 0.28290721E+05</totfact>
</mgrwt>
</event>
<event>
 8    1  0.1600673E-013  0.8040657E+02  0.7818608E-02  0.1327902E+00
          2   -1    0    0  501    0  0.00000000000E+00  0.00000000000E+00  0.23051323868E+03  0.23051323869E+03  0.25500000000E-02 0. -1.
         -1   -1    0    0    0  501 -0.00000000000E+00 -0.00000000000E+00 -0.70117623199E+01  0.70117641313E+01  0.50400000000E-02 0.  1.
         24    2    1    2    0    0 -0.44408920985E-15  0.00000000000E+00  0.22350147636E+03  0.23752500282E+03  0.80406573313E+02 0.  0.
         66    2    3    3    0    0 -0.33062714216E+01 -0.27793725822E+02  0.19696996067E+03  0.19895875962E+03  0.19999998453E+01 0.  0.
        -13    1    3    3    0    0  0.33062714216E+01  0.27793725822E+02  0.26531515692E+02  0.38566243202E+02  0.10566000000E+00 0.  1.
         13    1    4    4    0    0 -0.82329427396E+00 -0.61387035883E+01  0.48102828288E+02  0.48500048954E+02  0.10566000000E+00 0. -1.
        -13    1    4    4    0    0 -0.46322728233E+00 -0.16836385411E+01  0.11178704345E+02  0.11314760851E+02  0.10566000000E+00 0. -1.
         14    1    4    4    0    0 -0.20197498653E+01 -0.19971383693E+02  0.13768842803E+03  0.13914394982E+03  0.00000000000E+00 0. -1.
<mgrwt>
<rscale>  0 0.80406573E+02</rscale>
<asrwt>0</asrwt>
<pdfrwt beam="1">  1        2 0.35463578E-01 0.80406573E+02</pdfrwt>
<pdfrwt beam="2">  1       -1 0.10787327E-02 0.80406573E+02</pdfrwt>
<totfact> 0.22879829E+05</totfact>
</mgrwt>
</event>
<event>
 8    1  0.1600673E-013  0.7848595E+02  0.7818608E-02  0.1333404E+00
         -1   -1    0    0    0  501 -0.00000000000E+00  0.00000000000E+00  0.77524246224E+02  0.77524246388E+02  0.50400000000E-02 0.  1.
          2   -1    0    0  501    0  0.00000000000E+00 -0.00000000000E+00 -0.19864895451E+02  0.19864895615E+02  0.25500000000E-02 0. -1.
         24    2    1    2    0    0  0.00000000000E+00 -0.17763568394E-14  0.57659350773E+02  0.97389142002E+02  0.78485949369E+02 0.  0.
         66    2    3    3    0    0 -0.37113220819E+02 -0.11509636448E+02  0.35431067585E+02  0.52623411490E+02  0.19999989746E+01 0.  0.
        -13    1    3    3    0    0  0.37113220819E+02  0.11509636448E+02  0.22228283188E+02  0.44765730512E+02  0.10566000000E+00 0.  1.
         13    1    4    4    0    0 -0.23766627398E+02 -0.69705454457E+01  0.22342984452E+02  0.33356576562E+02  0.10566000000E+00 0.  1.
        -13    1    4    4    0    0 -0.10989662634E+02 -0.35989418119E+01  0.11247838842E+02  0.16132269202E+02  0.10566000000E+00 0. -1.
        -14    1    4    4    0    0 -0.23569307881E+01 -0.94014919054E+00  0.18402442917E+01  0.31345657265E+01  0.00000000000E+00 0.  1.
<mgrwt>
<rscale>  0 0.78485949E+02</rscale>
<asrwt>0</asrwt>
<pdfrwt beam="1">  1        2 0.30561378E-02 0.78485949E+02</pdfrwt>
<pdfrwt beam="2">  1       -1 0.11926807E-01 0.78485949E+02</pdfrwt>
<totfact> 0.13097090E+05</totfact>
</mgrwt>
</event>
<event>
 8    1  0.1600673E-013  0.7886684E+02  0.7818608E-02  0.1332298E+00
          2   -1    0    0  501    0  0.00000000000E+00  0.00000000000E+00  0.88311390789E+02  0.88311390826E+02  0.25500000000E-02 0. -1.
         -1   -1    0    0    0  501 -0.00000000000E+00 -0.00000000000E+00 -0.17608085308E+02  0.17608086029E+02  0.50400000000E-02 0.  1.
         24    2    1    2    0    0  0.17763568394E-14  0.00000000000E+00  0.70703305481E+02  0.10591947686E+03  0.78866838223E+02 0.  0.
         66    2    3    3    0    0  0.12802439888E+02  0.27769632644E+02  0.68759422365E+02  0.75278902287E+02  0.20000003601E+01 0.  0.
        -13    1    3    3    0    0 -0.12802439888E+02 -0.27769632644E+02  0.19438831164E+01  0.30640574568E+02  0.10566000000E+00 0.  1.
         13    1    4    4    0    0  0.56123572470E+01  0.11498895425E+02  0.29730888850E+02  0.32367577384E+02  0.10566000000E+00 0. -1.
        -13    1    4    4    0    0  0.20853953463E+01  0.47940148480E+01  0.10093433654E+02  0.11367498365E+02  0.10566000000E+00 0.  1.
        -14    1    4    4    0    0  0.51046872942E+01  0.11476722371E+02  0.28935099860E+02  0.31543826538E+02  0.00000000000E+00 0.  1.
<mgrwt>
<rscale>  0 0.78866838E+02</rscale>
<asrwt>0</asrwt>
<pdfrwt beam="1">  1        2 0.13586368E-01 0.78866838E+02</pdfrwt>
<pdfrwt beam="2">  1       -1 0.27089363E-02 0.78866838E+02</pdfrwt>
<totfact> 0.17802651E+05</totfact>
</mgrwt>
</event>
<event>
 8    1  0.1600673E-013  0.8011278E+02  0.7818608E-02  0.1328732E+00
          2   -1    0    0  501    0  0.00000000000E+00  0.00000000000E+00  0.19423960399E+04  0.19423960399E+04  0.25500000000E-02 0. -1.
         -1   -1    0    0    0  501 -0.00000000000E+00 -0.00000000000E+00 -0.82604136406E+00  0.82605673942E+00  0.50400000000E-02 0.  1.
         24    2    1    2    0    0  0.00000000000E+00  0.00000000000E+00  0.19415699986E+04  0.19432220967E+04  0.80112780875E+02 0.  0.
         66    2    3    3    0    0  0.38362447074E+01 -0.16598274432E+02  0.18500780466E+04  0.18501575604E+04  0.20000026115E+01 0.  0.
        -13    1    3    3    0    0 -0.38362447074E+01  0.16598274432E+02  0.91491951931E+02  0.93064536316E+02  0.10566000000E+00 0.  1.
         13    1    4    4    0    0  0.33069352110E+01 -0.11229793462E+02  0.12482598694E+04  0.12483147667E+04  0.10566000000E+00 0. -1.
        -13    1    4    4    0    0  0.38302360250E+00 -0.15824862171E+01  0.15684196743E+03  0.15685045388E+03  0.10566000000E+00 0.  1.
        -14    1    4    4    0    0  0.14628589387E+00 -0.37859947526E+01  0.44497620980E+03  0.44499233976E+03  0.00000000000E+00 0.  1.
<mgrwt>
<rscale>  0 0.80112781E+02</rscale>
<asrwt>0</asrwt>
<pdfrwt beam="1">  1        2 0.29882772E+00 0.80112781E+02</pdfrwt>
<pdfrwt beam="2">  1       -1 0.12708551E-03 0.80112781E+02</pdfrwt>
<totfact> 0.28390237E+05</totfact>
</mgrwt>
</event>
<event>
 8    1  0.1600673E-013  0.7633180E+02  0.7818608E-02  0.1339796E+00
          2   -1    0    0  501    0  0.00000000000E+00  0.00000000000E+00  0.32199571381E+03  0.32199571382E+03  0.25500000000E-02 0. -1.
         -1   -1    0    0    0  501 -0.00000000000E+00 -0.00000000000E+00 -0.45237724396E+01  0.45237752472E+01  0.50400000000E-02 0.  1.
         24    2    1    2    0    0  0.00000000000E+00 -0.88817841970E-15  0.31747194137E+03  0.32651948906E+03  0.76331796672E+02 0.  0.
         66    2    3    3    0    0 -0.11564177560E+02  0.41195984793E+01  0.31330985691E+03  0.31355664195E+03  0.19999948424E+01 0.  0.
        -13    1    3    3    0    0  0.11564177560E+02 -0.41195984793E+01  0.41620844580E+01  0.12962847116E+02  0.10566000000E+00 0.  1.
         13    1    4    4    0    0 -0.31854887425E+00  0.29523804189E+00  0.94775221052E+01  0.94880571339E+01  0.10566000000E+00 0. -1.
        -13    1    4    4    0    0 -0.77036731977E+00 -0.12559339180E+00  0.18963645026E+02  0.18979995686E+02  0.10566000000E+00 0.  1.
        -14    1    4    4    0    0 -0.10475261366E+02  0.39499538292E+01  0.28486868978E+03  0.28508858913E+03  0.00000000000E+00 0.  1.
<mgrwt>
<rscale>  0 0.76331797E+02</rscale>
<asrwt>0</asrwt>
<pdfrwt beam="1">  1        2 0.49537797E-01 0.76331797E+02</pdfrwt>
<pdfrwt beam="2">  1       -1 0.69596528E-03 0.76331797E+02</pdfrwt>
<totfact> 0.29567894E+05</totfact>
</mgrwt>
</event>
<event>
 8    1  0.1600673E-013  0.7998430E+02  0.7818608E-02  0.1329096E+00
         -1   -1    0    0    0  501 -0.00000000000E+00  0.00000000000E+00  0.44814138976E+01  0.44814167317E+01  0.50400000000E-02 0.  1.
          2   -1    0    0  501    0  0.00000000000E+00 -0.00000000000E+00 -0.35688994203E+03  0.35688994204E+03  0.25500000000E-02 0. -1.
         24    2    1    2    0    0  0.00000000000E+00 -0.17763568394E-14 -0.35240852813E+03  0.36137135877E+03  0.79984299955E+02 0.  0.
         66    2    3    3    0    0  0.14040534079E+02  0.12352859842E+02 -0.33589953076E+03  0.33642565970E+03  0.20000003630E+01 0.  0.
        -13    1    3    3    0    0 -0.14040534079E+02 -0.12352859842E+02 -0.16508997375E+02  0.24945699065E+02  0.10566000000E+00 0.  1.
         13    1    4    4    0    0  0.20312270967E+00  0.95245217703E-01 -0.56315068232E+01  0.56369640430E+01  0.10566000000E+00 0. -1.
        -13    1    4    4    0    0  0.57017318811E+01  0.49331507418E+01 -0.14852521425E+03  0.14871649591E+03  0.10566000000E+00 0. -1.
         14    1    4    4    0    0  0.81356794886E+01  0.73244638822E+01 -0.18174280968E+03  0.18207219975E+03  0.00000000000E+00 0. -1.
<mgrwt>
<rscale>  0 0.79984300E+02</rscale>
<asrwt>0</asrwt>
<pdfrwt beam="1">  1        2 0.54906123E-01 0.79984300E+02</pdfrwt>
<pdfrwt beam="2">  1       -1 0.68944879E-03 0.79984300E+02</pdfrwt>
<totfact> 0.27151479E+05</totfact>
</mgrwt>
</event>
<event>
 8    1  0.1600673E-013  0.8023588E+02  0.7818608E-02  0.1328383E+00
          2   -1    0    0  501    0  0.00000000000E+00  0.00000000000E+00  0.92157004248E+01  0.92157007776E+01  0.25500000000E-02 0. -1.
         -1   -1    0    0    0  501 -0.00000000000E+00 -0.00000000000E+00 -0.17464208491E+03  0.17464208498E+03  0.50400000000E-02 0.  1.
         24    2    1    2    0    0  0.35527136788E-14  0.00000000000E+00 -0.16542638448E+03  0.18385778576E+03  0.80235881629E+02 0.  0.
         66    2    3    3    0    0  0.25952979292E+02  0.17366385384E+02 -0.25144404713E+02  0.40142116857E+02  0.19999954901E+01 0.  0.
        -13    1    3    3    0    0 -0.25952979292E+02 -0.17366385384E+02 -0.14028197977E+03  0.14371566890E+03  0.10566000000E+00 0.  1.
         13    1    4    4    0    0  0.10618341059E+02  0.64668675634E+01 -0.11017692160E+02  0.16612352256E+02  0.10566000000E+00 0. -1.
        -13    1    4    4    0    0  0.10417550066E+02  0.73213924701E+01 -0.93772388249E+01  0.15813662103E+02  0.10566000000E+00 0.  1.
         14    1    4    4    0    0  0.49170881668E+01  0.35781253501E+01 -0.47494737288E+01  0.77161024982E+01  0.00000000000E+00 0. -1.
<mgrwt>
<rscale>  0 0.80235882E+02</rscale>
<asrwt>0</asrwt>
<pdfrwt beam="1">  1        2 0.14178002E-02 0.80235882E+02</pdfrwt>
<pdfrwt beam="2">  1       -1 0.26868011E-01 0.80235882E+02</pdfrwt>
<totfact> 0.10282696E+05</totfact>
</mgrwt>
</event>
<event>
 8    1  0.1600673E-013  0.7649495E+02  0.7818608E-02  0.1339303E+00
         -1   -1    0    0    0  501 -0.00000000000E+00  0.00000000000E+00  0.14063274849E+02  0.14063275752E+02  0.50400000000E-02 0.  1.
          2   -1    0    0  501    0  0.00000000000E+00 -0.00000000000E+00 -0.10402052736E+03  0.10402052739E+03  0.25500000000E-02 0. -1.
         24    2    1    2    0    0 -0.35527136788E-14 -0.44408920985E-15 -0.89957252509E+02  0.11808380314E+03  0.76494949410E+02 0.  0.
         66    2    3    3    0    0 -0.13272535466E+02 -0.27783596026E+01 -0.10017261512E+03  0.10110604484E+03  0.20000008479E+01 0.  0.
        -13    1    3    3    0    0  0.13272535466E+02  0.27783596026E+01  0.10215362608E+02  0.16977758304E+02  0.10566000000E+00 0.  1.
         13    1    4    4    0    0 -0.92857862782E+01 -0.18782642123E+01 -0.64642722844E+02  0.65333348942E+02  0.10566000000E+00 0. -1.
        -13    1    4    4    0    0 -0.93596641026E+00 -0.18359189193E+00 -0.11366492968E+02  0.11406930592E+02  0.10566000000E+00 0.  1.
         14    1    4    4    0    0 -0.30507827772E+01 -0.71650349838E+00 -0.24163399305E+02  0.24365765303E+02  0.00000000000E+00 0. -1.
<mgrwt>
<rscale>  0 0.76494949E+02</rscale>
<asrwt>0</asrwt>
<pdfrwt beam="1">  1        2 0.16003158E-01 0.76494949E+02</pdfrwt>
<pdfrwt beam="2">  1       -1 0.21635809E-02 0.76494949E+02</pdfrwt>
<totfact> 0.20200814E+05</totfact>
</mgrwt>
</event>
<event>
 8    1  0.1600673E-013  0.7815000E+02  0.7818608E-02  0.1334385E+00
          2   -1    0    0  501    0  0.00000000000E+00  0.00000000000E+00  0.42376508229E+02  0.42376508306E+02  0.25500000000E-02 0. -1.
         -1   -1    0    0    0  501 -0.00000000000E+00 -0.00000000000E+00 -0.36030704665E+02  0.36030705017E+02  0.50400000000E-02 0.  1.
         24    2    1    2    0    0  0.00000000000E+00  0.88817841970E-15  0.63458035645E+01  0.78407213323E+02  0.78149996022E+02 0.  0.
         66    2    3    3    0    0  0.35499538007E+02  0.72292886060E+01  0.17795883461E+02  0.40412538616E+02  0.19999992014E+01 0.  0.
        -13    1    3    3    0    0 -0.35499538007E+02 -0.72292886060E+01 -0.11450079896E+02  0.37994674707E+02  0.10566000000E+00 0.  1.
         13    1    4    4    0    0  0.10587018701E+02  0.22340774131E+01  0.45179770146E+01  0.11726011564E+02  0.10566000000E+00 0. -1.
        -13    1    4    4    0    0  0.32033391632E+01  0.81145088262E+00  0.20501642746E+01  0.38902663042E+01  0.10566000000E+00 0.  1.
         14    1    4    4    0    0  0.21709180142E+02  0.41837603103E+01  0.11227742172E+02  0.24796260748E+02  0.00000000000E+00 0. -1.
<mgrwt>
<rscale>  0 0.78149996E+02</rscale>
<asrwt>0</asrwt>
<pdfrwt beam="1">  1        2 0.65194628E-02 0.78149996E+02</pdfrwt>
<pdfrwt beam="2">  1       -1 0.55431854E-02 0.78149996E+02</pdfrwt>
<totfact> 0.15386050E+05</totfact>
</mgrwt>
</event>
<event>
 8    1  0.1600673E-013  0.7945366E+02  0.7818608E-02  0.1330609E+00
         -1   -1    0    0    0  501 -0.00000000000E+00  0.00000000000E+00  0.12436000987E+03  0.12436000997E+03  0.50400000000E-02 0.  1.
          2   -1    0    0  501    0  0.00000000000E+00 -0.00000000000E+00 -0.12690742199E+02  0.12690742456E+02  0.25500000000E-02 0. -1.
         24    2    1    2    0    0  0.17763568394E-14 -0.71054273576E-14  0.11166926767E+03  0.13705075243E+03  0.79453655668E+02 0.  0.
         66    2    3    3    0    0 -0.15310612726E+02  0.33723858543E+02  0.31202890137E+02  0.48469927333E+02  0.20000014234E+01 0.  0.
        -13    1    3    3    0    0  0.15310612726E+02 -0.33723858543E+02  0.80466377536E+02  0.88580825097E+02  0.10566000000E+00 0.  1.
         13    1    4    4    0    0 -0.63016889450E+01  0.14843225130E+02  0.14018429161E+02  0.21367267864E+02  0.10566000000E+00 0. -1.
        -13    1    4    4    0    0 -0.43753446009E+01  0.88629333463E+01  0.89153034116E+01  0.13311236863E+02  0.10566000000E+00 0.  1.
        -14    1    4    4    0    0 -0.46335791806E+01  0.10017700067E+02  0.82691575643E+01  0.13791422605E+02  0.00000000000E+00 0.  1.
<mgrwt>
<rscale>  0 0.79453656E+02</rscale>
<asrwt>0</asrwt>
<pdfrwt beam="1">  1        2 0.19524220E-02 0.79453656E+02</pdfrwt>
<pdfrwt beam="2">  1       -1 0.19132308E-01 0.79453656E+02</pdfrwt>
<totfact> 0.11487086E+05</totfact>
</mgrwt>
</event>
<event>
 8    1  0.1600673E-013  0.7763349E+02  0.7818608E-02  0.1335905E+00
         -1   -1    0    0    0  501 -0.00000000000E+00  0.00000000000E+00  0.27942371746E+01  0.27942417200E+01  0.50400000000E-02 0.  1.
          2   -1    0    0  501    0  0.00000000000E+00 -0.00000000000E+00 -0.53923073871E+03  0.53923073872E+03  0.25500000000E-02 0. -1.
         24    2    1    2    0    0  0.00000000000E+00  0.00000000000E+00 -0.53643650154E+03  0.54202498044E+03  0.77633493012E+02 0.  0.
         66    2    3    3    0    0 -0.36833531891E+02  0.80657036364E+01 -0.33199199284E+03  0.33413238089E+03  0.20000004791E+01 0.  0.
        -13    1    3    3    0    0  0.36833531891E+02 -0.80657036364E+01 -0.20444450870E+03  0.20789259955E+03  0.10566000000E+00 0.  1.
         13    1    4    4    0    0 -0.47026099124E+01  0.14916780621E+01 -0.40766496168E+02  0.41064072098E+02  0.10566000000E+00 0. -1.
        -13    1    4    4    0    0 -0.15914317251E+02  0.27271039652E+01 -0.14410968263E+03  0.14501142845E+03  0.10566000000E+00 0.  1.
        -14    1    4    4    0    0 -0.16216604727E+02  0.38469216091E+01 -0.14711581404E+03  0.14805688034E+03  0.00000000000E+00 0.  1.
<mgrwt>
<rscale>  0 0.77633493E+02</rscale>
<asrwt>0</asrwt>
<pdfrwt beam="1">  1        2 0.82958493E-01 0.77633493E+02</pdfrwt>
<pdfrwt beam="2">  1       -1 0.42988342E-03 0.77633493E+02</pdfrwt>
<totfact> 0.33708034E+05</totfact>
</mgrwt>
</event>
<event>
 8    1  0.1600673E-013  0.7925965E+02  0.7818608E-02  0.1331166E+00
         -1   -1    0    0    0  501 -0.00000000000E+00  0.00000000000E+00  0.36873756196E+02  0.36873756541E+02  0.50400000000E-02 0.  1.
          2   -1    0    0  501    0  0.00000000000E+00 -0.00000000000E+00 -0.42591888472E+02  0.42591888549E+02  0.25500000000E-02 0. -1.
         24    2    1    2    0    0  0.00000000000E+00  0.00000000000E+00 -0.57181322760E+01  0.79465645089E+02  0.79259647443E+02 0.  0.
         66    2    3    3    0    0 -0.24204871174E+02 -0.27066191410E+01 -0.34172105349E+02  0.42011121686E+02  0.19999964020E+01 0.  0.
        -13    1    3    3    0    0  0.24204871174E+02  0.27066191410E+01  0.28453973073E+02  0.37454523403E+02  0.10566000000E+00 0.  1.
         13    1    4    4    0    0 -0.11303875381E+02 -0.20213162661E+01 -0.16093783678E+02  0.19770795512E+02  0.10566000000E+00 0. -1.
        -13    1    4    4    0    0 -0.12175746898E+01 -0.29281663742E+00 -0.15423890628E+01  0.19895622044E+01  0.10566000000E+00 0.  1.
         14    1    4    4    0    0 -0.11683421102E+02 -0.39248623748E+00 -0.16535932608E+02  0.20250763969E+02  0.00000000000E+00 0. -1.
<mgrwt>
<rscale>  0 0.79259647E+02</rscale>
<asrwt>0</asrwt>
<pdfrwt beam="1">  1        2 0.65525983E-02 0.79259647E+02</pdfrwt>
<pdfrwt beam="2">  1       -1 0.56728856E-02 0.79259647E+02</pdfrwt>
<totfact> 0.14816312E+05</totfact>
</mgrwt>
</event>
<event>
 8    1  0.1600673E-013  0.7460404E+02  0.7818608E-02  0.1345102E+00
         -1   -1    0    0    0  501 -0.00000000000E+00  0.00000000000E+00  0.29120159354E+01  0.29120202969E+01  0.50400000000E-02 0.  1.
          2   -1    0    0  501    0  0.00000000000E+00 -0.00000000000E+00 -0.47782696914E+03  0.47782696915E+03  0.25500000000E-02 0. -1.
         24    2    1    2    0    0  0.71054273576E-14 -0.88817841970E-15 -0.47491495321E+03  0.48073898945E+03  0.74604042746E+02 0.  0.
         66    2    3    3    0    0  0.35489618854E+02 -0.44120074764E+01 -0.30535183589E+03  0.30744547896E+03  0.19999996519E+01 0.  0.
        -13    1    3    3    0    0 -0.35489618854E+02  0.44120074764E+01 -0.16956311732E+03  0.17329351048E+03  0.10566000000E+00 0.  1.
         13    1    4    4    0    0  0.78619657042E+01 -0.93187115376E+00 -0.64770802007E+02  0.65252945108E+02  0.10566000000E+00 0. -1.
        -13    1    4    4    0    0  0.74543365593E+01 -0.90060681728E+00 -0.58910281733E+02  0.59386957188E+02  0.10566000000E+00 0. -1.
        -14    1    4    4    0    0  0.20173316591E+02 -0.25795295054E+01 -0.18167075215E+03  0.18280557667E+03  0.00000000000E+00 0.  1.
<mgrwt>
<rscale>  0 0.74604043E+02</rscale>
<asrwt>0</asrwt>
<pdfrwt beam="1">  1        2 0.73511779E-01 0.74604043E+02</pdfrwt>
<pdfrwt beam="2">  1       -1 0.44800317E-03 0.74604043E+02</pdfrwt>
<totfact> 0.35978322E+05</totfact>
</mgrwt>
</event>
<event>
 8    1  0.1600673E-013  0.8011067E+02  0.7818608E-02  0.1328738E+00
         -1   -1    0    0    0  501 -0.00000000000E+00  0.00000000000E+00  0.34158337672E+01  0.34158374854E+01  0.50400000000E-02 0.  1.
          2   -1    0    0  501    0  0.00000000000E+00 -0.00000000000E+00 -0.46970351458E+03  0.46970351458E+03  0.25500000000E-02 0. -1.
         24    2    1    2    0    0  0.35527136788E-14  0.71054273576E-14 -0.46628768081E+03  0.47311935207E+03  0.80110673618E+02 0.  0.
         66    2    3    3    0    0 -0.18200581914E+02 -0.25538154082E+02 -0.38021991104E+03  0.38151623721E+03  0.20000006566E+01 0.  0.
        -13    1    3    3    0    0  0.18200581914E+02  0.25538154082E+02 -0.86067769767E+02  0.91603114863E+02  0.10566000000E+00 0.  1.
         13    1    4    4    0    0 -0.12923935382E+02 -0.17123453153E+02 -0.26100857092E+03  0.26188876648E+03  0.10566000000E+00 0. -1.
        -13    1    4    4    0    0 -0.45035347070E+01 -0.73826286813E+01 -0.10026776025E+03  0.10064005137E+03  0.10566000000E+00 0.  1.
        -14    1    4    4    0    0 -0.77311182506E+00 -0.10320722480E+01 -0.18943579879E+02  0.18987419353E+02  0.00000000000E+00 0.  1.
<mgrwt>
<rscale>  0 0.80110674E+02</rscale>
<asrwt>0</asrwt>
<pdfrwt beam="1">  1        2 0.72262028E-01 0.80110674E+02</pdfrwt>
<pdfrwt beam="2">  1       -1 0.52551355E-03 0.80110674E+02</pdfrwt>
<totfact> 0.29733288E+05</totfact>
</mgrwt>
</event>
<event>
 8    1  0.1600673E-013  0.8098633E+02  0.7818608E-02  0.1326275E+00
         -1   -1    0    0    0  501 -0.00000000000E+00  0.00000000000E+00  0.78005801507E+01  0.78005817789E+01  0.50400000000E-02 0.  1.
          2   -1    0    0  501    0  0.00000000000E+00 -0.00000000000E+00 -0.21020183314E+03  0.21020183316E+03  0.25500000000E-02 0. -1.
         24    2    1    2    0    0 -0.35527136788E-14 -0.71054273576E-14 -0.20240125299E+03  0.21800241494E+03  0.80986330363E+02 0.  0.
         66    2    3    3    0    0  0.20395500953E+02  0.34611211986E+02 -0.88135751167E+02  0.96880457698E+02  0.19999989044E+01 0.  0.
        -13    1    3    3    0    0 -0.20395500953E+02 -0.34611211986E+02 -0.11426550182E+03  0.12112195724E+03  0.10566000000E+00 0.  1.
         13    1    4    4    0    0  0.14890506659E+02  0.25581405655E+02 -0.65803414046E+02  0.72154251213E+02  0.10566000000E+00 0. -1.
        -13    1    4    4    0    0  0.14592367218E+01  0.31805743478E+01 -0.72296421390E+01  0.80327028132E+01  0.10566000000E+00 0.  1.
         14    1    4    4    0    0  0.40457575718E+01  0.58492319827E+01 -0.15102694982E+02  0.16693503672E+02  0.00000000000E+00 0. -1.
<mgrwt>
<rscale>  0 0.80986330E+02</rscale>
<asrwt>0</asrwt>
<pdfrwt beam="1">  1        2 0.32338739E-01 0.80986330E+02</pdfrwt>
<pdfrwt beam="2">  1       -1 0.12000895E-02 0.80986330E+02</pdfrwt>
<totfact> 0.21730787E+05</totfact>
</mgrwt>
</event>
<event>
 8    1  0.1600673E-013  0.8123633E+02  0.7818608E-02  0.1325579E+00
         -1   -1    0    0    0  501 -0.00000000000E+00  0.00000000000E+00  0.19644403589E+01  0.19644468243E+01  0.50400000000E-02 0.  1.
          2   -1    0    0  501    0  0.00000000000E+00 -0.00000000000E+00 -0.83984864682E+03  0.83984864682E+03  0.25500000000E-02 0. -1.
         24    2    1    2    0    0  0.00000000000E+00  0.00000000000E+00 -0.83788420646E+03  0.84181309365E+03  0.81236329315E+02 0.  0.
         66    2    3    3    0    0 -0.83707359677E+01 -0.27933656111E+02 -0.71182818636E+03  0.71242804918E+03  0.19999992669E+01 0.  0.
        -13    1    3    3    0    0  0.83707359677E+01  0.27933656111E+02 -0.12605602010E+03  0.12938504447E+03  0.10566000000E+00 0.  1.
         13    1    4    4    0    0 -0.24944850748E+01 -0.10697280507E+02 -0.28138537380E+03  0.28159970529E+03  0.10566000000E+00 0. -1.
        -13    1    4    4    0    0 -0.17730181777E+01 -0.51029508235E+01 -0.12113588285E+03  0.12125632758E+03  0.10566000000E+00 0.  1.
         14    1    4    4    0    0 -0.41032327153E+01 -0.12133424780E+02 -0.30930692971E+03  0.30957201631E+03  0.00000000000E+00 0. -1.
<mgrwt>
<rscale>  0 0.81236329E+02</rscale>
<asrwt>0</asrwt>
<pdfrwt beam="1">  1        2 0.12920720E+00 0.81236329E+02</pdfrwt>
<pdfrwt beam="2">  1       -1 0.30222276E-03 0.81236329E+02</pdfrwt>
<totfact> 0.33281428E+05</totfact>
</mgrwt>
</event>
<event>
 8    1  0.1600673E-013  0.7747344E+02  0.7818608E-02  0.1336378E+00
         -1   -1    0    0    0  501 -0.00000000000E+00  0.00000000000E+00  0.27972116704E+01  0.27972162110E+01  0.50400000000E-02 0.  1.
          2   -1    0    0  501    0  0.00000000000E+00 -0.00000000000E+00 -0.53643854201E+03  0.53643854201E+03  0.25500000000E-02 0. -1.
         24    2    1    2    0    0  0.71054273576E-14 -0.88817841970E-15 -0.53364133034E+03  0.53923575823E+03  0.77473437410E+02 0.  0.
         66    2    3    3    0    0  0.35920793609E+02 -0.46815583279E+01 -0.36200193790E+03  0.36381537001E+03  0.20000021676E+01 0.  0.
        -13    1    3    3    0    0 -0.35920793609E+02  0.46815583279E+01 -0.17163939243E+03  0.17542038821E+03  0.10566000000E+00 0.  1.
         13    1    4    4    0    0  0.17767056072E+02 -0.24932049401E+01 -0.17883045572E+03  0.17972820427E+03  0.10566000000E+00 0. -1.
        -13    1    4    4    0    0  0.46815254868E+01 -0.58316925124E-01 -0.50210270782E+02  0.50428191895E+02  0.10566000000E+00 0.  1.
        -14    1    4    4    0    0  0.13472212051E+02 -0.21300364627E+01 -0.13296121140E+03  0.13365897385E+03  0.00000000000E+00 0.  1.
<mgrwt>
<rscale>  0 0.77473437E+02</rscale>
<asrwt>0</asrwt>
<pdfrwt beam="1">  1        2 0.82528925E-01 0.77473437E+02</pdfrwt>
<pdfrwt beam="2">  1       -1 0.43034104E-03 0.77473437E+02</pdfrwt>
<totfact> 0.33835787E+05</totfact>
</mgrwt>
</event>
<event>
 8    1  0.1600673E-013  0.8008717E+02  0.7818608E-02  0.1328804E+00
          2   -1    0    0  501    0  0.00000000000E+00  0.00000000000E+00  0.67283858951E+03  0.67283858952E+03  0.25500000000E-02 0. -1.
         -1   -1    0    0    0  501 -0.00000000000E+00 -0.00000000000E+00 -0.23831669838E+01  0.23831723131E+01  0.50400000000E-02 0.  1.
         24    2    1    2    0    0  0.00000000000E+00  0.35527136788E-14  0.67045542253E+03  0.67522176183E+03  0.80087165334E+02 0.  0.
         66    2    3    3    0    0  0.29617716263E+00 -0.24228082795E+02  0.60396274245E+03  0.60445188558E+03  0.19999982875E+01 0.  0.
        -13    1    3    3    0    0 -0.29617716263E+00  0.24228082795E+02  0.66492680080E+02  0.70769876254E+02  0.10566000000E+00 0.  1.
         13    1    4    4    0    0  0.34502343671E+00 -0.21958290995E+01  0.63554548539E+02  0.63593494248E+02  0.10566000000E+00 0. -1.
        -13    1    4    4    0    0  0.40261691710E-01 -0.21901597547E+02  0.53568611725E+03  0.53613366708E+03  0.10566000000E+00 0.  1.
         14    1    4    4    0    0 -0.89107965797E-01 -0.13065614840E+00  0.47220766634E+01  0.47247242537E+01  0.00000000000E+00 0. -1.
<mgrwt>
<rscale>  0 0.80087165E+02</rscale>
<asrwt>0</asrwt>
<pdfrwt beam="1">  1        2 0.10351365E+00 0.80087165E+02</pdfrwt>
<pdfrwt beam="2">  1       -1 0.36664141E-03 0.80087165E+02</pdfrwt>
<totfact> 0.33047063E+05</totfact>
</mgrwt>
</event>
<event>
 8    1  0.1600673E-013  0.8411930E+02  0.7818608E-02  0.1317752E+00
          2   -1    0    0  501    0  0.00000000000E+00  0.00000000000E+00  0.60866456513E+02  0.60866456566E+02  0.25500000000E-02 0. -1.
         -1   -1    0    0    0  501 -0.00000000000E+00 -0.00000000000E+00 -0.29063859940E+02  0.29063860377E+02  0.50400000000E-02 0.  1.
         24    2    1    2    0    0  0.00000000000E+00  0.00000000000E+00  0.31802596573E+02  0.89930316942E+02  0.84119300738E+02 0.  0.
         66    2    3    3    0    0 -0.41145852028E+02  0.83089212495E+01  0.13522151591E+02  0.44145983986E+02  0.20000017474E+01 0.  0.
        -13    1    3    3    0    0  0.41145852028E+02 -0.83089212495E+01  0.18280444982E+02  0.45784332956E+02  0.10566000000E+00 0.  1.
         13    1    4    4    0    0 -0.67341463264E+01  0.10156778676E+01  0.23459405257E+01  0.72038135222E+01  0.10566000000E+00 0. -1.
        -13    1    4    4    0    0 -0.11460679240E+02  0.28334439133E+01  0.31020538514E+01  0.12206943728E+02  0.10566000000E+00 0.  1.
        -14    1    4    4    0    0 -0.22951026462E+02  0.44597994686E+01  0.80741572135E+01  0.24735226736E+02  0.00000000000E+00 0.  1.
<mgrwt>
<rscale>  0 0.84119301E+02</rscale>
<asrwt>0</asrwt>
<pdfrwt beam="1">  1        2 0.93640702E-02 0.84119301E+02</pdfrwt>
<pdfrwt beam="2">  1       -1 0.44713631E-02 0.84119301E+02</pdfrwt>
<totfact> 0.13618170E+05</totfact>
</mgrwt>
</event>
<event>
 8    1  0.1600673E-013  0.7759153E+02  0.7818608E-02  0.1336029E+00
         -1   -1    0    0    0  501 -0.00000000000E+00  0.00000000000E+00  0.21933219702E+02  0.21933220282E+02  0.50400000000E-02 0.  1.
          2   -1    0    0  501    0  0.00000000000E+00 -0.00000000000E+00 -0.68622455860E+02  0.68622455907E+02  0.25500000000E-02 0. -1.
         24    2    1    2    0    0  0.17763568394E-14  0.00000000000E+00 -0.46689236158E+02  0.90555676189E+02  0.77591531220E+02 0.  0.
         66    2    3    3    0    0  0.13712365175E+02  0.33276224891E+02 -0.40182688159E+02  0.53981335012E+02  0.20000000661E+01 0.  0.
        -13    1    3    3    0    0 -0.13712365175E+02 -0.33276224891E+02 -0.65065479982E+01  0.36574341177E+02  0.10566000000E+00 0.  1.
         13    1    4    4    0    0  0.58800091959E+01  0.13641497219E+02 -0.17730996706E+02  0.23131458293E+02  0.10566000000E+00 0. -1.
        -13    1    4    4    0    0  0.49073658463E+01  0.11166978780E+02 -0.13056550499E+02  0.17868081307E+02  0.10566000000E+00 0.  1.
         14    1    4    4    0    0  0.29249901330E+01  0.84677488921E+01 -0.93951409537E+01  0.12981795412E+02  0.00000000000E+00 0. -1.
<mgrwt>
<rscale>  0 0.77591531E+02</rscale>
<asrwt>0</asrwt>
<pdfrwt beam="1">  1        2 0.10557301E-01 0.77591531E+02</pdfrwt>
<pdfrwt beam="2">  1       -1 0.33743416E-02 0.77591531E+02</pdfrwt>
<totfact> 0.17452808E+05</totfact>
</mgrwt>
</event>
<event>
 8    1  0.1600673E-013  0.7842958E+02  0.7818608E-02  0.1333568E+00
         -1   -1    0    0    0  501 -0.00000000000E+00  0.00000000000E+00  0.20037897793E+01  0.20037961176E+01  0.50400000000E-02 0.  1.
          2   -1    0    0  501    0  0.00000000000E+00 -0.00000000000E+00 -0.76744449061E+03  0.76744449061E+03  0.25500000000E-02 0. -1.
         24    2    1    2    0    0  0.00000000000E+00  0.17763568394E-14 -0.76544070083E+03  0.76944828673E+03  0.78429582852E+02 0.  0.
         66    2    3    3    0    0  0.29981078699E+02  0.11019697496E+02 -0.60571572000E+03  0.60656065835E+03  0.19999989660E+01 0.  0.
        -13    1    3    3    0    0 -0.29981078699E+02 -0.11019697496E+02 -0.15972498083E+03  0.16288762837E+03  0.10566000000E+00 0.  1.
         13    1    4    4    0    0  0.45347904911E+01  0.15442914886E+01 -0.80993618181E+02  0.81135235940E+02  0.10566000000E+00 0. -1.
        -13    1    4    4    0    0  0.32256149226E+01  0.10188137193E+01 -0.59451501783E+02  0.59547752277E+02  0.10566000000E+00 0.  1.
         14    1    4    4    0    0  0.22220673285E+02  0.84565922881E+01 -0.46527060004E+03  0.46587767014E+03  0.00000000000E+00 0. -1.
<mgrwt>
<rscale>  0 0.78429583E+02</rscale>
<asrwt>0</asrwt>
<pdfrwt beam="1">  1        2 0.11806815E+00 0.78429583E+02</pdfrwt>
<pdfrwt beam="2">  1       -1 0.30827645E-03 0.78429583E+02</pdfrwt>
<totfact> 0.35907646E+05</totfact>
</mgrwt>
</event>
<event>
 8    1  0.1600673E-013  0.8003659E+02  0.7818608E-02  0.1328948E+00
         -1   -1    0    0    0  501 -0.00000000000E+00  0.00000000000E+00  0.11824712191E+03  0.11824712202E+03  0.50400000000E-02 0.  1.
          2   -1    0    0  501    0  0.00000000000E+00 -0.00000000000E+00 -0.13543364695E+02  0.13543364935E+02  0.25500000000E-02 0. -1.
         24    2    1    2    0    0  0.00000000000E+00  0.00000000000E+00  0.10470375721E+03  0.13179048695E+03  0.80036589609E+02 0.  0.
         66    2    3    3    0    0 -0.20117086881E+02  0.13441306381E+01 -0.44887055826E+01  0.20752164885E+02  0.19999994650E+01 0.  0.
        -13    1    3    3    0    0  0.20117086881E+02 -0.13441306381E+01  0.10919246280E+03  0.11103832207E+03  0.10566000000E+00 0.  1.
         13    1    4    4    0    0 -0.15070024280E+02  0.14631375755E+01 -0.28955446031E+01  0.15415633168E+02  0.10566000000E+00 0. -1.
        -13    1    4    4    0    0 -0.46426698878E+01 -0.18183427762E+00 -0.12778544121E+01  0.48199090578E+01  0.10566000000E+00 0.  1.
         14    1    4    4    0    0 -0.40439271248E+00  0.62827340193E-01 -0.31530656745E+00  0.51662265926E+00  0.00000000000E+00 0. -1.
<mgrwt>
<rscale>  0 0.80036590E+02</rscale>
<asrwt>0</asrwt>
<pdfrwt beam="1">  1        2 0.20835945E-02 0.80036590E+02</pdfrwt>
<pdfrwt beam="2">  1       -1 0.18191866E-01 0.80036590E+02</pdfrwt>
<totfact> 0.11409677E+05</totfact>
</mgrwt>
</event>
<event>
 8    1  0.1600673E-013  0.8197544E+02  0.7818608E-02  0.1323537E+00
         -1   -1    0    0    0  501 -0.00000000000E+00  0.00000000000E+00  0.36657916415E+03  0.36657916419E+03  0.50400000000E-02 0.  1.
          2   -1    0    0  501    0  0.00000000000E+00 -0.00000000000E+00 -0.45828929226E+01  0.45828936321E+01  0.25500000000E-02 0. -1.
         24    2    1    2    0    0  0.00000000000E+00  0.17763568394E-14  0.36199627123E+03  0.37116205782E+03  0.81975440104E+02 0.  0.
         66    2    3    3    0    0 -0.38752915792E+02  0.10896596768E+02  0.14678319472E+03  0.15221639386E+03  0.20000007075E+01 0.  0.
        -13    1    3    3    0    0  0.38752915792E+02 -0.10896596768E+02  0.21521307651E+03  0.21894566396E+03  0.10566000000E+00 0.  1.
         13    1    4    4    0    0 -0.17363420879E+02  0.47334295460E+01  0.65495978336E+02  0.67923693084E+02  0.10566000000E+00 0. -1.
        -13    1    4    4    0    0 -0.86543438747E+01  0.30992791615E+01  0.31946419781E+02  0.33242865401E+02  0.10566000000E+00 0.  1.
        -14    1    4    4    0    0 -0.12735151038E+02  0.30638880606E+01  0.49340796607E+02  0.51049835375E+02  0.00000000000E+00 0.  1.
<mgrwt>
<rscale>  0 0.81975440E+02</rscale>
<asrwt>0</asrwt>
<pdfrwt beam="1">  1        2 0.70506048E-03 0.81975440E+02</pdfrwt>
<pdfrwt beam="2">  1       -1 0.56396797E-01 0.81975440E+02</pdfrwt>
<totfact> 0.74332565E+04</totfact>
</mgrwt>
</event>
<event>
 8    1  0.1600673E-013  0.7917737E+02  0.7818608E-02  0.1331402E+00
         -1   -1    0    0    0  501 -0.00000000000E+00  0.00000000000E+00  0.71771574065E+02  0.71771574242E+02  0.50400000000E-02 0.  1.
          2   -1    0    0  501    0  0.00000000000E+00 -0.00000000000E+00 -0.21836836115E+02  0.21836836264E+02  0.25500000000E-02 0. -1.
         24    2    1    2    0    0 -0.17763568394E-14  0.35527136788E-14  0.49934737950E+02  0.93608410506E+02  0.79177373430E+02 0.  0.
         66    2    3    3    0    0  0.15026049196E+02 -0.16085613380E+02 -0.13882973017E+02  0.26101073798E+02  0.20000003467E+01 0.  0.
        -13    1    3    3    0    0 -0.15026049196E+02  0.16085613380E+02  0.63817710967E+02  0.67507336708E+02  0.10566000000E+00 0.  1.
         13    1    4    4    0    0  0.67920281369E+01 -0.70479744445E+01 -0.55857194647E+01  0.11270182605E+02  0.10566000000E+00 0. -1.
        -13    1    4    4    0    0  0.26004388465E+01 -0.28684922640E+01 -0.19343844219E+01  0.43293806937E+01  0.10566000000E+00 0.  1.
         14    1    4    4    0    0  0.56335822124E+01 -0.61691466715E+01 -0.63628691299E+01  0.10501510499E+02  0.00000000000E+00 0. -1.
<mgrwt>
<rscale>  0 0.79177373E+02</rscale>
<asrwt>0</asrwt>
<pdfrwt beam="1">  1        2 0.33595133E-02 0.79177373E+02</pdfrwt>
<pdfrwt beam="2">  1       -1 0.11041781E-01 0.79177373E+02</pdfrwt>
<totfact> 0.13014949E+05</totfact>
</mgrwt>
</event>
<event>
 8    1  0.1600673E-013  0.8081646E+02  0.7818608E-02  0.1326750E+00
         -1   -1    0    0    0  501 -0.00000000000E+00  0.00000000000E+00  0.96195294195E+01  0.96195307398E+01  0.50400000000E-02 0.  1.
          2   -1    0    0  501    0  0.00000000000E+00 -0.00000000000E+00 -0.16974062021E+03  0.16974062023E+03  0.25500000000E-02 0. -1.
         24    2    1    2    0    0  0.35527136788E-14  0.35527136788E-14 -0.16012109080E+03  0.17936015097E+03  0.80816458966E+02 0.  0.
         66    2    3    3    0    0  0.22516879058E+02  0.19758872563E+02 -0.14021238543E+03  0.14339085016E+03  0.19999985939E+01 0.  0.
        -13    1    3    3    0    0 -0.22516879058E+02 -0.19758872563E+02 -0.19908705361E+02  0.35969300809E+02  0.10566000000E+00 0.  1.
         13    1    4    4    0    0  0.26373871575E+01  0.19314918780E+01 -0.13295794432E+02  0.13692179721E+02  0.10566000000E+00 0. -1.
        -13    1    4    4    0    0  0.84549887707E+01  0.73357330410E+01 -0.55284652286E+02  0.56406593203E+02  0.10566000000E+00 0.  1.
         14    1    4    4    0    0  0.11424503130E+02  0.10491647644E+02 -0.71631938716E+02  0.73292077241E+02  0.00000000000E+00 0. -1.
<mgrwt>
<rscale>  0 0.80816459E+02</rscale>
<asrwt>0</asrwt>
<pdfrwt beam="1">  1        2 0.26113939E-01 0.80816459E+02</pdfrwt>
<pdfrwt beam="2">  1       -1 0.14799278E-02 0.80816459E+02</pdfrwt>
<totfact> 0.20305257E+05</totfact>
</mgrwt>
</event>
<event>
 8    1  0.1600673E-013  0.7302132E+02  0.7818608E-02  0.1350110E+00
          2   -1    0    0  501    0  0.00000000000E+00  0.00000000000E+00  0.81011257728E+02  0.81011257768E+02  0.25500000000E-02 0. -1.
         -1   -1    0    0    0  501 -0.00000000000E+00 -0.00000000000E+00 -0.16454853748E+02  0.16454854520E+02  0.50400000000E-02 0.  1.
         24    2    1    2    0    0  0.35527136788E-14  0.00000000000E+00  0.64556403981E+02  0.97466112288E+02  0.73021323938E+02 0.  0.
         66    2    3    3    0    0 -0.31077495363E+02 -0.16544984366E+02  0.45068453859E+02  0.57225105967E+02  0.19999985084E+01 0.  0.
        -13    1    3    3    0    0  0.31077495363E+02  0.16544984366E+02  0.19487950122E+02  0.40241006321E+02  0.10566000000E+00 0.  1.
         13    1    4    4    0    0 -0.19947943279E+02 -0.99323014451E+01  0.28723710852E+02  0.36354281484E+02  0.10566000000E+00 0. -1.
        -13    1    4    4    0    0 -0.31075181731E+01 -0.17590156962E+01  0.38921577738E+01  0.52830731197E+01  0.10566000000E+00 0.  1.
        -14    1    4    4    0    0 -0.80220339109E+01 -0.48536672243E+01  0.12452585233E+02  0.15587751364E+02  0.00000000000E+00 0.  1.
<mgrwt>
<rscale>  0 0.73021324E+02</rscale>
<asrwt>0</asrwt>
<pdfrwt beam="1">  1        2 0.12463270E-01 0.73021324E+02</pdfrwt>
<pdfrwt beam="2">  1       -1 0.25315161E-02 0.73021324E+02</pdfrwt>
<totfact> 0.21386409E+05</totfact>
</mgrwt>
</event>
<event>
 8    1  0.1600673E-013  0.8108899E+02  0.7818608E-02  0.1325989E+00
         -1   -1    0    0    0  501 -0.00000000000E+00  0.00000000000E+00  0.32042514209E+01  0.32042553846E+01  0.50400000000E-02 0.  1.
          2   -1    0    0  501    0  0.00000000000E+00 -0.00000000000E+00 -0.51302306965E+03  0.51302306966E+03  0.25500000000E-02 0. -1.
         24    2    1    2    0    0  0.00000000000E+00 -0.55511151231E-16 -0.50981881823E+03  0.51622732504E+03  0.81088986296E+02 0.  0.
         66    2    3    3    0    0 -0.27893429550E+02 -0.27804226969E+00 -0.44216162734E+03  0.44304517310E+03  0.19999991429E+01 0.  0.
        -13    1    3    3    0    0  0.27893429550E+02  0.27804226969E+00 -0.67657190891E+02  0.73182151942E+02  0.10566000000E+00 0.  1.
         13    1    4    4    0    0 -0.80535436304E+00  0.25206186880E+00 -0.13141579512E+02  0.13169070086E+02  0.10566000000E+00 0. -1.
        -13    1    4    4    0    0 -0.24244977768E+01  0.21701519396E+00 -0.36409293255E+02  0.36490726006E+02  0.10566000000E+00 0.  1.
         14    1    4    4    0    0 -0.24663577410E+02 -0.74711933245E+00 -0.39261075457E+03  0.39338537701E+03  0.00000000000E+00 0. -1.
<mgrwt>
<rscale>  0 0.81088986E+02</rscale>
<asrwt>0</asrwt>
<pdfrwt beam="1">  1        2 0.78926561E-01 0.81088986E+02</pdfrwt>
<pdfrwt beam="2">  1       -1 0.49296247E-03 0.81088986E+02</pdfrwt>
<totfact> 0.29636568E+05</totfact>
</mgrwt>
</event>
<event>
 8    1  0.1600673E-013  0.8058382E+02  0.7818608E-02  0.1327403E+00
         -1   -1    0    0    0  501 -0.00000000000E+00  0.00000000000E+00  0.29852981592E+02  0.29852982017E+02  0.50400000000E-02 0.  1.
          2   -1    0    0  501    0  0.00000000000E+00 -0.00000000000E+00 -0.54381100579E+02  0.54381100638E+02  0.25500000000E-02 0. -1.
         24    2    1    2    0    0  0.35527136788E-14  0.00000000000E+00 -0.24528118987E+02  0.84234082655E+02  0.80583820087E+02 0.  0.
         66    2    3    3    0    0  0.24144471819E+02  0.19967604491E+02 -0.38711060906E+02  0.49841819659E+02  0.20000004730E+01 0.  0.
        -13    1    3    3    0    0 -0.24144471819E+02 -0.19967604491E+02  0.14182941919E+02  0.34392262997E+02  0.10566000000E+00 0.  1.
         13    1    4    4    0    0  0.30942884512E+01  0.28331579915E+01 -0.54894746583E+01  0.69099132616E+01  0.10566000000E+00 0. -1.
        -13    1    4    4    0    0  0.18726183194E+02  0.15249775939E+02 -0.30335090853E+02  0.38774405273E+02  0.10566000000E+00 0.  1.
        -14    1    4    4    0    0  0.23240001744E+01  0.18846705603E+01 -0.28864953947E+01  0.41575011239E+01  0.00000000000E+00 0.  1.
<mgrwt>
<rscale>  0 0.80583820E+02</rscale>
<asrwt>0</asrwt>
<pdfrwt beam="1">  1        2 0.83663232E-02 0.80583820E+02</pdfrwt>
<pdfrwt beam="2">  1       -1 0.45927665E-02 0.80583820E+02</pdfrwt>
<totfact> 0.14922939E+05</totfact>
</mgrwt>
</event>
<event>
 8    1  0.1600673E-013  0.8209104E+02  0.7818608E-02  0.1323220E+00
          2   -1    0    0  501    0  0.00000000000E+00  0.00000000000E+00  0.22809820908E+02  0.22809821050E+02  0.25500000000E-02 0. -1.
         -1   -1    0    0    0  501 -0.00000000000E+00 -0.00000000000E+00 -0.73860060427E+02  0.73860060599E+02  0.50400000000E-02 0.  1.
         24    2    1    2    0    0  0.00000000000E+00  0.00000000000E+00 -0.51050239519E+02  0.96669881649E+02  0.82091041308E+02 0.  0.
         66    2    3    3    0    0  0.15830513582E+02  0.77649925015E+01  0.18075737351E+02  0.25330466800E+02  0.19999996758E+01 0.  0.
        -13    1    3    3    0    0 -0.15830513582E+02 -0.77649925015E+01 -0.69125976870E+02  0.71339414849E+02  0.10566000000E+00 0.  1.
         13    1    4    4    0    0  0.15269322320E+02  0.75152816059E+01  0.17135990953E+02  0.24151294203E+02  0.10566000000E+00 0. -1.
        -13    1    4    4    0    0  0.39907576708E+00  0.17648045538E+00  0.36837564459E+00  0.58075078143E+00  0.10566000000E+00 0.  1.
         14    1    4    4    0    0  0.16211549520E+00  0.73230440225E-01  0.57137075301E+00  0.59842181491E+00  0.00000000000E+00 0. -1.
<mgrwt>
<rscale>  0 0.82091041E+02</rscale>
<asrwt>0</asrwt>
<pdfrwt beam="1">  1        2 0.35092033E-02 0.82091041E+02</pdfrwt>
<pdfrwt beam="2">  1       -1 0.11363086E-01 0.82091041E+02</pdfrwt>
<totfact> 0.11841835E+05</totfact>
</mgrwt>
</event>
<event>
 8    1  0.1600673E-013  0.8247919E+02  0.7818608E-02  0.1322160E+00
         -1   -1    0    0    0  501 -0.00000000000E+00  0.00000000000E+00  0.40077068781E+01  0.40077100472E+01  0.50400000000E-02 0.  1.
          2   -1    0    0  501    0  0.00000000000E+00 -0.00000000000E+00 -0.42435822923E+03  0.42435822923E+03  0.25500000000E-02 0. -1.
         24    2    1    2    0    0  0.00000000000E+00 -0.22204460493E-15 -0.42035052235E+03  0.42836593928E+03  0.82479187058E+02 0.  0.
         66    2    3    3    0    0 -0.24862121083E+02 -0.19815963448E+01 -0.38071328815E+03  0.38153461122E+03  0.19999995456E+01 0.  0.
        -13    1    3    3    0    0  0.24862121083E+02  0.19815963448E+01 -0.39637234202E+02  0.46831328062E+02  0.10566000000E+00 0.  1.
         13    1    4    4    0    0 -0.10682163895E+02 -0.12461819805E+01 -0.17397831216E+03  0.17431042959E+03  0.10566000000E+00 0. -1.
        -13    1    4    4    0    0 -0.65458240983E+01 -0.80655287066E+00 -0.95898453028E+02  0.96125037310E+02  0.10566000000E+00 0.  1.
         14    1    4    4    0    0 -0.76341330899E+01  0.71138506361E-01 -0.11083652295E+03  0.11109914432E+03  0.00000000000E+00 0. -1.
<mgrwt>
<rscale>  0 0.82479187E+02</rscale>
<asrwt>0</asrwt>
<pdfrwt beam="1">  1        2 0.65285846E-01 0.82479187E+02</pdfrwt>
<pdfrwt beam="2">  1       -1 0.61657087E-03 0.82479187E+02</pdfrwt>
<totfact> 0.26626656E+05</totfact>
</mgrwt>
</event>
<event>
 8    1  0.1600673E-013  0.7982863E+02  0.7818608E-02  0.1329538E+00
          2   -1    0    0  501    0  0.00000000000E+00  0.00000000000E+00  0.10766121748E+03  0.10766121751E+03  0.25500000000E-02 0. -1.
         -1   -1    0    0    0  501 -0.00000000000E+00 -0.00000000000E+00 -0.14797831566E+02  0.14797832424E+02  0.50400000000E-02 0.  1.
         24    2    1    2    0    0  0.00000000000E+00  0.00000000000E+00  0.92863385915E+02  0.12245904994E+03  0.79828631877E+02 0.  0.
         66    2    3    3    0    0 -0.18205474337E+02 -0.34203520031E+02  0.60999840381E+02  0.72293157375E+02  0.19999995922E+01 0.  0.
        -13    1    3    3    0    0  0.18205474337E+02  0.34203520031E+02  0.31863545535E+02  0.50165892561E+02  0.10566000000E+00 0.  1.
         13    1    4    4    0    0 -0.48553116943E+00 -0.89373716980E+00  0.16221516968E+01  0.19175627260E+01  0.10566000000E+00 0. -1.
        -13    1    4    4    0    0 -0.11865836762E+02 -0.23282124142E+02  0.39738757027E+02  0.47560859545E+02  0.10566000000E+00 0.  1.
        -14    1    4    4    0    0 -0.58541064056E+01 -0.10027658720E+02  0.19638931657E+02  0.22814735103E+02  0.00000000000E+00 0.  1.
<mgrwt>
<rscale>  0 0.79828632E+02</rscale>
<asrwt>0</asrwt>
<pdfrwt beam="1">  1        2 0.16563264E-01 0.79828632E+02</pdfrwt>
<pdfrwt beam="2">  1       -1 0.22765896E-02 0.79828632E+02</pdfrwt>
<totfact> 0.18205160E+05</totfact>
</mgrwt>
</event>
<event>
 8    1  0.1600673E-013  0.7738489E+02  0.7818608E-02  0.1336641E+00
          2   -1    0    0  501    0  0.00000000000E+00  0.00000000000E+00  0.25382988016E+04  0.25382988016E+04  0.25500000000E-02 0. -1.
         -1   -1    0    0    0  501 -0.00000000000E+00 -0.00000000000E+00 -0.58979586242E+00  0.58981739625E+00  0.50400000000E-02 0.  1.
         24    2    1    2    0    0 -0.17763568394E-14  0.00000000000E+00  0.25377090057E+04  0.25388886190E+04  0.77384894350E+02 0.  0.
         66    2    3    3    0    0 -0.94516863995E+01 -0.53934777821E+01  0.24870159155E+04  0.24870405280E+04  0.19999932903E+01 0.  0.
        -13    1    3    3    0    0  0.94516863995E+01  0.53934777821E+01  0.50693090194E+02  0.51848090956E+02  0.10566000000E+00 0.  1.
         13    1    4    4    0    0 -0.46723732935E+01 -0.27489705790E+01  0.12113353627E+04  0.12113474976E+04  0.10566000000E+00 0. -1.
        -13    1    4    4    0    0 -0.59788157828E+00 -0.52506657244E-01  0.78321390003E+02  0.78323760861E+02  0.10566000000E+00 0.  1.
        -14    1    4    4    0    0 -0.41814315277E+01 -0.25920005458E+01  0.11973591629E+04  0.11973692696E+04  0.00000000000E+00 0.  1.
<mgrwt>
<rscale>  0 0.77384894E+02</rscale>
<asrwt>0</asrwt>
<pdfrwt beam="1">  1        2 0.39051144E+00 0.77384894E+02</pdfrwt>
<pdfrwt beam="2">  1       -1 0.90738569E-04 0.77384894E+02</pdfrwt>
<totfact> 0.22322361E+05</totfact>
</mgrwt>
</event>
<event>
 8    1  0.1600673E-013  0.8165651E+02  0.7818608E-02  0.1324415E+00
         -1   -1    0    0    0  501 -0.00000000000E+00  0.00000000000E+00  0.22460411856E+02  0.22460412421E+02  0.50400000000E-02 0.  1.
          2   -1    0    0  501    0  0.00000000000E+00 -0.00000000000E+00 -0.74217084929E+02  0.74217084973E+02  0.25500000000E-02 0. -1.
         24    2    1    2    0    0  0.00000000000E+00  0.44408920985E-15 -0.51756673074E+02  0.96677497394E+02  0.81656507976E+02 0.  0.
         66    2    3    3    0    0  0.38602312456E+02 -0.36212032920E+01 -0.40948644831E+02  0.56427326230E+02  0.19999979293E+01 0.  0.
        -13    1    3    3    0    0 -0.38602312456E+02  0.36212032920E+01 -0.10808028243E+02  0.40250171164E+02  0.10566000000E+00 0.  1.
         13    1    4    4    0    0  0.31483802456E+02 -0.30140640382E+01 -0.32342608206E+02  0.45236819834E+02  0.10566000000E+00 0. -1.
        -13    1    4    4    0    0  0.50187769873E+01 -0.27901223880E+00 -0.60377434885E+01  0.78569383825E+01  0.10566000000E+00 0.  1.
         14    1    4    4    0    0  0.20997330127E+01 -0.32812701498E+00 -0.25682931368E+01  0.33335680132E+01  0.00000000000E+00 0. -1.
<mgrwt>
<rscale>  0 0.81656508E+02</rscale>
<asrwt>0</asrwt>
<pdfrwt beam="1">  1        2 0.11418013E-01 0.81656508E+02</pdfrwt>
<pdfrwt beam="2">  1       -1 0.34554481E-02 0.81656508E+02</pdfrwt>
<totfact> 0.15497807E+05</totfact>
</mgrwt>
</event>
<event>
 8    1  0.1600673E-013  0.7892904E+02  0.7818608E-02  0.1332118E+00
         -1   -1    0    0    0  501 -0.00000000000E+00  0.00000000000E+00  0.92164793748E+01  0.92164807529E+01  0.50400000000E-02 0.  1.
          2   -1    0    0  501    0  0.00000000000E+00 -0.00000000000E+00 -0.16898515387E+03  0.16898515389E+03  0.25500000000E-02 0. -1.
         24    2    1    2    0    0 -0.35527136788E-14  0.00000000000E+00 -0.15976867450E+03  0.17820163465E+03  0.78929039265E+02 0.  0.
         66    2    3    3    0    0  0.21556953542E+02 -0.24367365958E+02 -0.13026712671E+03  0.13428326428E+03  0.19999985993E+01 0.  0.
        -13    1    3    3    0    0 -0.21556953542E+02  0.24367365958E+02 -0.29501547789E+02  0.43918370367E+02  0.10566000000E+00 0.  1.
         13    1    4    4    0    0  0.14579657714E+02 -0.17031571783E+02 -0.88950055626E+02  0.91732025031E+02  0.10566000000E+00 0. -1.
        -13    1    4    4    0    0  0.12480021314E+01 -0.10217958740E+01 -0.79007503248E+01  0.80644030069E+01  0.10566000000E+00 0.  1.
        -14    1    4    4    0    0  0.57292936959E+01 -0.63139983006E+01 -0.33416320760E+02  0.34486836241E+02  0.00000000000E+00 0.  1.
<mgrwt>
<rscale>  0 0.78929039E+02</rscale>
<asrwt>0</asrwt>
<pdfrwt beam="1">  1        2 0.25997714E-01 0.78929039E+02</pdfrwt>
<pdfrwt beam="2">  1       -1 0.14179201E-02 0.78929039E+02</pdfrwt>
<totfact> 0.21583656E+05</totfact>
</mgrwt>
</event>
<event>
 8    1  0.1600673E-013  0.7971807E+02  0.7818608E-02  0.1329853E+00
          2   -1    0    0  501    0  0.00000000000E+00  0.00000000000E+00  0.81498611007E+02  0.81498611047E+02  0.25500000000E-02 0. -1.
         -1   -1    0    0    0  501 -0.00000000000E+00 -0.00000000000E+00 -0.19494106239E+02  0.19494106890E+02  0.50400000000E-02 0.  1.
         24    2    1    2    0    0  0.00000000000E+00 -0.71054273576E-14  0.62004504768E+02  0.10099271794E+03  0.79718068622E+02 0.  0.
         66    2    3    3    0    0  0.31918810461E+01  0.37098538977E+02  0.48949113548E+02  0.61534586927E+02  0.19999930737E+01 0.  0.
        -13    1    3    3    0    0 -0.31918810461E+01 -0.37098538977E+02  0.13055391220E+02  0.39458131010E+02  0.10566000000E+00 0.  1.
         13    1    4    4    0    0 -0.44153891346E-01  0.12500169472E+01  0.12691170677E+01  0.17850249583E+01  0.10566000000E+00 0. -1.
        -13    1    4    4    0    0  0.16724497665E+01  0.16502855999E+02  0.22749752552E+02  0.28154995109E+02  0.10566000000E+00 0.  1.
         14    1    4    4    0    0  0.15635851709E+01  0.19345666031E+02  0.24930243929E+02  0.31594566861E+02  0.00000000000E+00 0. -1.
<mgrwt>
<rscale>  0 0.79718069E+02</rscale>
<asrwt>0</asrwt>
<pdfrwt beam="1">  1        2 0.12538248E-01 0.79718069E+02</pdfrwt>
<pdfrwt beam="2">  1       -1 0.29990934E-02 0.79718069E+02</pdfrwt>
<totfact> 0.16936023E+05</totfact>
</mgrwt>
</event>
<event>
 8    1  0.1600673E-013  0.7963291E+02  0.7818608E-02  0.1330096E+00
          2   -1    0    0  501    0  0.00000000000E+00  0.00000000000E+00  0.24825541622E+03  0.24825541623E+03  0.25500000000E-02 0. -1.
         -1   -1    0    0    0  501 -0.00000000000E+00 -0.00000000000E+00 -0.63859620515E+01  0.63859640404E+01  0.50400000000E-02 0.  1.
         24    2    1    2    0    0  0.71054273576E-14  0.00000000000E+00  0.24186945417E+03  0.25464138027E+03  0.79632905810E+02 0.  0.
         66    2    3    3    0    0 -0.36125206366E+02  0.12141949097E+02  0.15759431838E+03  0.16214939609E+03  0.20000005733E+01 0.  0.
        -13    1    3    3    0    0  0.36125206366E+02 -0.12141949097E+02  0.84275135786E+02  0.92491984186E+02  0.10566000000E+00 0.  1.
         13    1    4    4    0    0 -0.22779293688E+02  0.68445910785E+01  0.97220590004E+02  0.10008795598E+03  0.10566000000E+00 0.  1.
        -13    1    4    4    0    0 -0.34907374017E+01  0.16940902112E+01  0.16364842729E+02  0.16818871271E+02  0.10566000000E+00 0. -1.
        -14    1    4    4    0    0 -0.98551752762E+01  0.36032678075E+01  0.44008885648E+02  0.45242568833E+02  0.00000000000E+00 0.  1.
<mgrwt>
<rscale>  0 0.79632906E+02</rscale>
<asrwt>0</asrwt>
<pdfrwt beam="1">  1        2 0.38193143E-01 0.79632906E+02</pdfrwt>
<pdfrwt beam="2">  1       -1 0.98245580E-03 0.79632906E+02</pdfrwt>
<totfact> 0.24098181E+05</totfact>
</mgrwt>
</event>
<event>
 8    1  0.1600673E-013  0.7878751E+02  0.7818608E-02  0.1332528E+00
         -1   -1    0    0    0  501 -0.00000000000E+00  0.00000000000E+00  0.17017218785E+02  0.17017219531E+02  0.50400000000E-02 0.  1.
          2   -1    0    0  501    0  0.00000000000E+00 -0.00000000000E+00 -0.91193986255E+02  0.91193986290E+02  0.25500000000E-02 0. -1.
         24    2    1    2    0    0  0.00000000000E+00  0.00000000000E+00 -0.74176767470E+02  0.10821120582E+03  0.78787513180E+02 0.  0.
         66    2    3    3    0    0  0.15342529407E+02 -0.32032831381E+02 -0.60435414619E+02  0.70127988558E+02  0.19999860274E+01 0.  0.
        -13    1    3    3    0    0 -0.15342529407E+02  0.32032831381E+02 -0.13741352851E+02  0.38083217263E+02  0.10566000000E+00 0.  1.
         13    1    4    4    0    0  0.18500091766E+01 -0.49953111924E+01 -0.85706078702E+01  0.10091687231E+02  0.10566000000E+00 0. -1.
        -13    1    4    4    0    0  0.24705696815E+01 -0.48223391820E+01 -0.84757204222E+01  0.10060202306E+02  0.10566000000E+00 0.  1.
         14    1    4    4    0    0  0.11021950549E+02 -0.22215181007E+02 -0.43389086327E+02  0.49976099021E+02  0.00000000000E+00 0. -1.
<mgrwt>
<rscale>  0 0.78787513E+02</rscale>
<asrwt>0</asrwt>
<pdfrwt beam="1">  1        2 0.14029844E-01 0.78787513E+02</pdfrwt>
<pdfrwt beam="2">  1       -1 0.26180338E-02 0.78787513E+02</pdfrwt>
<totfact> 0.18004837E+05</totfact>
</mgrwt>
</event>
<event>
 8    1  0.1600673E-013  0.7982667E+02  0.7818608E-02  0.1329544E+00
         -1   -1    0    0    0  501 -0.00000000000E+00  0.00000000000E+00  0.70251232937E+01  0.70251251017E+01  0.50400000000E-02 0.  1.
          2   -1    0    0  501    0  0.00000000000E+00 -0.00000000000E+00 -0.22676815686E+03  0.22676815688E+03  0.25500000000E-02 0. -1.
         24    2    1    2    0    0  0.00000000000E+00  0.00000000000E+00 -0.21974303357E+03  0.23379328198E+03  0.79826674090E+02 0.  0.
         66    2    3    3    0    0 -0.15827313889E+02  0.96590134684E+01 -0.21337447245E+03  0.21418792197E+03  0.20000052973E+01 0.  0.
        -13    1    3    3    0    0  0.15827313889E+02 -0.96590134684E+01 -0.63685611212E+01  0.19605360004E+02  0.10566000000E+00 0.  1.
         13    1    4    4    0    0 -0.16222658801E+01  0.49625842718E+00 -0.16737012105E+02  0.16823101892E+02  0.10566000000E+00 0. -1.
        -13    1    4    4    0    0 -0.12916835956E+01  0.70265495481E+00 -0.14829410003E+02  0.14902507694E+02  0.10566000000E+00 0.  1.
         14    1    4    4    0    0 -0.12913364413E+02  0.84601000865E+01 -0.18180805034E+03  0.18246231239E+03  0.00000000000E+00 0. -1.
<mgrwt>
<rscale>  0 0.79826674E+02</rscale>
<asrwt>0</asrwt>
<pdfrwt beam="1">  1        2 0.34887403E-01 0.79826674E+02</pdfrwt>
<pdfrwt beam="2">  1       -1 0.10807885E-02 0.79826674E+02</pdfrwt>
<totfact> 0.23184937E+05</totfact>
</mgrwt>
</event>
<event>
 8    1  0.1600673E-013  0.8198589E+02  0.7818608E-02  0.1323508E+00
         -1   -1    0    0    0  501 -0.00000000000E+00  0.00000000000E+00  0.28199372903E+02  0.28199373354E+02  0.50400000000E-02 0.  1.
          2   -1    0    0  501    0  0.00000000000E+00 -0.00000000000E+00 -0.59590735186E+02  0.59590735241E+02  0.25500000000E-02 0. -1.
         24    2    1    2    0    0  0.00000000000E+00  0.17763568394E-14 -0.31391362283E+02  0.87790108594E+02  0.81985886231E+02 0.  0.
         66    2    3    3    0    0 -0.23809575575E+02  0.13645097011E+02 -0.48277806467E+02  0.55568256960E+02  0.20000057088E+01 0.  0.
        -13    1    3    3    0    0  0.23809575575E+02 -0.13645097011E+02  0.16886444184E+02  0.32221851634E+02  0.10566000000E+00 0.  1.
         13    1    4    4    0    0 -0.76528580921E+01  0.43749258704E+01 -0.16789598550E+02  0.18963332958E+02  0.10566000000E+00 0. -1.
        -13    1    4    4    0    0 -0.96578941774E+00  0.35301043071E+00 -0.14089684710E+01  0.17474901292E+01  0.10566000000E+00 0.  1.
        -14    1    4    4    0    0 -0.15190928065E+02  0.89171607096E+01 -0.30079239446E+02  0.34857433874E+02  0.00000000000E+00 0.  1.
<mgrwt>
<rscale>  0 0.81985886E+02</rscale>
<asrwt>0</asrwt>
<pdfrwt beam="1">  1        2 0.91678054E-02 0.81985886E+02</pdfrwt>
<pdfrwt beam="2">  1       -1 0.43383651E-02 0.81985886E+02</pdfrwt>
<totfact> 0.14536709E+05</totfact>
</mgrwt>
</event>
<event>
 8    1  0.1600673E-013  0.8013259E+02  0.7818608E-02  0.1328676E+00
         -1   -1    0    0    0  501 -0.00000000000E+00  0.00000000000E+00  0.17494717314E+03  0.17494717321E+03  0.50400000000E-02 0.  1.
          2   -1    0    0  501    0  0.00000000000E+00 -0.00000000000E+00 -0.91759578968E+01  0.91759582511E+01  0.25500000000E-02 0. -1.
         24    2    1    2    0    0 -0.17763568394E-14  0.00000000000E+00  0.16577121524E+03  0.18412313146E+03  0.80132588481E+02 0.  0.
         66    2    3    3    0    0 -0.12218246254E+02 -0.35131918296E+02  0.11699980453E+03  0.12278636523E+03  0.20000005265E+01 0.  0.
        -13    1    3    3    0    0  0.12218246254E+02  0.35131918296E+02  0.48771410710E+02  0.61336766229E+02  0.10566000000E+00 0.  1.
         13    1    4    4    0    0 -0.98022722756E+01 -0.28368907152E+02  0.92552893999E+02  0.97298143798E+02  0.10566000000E+00 0. -1.
        -13    1    4    4    0    0 -0.19525049603E+01 -0.60381417616E+01  0.21785035938E+02  0.22690755527E+02  0.10566000000E+00 0.  1.
        -14    1    4    4    0    0 -0.46346901851E+00 -0.72486938229E+00  0.26618745936E+01  0.27974659076E+01  0.00000000000E+00 0.  1.
<mgrwt>
<rscale>  0 0.80132588E+02</rscale>
<asrwt>0</asrwt>
<pdfrwt beam="1">  1        2 0.14116858E-02 0.80132588E+02</pdfrwt>
<pdfrwt beam="2">  1       -1 0.26914950E-01 0.80132588E+02</pdfrwt>
<totfact> 0.10311367E+05</totfact>
</mgrwt>
</event>
<event>
 8    1  0.1600673E-013  0.7994852E+02  0.7818608E-02  0.1329198E+00
          2   -1    0    0  501    0  0.00000000000E+00  0.00000000000E+00  0.16061424530E+02  0.16061424732E+02  0.25500000000E-02 0. -1.
         -1   -1    0    0    0  501 -0.00000000000E+00 -0.00000000000E+00 -0.99489387560E+02  0.99489387687E+02  0.50400000000E-02 0.  1.
         24    2    1    2    0    0  0.00000000000E+00  0.35527136788E-14 -0.83427963030E+02  0.11555081242E+03  0.79948516156E+02 0.  0.
         66    2    3    3    0    0 -0.19249524852E+02  0.27739501459E+02 -0.10879496076E+02  0.35530094042E+02  0.19999998959E+01 0.  0.
        -13    1    3    3    0    0  0.19249524852E+02 -0.27739501459E+02 -0.72548466954E+02  0.80020718377E+02  0.10566000000E+00 0.  1.
         13    1    4    4    0    0 -0.14594420415E+02  0.21827296571E+02 -0.89693193319E+01  0.27746852725E+02  0.10566000000E+00 0. -1.
        -13    1    4    4    0    0 -0.16780073138E+01  0.23464680607E+01 -0.50763128539E+00  0.29309511191E+01  0.10566000000E+00 0.  1.
         14    1    4    4    0    0 -0.29770971235E+01  0.35657368269E+01 -0.14025454585E+01  0.48522901980E+01  0.00000000000E+00 0. -1.
<mgrwt>
<rscale>  0 0.79948516E+02</rscale>
<asrwt>0</asrwt>
<pdfrwt beam="1">  1        2 0.24709885E-02 0.79948516E+02</pdfrwt>
<pdfrwt beam="2">  1       -1 0.15306059E-01 0.79948516E+02</pdfrwt>
<totfact> 0.11885050E+05</totfact>
</mgrwt>
</event>
<event>
 8    1  0.1600673E-013  0.8099343E+02  0.7818608E-02  0.1326256E+00
         -1   -1    0    0    0  501 -0.00000000000E+00  0.00000000000E+00  0.40463351875E+01  0.40463383263E+01  0.50400000000E-02 0.  1.
          2   -1    0    0  501    0  0.00000000000E+00 -0.00000000000E+00 -0.40530089770E+03  0.40530089771E+03  0.25500000000E-02 0. -1.
         24    2    1    2    0    0 -0.17763568394E-14  0.00000000000E+00 -0.40125456252E+03  0.40934723604E+03  0.80993430054E+02 0.  0.
         66    2    3    3    0    0  0.14333563190E+02  0.19811466137E+02 -0.36374108469E+03  0.36456758210E+03  0.20000006044E+01 0.  0.
        -13    1    3    3    0    0 -0.14333563190E+02 -0.19811466137E+02 -0.37513477828E+02  0.44779653940E+02  0.10566000000E+00 0.  1.
         13    1    4    4    0    0  0.47055251452E+01  0.72551910457E+01 -0.13828822365E+03  0.13855837661E+03  0.10566000000E+00 0. -1.
        -13    1    4    4    0    0  0.26618834456E+01  0.36196425194E+01 -0.58672910458E+02  0.58844787544E+02  0.10566000000E+00 0.  1.
         14    1    4    4    0    0  0.69661545988E+01  0.89366325718E+01 -0.16677995058E+03  0.16716441794E+03  0.00000000000E+00 0. -1.
<mgrwt>
<rscale>  0 0.80993430E+02</rscale>
<asrwt>0</asrwt>
<pdfrwt beam="1">  1        2 0.62353952E-01 0.80993430E+02</pdfrwt>
<pdfrwt beam="2">  1       -1 0.62251367E-03 0.80993430E+02</pdfrwt>
<totfact> 0.27482828E+05</totfact>
</mgrwt>
</event>
<event>
 8    1  0.1600673E-013  0.7172065E+02  0.7818608E-02  0.1354338E+00
          2   -1    0    0  501    0  0.00000000000E+00  0.00000000000E+00  0.15280532075E+03  0.15280532077E+03  0.25500000000E-02 0. -1.
         -1   -1    0    0    0  501 -0.00000000000E+00 -0.00000000000E+00 -0.84156928622E+01  0.84156943714E+01  0.50400000000E-02 0.  1.
         24    2    1    2    0    0 -0.17763568394E-14  0.17763568394E-14  0.14438962788E+03  0.16122101514E+03  0.71720646134E+02 0.  0.
         66    2    3    3    0    0  0.12269330718E+02 -0.96297402682E+01  0.14476750296E+03  0.14561901759E+03  0.19999992779E+01 0.  0.
        -13    1    3    3    0    0 -0.12269330718E+02  0.96297402682E+01 -0.37787507453E+00  0.15601997549E+02  0.10566000000E+00 0.  1.
         13    1    4    4    0    0  0.49489901511E+01 -0.36817624282E+01  0.53384245873E+02  0.53739526882E+02  0.10566000000E+00 0.  1.
        -13    1    4    4    0    0  0.14395939850E+01 -0.14362667023E+01  0.25313704349E+02  0.25395473707E+02  0.10566000000E+00 0. -1.
         14    1    4    4    0    0  0.58807465821E+01 -0.45117111377E+01  0.66069552736E+02  0.66484017000E+02  0.00000000000E+00 0. -1.
<mgrwt>
<rscale>  0 0.71720646E+02</rscale>
<asrwt>0</asrwt>
<pdfrwt beam="1">  1        2 0.23508509E-01 0.71720646E+02</pdfrwt>
<pdfrwt beam="2">  1       -1 0.12947222E-02 0.71720646E+02</pdfrwt>
<totfact> 0.26870843E+05</totfact>
</mgrwt>
</event>
<event>
 8    1  0.1600673E-013  0.7488540E+02  0.7818608E-02  0.1344226E+00
          2   -1    0    0  501    0  0.00000000000E+00  0.00000000000E+00  0.37419439176E+02  0.37419439263E+02  0.25500000000E-02 0. -1.
         -1   -1    0    0    0  501 -0.00000000000E+00 -0.00000000000E+00 -0.37465972621E+02  0.37465972960E+02  0.50400000000E-02 0.  1.
         24    2    1    2    0    0  0.00000000000E+00 -0.17763568394E-14 -0.46533444935E-01  0.74885412224E+02  0.74885397766E+02 0.  0.
         66    2    3    3    0    0  0.23107780342E+02  0.13804977740E+02  0.25965255774E+02  0.37453189940E+02  0.20000016391E+01 0.  0.
        -13    1    3    3    0    0 -0.23107780342E+02 -0.13804977740E+02 -0.26011789219E+02  0.37432222284E+02  0.10566000000E+00 0.  1.
         13    1    4    4    0    0  0.10397766645E+01  0.60137680513E+00  0.10593844367E+01  0.16050697786E+01  0.10566000000E+00 0. -1.
        -13    1    4    4    0    0  0.62411783877E+01  0.29764828425E+01  0.60062551850E+01  0.91595864077E+01  0.10566000000E+00 0. -1.
         14    1    4    4    0    0  0.15826825290E+02  0.10227118092E+02  0.18899616152E+02  0.26688533753E+02  0.00000000000E+00 0. -1.
<mgrwt>
<rscale>  0 0.74885398E+02</rscale>
<asrwt>0</asrwt>
<pdfrwt beam="1">  1        2 0.57568368E-02 0.74885398E+02</pdfrwt>
<pdfrwt beam="2">  1       -1 0.57639958E-02 0.74885398E+02</pdfrwt>
<totfact> 0.16872902E+05</totfact>
</mgrwt>
</event>
<event>
 8    1  0.1600673E-013  0.7912444E+02  0.7818608E-02  0.1331555E+00
         -1   -1    0    0    0  501 -0.00000000000E+00  0.00000000000E+00  0.51014396008E+02  0.51014396256E+02  0.50400000000E-02 0.  1.
          2   -1    0    0  501    0  0.00000000000E+00 -0.00000000000E+00 -0.30680933375E+02  0.30680933481E+02  0.25500000000E-02 0. -1.
         24    2    1    2    0    0  0.00000000000E+00  0.00000000000E+00  0.20333462633E+02  0.81695329737E+02  0.79124441219E+02 0.  0.
         66    2    3    3    0    0 -0.96373373105E+01 -0.21499143939E+02 -0.22608571966E+02  0.32714507366E+02  0.20000013237E+01 0.  0.
        -13    1    3    3    0    0  0.96373373105E+01  0.21499143939E+02  0.42942034599E+02  0.48980822371E+02  0.10566000000E+00 0.  1.
         13    1    4    4    0    0 -0.29151523008E+01 -0.73255963657E+01 -0.66727248992E+01  0.10329515800E+02  0.10566000000E+00 0. -1.
        -13    1    4    4    0    0 -0.10481424230E+01 -0.27070856049E+01 -0.34252783006E+01  0.44911702799E+01  0.10566000000E+00 0.  1.
         14    1    4    4    0    0 -0.56740425868E+01 -0.11466461969E+02 -0.12510568767E+02  0.17893821286E+02  0.00000000000E+00 0. -1.
<mgrwt>
<rscale>  0 0.79124441E+02</rscale>
<asrwt>0</asrwt>
<pdfrwt beam="1">  1        2 0.47201436E-02 0.79124441E+02</pdfrwt>
<pdfrwt beam="2">  1       -1 0.78483687E-02 0.79124441E+02</pdfrwt>
<totfact> 0.13937479E+05</totfact>
</mgrwt>
</event>
<event>
 8    1  0.1600673E-013  0.7765087E+02  0.7818608E-02  0.1335853E+00
         -1   -1    0    0    0  501 -0.00000000000E+00  0.00000000000E+00  0.38462521316E+01  0.38462554337E+01  0.50400000000E-02 0.  1.
          2   -1    0    0  501    0  0.00000000000E+00 -0.00000000000E+00 -0.39191757160E+03  0.39191757161E+03  0.25500000000E-02 0. -1.
         24    2    1    2    0    0  0.00000000000E+00 -0.71054273576E-14 -0.38807131947E+03  0.39576382704E+03  0.77650871218E+02 0.  0.
         66    2    3    3    0    0 -0.58904568391E+01  0.38349059497E+02 -0.19289819582E+03  0.19677159804E+03  0.19999992484E+01 0.  0.
        -13    1    3    3    0    0  0.58904568391E+01 -0.38349059497E+02 -0.19517312365E+03  0.19899222901E+03  0.10566000000E+00 0.  1.
         13    1    4    4    0    0 -0.40045548542E+01  0.22860407383E+02 -0.11444697691E+03  0.11677652321E+03  0.10566000000E+00 0. -1.
        -13    1    4    4    0    0 -0.15034050525E+01  0.12554810271E+02 -0.61312817570E+02  0.62603164856E+02  0.10566000000E+00 0.  1.
        -14    1    4    4    0    0 -0.38249693242E+00  0.29338418434E+01 -0.17138401342E+02  0.17391909970E+02  0.00000000000E+00 0.  1.
<mgrwt>
<rscale>  0 0.77650871E+02</rscale>
<asrwt>0</asrwt>
<pdfrwt beam="1">  1        2 0.60294980E-01 0.77650871E+02</pdfrwt>
<pdfrwt beam="2">  1       -1 0.59173166E-03 0.77650871E+02</pdfrwt>
<totfact> 0.30320506E+05</totfact>
</mgrwt>
</event>
<event>
 8    1  0.1600673E-013  0.7950804E+02  0.7818608E-02  0.1330453E+00
         -1   -1    0    0    0  501 -0.00000000000E+00  0.00000000000E+00  0.12653390653E+01  0.12653491027E+01  0.50400000000E-02 0.  1.
          2   -1    0    0  501    0  0.00000000000E+00 -0.00000000000E+00 -0.12489743348E+04  0.12489743348E+04  0.25500000000E-02 0. -1.
         24    2    1    2    0    0  0.00000000000E+00  0.00000000000E+00 -0.12477089957E+04  0.12502396839E+04  0.79508044714E+02 0.  0.
         66    2    3    3    0    0 -0.22620673891E+02 -0.12976162494E+01 -0.11374127980E+04  0.11376402119E+04  0.20000000295E+01 0.  0.
        -13    1    3    3    0    0  0.22620673891E+02  0.12976162494E+01 -0.11029619770E+03  0.11259947197E+03  0.10566000000E+00 0.  1.
         13    1    4    4    0    0 -0.90581602643E+00 -0.62990529048E-01 -0.67509664231E+02  0.67515852947E+02  0.10566000000E+00 0. -1.
        -13    1    4    4    0    0 -0.74326178681E+01 -0.64407675063E+00 -0.37502742287E+03  0.37510163651E+03  0.10566000000E+00 0.  1.
         14    1    4    4    0    0 -0.14282239996E+02 -0.59054896974E+00 -0.69487571092E+03  0.69502272247E+03  0.00000000000E+00 0. -1.
<mgrwt>
<rscale>  0 0.79508045E+02</rscale>
<asrwt>0</asrwt>
<pdfrwt beam="1">  1        2 0.19214891E+00 0.79508045E+02</pdfrwt>
<pdfrwt beam="2">  1       -1 0.19466932E-03 0.79508045E+02</pdfrwt>
<totfact> 0.35418670E+05</totfact>
</mgrwt>
</event>
<event>
 8    1  0.1600673E-013  0.7988915E+02  0.7818608E-02  0.1329366E+00
          2   -1    0    0  501    0  0.00000000000E+00  0.00000000000E+00  0.67316608179E+02  0.67316608228E+02  0.25500000000E-02 0. -1.
         -1   -1    0    0    0  501 -0.00000000000E+00 -0.00000000000E+00 -0.23702458306E+02  0.23702458842E+02  0.50400000000E-02 0.  1.
         24    2    1    2    0    0  0.17763568394E-14 -0.35527136788E-14  0.43614149873E+02  0.91019067070E+02  0.79889151335E+02 0.  0.
         66    2    3    3    0    0 -0.12652041180E+02  0.18384289070E+02  0.59530339699E+02  0.63607527652E+02  0.19999996701E+01 0.  0.
        -13    1    3    3    0    0  0.12652041180E+02 -0.18384289070E+02 -0.15916189826E+02  0.27411539418E+02  0.10566000000E+00 0.  1.
         13    1    4    4    0    0 -0.17694815629E+01  0.26798837258E+01  0.93630700776E+01  0.98990447569E+01  0.10566000000E+00 0. -1.
        -13    1    4    4    0    0 -0.15679088930E+01  0.28587430234E+01  0.71839742145E+01  0.78899556096E+01  0.10566000000E+00 0.  1.
         14    1    4    4    0    0 -0.93146507238E+01  0.12845662321E+02  0.42983295407E+02  0.45818527286E+02  0.00000000000E+00 0. -1.
<mgrwt>
<rscale>  0 0.79889151E+02</rscale>
<asrwt>0</asrwt>
<pdfrwt beam="1">  1        2 0.10356401E-01 0.79889151E+02</pdfrwt>
<pdfrwt beam="2">  1       -1 0.36465321E-02 0.79889151E+02</pdfrwt>
<totfact> 0.16054424E+05</totfact>
</mgrwt>
</event>
<event>
 8    1  0.1600673E-013  0.7465526E+02  0.7818608E-02  0.1344942E+00
          2   -1    0    0  501    0  0.00000000000E+00  0.00000000000E+00  0.14258129166E+02  0.14258129394E+02  0.25500000000E-02 0. -1.
         -1   -1    0    0    0  501 -0.00000000000E+00 -0.00000000000E+00 -0.97723330344E+02  0.97723330474E+02  0.50400000000E-02 0.  1.
         24    2    1    2    0    0  0.00000000000E+00  0.00000000000E+00 -0.83465201178E+02  0.11198145987E+03  0.74655257996E+02 0.  0.
         66    2    3    3    0    0  0.30871024988E+02 -0.18764665548E+02 -0.27834908713E+02  0.45649917894E+02  0.20000009414E+01 0.  0.
        -13    1    3    3    0    0 -0.30871024988E+02  0.18764665548E+02 -0.55630292465E+02  0.66331541974E+02  0.10566000000E+00 0.  1.
         13    1    4    4    0    0  0.14331875713E+01 -0.13016757027E+01 -0.17129609670E+01  0.25872351187E+01  0.10566000000E+00 0. -1.
        -13    1    4    4    0    0  0.71982273110E+01 -0.44542091243E+01 -0.61567597365E+01  0.10467631529E+02  0.10566000000E+00 0.  1.
         14    1    4    4    0    0  0.22239610105E+02 -0.13008780721E+02 -0.19965188010E+02  0.32595051246E+02  0.00000000000E+00 0. -1.
<mgrwt>
<rscale>  0 0.74655258E+02</rscale>
<asrwt>0</asrwt>
<pdfrwt beam="1">  1        2 0.21935584E-02 0.74655258E+02</pdfrwt>
<pdfrwt beam="2">  1       -1 0.15034358E-01 0.74655258E+02</pdfrwt>
<totfact> 0.14148971E+05</totfact>
</mgrwt>
</event>
<event>
 8    1  0.1600673E-013  0.8203533E+02  0.7818608E-02  0.1323373E+00
          2   -1    0    0  501    0  0.00000000000E+00  0.00000000000E+00  0.20456175704E+03  0.20456175705E+03  0.25500000000E-02 0. -1.
         -1   -1    0    0    0  501 -0.00000000000E+00 -0.00000000000E+00 -0.82246493374E+01  0.82246508816E+01  0.50400000000E-02 0.  1.
         24    2    1    2    0    0  0.00000000000E+00  0.00000000000E+00  0.19633710770E+03  0.21278640793E+03  0.82035331058E+02 0.  0.
         66    2    3    3    0    0 -0.18133407253E+01 -0.16026703702E+02  0.19598040744E+03  0.19665315547E+03  0.20000042037E+01 0.  0.
        -13    1    3    3    0    0  0.18133407253E+01  0.16026703702E+02  0.35670025684E+00  0.16133252469E+02  0.10566000000E+00 0.  1.
         13    1    4    4    0    0  0.55962559755E-01 -0.42590421784E+01  0.48852494457E+02  0.49037943990E+02  0.10566000000E+00 0. -1.
        -13    1    4    4    0    0 -0.12494499145E+01 -0.88570598300E+01  0.10344729037E+03  0.10383333609E+03  0.10566000000E+00 0.  1.
        -14    1    4    4    0    0 -0.61985337058E+00 -0.29106016935E+01  0.43680622615E+02  0.43781875388E+02  0.00000000000E+00 0.  1.
<mgrwt>
<rscale>  0 0.82035331E+02</rscale>
<asrwt>0</asrwt>
<pdfrwt beam="1">  1        2 0.31471038E-01 0.82035331E+02</pdfrwt>
<pdfrwt beam="2">  1       -1 0.12653308E-02 0.82035331E+02</pdfrwt>
<totfact> 0.20805069E+05</totfact>
</mgrwt>
</event>
<event>
 8    1  0.1600673E-013  0.8360505E+02  0.7818608E-02  0.1319121E+00
          2   -1    0    0  501    0  0.00000000000E+00  0.00000000000E+00  0.16105490938E+04  0.16105490938E+04  0.25500000000E-02 0. -1.
         -1   -1    0    0    0  501 -0.00000000000E+00 -0.00000000000E+00 -0.10849973924E+01  0.10850090981E+01  0.50400000000E-02 0.  1.
         24    2    1    2    0    0  0.00000000000E+00  0.00000000000E+00  0.16094640964E+04  0.16116341029E+04  0.83605047728E+02 0.  0.
         66    2    3    3    0    0 -0.16853520386E+02 -0.98718790306E+01  0.15171147482E+04  0.15172417917E+04  0.19999933191E+01 0.  0.
        -13    1    3    3    0    0  0.16853520386E+02  0.98718790306E+01  0.92349348193E+02  0.94392311238E+02  0.10566000000E+00 0.  1.
         13    1    4    4    0    0 -0.10590518379E+02 -0.64516332473E+01  0.94888175359E+03  0.94896278963E+03  0.10566000000E+00 0. -1.
        -13    1    4    4    0    0 -0.41094880748E+01 -0.21398573642E+01  0.40970601565E+03  0.40973222635E+03  0.10566000000E+00 0.  1.
        -14    1    4    4    0    0 -0.21535139319E+01 -0.12803884190E+01  0.15852697897E+03  0.15854677568E+03  0.00000000000E+00 0.  1.
<mgrwt>
<rscale>  0 0.83605048E+02</rscale>
<asrwt>0</asrwt>
<pdfrwt beam="1">  1        2 0.24777613E+00 0.83605048E+02</pdfrwt>
<pdfrwt beam="2">  1       -1 0.16692402E-03 0.83605048E+02</pdfrwt>
<totfact> 0.28748989E+05</totfact>
</mgrwt>
</event>
<event>
 8    1  0.1600673E-013  0.8056445E+02  0.7818608E-02  0.1327457E+00
          2   -1    0    0  501    0  0.00000000000E+00  0.00000000000E+00  0.25918923782E+03  0.25918923784E+03  0.25500000000E-02 0. -1.
         -1   -1    0    0    0  501 -0.00000000000E+00 -0.00000000000E+00 -0.62605124294E+01  0.62605144581E+01  0.50400000000E-02 0.  1.
         24    2    1    2    0    0 -0.71054273576E-14 -0.17763568394E-14  0.25292872539E+03  0.26544975229E+03  0.80564451612E+02 0.  0.
         66    2    3    3    0    0 -0.37239230512E+02 -0.12648229221E+02  0.98214831474E+02  0.10581536337E+03  0.20000029717E+01 0.  0.
        -13    1    3    3    0    0  0.37239230512E+02  0.12648229221E+02  0.15471389392E+03  0.15963438893E+03  0.10566000000E+00 0.  1.
         13    1    4    4    0    0 -0.15500262518E+02 -0.55602663804E+01  0.42007414330E+02  0.45119937090E+02  0.10566000000E+00 0. -1.
        -13    1    4    4    0    0 -0.20095859504E+02 -0.67793743414E+01  0.51311371956E+02  0.55521811406E+02  0.10566000000E+00 0.  1.
        -14    1    4    4    0    0 -0.16431084908E+01 -0.30858849889E+00  0.48960451881E+01  0.51736148733E+01  0.00000000000E+00 0.  1.
<mgrwt>
<rscale>  0 0.80564452E+02</rscale>
<asrwt>0</asrwt>
<pdfrwt beam="1">  1        2 0.39875278E-01 0.80564452E+02</pdfrwt>
<pdfrwt beam="2">  1       -1 0.96315565E-03 0.80564452E+02</pdfrwt>
<totfact> 0.23737231E+05</totfact>
</mgrwt>
</event>
<event>
 8    1  0.1600673E-013  0.8809031E+02  0.7818608E-02  0.1307543E+00
          2   -1    0    0  501    0  0.00000000000E+00  0.00000000000E+00  0.12141389248E+04  0.12141389248E+04  0.25500000000E-02 0. -1.
         -1   -1    0    0    0  501 -0.00000000000E+00 -0.00000000000E+00 -0.15978161350E+01  0.15978240838E+01  0.50400000000E-02 0.  1.
         24    2    1    2    0    0  0.44408920985E-15  0.35527136788E-14  0.12125411086E+04  0.12157367488E+04  0.88090308151E+02 0.  0.
         66    2    3    3    0    0 -0.33520568333E+01 -0.13661130844E+02  0.11822865131E+04  0.11823718796E+04  0.19999994391E+01 0.  0.
        -13    1    3    3    0    0  0.33520568333E+01  0.13661130844E+02  0.30254595569E+02  0.33364869220E+02  0.10566000000E+00 0.  1.
         13    1    4    4    0    0 -0.15002501008E+01 -0.62469501295E+01  0.47834181730E+03  0.47838497100E+03  0.10566000000E+00 0. -1.
        -13    1    4    4    0    0 -0.24418283265E+00 -0.95023491174E+00  0.64918642427E+02  0.64926141656E+02  0.10566000000E+00 0.  1.
         14    1    4    4    0    0 -0.16076238998E+01 -0.64639458027E+01  0.63902605333E+03  0.63906076697E+03  0.00000000000E+00 0. -1.
<mgrwt>
<rscale>  0 0.88090308E+02</rscale>
<asrwt>0</asrwt>
<pdfrwt beam="1">  1        2 0.18679099E+00 0.88090308E+02</pdfrwt>
<pdfrwt beam="2">  1       -1 0.24581797E-03 0.88090308E+02</pdfrwt>
<totfact> 0.27213048E+05</totfact>
</mgrwt>
</event>
<event>
 8    1  0.1600673E-013  0.8076032E+02  0.7818608E-02  0.1326907E+00
         -1   -1    0    0    0  501 -0.00000000000E+00  0.00000000000E+00  0.25938533619E+02  0.25938534109E+02  0.50400000000E-02 0.  1.
          2   -1    0    0  501    0  0.00000000000E+00 -0.00000000000E+00 -0.62862361433E+02  0.62862361484E+02  0.25500000000E-02 0. -1.
         24    2    1    2    0    0  0.71054273576E-14  0.00000000000E+00 -0.36923827814E+02  0.88800895593E+02  0.80760324403E+02 0.  0.
         66    2    3    3    0    0  0.39140971935E+02 -0.75318024232E+01 -0.11535612184E+02  0.41542918608E+02  0.20000015796E+01 0.  0.
        -13    1    3    3    0    0 -0.39140971935E+02  0.75318024232E+01 -0.25388215630E+02  0.47257976984E+02  0.10566000000E+00 0.  1.
         13    1    4    4    0    0  0.25706887796E+02 -0.58467902554E+01 -0.76038191776E+01  0.27438262820E+02  0.10566000000E+00 0. -1.
        -13    1    4    4    0    0  0.11787647147E+02 -0.16010296768E+01 -0.34979187473E+01  0.12399940358E+02  0.10566000000E+00 0.  1.
        -14    1    4    4    0    0  0.16464369912E+01 -0.83982491059E-01 -0.43387425873E+00  0.17047154300E+01  0.00000000000E+00 0.  1.
<mgrwt>
<rscale>  0 0.80760324E+02</rscale>
<asrwt>0</asrwt>
<pdfrwt beam="1">  1        2 0.96711325E-02 0.80760324E+02</pdfrwt>
<pdfrwt beam="2">  1       -1 0.39905437E-02 0.80760324E+02</pdfrwt>
<totfact> 0.15336603E+05</totfact>
</mgrwt>
</event>
<event>
 8    1  0.1600673E-013  0.8213766E+02  0.7818608E-02  0.1323092E+00
         -1   -1    0    0    0  501 -0.00000000000E+00  0.00000000000E+00  0.48908501079E+01  0.48908527048E+01  0.50400000000E-02 0.  1.
          2   -1    0    0  501    0  0.00000000000E+00 -0.00000000000E+00 -0.34485793276E+03  0.34485793277E+03  0.25500000000E-02 0. -1.
         24    2    1    2    0    0 -0.71054273576E-14 -0.35527136788E-14 -0.33996708265E+03  0.34974878547E+03  0.82137662821E+02 0.  0.
         66    2    3    3    0    0 -0.27267173928E+02 -0.20117969890E+02 -0.26870365448E+03  0.27083922430E+03  0.19999998099E+01 0.  0.
        -13    1    3    3    0    0  0.27267173928E+02  0.20117969890E+02 -0.71263428166E+02  0.78909561173E+02  0.10566000000E+00 0.  1.
         13    1    4    4    0    0 -0.43019464348E+01 -0.23931258094E+01 -0.38328144412E+02  0.38643131503E+02  0.10566000000E+00 0. -1.
        -13    1    4    4    0    0 -0.10699197312E+02 -0.84913816439E+01 -0.10588916263E+03  0.10676657862E+03  0.10566000000E+00 0.  1.
         14    1    4    4    0    0 -0.12266030181E+02 -0.92334624371E+01 -0.12448634744E+03  0.12542951417E+03  0.00000000000E+00 0. -1.
<mgrwt>
<rscale>  0 0.82137663E+02</rscale>
<asrwt>0</asrwt>
<pdfrwt beam="1">  1        2 0.53055048E-01 0.82137663E+02</pdfrwt>
<pdfrwt beam="2">  1       -1 0.75243895E-03 0.82137663E+02</pdfrwt>
<totfact> 0.25017557E+05</totfact>
</mgrwt>
</event>
<event>
 8    1  0.1600673E-013  0.7935980E+02  0.7818608E-02  0.1330878E+00
         -1   -1    0    0    0  501 -0.00000000000E+00  0.00000000000E+00  0.43437438658E+02  0.43437438951E+02  0.50400000000E-02 0.  1.
          2   -1    0    0  501    0  0.00000000000E+00 -0.00000000000E+00 -0.36247405247E+02  0.36247405337E+02  0.25500000000E-02 0. -1.
         24    2    1    2    0    0  0.00000000000E+00  0.00000000000E+00  0.71900334115E+01  0.79684844287E+02  0.79359799828E+02 0.  0.
         66    2    3    3    0    0  0.18705828596E+02  0.45582866287E+00 -0.31508368121E+02  0.36700041758E+02  0.20000000384E+01 0.  0.
        -13    1    3    3    0    0 -0.18705828596E+02 -0.45582866287E+00  0.38698401533E+02  0.42984802529E+02  0.10566000000E+00 0.  1.
         13    1    4    4    0    0  0.10319976360E+02  0.42900552968E+00 -0.18154585141E+02  0.20887462352E+02  0.10566000000E+00 0. -1.
        -13    1    4    4    0    0  0.43591869000E+01 -0.84223443231E-01 -0.58608577088E+01  0.73055062203E+01  0.10566000000E+00 0.  1.
        -14    1    4    4    0    0  0.40266653360E+01  0.11104657642E+00 -0.74929252719E+01  0.85070731865E+01  0.00000000000E+00 0.  1.
<mgrwt>
<rscale>  0 0.79359800E+02</rscale>
<asrwt>0</asrwt>
<pdfrwt beam="1">  1        2 0.55765239E-02 0.79359800E+02</pdfrwt>
<pdfrwt beam="2">  1       -1 0.66826829E-02 0.79359800E+02</pdfrwt>
<totfact> 0.14287178E+05</totfact>
</mgrwt>
</event>
<event>
 8    1  0.1600673E-013  0.7796056E+02  0.7818608E-02  0.1334941E+00
         -1   -1    0    0    0  501 -0.00000000000E+00  0.00000000000E+00  0.40586649936E+02  0.40586650249E+02  0.50400000000E-02 0.  1.
          2   -1    0    0  501    0  0.00000000000E+00 -0.00000000000E+00 -0.37437488118E+02  0.37437488205E+02  0.25500000000E-02 0. -1.
         24    2    1    2    0    0  0.00000000000E+00 -0.17763568394E-14  0.31491618178E+01  0.78024138454E+02  0.77960560294E+02 0.  0.
         66    2    3    3    0    0  0.17679574542E+02  0.14895343934E+02 -0.29803083716E+02  0.37771184815E+02  0.19999941205E+01 0.  0.
        -13    1    3    3    0    0 -0.17679574542E+02 -0.14895343934E+02  0.32952245534E+02  0.40252953639E+02  0.10566000000E+00 0.  1.
         13    1    4    4    0    0  0.27293291694E+01  0.16436888588E+01 -0.43828349175E+01  0.54195347336E+01  0.10566000000E+00 0. -1.
        -13    1    4    4    0    0  0.14613725618E+02  0.13147346792E+02 -0.24928996177E+02  0.31747121422E+02  0.10566000000E+00 0.  1.
        -14    1    4    4    0    0  0.33651975451E+00  0.10430828266E+00 -0.49125262135E+00  0.60452866019E+00  0.00000000000E+00 0.  1.
<mgrwt>
<rscale>  0 0.77960560E+02</rscale>
<asrwt>0</asrwt>
<pdfrwt beam="1">  1        2 0.57596136E-02 0.77960560E+02</pdfrwt>
<pdfrwt beam="2">  1       -1 0.62441000E-02 0.77960560E+02</pdfrwt>
<totfact> 0.15105555E+05</totfact>
</mgrwt>
</event>
<event>
 8    1  0.1600673E-013  0.8068713E+02  0.7818608E-02  0.1327113E+00
          2   -1    0    0  501    0  0.00000000000E+00  0.00000000000E+00  0.16775609635E+03  0.16775609637E+03  0.25500000000E-02 0. -1.
         -1   -1    0    0    0  501 -0.00000000000E+00 -0.00000000000E+00 -0.97021993051E+01  0.97022006141E+01  0.50400000000E-02 0.  1.
         24    2    1    2    0    0 -0.17763568394E-14  0.00000000000E+00  0.15805389704E+03  0.17745829698E+03  0.80687129068E+02 0.  0.
         66    2    3    3    0    0 -0.11513937369E+02  0.28704735243E+02  0.13596411970E+03  0.13945169221E+03  0.20000088238E+01 0.  0.
        -13    1    3    3    0    0  0.11513937369E+02 -0.28704735243E+02  0.22089777341E+02  0.38006604769E+02  0.10566000000E+00 0.  1.
         13    1    4    4    0    0 -0.71681365041E+01  0.15881865047E+02  0.75046778395E+02  0.77043143302E+02  0.10566000000E+00 0. -1.
        -13    1    4    4    0    0 -0.86417100653E+00  0.17820660398E+01  0.86412708067E+01  0.88659616562E+01  0.10566000000E+00 0.  1.
         14    1    4    4    0    0 -0.34816298585E+01  0.11040804157E+02  0.52276070502E+02  0.53542587256E+02  0.00000000000E+00 0. -1.
<mgrwt>
<rscale>  0 0.80687129E+02</rscale>
<asrwt>0</asrwt>
<pdfrwt beam="1">  1        2 0.25808629E-01 0.80687129E+02</pdfrwt>
<pdfrwt beam="2">  1       -1 0.14926462E-02 0.80687129E+02</pdfrwt>
<totfact> 0.20311823E+05</totfact>
</mgrwt>
</event>
<event>
 8    1  0.1600673E-013  0.8441400E+02  0.7818608E-02  0.1316972E+00
          2   -1    0    0  501    0  0.00000000000E+00  0.00000000000E+00  0.16896103153E+03  0.16896103155E+03  0.25500000000E-02 0. -1.
         -1   -1    0    0    0  501 -0.00000000000E+00 -0.00000000000E+00 -0.10543441298E+02  0.10543442502E+02  0.50400000000E-02 0.  1.
         24    2    1    2    0    0  0.88817841970E-15 -0.71054273576E-14  0.15841759023E+03  0.17950447405E+03  0.84413999488E+02 0.  0.
         66    2    3    3    0    0  0.60197830965E+01 -0.38381897243E+02  0.11419588968E+03  0.12064041211E+03  0.19999975075E+01 0.  0.
        -13    1    3    3    0    0 -0.60197830965E+01  0.38381897243E+02  0.44221700555E+02  0.58864061944E+02  0.10566000000E+00 0.  1.
         13    1    4    4    0    0  0.49598747158E+01 -0.31066793848E+02  0.92668400235E+02  0.97863116665E+02  0.10566000000E+00 0. -1.
        -13    1    4    4    0    0  0.22129715666E+00 -0.11493742524E+01  0.44093640323E+01  0.45632980188E+01  0.10566000000E+00 0.  1.
        -14    1    4    4    0    0  0.83861122406E+00 -0.61657291417E+01  0.17118125409E+02  0.18213997424E+02  0.00000000000E+00 0.  1.
<mgrwt>
<rscale>  0 0.84413999E+02</rscale>
<asrwt>0</asrwt>
<pdfrwt beam="1">  1        2 0.25994004E-01 0.84413999E+02</pdfrwt>
<pdfrwt beam="2">  1       -1 0.16220681E-02 0.84413999E+02</pdfrwt>
<totfact> 0.18059271E+05</totfact>
</mgrwt>
</event>
<event>
 8    1  0.1600673E-013  0.7750633E+02  0.7818608E-02  0.1336281E+00
          2   -1    0    0  501    0  0.00000000000E+00  0.00000000000E+00  0.17676466397E+03  0.17676466399E+03  0.25500000000E-02 0. -1.
         -1   -1    0    0    0  501 -0.00000000000E+00 -0.00000000000E+00 -0.84960854604E+01  0.84960869553E+01  0.50400000000E-02 0.  1.
         24    2    1    2    0    0  0.00000000000E+00  0.35527136788E-14  0.16826857851E+03  0.18526075094E+03  0.77506330881E+02 0.  0.
         66    2    3    3    0    0 -0.13074962448E+02  0.10430239592E+02  0.16768055585E+03  0.16852451852E+03  0.19999976405E+01 0.  0.
        -13    1    3    3    0    0  0.13074962448E+02 -0.10430239592E+02  0.58802265382E+00  0.16736232420E+02  0.10566000000E+00 0.  1.
         13    1    4    4    0    0 -0.99733579732E+01  0.83855333658E+01  0.12792699098E+03  0.12858892341E+03  0.10566000000E+00 0. -1.
        -13    1    4    4    0    0 -0.31367885776E+01  0.20334439043E+01  0.38433988414E+02  0.38615501630E+02  0.10566000000E+00 0.  1.
        -14    1    4    4    0    0  0.35184103294E-01  0.11262321589E-01  0.13195764621E+01  0.13200934817E+01  0.00000000000E+00 0.  1.
<mgrwt>
<rscale>  0 0.77506331E+02</rscale>
<asrwt>0</asrwt>
<pdfrwt beam="1">  1        2 0.27194563E-01 0.77506331E+02</pdfrwt>
<pdfrwt beam="2">  1       -1 0.13070902E-02 0.77506331E+02</pdfrwt>
<totfact> 0.22987895E+05</totfact>
</mgrwt>
</event>
<event>
 8    1  0.1600673E-013  0.7138662E+02  0.7818608E-02  0.1355440E+00
         -1   -1    0    0    0  501 -0.00000000000E+00  0.00000000000E+00  0.42001829985E+01  0.42001860224E+01  0.50400000000E-02 0.  1.
          2   -1    0    0  501    0  0.00000000000E+00 -0.00000000000E+00 -0.30332292175E+03  0.30332292176E+03  0.25500000000E-02 0. -1.
         24    2    1    2    0    0  0.88817841970E-15  0.00000000000E+00 -0.29912273875E+03  0.30752310779E+03  0.71386616270E+02 0.  0.
         66    2    3    3    0    0  0.66181622684E+01  0.86593208880E+01 -0.29596946864E+03  0.29617682265E+03  0.19999983021E+01 0.  0.
        -13    1    3    3    0    0 -0.66181622684E+01 -0.86593208880E+01 -0.31532701102E+01  0.11346285140E+02  0.10566000000E+00 0.  1.
         13    1    4    4    0    0  0.19740168338E+01  0.22489975871E+01 -0.94753836889E+02  0.94801136606E+02  0.10566000000E+00 0. -1.
        -13    1    4    4    0    0  0.48785279091E+00  0.15124678214E+01 -0.44318211714E+02  0.44346821903E+02  0.10566000000E+00 0.  1.
         14    1    4    4    0    0  0.41562926437E+01  0.48978554795E+01 -0.15689742004E+03  0.15702886414E+03  0.00000000000E+00 0. -1.
<mgrwt>
<rscale>  0 0.71386616E+02</rscale>
<asrwt>0</asrwt>
<pdfrwt beam="1">  1        2 0.46665047E-01 0.71386616E+02</pdfrwt>
<pdfrwt beam="2">  1       -1 0.64618248E-03 0.71386616E+02</pdfrwt>
<totfact> 0.34438864E+05</totfact>
</mgrwt>
</event>
<event>
 8    1  0.1600673E-013  0.8353675E+02  0.7818608E-02  0.1319304E+00
         -1   -1    0    0    0  501 -0.00000000000E+00  0.00000000000E+00  0.16567383797E+03  0.16567383805E+03  0.50400000000E-02 0.  1.
          2   -1    0    0  501    0  0.00000000000E+00 -0.00000000000E+00 -0.10530311473E+02  0.10530311782E+02  0.25500000000E-02 0. -1.
         24    2    1    2    0    0  0.00000000000E+00  0.00000000000E+00  0.15514352650E+03  0.17620414983E+03  0.83536750013E+02 0.  0.
         66    2    3    3    0    0  0.27902097973E+02 -0.22444981350E+02  0.32362482989E+02  0.48307707079E+02  0.19999997334E+01 0.  0.
        -13    1    3    3    0    0 -0.27902097973E+02  0.22444981350E+02  0.12278104351E+03  0.12789644275E+03  0.10566000000E+00 0.  1.
         13    1    4    4    0    0  0.10773591958E+02 -0.94766238103E+01  0.12478711743E+02  0.19015943135E+02  0.10566000000E+00 0. -1.
        -13    1    4    4    0    0  0.24988761383E+01 -0.23024930670E+01  0.29229892400E+01  0.44834012101E+01  0.10566000000E+00 0.  1.
         14    1    4    4    0    0  0.14629629876E+02 -0.10665864472E+02  0.16960782006E+02  0.24808362733E+02  0.00000000000E+00 0. -1.
<mgrwt>
<rscale>  0 0.83536750E+02</rscale>
<asrwt>0</asrwt>
<pdfrwt beam="1">  1        2 0.16200481E-02 0.83536750E+02</pdfrwt>
<pdfrwt beam="2">  1       -1 0.25488281E-01 0.83536750E+02</pdfrwt>
<totfact> 0.94182234E+04</totfact>
</mgrwt>
</event>
<event>
 8    1  0.1600673E-013  0.8021218E+02  0.7818608E-02  0.1328450E+00
         -1   -1    0    0    0  501 -0.00000000000E+00  0.00000000000E+00  0.16780497726E+01  0.16780573414E+01  0.50400000000E-02 0.  1.
          2   -1    0    0  501    0  0.00000000000E+00 -0.00000000000E+00 -0.95855009230E+03  0.95855009230E+03  0.25500000000E-02 0. -1.
         24    2    1    2    0    0 -0.35527136788E-14 -0.35527136788E-14 -0.95687204253E+03  0.96022814964E+03  0.80212178625E+02 0.  0.
         66    2    3    3    0    0  0.26927811615E+02 -0.15816383995E+02 -0.77949769683E+03  0.78012558243E+03  0.19999901000E+01 0.  0.
        -13    1    3    3    0    0 -0.26927811615E+02  0.15816383995E+02 -0.17737434570E+03  0.18010256721E+03  0.10566000000E+00 0.  1.
         13    1    4    4    0    0  0.68233883852E+01 -0.34085947445E+01 -0.19257578095E+03  0.19272680073E+03  0.10566000000E+00 0. -1.
        -13    1    4    4    0    0  0.28727665691E+01 -0.21794357568E+01 -0.98095896013E+02  0.98162206101E+02  0.10566000000E+00 0.  1.
        -14    1    4    4    0    0  0.17231656661E+02 -0.10228353494E+02 -0.48882601986E+03  0.48923657560E+03  0.00000000000E+00 0.  1.
<mgrwt>
<rscale>  0 0.80212179E+02</rscale>
<asrwt>0</asrwt>
<pdfrwt beam="1">  1        2 0.14746881E+00 0.80212179E+02</pdfrwt>
<pdfrwt beam="2">  1       -1 0.25816285E-03 0.80212179E+02</pdfrwt>
<totfact> 0.34906117E+05</totfact>
</mgrwt>
</event>
<event>
 8    1  0.1600673E-013  0.8246525E+02  0.7818608E-02  0.1322197E+00
         -1   -1    0    0    0  501 -0.00000000000E+00  0.00000000000E+00  0.19524963031E+02  0.19524963681E+02  0.50400000000E-02 0.  1.
          2   -1    0    0  501    0  0.00000000000E+00 -0.00000000000E+00 -0.87074652522E+02  0.87074652559E+02  0.25500000000E-02 0. -1.
         24    2    1    2    0    0  0.00000000000E+00  0.00000000000E+00 -0.67549689491E+02  0.10659961624E+03  0.82465251059E+02 0.  0.
         66    2    3    3    0    0 -0.18263470345E+01  0.30742781359E+02 -0.69187852696E+02  0.75758914369E+02  0.19999991429E+01 0.  0.
        -13    1    3    3    0    0  0.18263470345E+01 -0.30742781359E+02  0.16381632050E+01  0.30840701871E+02  0.10566000000E+00 0.  1.
         13    1    4    4    0    0 -0.18450676442E+01  0.20633530803E+02 -0.45130762120E+02  0.49658269418E+02  0.10566000000E+00 0. -1.
        -13    1    4    4    0    0  0.16122018023E+00  0.77265809427E+01 -0.17920883170E+02  0.19516538183E+02  0.10566000000E+00 0.  1.
         14    1    4    4    0    0 -0.14249957054E+00  0.23826696136E+01 -0.61362074055E+01  0.65841067685E+01  0.00000000000E+00 0. -1.
<mgrwt>
<rscale>  0 0.82465251E+02</rscale>
<asrwt>0</asrwt>
<pdfrwt beam="1">  1        2 0.13396100E-01 0.82465251E+02</pdfrwt>
<pdfrwt beam="2">  1       -1 0.30038406E-02 0.82465251E+02</pdfrwt>
<totfact> 0.15729136E+05</totfact>
</mgrwt>
</event>
<event>
 8    1  0.1600673E-013  0.8820790E+02  0.7818608E-02  0.1307250E+00
         -1   -1    0    0    0  501 -0.00000000000E+00  0.00000000000E+00  0.46000389481E+01  0.46000417091E+01  0.50400000000E-02 0.  1.
          2   -1    0    0  501    0  0.00000000000E+00 -0.00000000000E+00 -0.42285677084E+03  0.42285677085E+03  0.25500000000E-02 0. -1.
         24    2    1    2    0    0 -0.71054273576E-14 -0.88817841970E-15 -0.41825673190E+03  0.42745681256E+03  0.88207895499E+02 0.  0.
         66    2    3    3    0    0 -0.43769137639E+02 -0.49042149903E+01 -0.20034686547E+03  0.20514057432E+03  0.19999989210E+01 0.  0.
        -13    1    3    3    0    0  0.43769137639E+02  0.49042149903E+01 -0.21790986642E+03  0.22231623824E+03  0.10566000000E+00 0.  1.
         13    1    4    4    0    0 -0.19467252339E+02 -0.20342568434E+01 -0.90395752381E+02  0.92490622915E+02  0.10566000000E+00 0. -1.
        -13    1    4    4    0    0 -0.19971707449E+02 -0.27769233160E+01 -0.91979882173E+02  0.94164166700E+02  0.10566000000E+00 0.  1.
        -14    1    4    4    0    0 -0.43301778498E+01 -0.93034830970E-01 -0.17971230916E+02  0.18485784710E+02  0.00000000000E+00 0.  1.
<mgrwt>
<rscale>  0 0.88207895E+02</rscale>
<asrwt>0</asrwt>
<pdfrwt beam="1">  1        2 0.65054857E-01 0.88207895E+02</pdfrwt>
<pdfrwt beam="2">  1       -1 0.70769885E-03 0.88207895E+02</pdfrwt>
<totfact> 0.22293309E+05</totfact>
</mgrwt>
</event>
<event>
 8    1  0.1600673E-013  0.8313390E+02  0.7818608E-02  0.1320386E+00
         -1   -1    0    0    0  501 -0.00000000000E+00  0.00000000000E+00  0.18334780784E+01  0.18334850055E+01  0.50400000000E-02 0.  1.
          2   -1    0    0  501    0  0.00000000000E+00 -0.00000000000E+00 -0.94236640127E+03  0.94236640127E+03  0.25500000000E-02 0. -1.
         24    2    1    2    0    0  0.00000000000E+00  0.00000000000E+00 -0.94053292319E+03  0.94419988628E+03  0.83133901881E+02 0.  0.
         66    2    3    3    0    0 -0.25271823607E+02 -0.34933222254E+01 -0.84291028559E+03  0.84329865286E+03  0.19999994844E+01 0.  0.
        -13    1    3    3    0    0  0.25271823607E+02  0.34933222254E+01 -0.97622637598E+02  0.10090123341E+03  0.10566000000E+00 0.  1.
         13    1    4    4    0    0 -0.53555897692E+01 -0.11022184115E+01 -0.16332175142E+03  0.16341328856E+03  0.10566000000E+00 0. -1.
        -13    1    4    4    0    0 -0.35802542588E+01 -0.78391038482E+00 -0.11745036042E+03  0.11750757875E+03  0.10566000000E+00 0.  1.
        -14    1    4    4    0    0 -0.16335979579E+02 -0.16071934291E+01 -0.56213817375E+03  0.56237778555E+03  0.00000000000E+00 0.  1.
<mgrwt>
<rscale>  0 0.83133902E+02</rscale>
<asrwt>0</asrwt>
<pdfrwt beam="1">  1        2 0.14497906E+00 0.83133902E+02</pdfrwt>
<pdfrwt beam="2">  1       -1 0.28207484E-03 0.83133902E+02</pdfrwt>
<totfact> 0.31762221E+05</totfact>
</mgrwt>
</event>
<event>
 8    1  0.1600673E-013  0.8841093E+02  0.7818608E-02  0.1306746E+00
         -1   -1    0    0    0  501 -0.00000000000E+00  0.00000000000E+00  0.81831004676E+02  0.81831004831E+02  0.50400000000E-02 0.  1.
          2   -1    0    0  501    0  0.00000000000E+00 -0.00000000000E+00 -0.23879982614E+02  0.23879982750E+02  0.25500000000E-02 0. -1.
         24    2    1    2    0    0  0.00000000000E+00  0.00000000000E+00  0.57951022062E+02  0.10571098758E+03  0.88410926572E+02 0.  0.
         66    2    3    3    0    0 -0.29564293373E+02 -0.14509123166E+02 -0.62275573779E+01  0.33575952261E+02  0.20000004231E+01 0.  0.
        -13    1    3    3    0    0  0.29564293373E+02  0.14509123166E+02  0.64178579440E+02  0.72135035320E+02  0.10566000000E+00 0.  1.
         13    1    4    4    0    0 -0.92739080664E+01 -0.40771923103E+01 -0.19955627217E+01  0.10325807599E+02  0.10566000000E+00 0. -1.
        -13    1    4    4    0    0 -0.68303312334E+01 -0.31220120891E+01 -0.79830022010E+00  0.75530676894E+01  0.10566000000E+00 0.  1.
        -14    1    4    4    0    0 -0.13460054073E+02 -0.73099187664E+01 -0.34336944362E+01  0.15697076973E+02  0.00000000000E+00 0.  1.
<mgrwt>
<rscale>  0 0.88410927E+02</rscale>
<asrwt>0</asrwt>
<pdfrwt beam="1">  1        2 0.36738435E-02 0.88410927E+02</pdfrwt>
<pdfrwt beam="2">  1       -1 0.12589385E-01 0.88410927E+02</pdfrwt>
<totfact> 0.96578350E+04</totfact>
</mgrwt>
</event>
<event>
 8    1  0.1600673E-013  0.7617380E+02  0.7818608E-02  0.1340274E+00
         -1   -1    0    0    0  501 -0.00000000000E+00  0.00000000000E+00  0.19780944787E+01  0.19781008994E+01  0.50400000000E-02 0.  1.
          2   -1    0    0  501    0  0.00000000000E+00 -0.00000000000E+00 -0.73333685974E+03  0.73333685974E+03  0.25500000000E-02 0. -1.
         24    2    1    2    0    0  0.00000000000E+00  0.00000000000E+00 -0.73135876526E+03  0.73531496064E+03  0.76173800103E+02 0.  0.
         66    2    3    3    0    0 -0.19698965886E+02  0.25392962065E+02 -0.56275866869E+03  0.56367913832E+03  0.20000008993E+01 0.  0.
        -13    1    3    3    0    0  0.19698965886E+02 -0.25392962065E+02 -0.16860009657E+03  0.17163582233E+03  0.10566000000E+00 0.  1.
         13    1    4    4    0    0 -0.76929371929E+01  0.10340887898E+02 -0.23991072666E+03  0.24025670267E+03  0.10566000000E+00 0. -1.
        -13    1    4    4    0    0 -0.48453647590E+01  0.57677134272E+01 -0.12123862789E+03  0.12147246657E+03  0.10566000000E+00 0.  1.
        -14    1    4    4    0    0 -0.71606639342E+01  0.92843607400E+01 -0.20160931414E+03  0.20194996908E+03  0.00000000000E+00 0.  1.
<mgrwt>
<rscale>  0 0.76173800E+02</rscale>
<asrwt>0</asrwt>
<pdfrwt beam="1">  1        2 0.11282084E+00 0.76173800E+02</pdfrwt>
<pdfrwt beam="2">  1       -1 0.30432331E-03 0.76173800E+02</pdfrwt>
<totfact> 0.38374240E+05</totfact>
</mgrwt>
</event>
<event>
 8    1  0.1600673E-013  0.7966363E+02  0.7818608E-02  0.1330009E+00
          2   -1    0    0  501    0  0.00000000000E+00  0.00000000000E+00  0.90762752128E+02  0.90762752164E+02  0.25500000000E-02 0. -1.
         -1   -1    0    0    0  501 -0.00000000000E+00 -0.00000000000E+00 -0.17480447298E+02  0.17480448024E+02  0.50400000000E-02 0.  1.
         24    2    1    2    0    0  0.00000000000E+00  0.22204460493E-15  0.73282304830E+02  0.10824320019E+03  0.79663631512E+02 0.  0.
         66    2    3    3    0    0  0.34256397174E+02 -0.92109247033E+00  0.64184195658E+02  0.72787087694E+02  0.20000010094E+01 0.  0.
        -13    1    3    3    0    0 -0.34256397174E+02  0.92109247033E+00  0.90981091722E+01  0.35456112494E+02  0.10566000000E+00 0.  1.
         13    1    4    4    0    0  0.17944316199E+02 -0.67408077063E+00  0.34547633984E+02  0.38935883792E+02  0.10566000000E+00 0. -1.
        -13    1    4    4    0    0  0.10940895601E+02  0.36608636714E+00  0.19474929204E+02  0.22341021627E+02  0.10566000000E+00 0.  1.
        -14    1    4    4    0    0  0.53711853733E+01 -0.61309806683E+00  0.10161632470E+02  0.11510182275E+02  0.00000000000E+00 0.  1.
<mgrwt>
<rscale>  0 0.79663632E+02</rscale>
<asrwt>0</asrwt>
<pdfrwt beam="1">  1        2 0.13963500E-01 0.79663632E+02</pdfrwt>
<pdfrwt beam="2">  1       -1 0.26892997E-02 0.79663632E+02</pdfrwt>
<totfact> 0.17456284E+05</totfact>
</mgrwt>
</event>
<event>
 8    1  0.1600673E-013  0.7972150E+02  0.7818608E-02  0.1329844E+00
         -1   -1    0    0    0  501 -0.00000000000E+00  0.00000000000E+00  0.12028921631E+01  0.12029027216E+01  0.50400000000E-02 0.  1.
          2   -1    0    0  501    0  0.00000000000E+00 -0.00000000000E+00 -0.13208767806E+04  0.13208767806E+04  0.25500000000E-02 0. -1.
         24    2    1    2    0    0  0.00000000000E+00 -0.27755575616E-16 -0.13196738884E+04  0.13220796833E+04  0.79721497953E+02 0.  0.
         66    2    3    3    0    0  0.17040725596E+02 -0.12597047741E+00 -0.12573740396E+04  0.12574911044E+04  0.19999998258E+01 0.  0.
        -13    1    3    3    0    0 -0.17040725596E+02  0.12597047741E+00 -0.62299848769E+02  0.64588578851E+02  0.10566000000E+00 0.  1.
         13    1    4    4    0    0  0.12577518118E+02 -0.13364995831E+00 -0.86985967752E+03  0.86995062019E+03  0.10566000000E+00 0. -1.
        -13    1    4    4    0    0  0.17006266451E+01 -0.43290706575E-01 -0.17093891626E+03  0.17094741374E+03  0.10566000000E+00 0.  1.
        -14    1    4    4    0    0  0.27625808321E+01  0.50970187474E-01 -0.21657544584E+03  0.21659307050E+03  0.00000000000E+00 0.  1.
<mgrwt>
<rscale>  0 0.79721498E+02</rscale>
<asrwt>0</asrwt>
<pdfrwt beam="1">  1        2 0.20321065E+00 0.79721498E+02</pdfrwt>
<pdfrwt beam="2">  1       -1 0.18506220E-03 0.79721498E+02</pdfrwt>
<totfact> 0.34819222E+05</totfact>
</mgrwt>
</event>
<event>
 8    1  0.1600673E-013  0.7868515E+02  0.7818608E-02  0.1332825E+00
          2   -1    0    0  501    0  0.00000000000E+00  0.00000000000E+00  0.11700557802E+02  0.11700558080E+02  0.25500000000E-02 0. -1.
         -1   -1    0    0    0  501 -0.00000000000E+00 -0.00000000000E+00 -0.13228754241E+03  0.13228754251E+03  0.50400000000E-02 0.  1.
         24    2    1    2    0    0  0.35527136788E-14  0.35527136788E-14 -0.12058698461E+03  0.14398810059E+03  0.78685146334E+02 0.  0.
         66    2    3    3    0    0  0.18091745309E+02  0.19854812784E+02 -0.77937145692E+01  0.28040449600E+02  0.19999969900E+01 0.  0.
        -13    1    3    3    0    0 -0.18091745309E+02 -0.19854812784E+02 -0.11279327004E+03  0.11594765099E+03  0.10566000000E+00 0.  1.
         13    1    4    4    0    0  0.66030823746E+01  0.79979783393E+01 -0.21848036482E+01  0.10599664399E+02  0.10566000000E+00 0. -1.
        -13    1    4    4    0    0  0.45996990960E+01  0.46115769749E+01 -0.23605140654E+01  0.69287130593E+01  0.10566000000E+00 0.  1.
         14    1    4    4    0    0  0.68889638388E+01  0.72452574699E+01 -0.32483968556E+01  0.10512072142E+02  0.00000000000E+00 0. -1.
<mgrwt>
<rscale>  0 0.78685146E+02</rscale>
<asrwt>0</asrwt>
<pdfrwt beam="1">  1        2 0.18000859E-02 0.78685146E+02</pdfrwt>
<pdfrwt beam="2">  1       -1 0.20351929E-01 0.78685146E+02</pdfrwt>
<totfact> 0.11601410E+05</totfact>
</mgrwt>
</event>
<event>
 8    1  0.1600673E-013  0.8063650E+02  0.7818608E-02  0.1327255E+00
         -1   -1    0    0    0  501 -0.00000000000E+00  0.00000000000E+00  0.13225162129E+03  0.13225162139E+03  0.50400000000E-02 0.  1.
          2   -1    0    0  501    0  0.00000000000E+00 -0.00000000000E+00 -0.12291429258E+02  0.12291429523E+02  0.25500000000E-02 0. -1.
         24    2    1    2    0    0  0.00000000000E+00  0.00000000000E+00  0.11996019203E+03  0.14454305091E+03  0.80636504721E+02 0.  0.
         66    2    3    3    0    0 -0.32943934859E+02  0.13641027643E+02  0.26377710269E+02  0.44397793726E+02  0.20000023955E+01 0.  0.
        -13    1    3    3    0    0  0.32943934859E+02 -0.13641027643E+02  0.93582481762E+02  0.10014525718E+03  0.10566000000E+00 0.  1.
         13    1    4    4    0    0 -0.59003809752E+01  0.19499325256E+01  0.47678719510E+01  0.78332942932E+01  0.10566000000E+00 0.  1.
        -13    1    4    4    0    0 -0.15131069199E+02  0.64239610017E+01  0.11211033769E+02  0.19897612225E+02  0.10566000000E+00 0. -1.
        -14    1    4    4    0    0 -0.11912484685E+02  0.52671341158E+01  0.10398804549E+02  0.16666887208E+02  0.00000000000E+00 0.  1.
<mgrwt>
<rscale>  0 0.80636505E+02</rscale>
<asrwt>0</asrwt>
<pdfrwt beam="1">  1        2 0.18909891E-02 0.80636505E+02</pdfrwt>
<pdfrwt beam="2">  1       -1 0.20346403E-01 0.80636505E+02</pdfrwt>
<totfact> 0.10908216E+05</totfact>
</mgrwt>
</event>
<event>
 8    1  0.1600673E-013  0.8460767E+02  0.7818608E-02  0.1316462E+00
          2   -1    0    0  501    0  0.00000000000E+00  0.00000000000E+00  0.15514789793E+02  0.15514790002E+02  0.25500000000E-02 0. -1.
         -1   -1    0    0    0  501 -0.00000000000E+00 -0.00000000000E+00 -0.11534892959E+03  0.11534892970E+03  0.50400000000E-02 0.  1.
         24    2    1    2    0    0  0.00000000000E+00  0.00000000000E+00 -0.99834139797E+02  0.13086371970E+03  0.84607669069E+02 0.  0.
         66    2    3    3    0    0  0.31875527389E+02 -0.72755760977E+01 -0.84818555746E+01  0.33836742781E+02  0.20000085329E+01 0.  0.
        -13    1    3    3    0    0 -0.31875527389E+02  0.72755760977E+01 -0.91352284222E+02  0.97026976922E+02  0.10566000000E+00 0.  1.
         13    1    4    4    0    0  0.24666326744E+02 -0.49757703799E+01 -0.64045909476E+01  0.25965668010E+02  0.10566000000E+00 0. -1.
        -13    1    4    4    0    0  0.65392252662E+01 -0.21454851337E+01 -0.17127470378E+01  0.70929006755E+01  0.10566000000E+00 0.  1.
         14    1    4    4    0    0  0.66997537834E+00 -0.15432058413E+00 -0.36451758922E+00  0.77817409563E+00  0.00000000000E+00 0. -1.
<mgrwt>
<rscale>  0 0.84607669E+02</rscale>
<asrwt>0</asrwt>
<pdfrwt beam="1">  1        2 0.23868908E-02 0.84607669E+02</pdfrwt>
<pdfrwt beam="2">  1       -1 0.17745989E-01 0.84607669E+02</pdfrwt>
<totfact> 0.99828065E+04</totfact>
</mgrwt>
</event>
<event>
 8    1  0.1600673E-013  0.8222102E+02  0.7818608E-02  0.1322864E+00
         -1   -1    0    0    0  501 -0.00000000000E+00  0.00000000000E+00  0.98207547367E+01  0.98207560299E+01  0.50400000000E-02 0.  1.
          2   -1    0    0  501    0  0.00000000000E+00 -0.00000000000E+00 -0.17209206109E+03  0.17209206111E+03  0.25500000000E-02 0. -1.
         24    2    1    2    0    0  0.69388939039E-16  0.71054273576E-14 -0.16227130636E+03  0.18191281714E+03  0.82221020268E+02 0.  0.
         66    2    3    3    0    0 -0.63349281633E-01  0.34388048227E+02 -0.13092890078E+03  0.13538433742E+03  0.19999713048E+01 0.  0.
        -13    1    3    3    0    0  0.63349281633E-01 -0.34388048227E+02 -0.31342405580E+02  0.46528479726E+02  0.10566000000E+00 0.  1.
         13    1    4    4    0    0 -0.16836533169E+00  0.18302479841E+02 -0.69649211373E+02  0.72014116145E+02  0.10566000000E+00 0. -1.
        -13    1    4    4    0    0  0.72492072959E+00  0.91833584964E+01 -0.35087859030E+02  0.36277108467E+02  0.10566000000E+00 0.  1.
        -14    1    4    4    0    0 -0.61990467953E+00  0.69022098890E+01 -0.26191830373E+02  0.27093112805E+02  0.00000000000E+00 0.  1.
<mgrwt>
<rscale>  0 0.82221020E+02</rscale>
<asrwt>0</asrwt>
<pdfrwt beam="1">  1        2 0.26475700E-01 0.82221020E+02</pdfrwt>
<pdfrwt beam="2">  1       -1 0.15108856E-02 0.82221020E+02</pdfrwt>
<totfact> 0.19487933E+05</totfact>
</mgrwt>
</event>
<event>
 8    1  0.1600673E-013  0.6960484E+02  0.7818608E-02  0.1361442E+00
          2   -1    0    0  501    0  0.00000000000E+00  0.00000000000E+00  0.25642529623E+02  0.25642529750E+02  0.25500000000E-02 0. -1.
         -1   -1    0    0    0  501 -0.00000000000E+00 -0.00000000000E+00 -0.47234362066E+02  0.47234362335E+02  0.50400000000E-02 0.  1.
         24    2    1    2    0    0 -0.88817841970E-15 -0.17763568394E-14 -0.21591832443E+02  0.72876892085E+02  0.69604843019E+02 0.  0.
         66    2    3    3    0    0  0.50365299777E+01  0.10657322383E+02  0.23447890703E+02  0.26320120508E+02  0.20000026374E+01 0.  0.
        -13    1    3    3    0    0 -0.50365299777E+01 -0.10657322383E+02 -0.45039723146E+02  0.46556771577E+02  0.10566000000E+00 0.  1.
         13    1    4    4    0    0  0.13090541869E+01  0.36584983950E+01  0.86705626579E+01  0.95020026421E+01  0.10566000000E+00 0. -1.
        -13    1    4    4    0    0  0.30062909855E+00  0.12189353720E+01  0.17055103990E+01  0.21204035118E+01  0.10566000000E+00 0.  1.
         14    1    4    4    0    0  0.34268466922E+01  0.57798886158E+01  0.13071817646E+02  0.14697714354E+02  0.00000000000E+00 0. -1.
<mgrwt>
<rscale>  0 0.69604843E+02</rscale>
<asrwt>0</asrwt>
<pdfrwt beam="1">  1        2 0.39450046E-02 0.69604843E+02</pdfrwt>
<pdfrwt beam="2">  1       -1 0.72668250E-02 0.69604843E+02</pdfrwt>
<totfact> 0.19233797E+05</totfact>
</mgrwt>
</event>
<event>
 8    1  0.1600673E-013  0.8004900E+02  0.7818608E-02  0.1328912E+00
          2   -1    0    0  501    0  0.00000000000E+00  0.00000000000E+00  0.29857785815E+03  0.29857785816E+03  0.25500000000E-02 0. -1.
         -1   -1    0    0    0  501 -0.00000000000E+00 -0.00000000000E+00 -0.53653021339E+01  0.53653045011E+01  0.50400000000E-02 0.  1.
         24    2    1    2    0    0  0.00000000000E+00  0.00000000000E+00  0.29321255602E+03  0.30394316266E+03  0.80049004513E+02 0.  0.
         66    2    3    3    0    0  0.19266832578E+02  0.35043504933E+02  0.14352595774E+03  0.14900657259E+03  0.20000135727E+01 0.  0.
        -13    1    3    3    0    0 -0.19266832578E+02 -0.35043504933E+02  0.14968659828E+03  0.15493659008E+03  0.10566000000E+00 0.  1.
         13    1    4    4    0    0  0.65138450308E+00  0.87051187473E+00  0.45091148779E+01  0.46395445588E+01  0.10566000000E+00 0. -1.
        -13    1    4    4    0    0  0.44341122731E+01  0.90573273654E+01  0.37467963142E+02  0.38801494259E+02  0.10566000000E+00 0.  1.
         14    1    4    4    0    0  0.14181335802E+02  0.25115665693E+02  0.10154887972E+03  0.10556553377E+03  0.00000000000E+00 0. -1.
<mgrwt>
<rscale>  0 0.80049005E+02</rscale>
<asrwt>0</asrwt>
<pdfrwt beam="1">  1        2 0.45935064E-01 0.80049005E+02</pdfrwt>
<pdfrwt beam="2">  1       -1 0.82543112E-03 0.80049005E+02</pdfrwt>
<totfact> 0.25409833E+05</totfact>
</mgrwt>
</event>
<event>
 8    1  0.1600673E-013  0.7831312E+02  0.7818608E-02  0.1333908E+00
         -1   -1    0    0    0  501 -0.00000000000E+00  0.00000000000E+00  0.50161468863E+01  0.50161494183E+01  0.50400000000E-02 0.  1.
          2   -1    0    0  501    0  0.00000000000E+00 -0.00000000000E+00 -0.30566010303E+03  0.30566010304E+03  0.25500000000E-02 0. -1.
         24    2    1    2    0    0  0.17763568394E-14  0.00000000000E+00 -0.30064395614E+03  0.31067625245E+03  0.78313124546E+02 0.  0.
         66    2    3    3    0    0  0.14200946106E+02  0.16842955524E+02 -0.27871610041E+03  0.27959259047E+03  0.20000000955E+01 0.  0.
        -13    1    3    3    0    0 -0.14200946106E+02 -0.16842955524E+02 -0.21927855731E+02  0.31083661980E+02  0.10566000000E+00 0.  1.
         13    1    4    4    0    0  0.11249894632E+02  0.12855507740E+02 -0.21191784107E+03  0.21260528389E+03  0.10566000000E+00 0. -1.
        -13    1    4    4    0    0  0.48229567766E+00  0.65478737236E+00 -0.76541439365E+01  0.76979503155E+01  0.10566000000E+00 0.  1.
        -14    1    4    4    0    0  0.24687557961E+01  0.33326604114E+01 -0.59144115397E+02  0.59289356268E+02  0.00000000000E+00 0.  1.
<mgrwt>
<rscale>  0 0.78313125E+02</rscale>
<asrwt>0</asrwt>
<pdfrwt beam="1">  1        2 0.47024616E-01 0.78313125E+02</pdfrwt>
<pdfrwt beam="2">  1       -1 0.77171535E-03 0.78313125E+02</pdfrwt>
<totfact> 0.27140515E+05</totfact>
</mgrwt>
</event>
<event>
 8    1  0.1600673E-013  0.8020377E+02  0.7818608E-02  0.1328474E+00
          2   -1    0    0  501    0  0.00000000000E+00  0.00000000000E+00  0.50301110318E+03  0.50301110319E+03  0.25500000000E-02 0. -1.
         -1   -1    0    0    0  501 -0.00000000000E+00 -0.00000000000E+00 -0.31970668187E+01  0.31970707914E+01  0.50400000000E-02 0.  1.
         24    2    1    2    0    0  0.00000000000E+00  0.00000000000E+00  0.49981403636E+03  0.50620817398E+03  0.80203768355E+02 0.  0.
         66    2    3    3    0    0 -0.25779983888E+02  0.28618763995E+02  0.31992203325E+03  0.32223865159E+03  0.19999987399E+01 0.  0.
        -13    1    3    3    0    0  0.25779983888E+02 -0.28618763995E+02  0.17989200311E+03  0.18396952239E+03  0.10566000000E+00 0.  1.
         13    1    4    4    0    0 -0.42411132085E+01  0.47778892184E+01  0.51325279636E+02  0.51721472914E+02  0.10566000000E+00 0. -1.
        -13    1    4    4    0    0 -0.13783239538E+02  0.14169453148E+02  0.16148852155E+03  0.16269389924E+03  0.10566000000E+00 0.  1.
        -14    1    4    4    0    0 -0.77556311417E+01  0.96714216287E+01  0.10710823207E+03  0.10782327943E+03  0.00000000000E+00 0.  1.
<mgrwt>
<rscale>  0 0.80203768E+02</rscale>
<asrwt>0</asrwt>
<pdfrwt beam="1">  1        2 0.77386361E-01 0.80203768E+02</pdfrwt>
<pdfrwt beam="2">  1       -1 0.49185650E-03 0.80203768E+02</pdfrwt>
<totfact> 0.30307940E+05</totfact>
</mgrwt>
</event>
<event>
 8    1  0.1600673E-013  0.7627553E+02  0.7818608E-02  0.1339966E+00
         -1   -1    0    0    0  501 -0.00000000000E+00  0.00000000000E+00  0.91036785910E+01  0.91036799861E+01  0.50400000000E-02 0.  1.
          2   -1    0    0  501    0  0.00000000000E+00 -0.00000000000E+00 -0.15976937323E+03  0.15976937325E+03  0.25500000000E-02 0. -1.
         24    2    1    2    0    0  0.35527136788E-14  0.88817841970E-15 -0.15066569464E+03  0.16887305323E+03  0.76275530600E+02 0.  0.
         66    2    3    3    0    0 -0.27508261554E+02 -0.67643093117E+01 -0.13183135526E+03  0.13485535434E+03  0.20000076324E+01 0.  0.
        -13    1    3    3    0    0  0.27508261554E+02  0.67643093117E+01 -0.18834339377E+02  0.34017698893E+02  0.10566000000E+00 0.  1.
         13    1    4    4    0    0 -0.18708612961E+02 -0.44590699355E+01 -0.89699382892E+02  0.91738137973E+02  0.10566000000E+00 0. -1.
        -13    1    4    4    0    0 -0.78812168714E+01 -0.22992786746E+01 -0.36609222906E+02  0.37518617080E+02  0.10566000000E+00 0.  1.
         14    1    4    4    0    0 -0.91843172189E+00 -0.59607015207E-02 -0.55227494635E+01  0.55985992886E+01  0.00000000000E+00 0. -1.
<mgrwt>
<rscale>  0 0.76275531E+02</rscale>
<asrwt>0</asrwt>
<pdfrwt beam="1">  1        2 0.24579902E-01 0.76275531E+02</pdfrwt>
<pdfrwt beam="2">  1       -1 0.14005662E-02 0.76275531E+02</pdfrwt>
<totfact> 0.23191047E+05</totfact>
</mgrwt>
</event>
<event>
 8    1  0.1600673E-013  0.7908676E+02  0.7818608E-02  0.1331663E+00
         -1   -1    0    0    0  501 -0.00000000000E+00  0.00000000000E+00  0.22739166052E+02  0.22739166611E+02  0.50400000000E-02 0.  1.
          2   -1    0    0  501    0  0.00000000000E+00 -0.00000000000E+00 -0.68765884575E+02  0.68765884622E+02  0.25500000000E-02 0. -1.
         24    2    1    2    0    0  0.00000000000E+00  0.00000000000E+00 -0.46026718523E+02  0.91505051233E+02  0.79086759847E+02 0.  0.
         66    2    3    3    0    0  0.11724357065E+02 -0.13748881789E+02 -0.63691717693E+02  0.66235392376E+02  0.20000003816E+01 0.  0.
        -13    1    3    3    0    0 -0.11724357065E+02  0.13748881789E+02  0.17664999170E+02  0.25269658857E+02  0.10566000000E+00 0.  1.
         13    1    4    4    0    0  0.50981239769E+01 -0.61890930991E+01 -0.27676853853E+02  0.28815189479E+02  0.10566000000E+00 0. -1.
        -13    1    4    4    0    0  0.40983119643E+01 -0.46430289491E+01 -0.24714372660E+02  0.25478721686E+02  0.10566000000E+00 0.  1.
        -14    1    4    4    0    0  0.25279211236E+01 -0.29167597410E+01 -0.11300491180E+02  0.11941481211E+02  0.00000000000E+00 0.  1.
<mgrwt>
<rscale>  0 0.79086760E+02</rscale>
<asrwt>0</asrwt>
<pdfrwt beam="1">  1        2 0.10579367E-01 0.79086760E+02</pdfrwt>
<pdfrwt beam="2">  1       -1 0.34983333E-02 0.79086760E+02</pdfrwt>
<totfact> 0.16584135E+05</totfact>
</mgrwt>
</event>
<event>
 8    1  0.1600673E-013  0.7796158E+02  0.7818608E-02  0.1334938E+00
          2   -1    0    0  501    0  0.00000000000E+00  0.00000000000E+00  0.60451368797E+03  0.60451368797E+03  0.25500000000E-02 0. -1.
         -1   -1    0    0    0  501 -0.00000000000E+00 -0.00000000000E+00 -0.25135915938E+01  0.25135966466E+01  0.50400000000E-02 0.  1.
         24    2    1    2    0    0  0.00000000000E+00  0.00000000000E+00  0.60200009637E+03  0.60702728462E+03  0.77961581812E+02 0.  0.
         66    2    3    3    0    0  0.14076210575E+02 -0.11055538915E+02  0.57059826078E+03  0.57088242209E+03  0.19999992544E+01 0.  0.
        -13    1    3    3    0    0 -0.14076210575E+02  0.11055538915E+02  0.31401835592E+02  0.36144862531E+02  0.10566000000E+00 0.  1.
         13    1    4    4    0    0  0.11854556183E+01 -0.75092540402E+00  0.50169141412E+02  0.50188874345E+02  0.10566000000E+00 0. -1.
        -13    1    4    4    0    0  0.51550482110E+01 -0.38948282031E+01  0.17871278484E+03  0.17882956925E+03  0.10566000000E+00 0.  1.
         14    1    4    4    0    0  0.77357067455E+01 -0.64097853075E+01  0.34171633453E+03  0.34186397849E+03  0.00000000000E+00 0. -1.
<mgrwt>
<rscale>  0 0.77961582E+02</rscale>
<asrwt>0</asrwt>
<pdfrwt beam="1">  1        2 0.93002161E-01 0.77961582E+02</pdfrwt>
<pdfrwt beam="2">  1       -1 0.38670656E-03 0.77961582E+02</pdfrwt>
<totfact> 0.34466381E+05</totfact>
</mgrwt>
</event>
<event>
 8    1  0.1600673E-013  0.8235206E+02  0.7818608E-02  0.1322506E+00
         -1   -1    0    0    0  501 -0.00000000000E+00  0.00000000000E+00  0.38643526837E+03  0.38643526840E+03  0.50400000000E-02 0.  1.
          2   -1    0    0  501    0  0.00000000000E+00 -0.00000000000E+00 -0.43874499620E+01  0.43874507030E+01  0.25500000000E-02 0. -1.
         24    2    1    2    0    0  0.00000000000E+00 -0.35527136788E-14  0.38204781841E+03  0.39082271910E+03  0.82352062627E+02 0.  0.
         66    2    3    3    0    0  0.34462258166E+02  0.22209012354E+02  0.17430850036E+03  0.17907635457E+03  0.20000000417E+01 0.  0.
        -13    1    3    3    0    0 -0.34462258166E+02 -0.22209012354E+02  0.20773931804E+03  0.21174636453E+03  0.10566000000E+00 0.  1.
         13    1    4    4    0    0  0.29794135997E+01  0.24355141527E+01  0.16810171628E+02  0.17245337596E+02  0.10566000000E+00 0. -1.
        -13    1    4    4    0    0  0.10294141162E+02  0.64059106950E+01  0.53760434951E+02  0.55110802609E+02  0.10566000000E+00 0.  1.
        -14    1    4    4    0    0  0.21188703405E+02  0.13367587506E+02  0.10373789378E+03  0.10672021437E+03  0.00000000000E+00 0.  1.
<mgrwt>
<rscale>  0 0.82352063E+02</rscale>
<asrwt>0</asrwt>
<pdfrwt beam="1">  1        2 0.67499224E-03 0.82352063E+02</pdfrwt>
<pdfrwt beam="2">  1       -1 0.59451590E-01 0.82352063E+02</pdfrwt>
<totfact> 0.71590227E+04</totfact>
</mgrwt>
</event>
<event>
 8    1  0.1600673E-013  0.8005768E+02  0.7818608E-02  0.1328888E+00
          2   -1    0    0  501    0  0.00000000000E+00  0.00000000000E+00  0.91302281128E+02  0.91302281163E+02  0.25500000000E-02 0. -1.
         -1   -1    0    0    0  501 -0.00000000000E+00 -0.00000000000E+00 -0.17549483996E+02  0.17549484720E+02  0.50400000000E-02 0.  1.
         24    2    1    2    0    0 -0.35527136788E-14  0.35527136788E-14  0.73752797132E+02  0.10885176588E+03  0.80057678277E+02 0.  0.
         66    2    3    3    0    0  0.31237058800E+02 -0.16096535873E+02  0.62891778740E+02  0.72070993812E+02  0.20000015894E+01 0.  0.
        -13    1    3    3    0    0 -0.31237058800E+02  0.16096535873E+02  0.10861018392E+02  0.36780772071E+02  0.10566000000E+00 0.  1.
         13    1    4    4    0    0  0.20863771473E+02 -0.11034561080E+02  0.42916773402E+02  0.48978761741E+02  0.10566000000E+00 0. -1.
        -13    1    4    4    0    0  0.30042580057E+01 -0.12140692365E+01  0.48637890634E+01  0.58452663212E+01  0.10566000000E+00 0.  1.
        -14    1    4    4    0    0  0.73690293208E+01 -0.38479055568E+01  0.15111216274E+02  0.17246965750E+02  0.00000000000E+00 0.  1.
<mgrwt>
<rscale>  0 0.80057678E+02</rscale>
<asrwt>0</asrwt>
<pdfrwt beam="1">  1        2 0.14046504E-01 0.80057678E+02</pdfrwt>
<pdfrwt beam="2">  1       -1 0.26999207E-02 0.80057678E+02</pdfrwt>
<totfact> 0.17254132E+05</totfact>
</mgrwt>
</event>
<event>
 8    1  0.1600673E-013  0.7604355E+02  0.7818608E-02  0.1340670E+00
          2   -1    0    0  501    0  0.00000000000E+00  0.00000000000E+00  0.94481674721E+01  0.94481678163E+01  0.25500000000E-02 0. -1.
         -1   -1    0    0    0  501 -0.00000000000E+00 -0.00000000000E+00 -0.15300907187E+03  0.15300907195E+03  0.50400000000E-02 0.  1.
         24    2    1    2    0    0  0.00000000000E+00  0.00000000000E+00 -0.14356090439E+03  0.16245723976E+03  0.76043549902E+02 0.  0.
         66    2    3    3    0    0 -0.17305188363E+02  0.17075784292E+02 -0.94494492928E+01  0.26159970875E+02  0.20000076945E+01 0.  0.
        -13    1    3    3    0    0  0.17305188363E+02 -0.17075784292E+02 -0.13411145510E+03  0.13629726889E+03  0.10566000000E+00 0.  1.
         13    1    4    4    0    0 -0.89008326177E+01  0.93943732008E+01 -0.44371348621E+01  0.13681315688E+02  0.10566000000E+00 0. -1.
        -13    1    4    4    0    0 -0.59476851855E+01  0.59653005131E+01 -0.35089394133E+01  0.91259842822E+01  0.10566000000E+00 0.  1.
        -14    1    4    4    0    0 -0.24566705601E+01  0.17161105784E+01 -0.15033750174E+01  0.33526709056E+01  0.00000000000E+00 0.  1.
<mgrwt>
<rscale>  0 0.76043550E+02</rscale>
<asrwt>0</asrwt>
<pdfrwt beam="1">  1        2 0.14535644E-02 0.76043550E+02</pdfrwt>
<pdfrwt beam="2">  1       -1 0.23539855E-01 0.76043550E+02</pdfrwt>
<totfact> 0.12200297E+05</totfact>
</mgrwt>
</event>
<event>
 8    1  0.1600673E-013  0.7999339E+02  0.7818608E-02  0.1329070E+00
         -1   -1    0    0    0  501 -0.00000000000E+00  0.00000000000E+00  0.17834013234E+01  0.17834084451E+01  0.50400000000E-02 0.  1.
          2   -1    0    0  501    0  0.00000000000E+00 -0.00000000000E+00 -0.89701200760E+03  0.89701200761E+03  0.25500000000E-02 0. -1.
         24    2    1    2    0    0  0.00000000000E+00  0.00000000000E+00 -0.89522860628E+03  0.89879541605E+03  0.79993389817E+02 0.  0.
         66    2    3    3    0    0 -0.29606048858E+02 -0.45772851438E+01 -0.74522194433E+03  0.74582653209E+03  0.19999962636E+01 0.  0.
        -13    1    3    3    0    0  0.29606048858E+02  0.45772851438E+01 -0.15000666195E+03  0.15296888397E+03  0.10566000000E+00 0.  1.
         13    1    4    4    0    0 -0.54112670621E+01 -0.90525402963E+00 -0.13950097816E+03  0.13960886565E+03  0.10566000000E+00 0. -1.
        -13    1    4    4    0    0 -0.23144637397E+02 -0.35400425774E+01 -0.58703167075E+03  0.58749842534E+03  0.10566000000E+00 0.  1.
        -14    1    4    4    0    0 -0.10501443983E+01 -0.13198853675E+00 -0.18689295419E+02  0.18719241103E+02  0.00000000000E+00 0.  1.
<mgrwt>
<rscale>  0 0.79993390E+02</rscale>
<asrwt>0</asrwt>
<pdfrwt beam="1">  1        2 0.13800149E+00 0.79993390E+02</pdfrwt>
<pdfrwt beam="2">  1       -1 0.27437070E-03 0.79993390E+02</pdfrwt>
<totfact> 0.34941157E+05</totfact>
</mgrwt>
</event>
<event>
 8    1  0.1600673E-013  0.7639229E+02  0.7818608E-02  0.1339613E+00
         -1   -1    0    0    0  501 -0.00000000000E+00  0.00000000000E+00  0.28566880780E+01  0.28566925240E+01  0.50400000000E-02 0.  1.
          2   -1    0    0  501    0  0.00000000000E+00 -0.00000000000E+00 -0.51071181923E+03  0.51071181924E+03  0.25500000000E-02 0. -1.
         24    2    1    2    0    0  0.17763568394E-14  0.35527136788E-14 -0.50785513115E+03  0.51356851176E+03  0.76392290412E+02 0.  0.
         66    2    3    3    0    0  0.10780690376E+02  0.26697365021E+02 -0.42256920727E+03  0.42355366542E+03  0.19999949063E+01 0.  0.
        -13    1    3    3    0    0 -0.10780690376E+02 -0.26697365021E+02 -0.85285923888E+02  0.90014846339E+02  0.10566000000E+00 0.  1.
         13    1    4    4    0    0  0.34219500812E+01  0.69964437328E+01 -0.11891930678E+03  0.11917412746E+03  0.10566000000E+00 0. -1.
        -13    1    4    4    0    0  0.11427592657E+01  0.43931647222E+01 -0.66345161037E+02  0.66500356030E+02  0.10566000000E+00 0.  1.
         14    1    4    4    0    0  0.62159810289E+01  0.15307756566E+02 -0.23730473945E+03  0.23787918193E+03  0.00000000000E+00 0. -1.
<mgrwt>
<rscale>  0 0.76392290E+02</rscale>
<asrwt>0</asrwt>
<pdfrwt beam="1">  1        2 0.78570977E-01 0.76392290E+02</pdfrwt>
<pdfrwt beam="2">  1       -1 0.43949122E-03 0.76392290E+02</pdfrwt>
<totfact> 0.34563793E+05</totfact>
</mgrwt>
</event>
<event>
 8    1  0.1600673E-013  0.7983833E+02  0.7818608E-02  0.1329511E+00
         -1   -1    0    0    0  501 -0.00000000000E+00  0.00000000000E+00  0.12853672299E+01  0.12853771109E+01  0.50400000000E-02 0.  1.
          2   -1    0    0  501    0  0.00000000000E+00 -0.00000000000E+00 -0.12397498173E+04  0.12397498173E+04  0.25500000000E-02 0. -1.
         24    2    1    2    0    0  0.00000000000E+00  0.00000000000E+00 -0.12384644500E+04  0.12410351944E+04  0.79838334687E+02 0.  0.
         66    2    3    3    0    0 -0.92386620916E-01  0.10728628466E+02 -0.12168997993E+04  0.12169487391E+04  0.19999941588E+01 0.  0.
        -13    1    3    3    0    0  0.92386620916E-01 -0.10728628466E+02 -0.21564650723E+02  0.24086455299E+02  0.10566000000E+00 0.  1.
         13    1    4    4    0    0 -0.22111767275E+00  0.11060290018E+01 -0.13935013948E+03  0.13935474419E+03  0.10566000000E+00 0. -1.
        -13    1    4    4    0    0 -0.38615638922E+00  0.47877696235E+01 -0.61558813091E+03  0.61560687937E+03  0.10566000000E+00 0.  1.
        -14    1    4    4    0    0  0.51488744105E+00  0.48348298405E+01 -0.46196152894E+03  0.46198711553E+03  0.00000000000E+00 0.  1.
<mgrwt>
<rscale>  0 0.79838335E+02</rscale>
<asrwt>0</asrwt>
<pdfrwt beam="1">  1        2 0.19072979E+00 0.79838335E+02</pdfrwt>
<pdfrwt beam="2">  1       -1 0.19775056E-03 0.79838335E+02</pdfrwt>
<totfact> 0.35077748E+05</totfact>
</mgrwt>
</event>
<event>
 8    1  0.1600673E-013  0.7980640E+02  0.7818608E-02  0.1329602E+00
          2   -1    0    0  501    0  0.00000000000E+00  0.00000000000E+00  0.13522006189E+03  0.13522006192E+03  0.25500000000E-02 0. -1.
         -1   -1    0    0    0  501 -0.00000000000E+00 -0.00000000000E+00 -0.11775363938E+02  0.11775365017E+02  0.50400000000E-02 0.  1.
         24    2    1    2    0    0  0.00000000000E+00 -0.71054273576E-14  0.12344469796E+03  0.14699542694E+03  0.79806403794E+02 0.  0.
         66    2    3    3    0    0  0.78298287165E+01 -0.32395345137E+02  0.10209382192E+03  0.10741467813E+03  0.19999999714E+01 0.  0.
        -13    1    3    3    0    0 -0.78298287165E+01  0.32395345137E+02  0.21350876037E+02  0.39580748803E+02  0.10566000000E+00 0.  1.
         13    1    4    4    0    0  0.31617578048E+01 -0.12557080809E+02  0.38693180369E+02  0.40802577884E+02  0.10566000000E+00 0. -1.
        -13    1    4    4    0    0  0.35401936596E+00 -0.37323982804E+01  0.12438982294E+02  0.12992134974E+02  0.10566000000E+00 0.  1.
        -14    1    4    4    0    0  0.43140515457E+01 -0.16105866048E+02  0.50961659255E+02  0.53619965274E+02  0.00000000000E+00 0.  1.
<mgrwt>
<rscale>  0 0.79806404E+02</rscale>
<asrwt>0</asrwt>
<pdfrwt beam="1">  1        2 0.20803087E-01 0.79806404E+02</pdfrwt>
<pdfrwt beam="2">  1       -1 0.18115945E-02 0.79806404E+02</pdfrwt>
<totfact> 0.19506962E+05</totfact>
</mgrwt>
</event>
<event>
 8    1  0.1600673E-013  0.8226549E+02  0.7818608E-02  0.1322743E+00
         -1   -1    0    0    0  501 -0.00000000000E+00  0.00000000000E+00  0.29577510343E+01  0.29577553284E+01  0.50400000000E-02 0.  1.
          2   -1    0    0  501    0  0.00000000000E+00 -0.00000000000E+00 -0.57202297808E+03  0.57202297809E+03  0.25500000000E-02 0. -1.
         24    2    1    2    0    0  0.00000000000E+00  0.00000000000E+00 -0.56906522705E+03  0.57498073342E+03  0.82265491944E+02 0.  0.
         66    2    3    3    0    0 -0.11330863739E+02  0.25797167715E+02 -0.49391557111E+03  0.49472262300E+03  0.19999982331E+01 0.  0.
        -13    1    3    3    0    0  0.11330863739E+02 -0.25797167715E+02 -0.75149655939E+02  0.80258110413E+02  0.10566000000E+00 0.  1.
         13    1    4    4    0    0 -0.53915822725E+01  0.12624614691E+02 -0.24609694168E+03  0.24647954463E+03  0.10566000000E+00 0. -1.
        -13    1    4    4    0    0 -0.26120699208E+01  0.73800982752E+01 -0.13228712698E+03  0.13251861714E+03  0.10566000000E+00 0.  1.
         14    1    4    4    0    0 -0.33272115456E+01  0.57924547484E+01 -0.11553150245E+03  0.11572446123E+03  0.00000000000E+00 0. -1.
<mgrwt>
<rscale>  0 0.82265492E+02</rscale>
<asrwt>0</asrwt>
<pdfrwt beam="1">  1        2 0.88003447E-01 0.82265492E+02</pdfrwt>
<pdfrwt beam="2">  1       -1 0.45503941E-03 0.82265492E+02</pdfrwt>
<totfact> 0.29501658E+05</totfact>
</mgrwt>
</event>
<event>
 8    1  0.1600673E-013  0.8075263E+02  0.7818608E-02  0.1326929E+00
         -1   -1    0    0    0  501 -0.00000000000E+00  0.00000000000E+00  0.95411247831E+01  0.95411261143E+01  0.50400000000E-02 0.  1.
          2   -1    0    0  501    0  0.00000000000E+00 -0.00000000000E+00 -0.17086523557E+03  0.17086523559E+03  0.25500000000E-02 0. -1.
         24    2    1    2    0    0  0.00000000000E+00  0.35527136788E-14 -0.16132411079E+03  0.18040636170E+03  0.80752626099E+02 0.  0.
         66    2    3    3    0    0 -0.11701687991E+02  0.26972249598E+02 -0.14245441239E+03  0.14547058589E+03  0.19999999047E+01 0.  0.
        -13    1    3    3    0    0  0.11701687991E+02 -0.26972249598E+02 -0.18869698402E+02  0.34935775818E+02  0.10566000000E+00 0.  1.
         13    1    4    4    0    0 -0.57064483970E+01  0.10915884420E+02 -0.58416094404E+02  0.59700681197E+02  0.10566000000E+00 0.  1.
        -13    1    4    4    0    0 -0.36171653307E+01  0.10399704092E+02 -0.53919715571E+02  0.55032577820E+02  0.10566000000E+00 0. -1.
         14    1    4    4    0    0 -0.23780742629E+01  0.56566610863E+01 -0.30118602412E+02  0.30737326870E+02  0.00000000000E+00 0. -1.
<mgrwt>
<rscale>  0 0.80752626E+02</rscale>
<asrwt>0</asrwt>
<pdfrwt beam="1">  1        2 0.26286957E-01 0.80752626E+02</pdfrwt>
<pdfrwt beam="2">  1       -1 0.14678656E-02 0.80752626E+02</pdfrwt>
<totfact> 0.20392765E+05</totfact>
</mgrwt>
</event>
<event>
 8    1  0.1600673E-013  0.7951113E+02  0.7818608E-02  0.1330445E+00
          2   -1    0    0  501    0  0.00000000000E+00  0.00000000000E+00  0.11563039173E+03  0.11563039176E+03  0.25500000000E-02 0. -1.
         -1   -1    0    0    0  501 -0.00000000000E+00 -0.00000000000E+00 -0.13668593842E+02  0.13668594772E+02  0.50400000000E-02 0.  1.
         24    2    1    2    0    0 -0.35527136788E-14 -0.35527136788E-14  0.10196179789E+03  0.12929898653E+03  0.79511129342E+02 0.  0.
         66    2    3    3    0    0 -0.19012404394E+02 -0.17513886931E+02  0.10007646179E+03  0.10338039451E+03  0.20000018167E+01 0.  0.
        -13    1    3    3    0    0  0.19012404394E+02  0.17513886931E+02  0.18853360962E+01  0.25918592024E+02  0.10566000000E+00 0.  1.
         13    1    4    4    0    0 -0.14230710535E+02 -0.13862040271E+02  0.76979589034E+02  0.79501808625E+02  0.10566000000E+00 0. -1.
        -13    1    4    4    0    0 -0.15075770707E+00 -0.13988260616E+00  0.59796269892E+00  0.64110720995E+00  0.10566000000E+00 0. -1.
        -14    1    4    4    0    0 -0.46309361520E+01 -0.35119640540E+01  0.22498910060E+02  0.23237478673E+02  0.00000000000E+00 0.  1.
<mgrwt>
<rscale>  0 0.79511129E+02</rscale>
<asrwt>0</asrwt>
<pdfrwt beam="1">  1        2 0.17789291E-01 0.79511129E+02</pdfrwt>
<pdfrwt beam="2">  1       -1 0.21028607E-02 0.79511129E+02</pdfrwt>
<totfact> 0.18786487E+05</totfact>
</mgrwt>
</event>
<event>
 8    1  0.1600673E-013  0.7909337E+02  0.7818608E-02  0.1331644E+00
          2   -1    0    0  501    0  0.00000000000E+00  0.00000000000E+00  0.27712381367E+03  0.27712381368E+03  0.25500000000E-02 0. -1.
         -1   -1    0    0    0  501 -0.00000000000E+00 -0.00000000000E+00 -0.56434697502E+01  0.56434720007E+01  0.50400000000E-02 0.  1.
         24    2    1    2    0    0  0.35527136788E-14  0.35527136788E-14  0.27148034392E+03  0.28276728568E+03  0.79093367088E+02 0.  0.
         66    2    3    3    0    0 -0.22693904939E+02 -0.29366414962E+02  0.87261077074E+02  0.94846693169E+02  0.19999959996E+01 0.  0.
        -13    1    3    3    0    0  0.22693904939E+02  0.29366414962E+02  0.18421926684E+03  0.18792059251E+03  0.10566000000E+00 0.  1.
         13    1    4    4    0    0 -0.11299160128E+02 -0.14313644022E+02  0.42297264910E+02  0.46061059559E+02  0.10566000000E+00 0. -1.
        -13    1    4    4    0    0 -0.44317240009E+01 -0.48974700213E+01  0.14962409674E+02  0.16355740812E+02  0.10566000000E+00 0.  1.
         14    1    4    4    0    0 -0.69630208095E+01 -0.10155300919E+02  0.30001402490E+02  0.32429892799E+02  0.00000000000E+00 0. -1.
<mgrwt>
<rscale>  0 0.79093367E+02</rscale>
<asrwt>0</asrwt>
<pdfrwt beam="1">  1        2 0.42634420E-01 0.79093367E+02</pdfrwt>
<pdfrwt beam="2">  1       -1 0.86822655E-03 0.79093367E+02</pdfrwt>
<totfact> 0.25524189E+05</totfact>
</mgrwt>
</event>
<event>
 8    1  0.1600673E-013  0.7936626E+02  0.7818608E-02  0.1330860E+00
         -1   -1    0    0    0  501 -0.00000000000E+00  0.00000000000E+00  0.32154016891E+02  0.32154017286E+02  0.50400000000E-02 0.  1.
          2   -1    0    0  501    0  0.00000000000E+00 -0.00000000000E+00 -0.48975241929E+02  0.48975241996E+02  0.25500000000E-02 0. -1.
         24    2    1    2    0    0  0.00000000000E+00  0.71054273576E-14 -0.16821225038E+02  0.81129259282E+02  0.79366259203E+02 0.  0.
         66    2    3    3    0    0 -0.63912807824E+01  0.36750021774E+02  0.53491917301E+01  0.37736274663E+02  0.20000007199E+01 0.  0.
        -13    1    3    3    0    0  0.63912807824E+01 -0.36750021774E+02 -0.22170416768E+02  0.43392984619E+02  0.10566000000E+00 0.  1.
         13    1    4    4    0    0 -0.23807152255E+01  0.17299395838E+02  0.30049701675E+01  0.17719421861E+02  0.10566000000E+00 0. -1.
        -13    1    4    4    0    0 -0.21522596087E+01  0.12498933423E+02  0.14950043585E+01  0.12771129950E+02  0.10566000000E+00 0.  1.
        -14    1    4    4    0    0 -0.18583059483E+01  0.69516925128E+01  0.84921720412E+00  0.72457228522E+01  0.00000000000E+00 0.  1.
<mgrwt>
<rscale>  0 0.79366259E+02</rscale>
<asrwt>0</asrwt>
<pdfrwt beam="1">  1        2 0.75346526E-02 0.79366259E+02</pdfrwt>
<pdfrwt beam="2">  1       -1 0.49467719E-02 0.79366259E+02</pdfrwt>
<totfact> 0.15203721E+05</totfact>
</mgrwt>
</event>
<event>
 8    1  0.1600673E-013  0.7982964E+02  0.7818608E-02  0.1329536E+00
          2   -1    0    0  501    0  0.00000000000E+00  0.00000000000E+00  0.34768708517E+02  0.34768708610E+02  0.25500000000E-02 0. -1.
         -1   -1    0    0    0  501 -0.00000000000E+00 -0.00000000000E+00 -0.45822605776E+02  0.45822606054E+02  0.50400000000E-02 0.  1.
         24    2    1    2    0    0 -0.35527136788E-14  0.00000000000E+00 -0.11053897259E+02  0.80591314664E+02  0.79829639575E+02 0.  0.
         66    2    3    3    0    0  0.23254475232E+02 -0.41965727162E+01  0.26913522013E+02  0.35870872682E+02  0.19999997276E+01 0.  0.
        -13    1    3    3    0    0 -0.23254475232E+02  0.41965727162E+01 -0.37967419272E+02  0.44720441983E+02  0.10566000000E+00 0.  1.
         13    1    4    4    0    0  0.22237899037E+02 -0.39197219770E+01  0.25982351170E+02  0.34423569110E+02  0.10566000000E+00 0. -1.
        -13    1    4    4    0    0  0.53869306729E+00 -0.17652377320E+00  0.30218093734E+00  0.65102090423E+00  0.10566000000E+00 0.  1.
         14    1    4    4    0    0  0.47788312827E+00 -0.10032696603E+00  0.62898990544E+00  0.79628266686E+00  0.00000000000E+00 0. -1.
<mgrwt>
<rscale>  0 0.79829640E+02</rscale>
<asrwt>0</asrwt>
<pdfrwt beam="1">  1        2 0.53490321E-02 0.79829640E+02</pdfrwt>
<pdfrwt beam="2">  1       -1 0.70496317E-02 0.79829640E+02</pdfrwt>
<totfact> 0.13937978E+05</totfact>
</mgrwt>
</event>
<event>
 8    1  0.1600673E-013  0.7941817E+02  0.7818608E-02  0.1330711E+00
          2   -1    0    0  501    0  0.00000000000E+00  0.00000000000E+00  0.11620931582E+03  0.11620931585E+03  0.25500000000E-02 0. -1.
         -1   -1    0    0    0  501 -0.00000000000E+00 -0.00000000000E+00 -0.13568718222E+02  0.13568719158E+02  0.50400000000E-02 0.  1.
         24    2    1    2    0    0  0.00000000000E+00  0.00000000000E+00  0.10264059760E+03  0.12977803501E+03  0.79418172321E+02 0.  0.
         66    2    3    3    0    0 -0.10766523732E+02 -0.30026685882E+01  0.11357507701E+03  0.11414128163E+03  0.20000008133E+01 0.  0.
        -13    1    3    3    0    0  0.10766523732E+02  0.30026685882E+01 -0.10934479413E+02  0.15636753371E+02  0.10566000000E+00 0.  1.
         13    1    4    4    0    0 -0.68449592665E+01 -0.10852249228E+01  0.66181644871E+02  0.66543613235E+02  0.10566000000E+00 0. -1.
        -13    1    4    4    0    0 -0.33535013943E+00 -0.12102727516E+00  0.55465299557E+01  0.55589806532E+01  0.10566000000E+00 0.  1.
         14    1    4    4    0    0 -0.35862143262E+01 -0.17964163903E+01  0.41846902184E+02  0.42038687747E+02  0.00000000000E+00 0. -1.
<mgrwt>
<rscale>  0 0.79418172E+02</rscale>
<asrwt>0</asrwt>
<pdfrwt beam="1">  1        2 0.17878357E-01 0.79418172E+02</pdfrwt>
<pdfrwt beam="2">  1       -1 0.20874951E-02 0.79418172E+02</pdfrwt>
<totfact> 0.18872977E+05</totfact>
</mgrwt>
</event>
<event>
 8    1  0.1600673E-013  0.7812555E+02  0.7818608E-02  0.1334457E+00
         -1   -1    0    0    0  501 -0.00000000000E+00  0.00000000000E+00  0.68135195899E+02  0.68135196086E+02  0.50400000000E-02 0.  1.
          2   -1    0    0  501    0  0.00000000000E+00 -0.00000000000E+00 -0.22395186546E+02  0.22395186691E+02  0.25500000000E-02 0. -1.
         24    2    1    2    0    0 -0.35527136788E-14 -0.35527136788E-14  0.45740009353E+02  0.90530382777E+02  0.78125551198E+02 0.  0.
         66    2    3    3    0    0  0.20847905342E+02  0.28120981235E+02  0.28655003386E+01  0.35180049173E+02  0.20000062090E+01 0.  0.
        -13    1    3    3    0    0 -0.20847905342E+02 -0.28120981235E+02  0.42874509015E+02  0.55350333604E+02  0.10566000000E+00 0.  1.
         13    1    4    4    0    0  0.10896315438E+02  0.15803311741E+02  0.19330998314E+01  0.19293065882E+02  0.10566000000E+00 0. -1.
        -13    1    4    4    0    0  0.25683260174E+01  0.32920068347E+01 -0.12279685517E+00  0.41784986101E+01  0.10566000000E+00 0. -1.
         14    1    4    4    0    0  0.73832638861E+01  0.90256626591E+01  0.10551973625E+01  0.11708484681E+02  0.00000000000E+00 0. -1.
<mgrwt>
<rscale>  0 0.78125551E+02</rscale>
<asrwt>0</asrwt>
<pdfrwt beam="1">  1        2 0.34454134E-02 0.78125551E+02</pdfrwt>
<pdfrwt beam="2">  1       -1 0.10482338E-01 0.78125551E+02</pdfrwt>
<totfact> 0.13586599E+05</totfact>
</mgrwt>
</event>
<event>
 8    1  0.1600673E-013  0.7890254E+02  0.7818608E-02  0.1332195E+00
         -1   -1    0    0    0  501 -0.00000000000E+00  0.00000000000E+00  0.32625661619E+01  0.32625700547E+01  0.50400000000E-02 0.  1.
          2   -1    0    0  501    0  0.00000000000E+00 -0.00000000000E+00 -0.47704839205E+03  0.47704839206E+03  0.25500000000E-02 0. -1.
         24    2    1    2    0    0  0.00000000000E+00  0.00000000000E+00 -0.47378582589E+03  0.48031096212E+03  0.78902544395E+02 0.  0.
         66    2    3    3    0    0  0.25010435155E+02  0.14272786677E+02 -0.40097131845E+03  0.40200899557E+03  0.19999993094E+01 0.  0.
        -13    1    3    3    0    0 -0.25010435155E+02 -0.14272786677E+02 -0.72814507447E+02  0.78301966546E+02  0.10566000000E+00 0.  1.
         13    1    4    4    0    0  0.99401803573E+01  0.54662025669E+01 -0.15045950651E+03  0.15088658263E+03  0.10566000000E+00 0. -1.
        -13    1    4    4    0    0  0.12925373756E+02  0.72468665582E+01 -0.20683812812E+03  0.20736828294E+03  0.10566000000E+00 0.  1.
        -14    1    4    4    0    0  0.21448810413E+01  0.15597175514E+01 -0.43673683822E+02  0.43754130001E+02  0.00000000000E+00 0.  1.
<mgrwt>
<rscale>  0 0.78902544E+02</rscale>
<asrwt>0</asrwt>
<pdfrwt beam="1">  1        2 0.73392005E-01 0.78902544E+02</pdfrwt>
<pdfrwt beam="2">  1       -1 0.50193394E-03 0.78902544E+02</pdfrwt>
<totfact> 0.31092108E+05</totfact>
</mgrwt>
</event>
<event>
 8    1  0.1600673E-013  0.8041077E+02  0.7818608E-02  0.1327890E+00
          2   -1    0    0  501    0  0.00000000000E+00  0.00000000000E+00  0.76160532427E+03  0.76160532428E+03  0.25500000000E-02 0. -1.
         -1   -1    0    0    0  501 -0.00000000000E+00 -0.00000000000E+00 -0.21224521019E+01  0.21224580859E+01  0.50400000000E-02 0.  1.
         24    2    1    2    0    0  0.00000000000E+00  0.00000000000E+00  0.75948287217E+03  0.76372778236E+03  0.80410773109E+02 0.  0.
         66    2    3    3    0    0  0.27503690130E+02  0.16621877091E+02  0.60905427599E+03  0.60990478837E+03  0.20000006487E+01 0.  0.
        -13    1    3    3    0    0 -0.27503690130E+02 -0.16621877091E+02  0.15042859618E+03  0.15382299399E+03  0.10566000000E+00 0.  1.
         13    1    4    4    0    0  0.57477553089E+01  0.33006234312E+01  0.12571538425E+03  0.12589003062E+03  0.10566000000E+00 0. -1.
        -13    1    4    4    0    0  0.13307667305E+02  0.80595624185E+01  0.27858078352E+03  0.27901490044E+03  0.10566000000E+00 0.  1.
        -14    1    4    4    0    0  0.84482675169E+01  0.52616912416E+01  0.20475810821E+03  0.20499985731E+03  0.00000000000E+00 0.  1.
<mgrwt>
<rscale>  0 0.80410773E+02</rscale>
<asrwt>0</asrwt>
<pdfrwt beam="1">  1        2 0.11717013E+00 0.80410773E+02</pdfrwt>
<pdfrwt beam="2">  1       -1 0.32653132E-03 0.80410773E+02</pdfrwt>
<totfact> 0.33605989E+05</totfact>
</mgrwt>
</event>
<event>
 8    1  0.1600673E-013  0.7974934E+02  0.7818608E-02  0.1329764E+00
         -1   -1    0    0    0  501 -0.00000000000E+00  0.00000000000E+00  0.78774452227E+01  0.78774468350E+01  0.50400000000E-02 0.  1.
          2   -1    0    0  501    0  0.00000000000E+00 -0.00000000000E+00 -0.20184070935E+03  0.20184070937E+03  0.25500000000E-02 0. -1.
         24    2    1    2    0    0  0.35527136788E-14  0.00000000000E+00 -0.19396326413E+03  0.20971815620E+03  0.79749339869E+02 0.  0.
         66    2    3    3    0    0 -0.28688446526E+02 -0.42660722822E+01 -0.16890438732E+03  0.17138820958E+03  0.19999979936E+01 0.  0.
        -13    1    3    3    0    0  0.28688446526E+02  0.42660722822E+01 -0.25058876810E+02  0.38329946619E+02  0.10566000000E+00 0.  1.
         13    1    4    4    0    0 -0.12785090599E+02 -0.17412696824E+01 -0.70728293188E+02  0.71895710463E+02  0.10566000000E+00 0. -1.
        -13    1    4    4    0    0 -0.20270619809E+01 -0.59663341642E+00 -0.12006999364E+02  0.12191970697E+02  0.10566000000E+00 0.  1.
         14    1    4    4    0    0 -0.13876293946E+02 -0.19281691834E+01 -0.86169094768E+02  0.87300528425E+02  0.00000000000E+00 0. -1.
<mgrwt>
<rscale>  0 0.79749340E+02</rscale>
<asrwt>0</asrwt>
<pdfrwt beam="1">  1        2 0.31052413E-01 0.79749340E+02</pdfrwt>
<pdfrwt beam="2">  1       -1 0.12119149E-02 0.79749340E+02</pdfrwt>
<totfact> 0.22312852E+05</totfact>
</mgrwt>
</event>
<event>
 8    1  0.1600673E-013  0.8475243E+02  0.7818608E-02  0.1316081E+00
         -1   -1    0    0    0  501 -0.00000000000E+00  0.00000000000E+00  0.47453323563E+02  0.47453323831E+02  0.50400000000E-02 0.  1.
          2   -1    0    0  501    0  0.00000000000E+00 -0.00000000000E+00 -0.37842312909E+02  0.37842312995E+02  0.25500000000E-02 0. -1.
         24    2    1    2    0    0 -0.71054273576E-14  0.00000000000E+00  0.96110106547E+01  0.85295636826E+02  0.84752428494E+02 0.  0.
         66    2    3    3    0    0  0.28995830305E+02 -0.28620249447E+01 -0.26126255585E+02  0.39185846930E+02  0.20000017076E+01 0.  0.
        -13    1    3    3    0    0 -0.28995830305E+02  0.28620249447E+01  0.35737266240E+02  0.46109789896E+02  0.10566000000E+00 0.  1.
         13    1    4    4    0    0  0.75432650809E+01 -0.69292834849E+00 -0.57247705657E+01  0.94955336787E+01  0.10566000000E+00 0. -1.
        -13    1    4    4    0    0  0.80847006915E+01 -0.10073544931E+01 -0.74141084892E+01  0.11016229712E+02  0.10566000000E+00 0.  1.
         14    1    4    4    0    0  0.13367864533E+02 -0.11617421032E+01 -0.12987376530E+02  0.18674083539E+02  0.00000000000E+00 0. -1.
<mgrwt>
<rscale>  0 0.84752428E+02</rscale>
<asrwt>0</asrwt>
<pdfrwt beam="1">  1        2 0.58218943E-02 0.84752428E+02</pdfrwt>
<pdfrwt beam="2">  1       -1 0.73005114E-02 0.84752428E+02</pdfrwt>
<totfact> 0.12002528E+05</totfact>
</mgrwt>
</event>
<event>
 8    1  0.1600673E-013  0.7926726E+02  0.7818608E-02  0.1331144E+00
          2   -1    0    0  501    0  0.00000000000E+00  0.00000000000E+00  0.22798631031E+03  0.22798631032E+03  0.25500000000E-02 0. -1.
         -1   -1    0    0    0  501 -0.00000000000E+00 -0.00000000000E+00 -0.68899939292E+01  0.68899957726E+01  0.50400000000E-02 0.  1.
         24    2    1    2    0    0  0.71054273576E-14  0.00000000000E+00  0.22109631638E+03  0.23487630609E+03  0.79267257102E+02 0.  0.
         66    2    3    3    0    0  0.34469946379E+02  0.12324505654E+02  0.15543349236E+03  0.15969859487E+03  0.20000032136E+01 0.  0.
        -13    1    3    3    0    0 -0.34469946379E+02 -0.12324505654E+02  0.65662824018E+02  0.75177711225E+02  0.10566000000E+00 0.  1.
         13    1    4    4    0    0  0.78201214933E+01  0.24292926206E+01  0.35423672594E+02  0.36357990963E+02  0.10566000000E+00 0. -1.
        -13    1    4    4    0    0  0.18682036417E+02  0.73667645114E+01  0.87200684787E+02  0.89483285006E+02  0.10566000000E+00 0.  1.
        -14    1    4    4    0    0  0.79677884689E+01  0.25284485217E+01  0.32809134977E+02  0.33857318898E+02  0.00000000000E+00 0.  1.
<mgrwt>
<rscale>  0 0.79267257E+02</rscale>
<asrwt>0</asrwt>
<pdfrwt beam="1">  1        2 0.35074814E-01 0.79267257E+02</pdfrwt>
<pdfrwt beam="2">  1       -1 0.10599993E-02 0.79267257E+02</pdfrwt>
<totfact> 0.23662853E+05</totfact>
</mgrwt>
</event>
<event>
 8    1  0.1600673E-013  0.7794537E+02  0.7818608E-02  0.1334985E+00
          2   -1    0    0  501    0  0.00000000000E+00  0.00000000000E+00  0.27441670362E+03  0.27441670363E+03  0.25500000000E-02 0. -1.
         -1   -1    0    0    0  501 -0.00000000000E+00 -0.00000000000E+00 -0.55349023528E+01  0.55349046475E+01  0.50400000000E-02 0.  1.
         24    2    1    2    0    0  0.00000000000E+00 -0.44408920985E-15  0.26888180127E+03  0.27995160828E+03  0.77945365004E+02 0.  0.
         66    2    3    3    0    0  0.37673600785E+02  0.24666512268E+01  0.16888155420E+03  0.17306173438E+03  0.19999984630E+01 0.  0.
        -13    1    3    3    0    0 -0.37673600785E+02 -0.24666512268E+01  0.10000024707E+03  0.10688987390E+03  0.10566000000E+00 0.  1.
         13    1    4    4    0    0  0.18923999656E+02  0.11837353878E+01  0.82524684646E+02  0.84674988824E+02  0.10566000000E+00 0. -1.
        -13    1    4    4    0    0  0.14204539545E+00  0.30571649089E-01  0.10301497230E+01  0.10456978567E+01  0.10566000000E+00 0.  1.
         14    1    4    4    0    0  0.18607555733E+02  0.12523441899E+01  0.85326719831E+02  0.87341047701E+02  0.00000000000E+00 0. -1.
<mgrwt>
<rscale>  0 0.77945365E+02</rscale>
<asrwt>0</asrwt>
<pdfrwt beam="1">  1        2 0.42217960E-01 0.77945365E+02</pdfrwt>
<pdfrwt beam="2">  1       -1 0.85152350E-03 0.77945365E+02</pdfrwt>
<totfact> 0.26426968E+05</totfact>
</mgrwt>
</event>
<event>
 8    1  0.1600673E-013  0.8044168E+02  0.7818608E-02  0.1327803E+00
          2   -1    0    0  501    0  0.00000000000E+00  0.00000000000E+00  0.19841065974E+03  0.19841065976E+03  0.25500000000E-02 0. -1.
         -1   -1    0    0    0  501 -0.00000000000E+00 -0.00000000000E+00 -0.81533723417E+01  0.81533738994E+01  0.50400000000E-02 0.  1.
         24    2    1    2    0    0  0.17763568394E-14  0.44408920985E-15  0.19025728740E+03  0.20656403366E+03  0.80441684418E+02 0.  0.
         66    2    3    3    0    0  0.15292049557E+02  0.27354992229E+01  0.19038514507E+03  0.19102835706E+03  0.20000006766E+01 0.  0.
        -13    1    3    3    0    0 -0.15292049557E+02 -0.27354992229E+01 -0.12785767099E+00  0.15535676595E+02  0.10566000000E+00 0.  1.
         13    1    4    4    0    0  0.78621835863E+01  0.72220996631E+00  0.94200552201E+02  0.94530898213E+02  0.10566000000E+00 0.  1.
        -13    1    4    4    0    0  0.34838795404E+01  0.81021817603E+00  0.38733050176E+02  0.38897997507E+02  0.10566000000E+00 0. -1.
        -14    1    4    4    0    0  0.39459864299E+01  0.12030710805E+01  0.57451542694E+02  0.57599461342E+02  0.00000000000E+00 0.  1.
<mgrwt>
<rscale>  0 0.80441684E+02</rscale>
<asrwt>0</asrwt>
<pdfrwt beam="1">  1        2 0.30524712E-01 0.80441684E+02</pdfrwt>
<pdfrwt beam="2">  1       -1 0.12543653E-02 0.80441684E+02</pdfrwt>
<totfact> 0.21680164E+05</totfact>
</mgrwt>
</event>
<event>
 8    1  0.1600673E-013  0.7967651E+02  0.7818608E-02  0.1329972E+00
         -1   -1    0    0    0  501 -0.00000000000E+00  0.00000000000E+00  0.12420075373E+02  0.12420076396E+02  0.50400000000E-02 0.  1.
          2   -1    0    0  501    0  0.00000000000E+00 -0.00000000000E+00 -0.12778395398E+03  0.12778395400E+03  0.25500000000E-02 0. -1.
         24    2    1    2    0    0 -0.35527136788E-14 -0.71054273576E-14 -0.11536387861E+03  0.14020403040E+03  0.79676506283E+02 0.  0.
         66    2    3    3    0    0  0.22450553805E+02  0.32686919857E+02 -0.63969174027E+02  0.75289556523E+02  0.19999999737E+01 0.  0.
        -13    1    3    3    0    0 -0.22450553805E+02 -0.32686919857E+02 -0.51394704579E+02  0.64914473877E+02  0.10566000000E+00 0.  1.
         13    1    4    4    0    0  0.83536580001E+01  0.11491925309E+02 -0.22566224830E+02  0.26666338639E+02  0.10566000000E+00 0. -1.
        -13    1    4    4    0    0  0.12319485112E+02  0.18552018099E+02 -0.37078320604E+02  0.43252284469E+02  0.10566000000E+00 0.  1.
         14    1    4    4    0    0  0.17774106935E+01  0.26429764493E+01 -0.43246285926E+01  0.53709334150E+01  0.00000000000E+00 0. -1.
<mgrwt>
<rscale>  0 0.79676506E+02</rscale>
<asrwt>0</asrwt>
<pdfrwt beam="1">  1        2 0.19659069E-01 0.79676506E+02</pdfrwt>
<pdfrwt beam="2">  1       -1 0.19107810E-02 0.79676506E+02</pdfrwt>
<totfact> 0.19252223E+05</totfact>
</mgrwt>
</event>
<event>
 8    1  0.1600673E-013  0.7678958E+02  0.7818608E-02  0.1338417E+00
          2   -1    0    0  501    0  0.00000000000E+00  0.00000000000E+00  0.48576288060E+01  0.48576294753E+01  0.25500000000E-02 0. -1.
         -1   -1    0    0    0  501 -0.00000000000E+00 -0.00000000000E+00 -0.30347311975E+03  0.30347311979E+03  0.50400000000E-02 0.  1.
         24    2    1    2    0    0 -0.71054273576E-14  0.00000000000E+00 -0.29861549094E+03  0.30833074926E+03  0.76789579448E+02 0.  0.
         66    2    3    3    0    0  0.37323222101E+02 -0.72558895839E+01 -0.12874507834E+03  0.13425708933E+03  0.19999992315E+01 0.  0.
        -13    1    3    3    0    0 -0.37323222101E+02  0.72558895839E+01 -0.16987041260E+03  0.17407365993E+03  0.10566000000E+00 0.  1.
         13    1    4    4    0    0  0.14446011039E+02 -0.21786583800E+01 -0.51037779742E+02  0.53087662524E+02  0.10566000000E+00 0. -1.
        -13    1    4    4    0    0  0.58848764346E+01 -0.14588635292E+01 -0.21441245924E+02  0.22282240557E+02  0.10566000000E+00 0.  1.
        -14    1    4    4    0    0  0.16992334627E+02 -0.36183676748E+01 -0.56266052678E+02  0.58887186252E+02  0.00000000000E+00 0.  1.
<mgrwt>
<rscale>  0 0.76789579E+02</rscale>
<asrwt>0</asrwt>
<pdfrwt beam="1">  1        2 0.74732780E-03 0.76789579E+02</pdfrwt>
<pdfrwt beam="2">  1       -1 0.46688158E-01 0.76789579E+02</pdfrwt>
<totfact> 0.95543761E+04</totfact>
</mgrwt>
</event>
<event>
 8    1  0.1600673E-013  0.7801540E+02  0.7818608E-02  0.1334780E+00
          2   -1    0    0  501    0  0.00000000000E+00  0.00000000000E+00  0.70668223530E+03  0.70668223531E+03  0.25500000000E-02 0. -1.
         -1   -1    0    0    0  501 -0.00000000000E+00 -0.00000000000E+00 -0.21531581313E+01  0.21531640300E+01  0.50400000000E-02 0.  1.
         24    2    1    2    0    0 -0.71054273576E-14  0.00000000000E+00  0.70452907717E+03  0.70883539934E+03  0.78015400875E+02 0.  0.
         66    2    3    3    0    0 -0.35260991082E+02  0.65458879723E+01  0.49130657788E+03  0.49261784337E+03  0.19999985886E+01 0.  0.
        -13    1    3    3    0    0  0.35260991082E+02 -0.65458879723E+01  0.21322249929E+03  0.21621755597E+03  0.10566000000E+00 0.  1.
         13    1    4    4    0    0 -0.53963300024E+01  0.10006393652E+01  0.77346158337E+02  0.77540705634E+02  0.10566000000E+00 0. -1.
        -13    1    4    4    0    0 -0.10130104613E+02  0.15371778291E+01  0.15021195409E+03  0.15056103165E+03  0.10566000000E+00 0.  1.
         14    1    4    4    0    0 -0.19734556467E+02  0.40080707780E+01  0.26374846546E+03  0.26451610609E+03  0.00000000000E+00 0. -1.
<mgrwt>
<rscale>  0 0.78015401E+02</rscale>
<asrwt>0</asrwt>
<pdfrwt beam="1">  1        2 0.10872043E+00 0.78015401E+02</pdfrwt>
<pdfrwt beam="2">  1       -1 0.33125529E-03 0.78015401E+02</pdfrwt>
<totfact> 0.35783078E+05</totfact>
</mgrwt>
</event>
<event>
 8    1  0.1600673E-013  0.7977220E+02  0.7818608E-02  0.1329699E+00
          2   -1    0    0  501    0  0.00000000000E+00  0.00000000000E+00  0.16674597778E+03  0.16674597780E+03  0.25500000000E-02 0. -1.
         -1   -1    0    0    0  501 -0.00000000000E+00 -0.00000000000E+00 -0.95408657227E+01  0.95408670539E+01  0.50400000000E-02 0.  1.
         24    2    1    2    0    0  0.00000000000E+00  0.00000000000E+00  0.15720511206E+03  0.17628684485E+03  0.79772203250E+02 0.  0.
         66    2    3    3    0    0  0.18150853088E+02  0.25847512927E+02  0.13239089747E+03  0.13612089158E+03  0.20000001280E+01 0.  0.
        -13    1    3    3    0    0 -0.18150853088E+02 -0.25847512927E+02  0.24814214585E+02  0.40165953267E+02  0.10566000000E+00 0.  1.
         13    1    4    4    0    0  0.18936321339E+00  0.21975859060E+00  0.17124264681E+01  0.17400346861E+01  0.10566000000E+00 0.  1.
        -13    1    4    4    0    0  0.52616029289E+01  0.70540488873E+01  0.34363565391E+02  0.35472663580E+02  0.10566000000E+00 0.  1.
         14    1    4    4    0    0  0.12699886946E+02  0.18573705449E+02  0.96314905611E+02  0.98908193318E+02  0.00000000000E+00 0. -1.
<mgrwt>
<rscale>  0 0.79772203E+02</rscale>
<asrwt>0</asrwt>
<pdfrwt beam="1">  1        2 0.25653228E-01 0.79772203E+02</pdfrwt>
<pdfrwt beam="2">  1       -1 0.14678256E-02 0.79772203E+02</pdfrwt>
<totfact> 0.20892700E+05</totfact>
</mgrwt>
</event>
<event>
 8    1  0.1600673E-013  0.7998704E+02  0.7818608E-02  0.1329088E+00
         -1   -1    0    0    0  501 -0.00000000000E+00  0.00000000000E+00  0.11751384670E+03  0.11751384681E+03  0.50400000000E-02 0.  1.
          2   -1    0    0  501    0  0.00000000000E+00 -0.00000000000E+00 -0.13611006583E+02  0.13611006822E+02  0.25500000000E-02 0. -1.
         24    2    1    2    0    0  0.35527136788E-14 -0.17763568394E-14  0.10390284012E+03  0.13112485363E+03  0.79987043046E+02 0.  0.
         66    2    3    3    0    0  0.30721571648E+02  0.14856402924E+02  0.17873645283E+02  0.38574536504E+02  0.19999996191E+01 0.  0.
        -13    1    3    3    0    0 -0.30721571648E+02 -0.14856402924E+02  0.86029194836E+02  0.92550317128E+02  0.10566000000E+00 0.  1.
         13    1    4    4    0    0  0.26105261829E+01  0.15954910358E+01  0.13253717559E+01  0.33358976189E+01  0.10566000000E+00 0. -1.
        -13    1    4    4    0    0  0.13845113064E+01  0.87125636934E+00  0.64658706486E+00  0.17621572253E+01  0.10566000000E+00 0.  1.
        -14    1    4    4    0    0  0.26726534158E+02  0.12389655519E+02  0.15901686463E+02  0.33476481660E+02  0.00000000000E+00 0.  1.
<mgrwt>
<rscale>  0 0.79987043E+02</rscale>
<asrwt>0</asrwt>
<pdfrwt beam="1">  1        2 0.20940011E-02 0.79987043E+02</pdfrwt>
<pdfrwt beam="2">  1       -1 0.18079053E-01 0.79987043E+02</pdfrwt>
<totfact> 0.11443586E+05</totfact>
</mgrwt>
</event>
<event>
 8    1  0.1600673E-013  0.7851957E+02  0.7818608E-02  0.1333306E+00
          2   -1    0    0  501    0  0.00000000000E+00  0.00000000000E+00  0.18827718870E+02  0.18827719043E+02  0.25500000000E-02 0. -1.
         -1   -1    0    0    0  501 -0.00000000000E+00 -0.00000000000E+00 -0.81864977348E+02  0.81864977503E+02  0.50400000000E-02 0.  1.
         24    2    1    2    0    0  0.00000000000E+00  0.00000000000E+00 -0.63037258477E+02  0.10069269655E+03  0.78519571964E+02 0.  0.
         66    2    3    3    0    0  0.25863096338E+02 -0.97675150660E+01  0.41617005700E+01  0.28028982329E+02  0.19999989992E+01 0.  0.
        -13    1    3    3    0    0 -0.25863096338E+02  0.97675150660E+01 -0.67198959047E+02  0.72663714217E+02  0.10566000000E+00 0.  1.
         13    1    4    4    0    0  0.18028064527E+02 -0.58453073867E+01  0.29647473818E+01  0.19182794898E+02  0.10566000000E+00 0. -1.
        -13    1    4    4    0    0  0.18340124921E+01 -0.89683387770E+00  0.29256901016E+00  0.20651085896E+01  0.10566000000E+00 0. -1.
         14    1    4    4    0    0  0.60010193187E+01 -0.30253738016E+01  0.90438417809E+00  0.67810788408E+01  0.00000000000E+00 0. -1.
<mgrwt>
<rscale>  0 0.78519572E+02</rscale>
<asrwt>0</asrwt>
<pdfrwt beam="1">  1        2 0.28965722E-02 0.78519572E+02</pdfrwt>
<pdfrwt beam="2">  1       -1 0.12594612E-01 0.78519572E+02</pdfrwt>
<totfact> 0.12941549E+05</totfact>
</mgrwt>
</event>
<event>
 8    1  0.1600673E-013  0.8298358E+02  0.7818608E-02  0.1320792E+00
         -1   -1    0    0    0  501 -0.00000000000E+00  0.00000000000E+00  0.21752892269E+03  0.21752892275E+03  0.50400000000E-02 0.  1.
          2   -1    0    0  501    0  0.00000000000E+00 -0.00000000000E+00 -0.79142046481E+01  0.79142050589E+01  0.25500000000E-02 0. -1.
         24    2    1    2    0    0 -0.88817841970E-15  0.35527136788E-14  0.20961471804E+03  0.22544312781E+03  0.82983575820E+02 0.  0.
         66    2    3    3    0    0 -0.73974139569E+01  0.30016213401E+02  0.29782892386E+02  0.42973427629E+02  0.20000007869E+01 0.  0.
        -13    1    3    3    0    0  0.73974139569E+01 -0.30016213401E+02  0.17983182566E+03  0.18246970018E+03  0.10566000000E+00 0.  1.
         13    1    4    4    0    0 -0.89678676789E+00  0.22991638453E+01  0.25308188445E+01  0.35364656019E+01  0.10566000000E+00 0. -1.
        -13    1    4    4    0    0 -0.37993663502E+01  0.19083469866E+02  0.18792401082E+02  0.27051423423E+02  0.10566000000E+00 0.  1.
         14    1    4    4    0    0 -0.27012608388E+01  0.86335796901E+01  0.84596724597E+01  0.12385538604E+02  0.00000000000E+00 0. -1.
<mgrwt>
<rscale>  0 0.82983576E+02</rscale>
<asrwt>0</asrwt>
<pdfrwt beam="1">  1        2 0.12175702E-02 0.82983576E+02</pdfrwt>
<pdfrwt beam="2">  1       -1 0.33465983E-01 0.82983576E+02</pdfrwt>
<totfact> 0.88379179E+04</totfact>
</mgrwt>
</event>
<event>
 8    1  0.1600673E-013  0.8044107E+02  0.7818608E-02  0.1327804E+00
          2   -1    0    0  501    0  0.00000000000E+00  0.00000000000E+00  0.24505896569E+03  0.24505896570E+03  0.25500000000E-02 0. -1.
         -1   -1    0    0    0  501 -0.00000000000E+00 -0.00000000000E+00 -0.66012326131E+01  0.66012345371E+01  0.50400000000E-02 0.  1.
         24    2    1    2    0    0  0.00000000000E+00  0.00000000000E+00  0.23845773308E+03  0.25166020024E+03  0.80441071107E+02 0.  0.
         66    2    3    3    0    0 -0.40095235373E+02  0.27080161957E+01  0.12196667100E+03  0.12843220034E+03  0.19999995569E+01 0.  0.
        -13    1    3    3    0    0  0.40095235373E+02 -0.27080161957E+01  0.11649106208E+03  0.12322799990E+03  0.10566000000E+00 0.  1.
         13    1    4    4    0    0 -0.29013917717E+02  0.18306987708E+01  0.89556572676E+02  0.94157048344E+02  0.10566000000E+00 0. -1.
        -13    1    4    4    0    0 -0.40886189214E+01  0.55725243092E-01  0.10911250355E+02  0.11652744670E+02  0.10566000000E+00 0.  1.
        -14    1    4    4    0    0 -0.69926987353E+01  0.82159218175E+00  0.21498847967E+02  0.22622407326E+02  0.00000000000E+00 0.  1.
<mgrwt>
<rscale>  0 0.80441071E+02</rscale>
<asrwt>0</asrwt>
<pdfrwt beam="1">  1        2 0.37701383E-01 0.80441071E+02</pdfrwt>
<pdfrwt beam="2">  1       -1 0.10155743E-02 0.80441071E+02</pdfrwt>
<totfact> 0.23358173E+05</totfact>
</mgrwt>
</event>
<event>
 8    1  0.1600673E-013  0.8256951E+02  0.7818608E-02  0.1321914E+00
          2   -1    0    0  501    0  0.00000000000E+00  0.00000000000E+00  0.53890642288E+01  0.53890648321E+01  0.25500000000E-02 0. -1.
         -1   -1    0    0    0  501 -0.00000000000E+00 -0.00000000000E+00 -0.31627582969E+03  0.31627582973E+03  0.50400000000E-02 0.  1.
         24    2    1    2    0    0 -0.71054273576E-14  0.00000000000E+00 -0.31088676546E+03  0.32166489456E+03  0.82569506810E+02 0.  0.
         66    2    3    3    0    0  0.38722433319E+02  0.27143507942E+01 -0.10104603818E+03  0.10826401234E+03  0.19999985387E+01 0.  0.
        -13    1    3    3    0    0 -0.38722433319E+02 -0.27143507942E+01 -0.20984072728E+03  0.21340088222E+03  0.10566000000E+00 0.  1.
         13    1    4    4    0    0  0.16868417637E+02  0.71502317480E+00 -0.42293939034E+02  0.45539468758E+02  0.10566000000E+00 0. -1.
        -13    1    4    4    0    0  0.13309171777E+02  0.16930906263E+01 -0.35815989638E+02  0.38246527778E+02  0.10566000000E+00 0.  1.
         14    1    4    4    0    0  0.85448439055E+01  0.30623699310E+00 -0.22936109510E+02  0.24478015808E+02  0.00000000000E+00 0. -1.
<mgrwt>
<rscale>  0 0.82569507E+02</rscale>
<asrwt>0</asrwt>
<pdfrwt beam="1">  1        2 0.82908710E-03 0.82569507E+02</pdfrwt>
<pdfrwt beam="2">  1       -1 0.48657805E-01 0.82569507E+02</pdfrwt>
<totfact> 0.77969223E+04</totfact>
</mgrwt>
</event>
<event>
 8    1  0.1600673E-013  0.7910859E+02  0.7818608E-02  0.1331600E+00
          2   -1    0    0  501    0  0.00000000000E+00  0.00000000000E+00  0.22269377256E+03  0.22269377258E+03  0.25500000000E-02 0. -1.
         -1   -1    0    0    0  501 -0.00000000000E+00 -0.00000000000E+00 -0.70255306025E+01  0.70255324103E+01  0.50400000000E-02 0.  1.
         24    2    1    2    0    0  0.00000000000E+00 -0.17763568394E-14  0.21566824196E+03  0.22971930499E+03  0.79108586726E+02 0.  0.
         66    2    3    3    0    0  0.26321384782E+02 -0.13311080905E+02  0.18432079837E+03  0.18667661042E+03  0.19999989273E+01 0.  0.
        -13    1    3    3    0    0 -0.26321384782E+02  0.13311080905E+02  0.31347443590E+02  0.43042694564E+02  0.10566000000E+00 0.  1.
         13    1    4    4    0    0  0.27096724856E+01 -0.99057359930E+00  0.18703183658E+02  0.18924687686E+02  0.10566000000E+00 0. -1.
        -13    1    4    4    0    0  0.18731824189E+02 -0.97410019018E+01  0.13491653465E+03  0.13655859856E+03  0.10566000000E+00 0.  1.
        -14    1    4    4    0    0  0.48798881074E+01 -0.25795054036E+01  0.30701080065E+02  0.31193324177E+02  0.00000000000E+00 0.  1.
<mgrwt>
<rscale>  0 0.79108587E+02</rscale>
<asrwt>0</asrwt>
<pdfrwt beam="1">  1        2 0.34260576E-01 0.79108587E+02</pdfrwt>
<pdfrwt beam="2">  1       -1 0.10808512E-02 0.79108587E+02</pdfrwt>
<totfact> 0.23591146E+05</totfact>
</mgrwt>
</event>
<event>
 8    1  0.1600673E-013  0.8015554E+02  0.7818608E-02  0.1328611E+00
         -1   -1    0    0    0  501 -0.00000000000E+00  0.00000000000E+00  0.18430271916E+02  0.18430272605E+02  0.50400000000E-02 0.  1.
          2   -1    0    0  501    0  0.00000000000E+00 -0.00000000000E+00 -0.87151599147E+02  0.87151599184E+02  0.25500000000E-02 0. -1.
         24    2    1    2    0    0 -0.17763568394E-14  0.00000000000E+00 -0.68721327231E+02  0.10558187179E+03  0.80155541506E+02 0.  0.
         66    2    3    3    0    0 -0.12511664824E+02 -0.36877779205E+02 -0.46718194054E+02  0.60853118292E+02  0.19999986109E+01 0.  0.
        -13    1    3    3    0    0  0.12511664824E+02  0.36877779205E+02 -0.22003133176E+02  0.44728753497E+02  0.10566000000E+00 0.  1.
         13    1    4    4    0    0 -0.73526707095E+01 -0.19490581471E+02 -0.25421229473E+02  0.32866314132E+02  0.10566000000E+00 0. -1.
        -13    1    4    4    0    0 -0.46365051115E+01 -0.15255535170E+02 -0.18297365272E+02  0.24270007683E+02  0.10566000000E+00 0.  1.
         14    1    4    4    0    0 -0.52248900276E+00 -0.21316625638E+01 -0.29995993087E+01  0.37167964777E+01  0.00000000000E+00 0. -1.
<mgrwt>
<rscale>  0 0.80155542E+02</rscale>
<asrwt>0</asrwt>
<pdfrwt beam="1">  1        2 0.13407938E-01 0.80155542E+02</pdfrwt>
<pdfrwt beam="2">  1       -1 0.28354266E-02 0.80155542E+02</pdfrwt>
<totfact> 0.16984363E+05</totfact>
</mgrwt>
</event>
<event>
 8    1  0.1600673E-013  0.8081499E+02  0.7818608E-02  0.1326754E+00
          2   -1    0    0  501    0  0.00000000000E+00  0.00000000000E+00  0.48621140446E+02  0.48621140512E+02  0.25500000000E-02 0. -1.
         -1   -1    0    0    0  501 -0.00000000000E+00 -0.00000000000E+00 -0.33581394269E+02  0.33581394648E+02  0.50400000000E-02 0.  1.
         24    2    1    2    0    0  0.00000000000E+00  0.00000000000E+00  0.15039746176E+02  0.82202535160E+02  0.80814991318E+02 0.  0.
         66    2    3    3    0    0  0.19206443584E+02 -0.17845434012E+02  0.38766865328E+02  0.46842468171E+02  0.19999966917E+01 0.  0.
        -13    1    3    3    0    0 -0.19206443584E+02  0.17845434012E+02 -0.23727119151E+02  0.35360066989E+02  0.10566000000E+00 0.  1.
         13    1    4    4    0    0  0.64274392300E+01 -0.61657229266E+01  0.14577098022E+02  0.17083063691E+02  0.10566000000E+00 0. -1.
        -13    1    4    4    0    0  0.75613868134E+01 -0.69572239509E+01  0.13628559462E+02  0.17068284409E+02  0.10566000000E+00 0.  1.
        -14    1    4    4    0    0  0.52176175408E+01 -0.47224871343E+01  0.10561207843E+02  0.12691120071E+02  0.00000000000E+00 0.  1.
<mgrwt>
<rscale>  0 0.80814991E+02</rscale>
<asrwt>0</asrwt>
<pdfrwt beam="1">  1        2 0.74801755E-02 0.80814991E+02</pdfrwt>
<pdfrwt beam="2">  1       -1 0.51663684E-02 0.80814991E+02</pdfrwt>
<totfact> 0.14445253E+05</totfact>
</mgrwt>
</event>
<event>
 8    1  0.1600673E-013  0.7918594E+02  0.7818608E-02  0.1331378E+00
         -1   -1    0    0    0  501 -0.00000000000E+00  0.00000000000E+00  0.47667693867E+02  0.47667694133E+02  0.50400000000E-02 0.  1.
          2   -1    0    0  501    0  0.00000000000E+00 -0.00000000000E+00 -0.32886068864E+02  0.32886068962E+02  0.25500000000E-02 0. -1.
         24    2    1    2    0    0  0.88817841970E-15 -0.17763568394E-14  0.14781625003E+02  0.80553763096E+02  0.79185935059E+02 0.  0.
         66    2    3    3    0    0 -0.67184722827E+01  0.82866875856E+01 -0.31365028428E+02  0.33189938843E+02  0.19999927949E+01 0.  0.
        -13    1    3    3    0    0  0.67184722827E+01 -0.82866875856E+01  0.46146653431E+02  0.47363824253E+02  0.10566000000E+00 0.  1.
         13    1    4    4    0    0 -0.26723137809E+01  0.42543971955E+01 -0.13461933554E+02  0.14369271919E+02  0.10566000000E+00 0. -1.
        -13    1    4    4    0    0 -0.18904700426E+01  0.25522960866E+01 -0.10422866166E+02  0.10896577236E+02  0.10566000000E+00 0.  1.
        -14    1    4    4    0    0 -0.21556884593E+01  0.14799943035E+01 -0.74802287074E+01  0.79240896883E+01  0.00000000000E+00 0.  1.
<mgrwt>
<rscale>  0 0.79185935E+02</rscale>
<asrwt>0</asrwt>
<pdfrwt beam="1">  1        2 0.50593952E-02 0.79185935E+02</pdfrwt>
<pdfrwt beam="2">  1       -1 0.73334914E-02 0.79185935E+02</pdfrwt>
<totfact> 0.14098630E+05</totfact>
</mgrwt>
</event>
<event>
 8    1  0.1600673E-013  0.7992784E+02  0.7818608E-02  0.1329256E+00
          2   -1    0    0  501    0  0.00000000000E+00  0.00000000000E+00  0.39367769539E+02  0.39367769622E+02  0.25500000000E-02 0. -1.
         -1   -1    0    0    0  501 -0.00000000000E+00 -0.00000000000E+00 -0.40569093944E+02  0.40569094257E+02  0.50400000000E-02 0.  1.
         24    2    1    2    0    0  0.17763568394E-14  0.71054273576E-14 -0.12013244046E+01  0.79936863878E+02  0.79927836368E+02 0.  0.
         66    2    3    3    0    0  0.10468824874E+02  0.35966985005E+02  0.13252945647E+02  0.39785184071E+02  0.19999996744E+01 0.  0.
        -13    1    3    3    0    0 -0.10468824874E+02 -0.35966985005E+02 -0.14454270051E+02  0.40151679807E+02  0.10566000000E+00 0.  1.
         13    1    4    4    0    0  0.14351621736E+01  0.68800467473E+01  0.28068731476E+01  0.75686481363E+01  0.10566000000E+00 0. -1.
        -13    1    4    4    0    0  0.44882318570E+01  0.12695630824E+02  0.45878194861E+01  0.14226121007E+02  0.10566000000E+00 0. -1.
        -14    1    4    4    0    0  0.45454308431E+01  0.16391307433E+02  0.58582530129E+01  0.17990414928E+02  0.00000000000E+00 0.  1.
<mgrwt>
<rscale>  0 0.79927836E+02</rscale>
<asrwt>0</asrwt>
<pdfrwt beam="1">  1        2 0.60565799E-02 0.79927836E+02</pdfrwt>
<pdfrwt beam="2">  1       -1 0.62413991E-02 0.79927836E+02</pdfrwt>
<totfact> 0.14244224E+05</totfact>
</mgrwt>
</event>
<event>
 8    1  0.1600673E-013  0.7916460E+02  0.7818608E-02  0.1331439E+00
          2   -1    0    0  501    0  0.00000000000E+00  0.00000000000E+00  0.28756108527E+03  0.28756108528E+03  0.25500000000E-02 0. -1.
         -1   -1    0    0    0  501 -0.00000000000E+00 -0.00000000000E+00 -0.54484360018E+01  0.54484383329E+01  0.50400000000E-02 0.  1.
         24    2    1    2    0    0  0.00000000000E+00  0.00000000000E+00  0.28211264927E+03  0.29300952361E+03  0.79164601000E+02 0.  0.
         66    2    3    3    0    0  0.25167396737E+01 -0.30432600480E+02  0.23421492250E+03  0.23620564572E+03  0.19999990820E+01 0.  0.
        -13    1    3    3    0    0 -0.25167396737E+01  0.30432600480E+02  0.47897726767E+02  0.56803877896E+02  0.10566000000E+00 0.  1.
         13    1    4    4    0    0  0.20083014158E+01 -0.20392102463E+02  0.15240217650E+03  0.15377355326E+03  0.10566000000E+00 0. -1.
        -13    1    4    4    0    0  0.10536642842E+00 -0.35129520477E+00  0.37186853205E+01  0.37382208273E+01  0.10566000000E+00 0.  1.
         14    1    4    4    0    0  0.40307182953E+00 -0.96892028118E+01  0.78094060681E+02  0.78693871627E+02  0.00000000000E+00 0. -1.
<mgrwt>
<rscale>  0 0.79164601E+02</rscale>
<asrwt>0</asrwt>
<pdfrwt beam="1">  1        2 0.44240174E-01 0.79164601E+02</pdfrwt>
<pdfrwt beam="2">  1       -1 0.83822098E-03 0.79164601E+02</pdfrwt>
<totfact> 0.25807024E+05</totfact>
</mgrwt>
</event>
<event>
 8    1  0.1600673E-013  0.7950872E+02  0.7818608E-02  0.1330451E+00
          2   -1    0    0  501    0  0.00000000000E+00  0.00000000000E+00  0.11657058073E+03  0.11657058076E+03  0.25500000000E-02 0. -1.
         -1   -1    0    0    0  501 -0.00000000000E+00 -0.00000000000E+00 -0.13557528118E+02  0.13557529055E+02  0.50400000000E-02 0.  1.
         24    2    1    2    0    0  0.71054273576E-14  0.00000000000E+00  0.10301305262E+03  0.13012810982E+03  0.79508716222E+02 0.  0.
         66    2    3    3    0    0 -0.37861858361E+02 -0.11402080270E+02  0.57851557366E+02  0.70102285622E+02  0.20000016770E+01 0.  0.
        -13    1    3    3    0    0  0.37861858361E+02  0.11402080270E+02  0.45161495249E+02  0.60025824195E+02  0.10566000000E+00 0.  1.
         13    1    4    4    0    0 -0.31877100927E+01 -0.52423287387E+00  0.42400128802E+01  0.53315278299E+01  0.10566000000E+00 0.  1.
        -13    1    4    4    0    0 -0.18198090380E+02 -0.54810823720E+01  0.28452030691E+02  0.34216106908E+02  0.10566000000E+00 0. -1.
        -14    1    4    4    0    0 -0.16476057889E+02 -0.53967650244E+01  0.25159513795E+02  0.30554650884E+02  0.00000000000E+00 0.  1.
<mgrwt>
<rscale>  0 0.79508716E+02</rscale>
<asrwt>0</asrwt>
<pdfrwt beam="1">  1        2 0.17933936E-01 0.79508716E+02</pdfrwt>
<pdfrwt beam="2">  1       -1 0.20857736E-02 0.79508716E+02</pdfrwt>
<totfact> 0.18832979E+05</totfact>
</mgrwt>
</event>
<event>
 8    1  0.1600673E-013  0.8116977E+02  0.7818608E-02  0.1325764E+00
          2   -1    0    0  501    0  0.00000000000E+00  0.00000000000E+00  0.20412390813E+03  0.20412390815E+03  0.25500000000E-02 0. -1.
         -1   -1    0    0    0  501 -0.00000000000E+00 -0.00000000000E+00 -0.80692796671E+01  0.80692812411E+01  0.50400000000E-02 0.  1.
         24    2    1    2    0    0  0.00000000000E+00  0.00000000000E+00  0.19605462846E+03  0.21219318939E+03  0.81169774427E+02 0.  0.
         66    2    3    3    0    0 -0.30784804308E+02  0.19790840617E+02  0.14379736297E+03  0.14839495658E+03  0.19999981093E+01 0.  0.
        -13    1    3    3    0    0  0.30784804308E+02 -0.19790840617E+02  0.52257265494E+02  0.63798232809E+02  0.10566000000E+00 0.  1.
         13    1    4    4    0    0 -0.15124420961E+02  0.10300317629E+02  0.73193624718E+02  0.75446421493E+02  0.10566000000E+00 0. -1.
        -13    1    4    4    0    0 -0.10308214771E+01  0.77713351090E+00  0.60201605907E+01  0.61579239184E+01  0.10566000000E+00 0. -1.
         14    1    4    4    0    0 -0.14629561870E+02  0.87133894778E+01  0.64583577661E+02  0.66790611168E+02  0.00000000000E+00 0. -1.
<mgrwt>
<rscale>  0 0.81169774E+02</rscale>
<asrwt>0</asrwt>
<pdfrwt beam="1">  1        2 0.31403678E-01 0.81169774E+02</pdfrwt>
<pdfrwt beam="2">  1       -1 0.12414278E-02 0.81169774E+02</pdfrwt>
<totfact> 0.21380582E+05</totfact>
</mgrwt>
</event>
<event>
 8    1  0.1600673E-013  0.7970681E+02  0.7818608E-02  0.1329886E+00
         -1   -1    0    0    0  501 -0.00000000000E+00  0.00000000000E+00  0.18164021758E+01  0.18164091681E+01  0.50400000000E-02 0.  1.
          2   -1    0    0  501    0  0.00000000000E+00 -0.00000000000E+00 -0.87441572539E+03  0.87441572540E+03  0.25500000000E-02 0. -1.
         24    2    1    2    0    0  0.00000000000E+00  0.00000000000E+00 -0.87259932322E+03  0.87623213457E+03  0.79706805010E+02 0.  0.
         66    2    3    3    0    0 -0.21885217718E+02  0.54484984549E+01 -0.79745174834E+03  0.79777311301E+03  0.20000037283E+01 0.  0.
        -13    1    3    3    0    0  0.21885217718E+02 -0.54484984549E+01 -0.75147574874E+02  0.78459021555E+02  0.10566000000E+00 0.  1.
         13    1    4    4    0    0 -0.11398830031E+02  0.29824698517E+01 -0.43066077220E+03  0.43082193576E+03  0.10566000000E+00 0. -1.
        -13    1    4    4    0    0 -0.94730156612E+01  0.18398127429E+01 -0.32622116566E+03  0.32636388131E+03  0.10566000000E+00 0.  1.
        -14    1    4    4    0    0 -0.10133720256E+01  0.62621586031E+00 -0.40569810480E+02  0.40587295938E+02  0.00000000000E+00 0.  1.
<mgrwt>
<rscale>  0 0.79706805E+02</rscale>
<asrwt>0</asrwt>
<pdfrwt beam="1">  1        2 0.13452516E+00 0.79706805E+02</pdfrwt>
<pdfrwt beam="2">  1       -1 0.27944773E-03 0.79706805E+02</pdfrwt>
<totfact> 0.35161092E+05</totfact>
</mgrwt>
</event>
<event>
 8    1  0.1600673E-013  0.7787578E+02  0.7818608E-02  0.1335190E+00
          2   -1    0    0  501    0  0.00000000000E+00  0.00000000000E+00  0.42106660657E+03  0.42106660658E+03  0.25500000000E-02 0. -1.
         -1   -1    0    0    0  501 -0.00000000000E+00 -0.00000000000E+00 -0.36007566951E+01  0.36007602223E+01  0.50400000000E-02 0.  1.
         24    2    1    2    0    0 -0.35527136788E-14 -0.35527136788E-14  0.41746584988E+03  0.42466736680E+03  0.77875776806E+02 0.  0.
         66    2    3    3    0    0 -0.24875173133E+02 -0.22786478679E+02  0.31463247183E+03  0.31644208023E+03  0.19999904382E+01 0.  0.
        -13    1    3    3    0    0  0.24875173133E+02  0.22786478679E+02  0.10283337805E+03  0.10822528658E+03  0.10566000000E+00 0.  1.
         13    1    4    4    0    0 -0.46755123221E+01 -0.50595879711E+01  0.65344717642E+02  0.65706948899E+02  0.10566000000E+00 0.  1.
        -13    1    4    4    0    0 -0.50219887027E+01 -0.50999760276E+01  0.66941327977E+02  0.67322972909E+02  0.10566000000E+00 0. -1.
        -14    1    4    4    0    0 -0.15177672108E+02 -0.12626914681E+02  0.18234642621E+03  0.18341215842E+03  0.00000000000E+00 0.  1.
<mgrwt>
<rscale>  0 0.77875777E+02</rscale>
<asrwt>0</asrwt>
<pdfrwt beam="1">  1        2 0.64779448E-01 0.77875777E+02</pdfrwt>
<pdfrwt beam="2">  1       -1 0.55396310E-03 0.77875777E+02</pdfrwt>
<totfact> 0.30851734E+05</totfact>
</mgrwt>
</event>
<event>
 8    1  0.1600673E-013  0.8011505E+02  0.7818608E-02  0.1328725E+00
          2   -1    0    0  501    0  0.00000000000E+00  0.00000000000E+00  0.45407522446E+03  0.45407522446E+03  0.25500000000E-02 0. -1.
         -1   -1    0    0    0  501 -0.00000000000E+00 -0.00000000000E+00 -0.35337855129E+01  0.35337891070E+01  0.50400000000E-02 0.  1.
         24    2    1    2    0    0  0.00000000000E+00  0.00000000000E+00  0.45054143894E+03  0.45760901357E+03  0.80115049122E+02 0.  0.
         66    2    3    3    0    0  0.20862931381E+02 -0.20996526401E+02  0.37936564014E+03  0.38052385594E+03  0.19999995558E+01 0.  0.
        -13    1    3    3    0    0 -0.20862931381E+02  0.20996526401E+02  0.71175798804E+02  0.77085157625E+02  0.10566000000E+00 0.  1.
         13    1    4    4    0    0  0.15500079524E+02 -0.15365449690E+02  0.28727267987E+03  0.28810059575E+03  0.10566000000E+00 0. -1.
        -13    1    4    4    0    0  0.46016880668E+01 -0.44731801485E+01  0.74794558251E+02  0.75069447725E+02  0.10566000000E+00 0.  1.
        -14    1    4    4    0    0  0.76116379028E+00 -0.11578965629E+01  0.17298402017E+02  0.17353812466E+02  0.00000000000E+00 0.  1.
<mgrwt>
<rscale>  0 0.80115049E+02</rscale>
<asrwt>0</asrwt>
<pdfrwt beam="1">  1        2 0.69857751E-01 0.80115049E+02</pdfrwt>
<pdfrwt beam="2">  1       -1 0.54365940E-03 0.80115049E+02</pdfrwt>
<totfact> 0.29397062E+05</totfact>
</mgrwt>
</event>
<event>
 8    1  0.1600673E-013  0.7826851E+02  0.7818608E-02  0.1334038E+00
         -1   -1    0    0    0  501 -0.00000000000E+00  0.00000000000E+00  0.22847304446E+02  0.22847305002E+02  0.50400000000E-02 0.  1.
          2   -1    0    0  501    0  0.00000000000E+00 -0.00000000000E+00 -0.67031530779E+02  0.67031530827E+02  0.25500000000E-02 0. -1.
         24    2    1    2    0    0  0.00000000000E+00 -0.71054273576E-14 -0.44184226332E+02  0.89878835829E+02  0.78268507546E+02 0.  0.
         66    2    3    3    0    0 -0.41704953024E+01  0.35047923837E+02 -0.41449628448E+02  0.54477717401E+02  0.19999995812E+01 0.  0.
        -13    1    3    3    0    0  0.41704953024E+01 -0.35047923837E+02 -0.27345978839E+01  0.35401118429E+02  0.10566000000E+00 0.  1.
         13    1    4    4    0    0 -0.30650817869E+01  0.17982019492E+02 -0.21431220896E+02  0.28143492046E+02  0.10566000000E+00 0. -1.
        -13    1    4    4    0    0 -0.36871426946E+00  0.96295677904E+01 -0.11327471396E+02  0.14872366937E+02  0.10566000000E+00 0.  1.
         14    1    4    4    0    0 -0.73669924600E+00  0.74363365546E+01 -0.86909361560E+01  0.11461858418E+02  0.00000000000E+00 0. -1.
<mgrwt>
<rscale>  0 0.78268508E+02</rscale>
<asrwt>0</asrwt>
<pdfrwt beam="1">  1        2 0.10312543E-01 0.78268508E+02</pdfrwt>
<pdfrwt beam="2">  1       -1 0.35149700E-02 0.78268508E+02</pdfrwt>
<totfact> 0.16952807E+05</totfact>
</mgrwt>
</event>
<event>
 8    1  0.1600673E-013  0.8113412E+02  0.7818608E-02  0.1325863E+00
         -1   -1    0    0    0  501 -0.00000000000E+00  0.00000000000E+00  0.49632695997E+02  0.49632696253E+02  0.50400000000E-02 0.  1.
          2   -1    0    0  501    0  0.00000000000E+00 -0.00000000000E+00 -0.33157302281E+02  0.33157302379E+02  0.25500000000E-02 0. -1.
         24    2    1    2    0    0  0.35527136788E-14 -0.35527136788E-14  0.16475393716E+02  0.82789998633E+02  0.81134119059E+02 0.  0.
         66    2    3    3    0    0  0.26539387674E+02 -0.30533915138E+02  0.55386486118E+01  0.40881972799E+02  0.19999999219E+01 0.  0.
        -13    1    3    3    0    0 -0.26539387674E+02  0.30533915138E+02  0.10936745105E+02  0.41908025834E+02  0.10566000000E+00 0.  1.
         13    1    4    4    0    0  0.23366121228E+02 -0.26627441866E+02  0.51218805893E+01  0.35794428427E+02  0.10566000000E+00 0. -1.
        -13    1    4    4    0    0  0.18795214135E+01 -0.24284783768E+01  0.53866384084E+00  0.31195241207E+01  0.10566000000E+00 0.  1.
         14    1    4    4    0    0  0.12937450325E+01 -0.14779948953E+01 -0.12189581841E+00  0.19680202515E+01  0.00000000000E+00 0. -1.
<mgrwt>
<rscale>  0 0.81134119E+02</rscale>
<asrwt>0</asrwt>
<pdfrwt beam="1">  1        2 0.51011234E-02 0.81134119E+02</pdfrwt>
<pdfrwt beam="2">  1       -1 0.76357994E-02 0.81134119E+02</pdfrwt>
<totfact> 0.13195823E+05</totfact>
</mgrwt>
</event>
<event>
 8    1  0.1600673E-013  0.7935277E+02  0.7818608E-02  0.1330898E+00
         -1   -1    0    0    0  501 -0.00000000000E+00  0.00000000000E+00  0.14659810027E+01  0.14659896663E+01  0.50400000000E-02 0.  1.
          2   -1    0    0  501    0  0.00000000000E+00 -0.00000000000E+00 -0.10738275181E+04  0.10738275181E+04  0.25500000000E-02 0. -1.
         24    2    1    2    0    0  0.00000000000E+00  0.00000000000E+00 -0.10723615371E+04  0.10752935078E+04  0.79352766841E+02 0.  0.
         66    2    3    3    0    0 -0.87681294829E+01 -0.12470923055E+02 -0.10325253336E+04  0.10326398058E+04  0.20000100923E+01 0.  0.
        -13    1    3    3    0    0  0.87681294829E+01  0.12470923055E+02 -0.39836203562E+02  0.42653702005E+02  0.10566000000E+00 0.  1.
         13    1    4    4    0    0 -0.41107633416E+01 -0.49019383056E+01 -0.46836283809E+03  0.46840653992E+03  0.10566000000E+00 0. -1.
        -13    1    4    4    0    0 -0.10138908662E+00 -0.47432850985E+00 -0.26242403989E+02  0.26247098858E+02  0.10566000000E+00 0.  1.
         14    1    4    4    0    0 -0.45559770547E+01 -0.70946562392E+01 -0.53792009149E+03  0.53798616702E+03  0.00000000000E+00 0. -1.
<mgrwt>
<rscale>  0 0.79352767E+02</rscale>
<asrwt>0</asrwt>
<pdfrwt beam="1">  1        2 0.16520360E+00 0.79352767E+02</pdfrwt>
<pdfrwt beam="2">  1       -1 0.22553706E-03 0.79352767E+02</pdfrwt>
<totfact> 0.36021706E+05</totfact>
</mgrwt>
</event>
<event>
 8    1  0.1600673E-013  0.8347609E+02  0.7818608E-02  0.1319467E+00
         -1   -1    0    0    0  501 -0.00000000000E+00  0.00000000000E+00  0.67916955636E+01  0.67916974337E+01  0.50400000000E-02 0.  1.
          2   -1    0    0  501    0  0.00000000000E+00 -0.00000000000E+00 -0.25649914593E+03  0.25649914594E+03  0.25500000000E-02 0. -1.
         24    2    1    2    0    0  0.00000000000E+00  0.00000000000E+00 -0.24970745036E+03  0.26329084337E+03  0.83476089015E+02 0.  0.
         66    2    3    3    0    0 -0.99881005535E+01 -0.21978156102E+02 -0.23222247935E+03  0.23348250773E+03  0.20000006538E+01 0.  0.
        -13    1    3    3    0    0  0.99881005535E+01  0.21978156102E+02 -0.17484971011E+02  0.29808335640E+02  0.10566000000E+00 0.  1.
         13    1    4    4    0    0 -0.25411032198E+01 -0.69268665746E+01 -0.76582925580E+02  0.76937600304E+02  0.10566000000E+00 0. -1.
        -13    1    4    4    0    0 -0.42837756171E+01 -0.78905760708E+01 -0.84955145295E+02  0.85428331368E+02  0.10566000000E+00 0.  1.
         14    1    4    4    0    0 -0.31632217166E+01 -0.71607134570E+01 -0.70684408478E+02  0.71116576061E+02  0.00000000000E+00 0. -1.
<mgrwt>
<rscale>  0 0.83476089E+02</rscale>
<asrwt>0</asrwt>
<pdfrwt beam="1">  1        2 0.39461400E-01 0.83476089E+02</pdfrwt>
<pdfrwt beam="2">  1       -1 0.10448766E-02 0.83476089E+02</pdfrwt>
<totfact> 0.21536341E+05</totfact>
</mgrwt>
</event>
<event>
 8    1  0.1600673E-013  0.8177708E+02  0.7818608E-02  0.1324083E+00
         -1   -1    0    0    0  501 -0.00000000000E+00  0.00000000000E+00  0.25433421597E+01  0.25433471535E+01  0.50400000000E-02 0.  1.
          2   -1    0    0  501    0  0.00000000000E+00 -0.00000000000E+00 -0.65735207911E+03  0.65735207912E+03  0.25500000000E-02 0. -1.
         24    2    1    2    0    0 -0.35527136788E-14  0.00000000000E+00 -0.65480873695E+03  0.65989542627E+03  0.81777084954E+02 0.  0.
         66    2    3    3    0    0 -0.31571446144E+02  0.66483984298E+01 -0.52996582511E+03  0.53095078228E+03  0.20000006665E+01 0.  0.
        -13    1    3    3    0    0  0.31571446144E+02 -0.66483984298E+01 -0.12484291184E+03  0.12894464399E+03  0.10566000000E+00 0.  1.
         13    1    4    4    0    0 -0.10171638530E+01  0.29788524927E+00 -0.16447455833E+02  0.16481909032E+02  0.10566000000E+00 0. -1.
        -13    1    4    4    0    0 -0.55746292669E+01  0.13934886322E+01 -0.84329872204E+02  0.84525480253E+02  0.10566000000E+00 0.  1.
        -14    1    4    4    0    0 -0.24979653024E+02  0.49570245484E+01 -0.42918849707E+03  0.42994339299E+03  0.00000000000E+00 0.  1.
<mgrwt>
<rscale>  0 0.81777085E+02</rscale>
<asrwt>0</asrwt>
<pdfrwt beam="1">  1        2 0.10113095E+00 0.81777085E+02</pdfrwt>
<pdfrwt beam="2">  1       -1 0.39128432E-03 0.81777085E+02</pdfrwt>
<totfact> 0.31119008E+05</totfact>
</mgrwt>
</event>
<event>
 8    1  0.1600673E-013  0.8208687E+02  0.7818608E-02  0.1323231E+00
          2   -1    0    0  501    0  0.00000000000E+00  0.00000000000E+00  0.51986533973E+02  0.51986534036E+02  0.25500000000E-02 0. -1.
         -1   -1    0    0    0  501 -0.00000000000E+00 -0.00000000000E+00 -0.32403840681E+02  0.32403841073E+02  0.50400000000E-02 0.  1.
         24    2    1    2    0    0 -0.17763568394E-14  0.00000000000E+00  0.19582693292E+02  0.84390375109E+02  0.82086865786E+02 0.  0.
         66    2    3    3    0    0 -0.10296746716E+02  0.34679230519E+02  0.29675892473E+02  0.46833007576E+02  0.19999955571E+01 0.  0.
        -13    1    3    3    0    0  0.10296746716E+02 -0.34679230519E+02 -0.10093199181E+02  0.37557367533E+02  0.10566000000E+00 0.  1.
         13    1    4    4    0    0 -0.22276362503E+01  0.91921449970E+01  0.74834895220E+01  0.12061163807E+02  0.10566000000E+00 0.  1.
        -13    1    4    4    0    0 -0.16654560396E+01  0.72001631419E+01  0.59275863744E+01  0.94743621079E+01  0.10566000000E+00 0. -1.
         14    1    4    4    0    0 -0.64036544263E+01  0.18286922380E+02  0.16264816576E+02  0.25297481661E+02  0.00000000000E+00 0. -1.
<mgrwt>
<rscale>  0 0.82086866E+02</rscale>
<asrwt>0</asrwt>
<pdfrwt beam="1">  1        2 0.79979282E-02 0.82086866E+02</pdfrwt>
<pdfrwt beam="2">  1       -1 0.49852064E-02 0.82086866E+02</pdfrwt>
<totfact> 0.14044197E+05</totfact>
</mgrwt>
</event>
<event>
 8    1  0.1600673E-013  0.8039891E+02  0.7818608E-02  0.1327923E+00
          2   -1    0    0  501    0  0.00000000000E+00  0.00000000000E+00  0.18244731331E+02  0.18244731509E+02  0.25500000000E-02 0. -1.
         -1   -1    0    0    0  501 -0.00000000000E+00 -0.00000000000E+00 -0.88573308031E+02  0.88573308174E+02  0.50400000000E-02 0.  1.
         24    2    1    2    0    0  0.00000000000E+00  0.00000000000E+00 -0.70328576700E+02  0.10681803968E+03  0.80398911069E+02 0.  0.
         66    2    3    3    0    0  0.12066654984E+01 -0.39996173266E+02 -0.30424972251E+02  0.50307343974E+02  0.20000009094E+01 0.  0.
        -13    1    3    3    0    0 -0.12066654984E+01  0.39996173266E+02 -0.39903604449E+02  0.56510695710E+02  0.10566000000E+00 0.  1.
         13    1    4    4    0    0  0.11813626272E+01 -0.25210638782E+02 -0.19106801101E+02  0.31655219756E+02  0.10566000000E+00 0. -1.
        -13    1    4    4    0    0 -0.23744964385E+00 -0.11697612474E+02 -0.93870552806E+01  0.15000616348E+02  0.10566000000E+00 0.  1.
        -14    1    4    4    0    0  0.26275251505E+00 -0.30879220100E+01 -0.19311158701E+01  0.36515078704E+01  0.00000000000E+00 0.  1.
<mgrwt>
<rscale>  0 0.80398911E+02</rscale>
<asrwt>0</asrwt>
<pdfrwt beam="1">  1        2 0.28068818E-02 0.80398911E+02</pdfrwt>
<pdfrwt beam="2">  1       -1 0.13626663E-01 0.80398911E+02</pdfrwt>
<totfact> 0.12010717E+05</totfact>
</mgrwt>
</event>
<event>
 8    1  0.1600673E-013  0.8015760E+02  0.7818608E-02  0.1328605E+00
         -1   -1    0    0    0  501 -0.00000000000E+00  0.00000000000E+00  0.49745100756E+01  0.49745126288E+01  0.50400000000E-02 0.  1.
          2   -1    0    0  501    0  0.00000000000E+00 -0.00000000000E+00 -0.32290817141E+03  0.32290817142E+03  0.25500000000E-02 0. -1.
         24    2    1    2    0    0  0.00000000000E+00  0.71054273576E-14 -0.31793366134E+03  0.32788268405E+03  0.80157604066E+02 0.  0.
         66    2    3    3    0    0 -0.17057567880E+02 -0.36235714606E+02 -0.15675965570E+03  0.16180722262E+03  0.19999998678E+01 0.  0.
        -13    1    3    3    0    0  0.17057567880E+02  0.36235714606E+02 -0.16117400563E+03  0.16607546143E+03  0.10566000000E+00 0.  1.
         13    1    4    4    0    0 -0.34617542364E+01 -0.73141189694E+01 -0.32868040083E+02  0.33849657333E+02  0.10566000000E+00 0. -1.
        -13    1    4    4    0    0 -0.11530851083E+02 -0.24393712743E+02 -0.10211977328E+03  0.10562420654E+03  0.10566000000E+00 0.  1.
        -14    1    4    4    0    0 -0.20649625611E+01 -0.45278828940E+01 -0.21771842345E+02  0.22333358748E+02  0.00000000000E+00 0.  1.
<mgrwt>
<rscale>  0 0.80157604E+02</rscale>
<asrwt>0</asrwt>
<pdfrwt beam="1">  1        2 0.49678164E-01 0.80157604E+02</pdfrwt>
<pdfrwt beam="2">  1       -1 0.76530970E-03 0.80157604E+02</pdfrwt>
<totfact> 0.26046880E+05</totfact>
</mgrwt>
</event>
<event>
 8    1  0.1600673E-013  0.7932287E+02  0.7818608E-02  0.1330984E+00
          2   -1    0    0  501    0  0.00000000000E+00  0.00000000000E+00  0.62994631919E+02  0.62994631971E+02  0.25500000000E-02 0. -1.
         -1   -1    0    0    0  501 -0.00000000000E+00 -0.00000000000E+00 -0.24970846725E+02  0.24970847234E+02  0.50400000000E-02 0.  1.
         24    2    1    2    0    0  0.00000000000E+00  0.00000000000E+00  0.38023785194E+02  0.87965479205E+02  0.79322867392E+02 0.  0.
         66    2    3    3    0    0  0.22414838513E+02  0.11500018196E+01  0.55252617435E+02  0.59670756832E+02  0.19999994392E+01 0.  0.
        -13    1    3    3    0    0 -0.22414838513E+02 -0.11500018196E+01 -0.17228832241E+02  0.28294722373E+02  0.10566000000E+00 0.  1.
         13    1    4    4    0    0  0.54858850047E+01  0.51220247092E+00  0.12508134540E+02  0.13668280044E+02  0.10566000000E+00 0.  1.
        -13    1    4    4    0    0  0.49870084719E+01  0.66585506642E+00  0.11461576566E+02  0.12517688200E+02  0.10566000000E+00 0. -1.
         14    1    4    4    0    0  0.11941945036E+02 -0.28055717697E-01  0.31282906330E+02  0.33484788588E+02  0.00000000000E+00 0. -1.
<mgrwt>
<rscale>  0 0.79322867E+02</rscale>
<asrwt>0</asrwt>
<pdfrwt beam="1">  1        2 0.96914818E-02 0.79322867E+02</pdfrwt>
<pdfrwt beam="2">  1       -1 0.38416688E-02 0.79322867E+02</pdfrwt>
<totfact> 0.16111313E+05</totfact>
</mgrwt>
</event>
<event>
 8    1  0.1600673E-013  0.7858375E+02  0.7818608E-02  0.1333119E+00
          2   -1    0    0  501    0  0.00000000000E+00  0.00000000000E+00  0.53049301818E+03  0.53049301819E+03  0.25500000000E-02 0. -1.
         -1   -1    0    0    0  501 -0.00000000000E+00 -0.00000000000E+00 -0.29102178390E+01  0.29102222032E+01  0.50400000000E-02 0.  1.
         24    2    1    2    0    0  0.00000000000E+00 -0.88817841970E-15  0.52758280034E+03  0.53340324039E+03  0.78583749225E+02 0.  0.
         66    2    3    3    0    0 -0.38314901675E+02 -0.57475892419E+01  0.30730753772E+03  0.30974665328E+03  0.20000009285E+01 0.  0.
        -13    1    3    3    0    0  0.38314901675E+02  0.57475892419E+01  0.22027526262E+03  0.22365658711E+03  0.10566000000E+00 0.  1.
         13    1    4    4    0    0 -0.21600441715E+02 -0.32277749275E+01  0.17123455412E+03  0.17262178687E+03  0.10566000000E+00 0. -1.
        -13    1    4    4    0    0 -0.46040301324E+01 -0.11402329640E+01  0.35276527837E+02  0.35594125989E+02  0.10566000000E+00 0.  1.
         14    1    4    4    0    0 -0.12110429827E+02 -0.13795813504E+01  0.10079645577E+03  0.10153074042E+03  0.00000000000E+00 0. -1.
<mgrwt>
<rscale>  0 0.78583749E+02</rscale>
<asrwt>0</asrwt>
<pdfrwt beam="1">  1        2 0.81614354E-01 0.78583749E+02</pdfrwt>
<pdfrwt beam="2">  1       -1 0.44772592E-03 0.78583749E+02</pdfrwt>
<totfact> 0.32496907E+05</totfact>
</mgrwt>
</event>
<event>
 8    1  0.1600673E-013  0.7755283E+02  0.7818608E-02  0.1336143E+00
          2   -1    0    0  501    0  0.00000000000E+00  0.00000000000E+00  0.17521330937E+02  0.17521331123E+02  0.25500000000E-02 0. -1.
         -1   -1    0    0    0  501 -0.00000000000E+00 -0.00000000000E+00 -0.85815994220E+02  0.85815994368E+02  0.50400000000E-02 0.  1.
         24    2    1    2    0    0  0.00000000000E+00  0.00000000000E+00 -0.68294663283E+02  0.10333732549E+03  0.77552832358E+02 0.  0.
         66    2    3    3    0    0  0.29615954137E+02  0.18254067275E+02 -0.11428316303E+02  0.36673179997E+02  0.20000015210E+01 0.  0.
        -13    1    3    3    0    0 -0.29615954137E+02 -0.18254067275E+02 -0.56866346980E+02  0.66664145493E+02  0.10566000000E+00 0.  1.
         13    1    4    4    0    0  0.20450967582E+02  0.11839844892E+02 -0.81529281171E+01  0.24998107989E+02  0.10566000000E+00 0.  1.
        -13    1    4    4    0    0  0.61772062003E+01  0.43041851392E+01 -0.18849425752E+01  0.77619622970E+01  0.10566000000E+00 0. -1.
        -14    1    4    4    0    0  0.29877803540E+01  0.21100372438E+01 -0.13904456107E+01  0.39131097109E+01  0.00000000000E+00 0.  1.
<mgrwt>
<rscale>  0 0.77552832E+02</rscale>
<asrwt>0</asrwt>
<pdfrwt beam="1">  1        2 0.26955894E-02 0.77552832E+02</pdfrwt>
<pdfrwt beam="2">  1       -1 0.13202461E-01 0.77552832E+02</pdfrwt>
<totfact> 0.13218133E+05</totfact>
</mgrwt>
</event>
<event>
 8    1  0.1600673E-013  0.7994617E+02  0.7818608E-02  0.1329204E+00
         -1   -1    0    0    0  501 -0.00000000000E+00  0.00000000000E+00  0.59512313707E+01  0.59512335049E+01  0.50400000000E-02 0.  1.
          2   -1    0    0  501    0  0.00000000000E+00 -0.00000000000E+00 -0.26849018267E+03  0.26849018269E+03  0.25500000000E-02 0. -1.
         24    2    1    2    0    0  0.00000000000E+00  0.00000000000E+00 -0.26253895130E+03  0.27444141619E+03  0.79946169199E+02 0.  0.
         66    2    3    3    0    0 -0.39791468319E+02 -0.35058562788E+01 -0.13284994483E+03  0.13873989983E+03  0.19999959025E+01 0.  0.
        -13    1    3    3    0    0  0.39791468319E+02  0.35058562788E+01 -0.12968900648E+03  0.13570151637E+03  0.10566000000E+00 0.  1.
         13    1    4    4    0    0 -0.33290067634E+02 -0.29499343556E+01 -0.11070111635E+03  0.11563597642E+03  0.10566000000E+00 0. -1.
        -13    1    4    4    0    0 -0.13963523499E+01 -0.37826198150E+00 -0.42674349637E+01  0.45072216738E+01  0.10566000000E+00 0.  1.
         14    1    4    4    0    0 -0.51050483352E+01 -0.17765994167E+00 -0.17881393512E+02  0.18596701737E+02  0.00000000000E+00 0. -1.
<mgrwt>
<rscale>  0 0.79946169E+02</rscale>
<asrwt>0</asrwt>
<pdfrwt beam="1">  1        2 0.41306173E-01 0.79946169E+02</pdfrwt>
<pdfrwt beam="2">  1       -1 0.91557444E-03 0.79946169E+02</pdfrwt>
<totfact> 0.24533434E+05</totfact>
</mgrwt>
</event>
<event>
 8    1  0.1600673E-013  0.8025802E+02  0.7818608E-02  0.1328321E+00
         -1   -1    0    0    0  501 -0.00000000000E+00  0.00000000000E+00  0.14924007277E+02  0.14924008128E+02  0.50400000000E-02 0.  1.
          2   -1    0    0  501    0  0.00000000000E+00 -0.00000000000E+00 -0.10790247741E+03  0.10790247744E+03  0.25500000000E-02 0. -1.
         24    2    1    2    0    0  0.00000000000E+00  0.00000000000E+00 -0.92978470133E+02  0.12282648557E+03  0.80258019218E+02 0.  0.
         66    2    3    3    0    0  0.17479847570E+02  0.35921190557E+02 -0.51919132977E+02  0.65539861180E+02  0.20000080534E+01 0.  0.
        -13    1    3    3    0    0 -0.17479847570E+02 -0.35921190557E+02 -0.41059337156E+02  0.57286624389E+02  0.10566000000E+00 0.  1.
         13    1    4    4    0    0  0.87259487259E+01  0.19733629724E+02 -0.28043196751E+02  0.35383475965E+02  0.10566000000E+00 0. -1.
        -13    1    4    4    0    0  0.68699194707E+00  0.10010487467E+01 -0.17884929142E+01  0.21642383114E+01  0.10566000000E+00 0.  1.
         14    1    4    4    0    0  0.80669068975E+01  0.15186512086E+02 -0.22087443312E+02  0.27992146904E+02  0.00000000000E+00 0. -1.
<mgrwt>
<rscale>  0 0.80258019E+02</rscale>
<asrwt>0</asrwt>
<pdfrwt beam="1">  1        2 0.16600381E-01 0.80258019E+02</pdfrwt>
<pdfrwt beam="2">  1       -1 0.22960013E-02 0.80258019E+02</pdfrwt>
<totfact> 0.17957449E+05</totfact>
</mgrwt>
</event>
<event>
 8    1  0.1600673E-013  0.7936652E+02  0.7818608E-02  0.1330859E+00
          2   -1    0    0  501    0  0.00000000000E+00  0.00000000000E+00  0.37012932957E+02  0.37012933044E+02  0.25500000000E-02 0. -1.
         -1   -1    0    0    0  501 -0.00000000000E+00 -0.00000000000E+00 -0.42546236822E+02  0.42546237121E+02  0.50400000000E-02 0.  1.
         24    2    1    2    0    0  0.00000000000E+00  0.00000000000E+00 -0.55333038658E+01  0.79559170165E+02  0.79366517536E+02 0.  0.
         66    2    3    3    0    0  0.37711837659E+02 -0.46695528772E+01 -0.14143576551E+02  0.40595913327E+02  0.19999993912E+01 0.  0.
        -13    1    3    3    0    0 -0.37711837659E+02  0.46695528772E+01  0.86102726856E+01  0.38963256838E+02  0.10566000000E+00 0.  1.
         13    1    4    4    0    0  0.21742006325E+02 -0.23299521273E+01 -0.88229419957E+01  0.23579630732E+02  0.10566000000E+00 0. -1.
        -13    1    4    4    0    0  0.23509288584E+01 -0.15808898301E+00 -0.10109216891E+01  0.25661226239E+01  0.10566000000E+00 0.  1.
         14    1    4    4    0    0  0.13618902475E+02 -0.21815117670E+01 -0.43097128665E+01  0.14450159971E+02  0.00000000000E+00 0. -1.
<mgrwt>
<rscale>  0 0.79366518E+02</rscale>
<asrwt>0</asrwt>
<pdfrwt beam="1">  1        2 0.56942974E-02 0.79366518E+02</pdfrwt>
<pdfrwt beam="2">  1       -1 0.65455749E-02 0.79366518E+02</pdfrwt>
<totfact> 0.14344004E+05</totfact>
</mgrwt>
</event>
<event>
 8    1  0.1600673E-013  0.7687531E+02  0.7818608E-02  0.1338160E+00
          2   -1    0    0  501    0  0.00000000000E+00  0.00000000000E+00  0.27970795123E+02  0.27970795239E+02  0.25500000000E-02 0. -1.
         -1   -1    0    0    0  501 -0.00000000000E+00 -0.00000000000E+00 -0.52821286622E+02  0.52821286862E+02  0.50400000000E-02 0.  1.
         24    2    1    2    0    0  0.00000000000E+00  0.00000000000E+00 -0.24850491499E+02  0.80792082101E+02  0.76875312048E+02 0.  0.
         66    2    3    3    0    0  0.22014053335E+02 -0.20941847079E+02  0.12264108970E+02  0.32826633752E+02  0.20000028391E+01 0.  0.
        -13    1    3    3    0    0 -0.22014053335E+02  0.20941847079E+02 -0.37114600469E+02  0.47965448349E+02  0.10566000000E+00 0.  1.
         13    1    4    4    0    0  0.12758401337E+02 -0.12045528088E+02  0.60525887485E+01  0.18561156919E+02  0.10566000000E+00 0. -1.
        -13    1    4    4    0    0  0.62644224107E+01 -0.58265767040E+01  0.41712356214E+01  0.95185269276E+01  0.10566000000E+00 0.  1.
         14    1    4    4    0    0  0.29912295878E+01 -0.30697422867E+01  0.20402845997E+01  0.47469499051E+01  0.00000000000E+00 0. -1.
<mgrwt>
<rscale>  0 0.76875312E+02</rscale>
<asrwt>0</asrwt>
<pdfrwt beam="1">  1        2 0.43031993E-02 0.76875312E+02</pdfrwt>
<pdfrwt beam="2">  1       -1 0.81263518E-02 0.76875312E+02</pdfrwt>
<totfact> 0.14839128E+05</totfact>
</mgrwt>
</event>
<event>
 8    1  0.1600673E-013  0.7395780E+02  0.7818608E-02  0.1347129E+00
          2   -1    0    0  501    0  0.00000000000E+00  0.00000000000E+00  0.15195280147E+03  0.15195280149E+03  0.25500000000E-02 0. -1.
         -1   -1    0    0    0  501 -0.00000000000E+00 -0.00000000000E+00 -0.89991019910E+01  0.89991034023E+01  0.50400000000E-02 0.  1.
         24    2    1    2    0    0  0.00000000000E+00  0.00000000000E+00  0.14295369948E+03  0.16095190489E+03  0.73957795357E+02 0.  0.
         66    2    3    3    0    0  0.16542385763E+01 -0.16086814312E+02  0.14383581335E+03  0.14475587486E+03  0.20000007966E+01 0.  0.
        -13    1    3    3    0    0 -0.16542385763E+01  0.16086814312E+02 -0.88211387414E+00  0.16196030035E+02  0.10566000000E+00 0.  1.
         13    1    4    4    0    0  0.50386450661E+00 -0.50590625642E+01  0.46872340231E+02  0.47147379950E+02  0.10566000000E+00 0. -1.
        -13    1    4    4    0    0  0.45320368924E+00 -0.12426289941E+01  0.85318686059E+01  0.86344349175E+01  0.10566000000E+00 0.  1.
        -14    1    4    4    0    0  0.69717038042E+00 -0.97851227535E+01  0.88431604516E+02  0.88974059990E+02  0.00000000000E+00 0.  1.
<mgrwt>
<rscale>  0 0.73957795E+02</rscale>
<asrwt>0</asrwt>
<pdfrwt beam="1">  1        2 0.23377352E-01 0.73957795E+02</pdfrwt>
<pdfrwt beam="2">  1       -1 0.13844775E-02 0.73957795E+02</pdfrwt>
<totfact> 0.24748318E+05</totfact>
</mgrwt>
</event>
<event>
 8    1  0.1600673E-013  0.7969675E+02  0.7818608E-02  0.1329914E+00
          2   -1    0    0  501    0  0.00000000000E+00  0.00000000000E+00  0.11035370559E+02  0.11035370853E+02  0.25500000000E-02 0. -1.
         -1   -1    0    0    0  501 -0.00000000000E+00 -0.00000000000E+00 -0.14389120673E+03  0.14389120682E+03  0.50400000000E-02 0.  1.
         24    2    1    2    0    0  0.00000000000E+00  0.00000000000E+00 -0.13285583618E+03  0.15492657768E+03  0.79696745633E+02 0.  0.
         66    2    3    3    0    0  0.36888812417E+02 -0.54915195068E+01 -0.39327552968E+02  0.54236497768E+02  0.19999999246E+01 0.  0.
        -13    1    3    3    0    0 -0.36888812417E+02  0.54915195068E+01 -0.93528283208E+02  0.10069007991E+03  0.10566000000E+00 0.  1.
         13    1    4    4    0    0  0.11620025745E+02 -0.17376296082E+01 -0.12016892638E+02  0.16806582868E+02  0.10566000000E+00 0. -1.
        -13    1    4    4    0    0  0.13670128121E+02 -0.13226754840E+01 -0.14129471050E+02  0.19704694605E+02  0.10566000000E+00 0.  1.
         14    1    4    4    0    0  0.11598658550E+02 -0.24312144147E+01 -0.13181189279E+02  0.17725220295E+02  0.00000000000E+00 0. -1.
<mgrwt>
<rscale>  0 0.79696746E+02</rscale>
<asrwt>0</asrwt>
<pdfrwt beam="1">  1        2 0.16977494E-02 0.79696746E+02</pdfrwt>
<pdfrwt beam="2">  1       -1 0.22137107E-01 0.79696746E+02</pdfrwt>
<totfact> 0.11005979E+05</totfact>
</mgrwt>
</event>
<event>
 8    1  0.1600673E-013  0.7875638E+02  0.7818608E-02  0.1332618E+00
         -1   -1    0    0    0  501 -0.00000000000E+00  0.00000000000E+00  0.71115555533E+02  0.71115555712E+02  0.50400000000E-02 0.  1.
          2   -1    0    0  501    0  0.00000000000E+00 -0.00000000000E+00 -0.21804540340E+02  0.21804540489E+02  0.25500000000E-02 0. -1.
         24    2    1    2    0    0  0.35527136788E-14  0.00000000000E+00  0.49311015193E+02  0.92920096200E+02  0.78756384240E+02 0.  0.
         66    2    3    3    0    0  0.16929780327E+02  0.24253791554E+02 -0.59539646898E+01  0.30237618328E+02  0.19999999917E+01 0.  0.
        -13    1    3    3    0    0 -0.16929780327E+02 -0.24253791554E+02  0.55264979883E+02  0.62682477872E+02  0.10566000000E+00 0.  1.
         13    1    4    4    0    0  0.12118357542E+02  0.18018213149E+02 -0.41938602018E+01  0.22115836453E+02  0.10566000000E+00 0. -1.
        -13    1    4    4    0    0  0.31681263075E+01  0.38209985106E+01 -0.69595377890E+00  0.50132394333E+01  0.10566000000E+00 0.  1.
         14    1    4    4    0    0  0.16432964777E+01  0.24145798946E+01 -0.10641507091E+01  0.31085424419E+01  0.00000000000E+00 0. -1.
<mgrwt>
<rscale>  0 0.78756384E+02</rscale>
<asrwt>0</asrwt>
<pdfrwt beam="1">  1        2 0.33545447E-02 0.78756384E+02</pdfrwt>
<pdfrwt beam="2">  1       -1 0.10940855E-01 0.78756384E+02</pdfrwt>
<totfact> 0.13210234E+05</totfact>
</mgrwt>
</event>
<event>
 8    1  0.1600673E-013  0.8360623E+02  0.7818608E-02  0.1319118E+00
          2   -1    0    0  501    0  0.00000000000E+00  0.00000000000E+00  0.13993818781E+04  0.13993818781E+04  0.25500000000E-02 0. -1.
         -1   -1    0    0    0  501 -0.00000000000E+00 -0.00000000000E+00 -0.12487607924E+01  0.12487709631E+01  0.50400000000E-02 0.  1.
         24    2    1    2    0    0 -0.17763568394E-14  0.17763568394E-14  0.13981331173E+04  0.14006306490E+04  0.83606228170E+02 0.  0.
         66    2    3    3    0    0  0.88749353042E+01 -0.14535505760E+02  0.13385872771E+04  0.13386971068E+04  0.19999998628E+01 0.  0.
        -13    1    3    3    0    0 -0.88749353042E+01  0.14535505760E+02  0.59545840166E+02  0.61933542201E+02  0.10566000000E+00 0.  1.
         13    1    4    4    0    0  0.27103030518E+01 -0.38484175321E+01  0.38343960286E+03  0.38346850752E+03  0.10566000000E+00 0. -1.
        -13    1    4    4    0    0  0.20369279882E+01 -0.26032020839E+01  0.21899463083E+03  0.21901960012E+03  0.10566000000E+00 0.  1.
         14    1    4    4    0    0  0.41277042642E+01 -0.80838861441E+01  0.73615304343E+03  0.73620899920E+03  0.00000000000E+00 0. -1.
<mgrwt>
<rscale>  0 0.83606228E+02</rscale>
<asrwt>0</asrwt>
<pdfrwt beam="1">  1        2 0.21529013E+00 0.83606228E+02</pdfrwt>
<pdfrwt beam="2">  1       -1 0.19211728E-03 0.83606228E+02</pdfrwt>
<totfact> 0.30328135E+05</totfact>
</mgrwt>
</event>
<event>
 8    1  0.1600673E-013  0.8010238E+02  0.7818608E-02  0.1328761E+00
          2   -1    0    0  501    0  0.00000000000E+00  0.00000000000E+00  0.48161910861E+03  0.48161910862E+03  0.25500000000E-02 0. -1.
         -1   -1    0    0    0  501 -0.00000000000E+00 -0.00000000000E+00 -0.33306334608E+01  0.33306372741E+01  0.50400000000E-02 0.  1.
         24    2    1    2    0    0  0.17763568394E-14  0.00000000000E+00  0.47828847515E+03  0.48494974589E+03  0.80102375615E+02 0.  0.
         66    2    3    3    0    0  0.15370732829E+02  0.22575579152E+02  0.41643957231E+03  0.41733899121E+03  0.19999997719E+01 0.  0.
        -13    1    3    3    0    0 -0.15370732829E+02 -0.22575579152E+02  0.61848902846E+02  0.67610754684E+02  0.10566000000E+00 0.  1.
         13    1    4    4    0    0  0.20862472647E+00  0.32105188008E+00  0.69143490362E+01  0.69257479897E+01  0.10566000000E+00 0.  1.
        -13    1    4    4    0    0  0.24309947257E+01  0.31336050631E+01  0.52401280520E+02  0.52551256694E+02  0.10566000000E+00 0.  1.
         14    1    4    4    0    0  0.12731113377E+02  0.19120922209E+02  0.35712394275E+03  0.35786198652E+03  0.00000000000E+00 0. -1.
<mgrwt>
<rscale>  0 0.80102376E+02</rscale>
<asrwt>0</asrwt>
<pdfrwt beam="1">  1        2 0.74095274E-01 0.80102376E+02</pdfrwt>
<pdfrwt beam="2">  1       -1 0.51240526E-03 0.80102376E+02</pdfrwt>
<totfact> 0.29986181E+05</totfact>
</mgrwt>
</event>
<event>
 8    1  0.1600673E-013  0.7785266E+02  0.7818608E-02  0.1335258E+00
         -1   -1    0    0    0  501 -0.00000000000E+00  0.00000000000E+00  0.30826291217E+02  0.30826291629E+02  0.50400000000E-02 0.  1.
          2   -1    0    0  501    0  0.00000000000E+00 -0.00000000000E+00 -0.49154769576E+02  0.49154769642E+02  0.25500000000E-02 0. -1.
         24    2    1    2    0    0  0.35527136788E-14  0.00000000000E+00 -0.18328478359E+02  0.79981061272E+02  0.77852662403E+02 0.  0.
         66    2    3    3    0    0  0.26406096175E+02  0.90214575086E+01 -0.37014481966E+02  0.46397635216E+02  0.20000169018E+01 0.  0.
        -13    1    3    3    0    0 -0.26406096175E+02 -0.90214575086E+01  0.18686003607E+02  0.33583426056E+02  0.10566000000E+00 0.  1.
         13    1    4    4    0    0  0.23775033183E+00 -0.52570649260E-01 -0.33700143768E+00  0.42897890163E+00  0.10566000000E+00 0. -1.
        -13    1    4    4    0    0  0.87808963417E+01  0.32920342434E+01 -0.11875141617E+02  0.15131813589E+02  0.10566000000E+00 0.  1.
         14    1    4    4    0    0  0.17387449502E+02  0.57819939144E+01 -0.24802338911E+02  0.30836842725E+02  0.00000000000E+00 0. -1.
<mgrwt>
<rscale>  0 0.77852662E+02</rscale>
<asrwt>0</asrwt>
<pdfrwt beam="1">  1        2 0.75622722E-02 0.77852662E+02</pdfrwt>
<pdfrwt beam="2">  1       -1 0.47425064E-02 0.77852662E+02</pdfrwt>
<totfact> 0.16038247E+05</totfact>
</mgrwt>
</event>
<event>
 8    1  0.1600673E-013  0.8122688E+02  0.7818608E-02  0.1325605E+00
         -1   -1    0    0    0  501 -0.00000000000E+00  0.00000000000E+00  0.77505494847E+01  0.77505511234E+01  0.50400000000E-02 0.  1.
          2   -1    0    0  501    0  0.00000000000E+00 -0.00000000000E+00 -0.21281736300E+03  0.21281736301E+03  0.25500000000E-02 0. -1.
         24    2    1    2    0    0  0.35527136788E-14 -0.88817841970E-15 -0.20506681351E+03  0.22056791413E+03  0.81226884355E+02 0.  0.
         66    2    3    3    0    0 -0.21514633747E+02  0.51876611461E+01 -0.19498693286E+03  0.19624906442E+03  0.20000017250E+01 0.  0.
        -13    1    3    3    0    0  0.21514633747E+02 -0.51876611461E+01 -0.10079880654E+02  0.24318849715E+02  0.10566000000E+00 0.  1.
         13    1    4    4    0    0 -0.29702355008E+01  0.58314061360E+00 -0.28699385984E+02  0.28858764211E+02  0.10566000000E+00 0. -1.
        -13    1    4    4    0    0 -0.12323818498E+02  0.33309050384E+01 -0.10430809421E+03  0.10508644591E+03  0.10566000000E+00 0.  1.
        -14    1    4    4    0    0 -0.62205797479E+01  0.12736154940E+01 -0.61979452659E+02  0.62303854301E+02  0.00000000000E+00 0.  1.
<mgrwt>
<rscale>  0 0.81226884E+02</rscale>
<asrwt>0</asrwt>
<pdfrwt beam="1">  1        2 0.32741128E-01 0.81226884E+02</pdfrwt>
<pdfrwt beam="2">  1       -1 0.11923925E-02 0.81226884E+02</pdfrwt>
<totfact> 0.21655191E+05</totfact>
</mgrwt>
</event>
<event>
 8    1  0.1600673E-013  0.7792342E+02  0.7818608E-02  0.1335050E+00
         -1   -1    0    0    0  501 -0.00000000000E+00  0.00000000000E+00  0.11099958018E+02  0.11099959162E+02  0.50400000000E-02 0.  1.
          2   -1    0    0  501    0  0.00000000000E+00 -0.00000000000E+00 -0.13675862100E+03  0.13675862102E+03  0.25500000000E-02 0. -1.
         24    2    1    2    0    0 -0.71054273576E-14  0.17763568394E-14 -0.12565866298E+03  0.14785858018E+03  0.77923424925E+02 0.  0.
         66    2    3    3    0    0  0.35652777142E+02 -0.90828988739E+01 -0.38690461648E+02  0.53428189012E+02  0.19999971755E+01 0.  0.
        -13    1    3    3    0    0 -0.35652777142E+02  0.90828988739E+01 -0.86968201330E+02  0.94430391170E+02  0.10566000000E+00 0.  1.
         13    1    4    4    0    0  0.20767327421E+02 -0.56390201559E+01 -0.22015915035E+02  0.30786232562E+02  0.10566000000E+00 0. -1.
        -13    1    4    4    0    0  0.98523986970E+01 -0.17550614963E+01 -0.10967573529E+02  0.14847519459E+02  0.10566000000E+00 0.  1.
        -14    1    4    4    0    0  0.50330510244E+01 -0.16888172218E+01 -0.57069730834E+01  0.77944369904E+01  0.00000000000E+00 0.  1.
<mgrwt>
<rscale>  0 0.77923425E+02</rscale>
<asrwt>0</asrwt>
<pdfrwt beam="1">  1        2 0.21039787E-01 0.77923425E+02</pdfrwt>
<pdfrwt beam="2">  1       -1 0.17076860E-02 0.77923425E+02</pdfrwt>
<totfact> 0.20856958E+05</totfact>
</mgrwt>
</event>
<event>
 8    1  0.1600673E-013  0.7990948E+02  0.7818608E-02  0.1329309E+00
          2   -1    0    0  501    0  0.00000000000E+00  0.00000000000E+00  0.17006654191E+02  0.17006654382E+02  0.25500000000E-02 0. -1.
         -1   -1    0    0    0  501 -0.00000000000E+00 -0.00000000000E+00 -0.93868039666E+02  0.93868039801E+02  0.50400000000E-02 0.  1.
         24    2    1    2    0    0  0.00000000000E+00 -0.35527136788E-14 -0.76861385475E+02  0.11087469418E+03  0.79909481497E+02 0.  0.
         66    2    3    3    0    0  0.65892131705E+01  0.17623205891E+02  0.10411854963E+02  0.21596338595E+02  0.20000002176E+01 0.  0.
        -13    1    3    3    0    0 -0.65892131705E+01 -0.17623205891E+02 -0.87273240438E+02  0.89278355589E+02  0.10566000000E+00 0.  1.
         13    1    4    4    0    0  0.28457950067E+01  0.65474907850E+01  0.38720143277E+01  0.81223053247E+01  0.10566000000E+00 0. -1.
        -13    1    4    4    0    0  0.11869625256E+01  0.44203294022E+01  0.32965176887E+01  0.56414878329E+01  0.10566000000E+00 0.  1.
        -14    1    4    4    0    0  0.25564556382E+01  0.66553857036E+01  0.32433229464E+01  0.78325454373E+01  0.00000000000E+00 0.  1.
<mgrwt>
<rscale>  0 0.79909481E+02</rscale>
<asrwt>0</asrwt>
<pdfrwt beam="1">  1        2 0.26164084E-02 0.79909481E+02</pdfrwt>
<pdfrwt beam="2">  1       -1 0.14441237E-01 0.79909481E+02</pdfrwt>
<totfact> 0.12047139E+05</totfact>
</mgrwt>
</event>
<event>
 8    1  0.1600673E-013  0.7981420E+02  0.7818608E-02  0.1329580E+00
         -1   -1    0    0    0  501 -0.00000000000E+00  0.00000000000E+00  0.58556783110E+02  0.58556783327E+02  0.50400000000E-02 0.  1.
          2   -1    0    0  501    0  0.00000000000E+00 -0.00000000000E+00 -0.27197130717E+02  0.27197130837E+02  0.25500000000E-02 0. -1.
         24    2    1    2    0    0  0.00000000000E+00  0.00000000000E+00  0.31359652392E+02  0.85753914164E+02  0.79814196709E+02 0.  0.
         66    2    3    3    0    0 -0.85749583919E+01 -0.94914530938E+01 -0.24896592401E+02  0.28061680410E+02  0.20000002529E+01 0.  0.
        -13    1    3    3    0    0  0.85749583919E+01  0.94914530938E+01  0.56256244793E+02  0.57692233754E+02  0.10566000000E+00 0.  1.
         13    1    4    4    0    0 -0.16621152030E+01 -0.19082916495E+01 -0.57744383329E+01  0.63055139413E+01  0.10566000000E+00 0. -1.
        -13    1    4    4    0    0 -0.50423501112E+01 -0.47761186693E+01 -0.13907540407E+02  0.15545656898E+02  0.10566000000E+00 0.  1.
        -14    1    4    4    0    0 -0.18704930777E+01 -0.28070427750E+01 -0.52146136605E+01  0.62105095703E+01  0.00000000000E+00 0.  1.
<mgrwt>
<rscale>  0 0.79814197E+02</rscale>
<asrwt>0</asrwt>
<pdfrwt beam="1">  1        2 0.41841740E-02 0.79814197E+02</pdfrwt>
<pdfrwt beam="2">  1       -1 0.90087359E-02 0.79814197E+02</pdfrwt>
<totfact> 0.13284463E+05</totfact>
</mgrwt>
</event>
<event>
 8    1  0.1600673E-013  0.8003208E+02  0.7818608E-02  0.1328960E+00
          2   -1    0    0  501    0  0.00000000000E+00  0.00000000000E+00  0.12754520167E+02  0.12754520422E+02  0.25500000000E-02 0. -1.
         -1   -1    0    0    0  501 -0.00000000000E+00 -0.00000000000E+00 -0.12554635017E+03  0.12554635027E+03  0.50400000000E-02 0.  1.
         24    2    1    2    0    0  0.88817841970E-15  0.71054273576E-14 -0.11279183000E+03  0.13830087069E+03  0.80032080561E+02 0.  0.
         66    2    3    3    0    0 -0.66912497170E+01 -0.38978051042E+02 -0.66686100992E+02  0.77557058683E+02  0.20000000423E+01 0.  0.
        -13    1    3    3    0    0  0.66912497170E+01  0.38978051042E+02 -0.46105729008E+02  0.60743812007E+02  0.10566000000E+00 0.  1.
         13    1    4    4    0    0 -0.18170228151E+01 -0.12554814681E+02 -0.20841087968E+02  0.24398505186E+02  0.10566000000E+00 0. -1.
        -13    1    4    4    0    0 -0.35660020762E+01 -0.19869196151E+02 -0.33184615151E+02  0.38842388872E+02  0.10566000000E+00 0.  1.
         14    1    4    4    0    0 -0.13082248257E+01 -0.65540402102E+01 -0.12660397873E+02  0.14316164625E+02  0.00000000000E+00 0. -1.
<mgrwt>
<rscale>  0 0.80032081E+02</rscale>
<asrwt>0</asrwt>
<pdfrwt beam="1">  1        2 0.19622340E-02 0.80032081E+02</pdfrwt>
<pdfrwt beam="2">  1       -1 0.19314822E-01 0.80032081E+02</pdfrwt>
<totfact> 0.11254640E+05</totfact>
</mgrwt>
</event>
<event>
 8    1  0.1600673E-013  0.7929511E+02  0.7818608E-02  0.1331064E+00
          2   -1    0    0  501    0  0.00000000000E+00  0.00000000000E+00  0.44572463048E+03  0.44572463049E+03  0.25500000000E-02 0. -1.
         -1   -1    0    0    0  501 -0.00000000000E+00 -0.00000000000E+00 -0.35266796851E+01  0.35266832865E+01  0.50400000000E-02 0.  1.
         24    2    1    2    0    0  0.00000000000E+00  0.00000000000E+00  0.44219795079E+03  0.44925131377E+03  0.79295114858E+02 0.  0.
         66    2    3    3    0    0  0.38034754262E+01 -0.21249875186E+02  0.40947747015E+03  0.41005099951E+03  0.20000043564E+01 0.  0.
        -13    1    3    3    0    0 -0.38034754262E+01  0.21249875186E+02  0.32720480643E+02  0.39200314262E+02  0.10566000000E+00 0.  1.
         13    1    4    4    0    0  0.33370059520E+00 -0.97636040722E+00  0.20232325442E+02  0.20258894160E+02  0.10566000000E+00 0. -1.
        -13    1    4    4    0    0  0.25107385832E+01 -0.10534345303E+02  0.21422586891E+03  0.21449944129E+03  0.10566000000E+00 0.  1.
        -14    1    4    4    0    0  0.95903624777E+00 -0.97391694759E+01  0.17501927580E+03  0.17529266407E+03  0.00000000000E+00 0.  1.
<mgrwt>
<rscale>  0 0.79295115E+02</rscale>
<asrwt>0</asrwt>
<pdfrwt beam="1">  1        2 0.68573009E-01 0.79295115E+02</pdfrwt>
<pdfrwt beam="2">  1       -1 0.54256647E-03 0.79295115E+02</pdfrwt>
<totfact> 0.30008916E+05</totfact>
</mgrwt>
</event>
<event>
 8    1  0.1600673E-013  0.7921229E+02  0.7818608E-02  0.1331302E+00
          2   -1    0    0  501    0  0.00000000000E+00  0.00000000000E+00  0.58022751569E+03  0.58022751570E+03  0.25500000000E-02 0. -1.
         -1   -1    0    0    0  501 -0.00000000000E+00 -0.00000000000E+00 -0.27035003686E+01  0.27035050665E+01  0.50400000000E-02 0.  1.
         24    2    1    2    0    0 -0.17763568394E-14 -0.35527136788E-14  0.57752401532E+03  0.58293102076E+03  0.79212288781E+02 0.  0.
         66    2    3    3    0    0 -0.10319809158E+02 -0.16458242946E+02  0.54272987424E+03  0.54308110684E+03  0.19999981527E+01 0.  0.
        -13    1    3    3    0    0  0.10319809158E+02  0.16458242946E+02  0.34794141080E+02  0.39849913920E+02  0.10566000000E+00 0.  1.
         13    1    4    4    0    0 -0.30873249872E+01 -0.52921516389E+01  0.14812991554E+03  0.14825660689E+03  0.10566000000E+00 0. -1.
        -13    1    4    4    0    0 -0.29142388282E+01 -0.40646749424E+01  0.14804462458E+03  0.14812912071E+03  0.10566000000E+00 0.  1.
        -14    1    4    4    0    0 -0.43182453429E+01 -0.71014163644E+01  0.24655533412E+03  0.24669537925E+03  0.00000000000E+00 0.  1.
<mgrwt>
<rscale>  0 0.79212289E+02</rscale>
<asrwt>0</asrwt>
<pdfrwt beam="1">  1        2 0.89265785E-01 0.79212289E+02</pdfrwt>
<pdfrwt beam="2">  1       -1 0.41592343E-03 0.79212289E+02</pdfrwt>
<totfact> 0.32690955E+05</totfact>
</mgrwt>
</event>
<event>
 8    1  0.1600673E-013  0.8103743E+02  0.7818608E-02  0.1326133E+00
         -1   -1    0    0    0  501 -0.00000000000E+00  0.00000000000E+00  0.30879318965E+02  0.30879319376E+02  0.50400000000E-02 0.  1.
          2   -1    0    0  501    0  0.00000000000E+00 -0.00000000000E+00 -0.53167172973E+02  0.53167173034E+02  0.25500000000E-02 0. -1.
         24    2    1    2    0    0 -0.35527136788E-14  0.00000000000E+00 -0.22287854008E+02  0.84046492411E+02  0.81037426232E+02 0.  0.
         66    2    3    3    0    0 -0.24507541171E+02 -0.12356391895E+02 -0.42029736902E+02  0.50237424114E+02  0.20000006594E+01 0.  0.
        -13    1    3    3    0    0  0.24507541171E+02  0.12356391895E+02  0.19741882894E+02  0.33809068297E+02  0.10566000000E+00 0.  1.
         13    1    4    4    0    0 -0.88852150491E+01 -0.35743761436E+01 -0.14001903006E+02  0.16964305559E+02  0.10566000000E+00 0. -1.
        -13    1    4    4    0    0 -0.45969794753E+01 -0.28377947211E+01 -0.87050860201E+01  0.10245730127E+02  0.10566000000E+00 0.  1.
         14    1    4    4    0    0 -0.11025346646E+02 -0.59442210302E+01 -0.19322747876E+02  0.23027388428E+02  0.00000000000E+00 0. -1.
<mgrwt>
<rscale>  0 0.81037426E+02</rscale>
<asrwt>0</asrwt>
<pdfrwt beam="1">  1        2 0.81795651E-02 0.81037426E+02</pdfrwt>
<pdfrwt beam="2">  1       -1 0.47506645E-02 0.81037426E+02</pdfrwt>
<totfact> 0.14621514E+05</totfact>
</mgrwt>
</event>
<event>
 8    1  0.1600673E-013  0.8024964E+02  0.7818608E-02  0.1328344E+00
          2   -1    0    0  501    0  0.00000000000E+00  0.00000000000E+00  0.54077015646E+03  0.54077015647E+03  0.25500000000E-02 0. -1.
         -1   -1    0    0    0  501 -0.00000000000E+00 -0.00000000000E+00 -0.29772356177E+01  0.29772398836E+01  0.50400000000E-02 0.  1.
         24    2    1    2    0    0  0.00000000000E+00 -0.17763568394E-14  0.53779292085E+03  0.54374739635E+03  0.80249643793E+02 0.  0.
         66    2    3    3    0    0  0.30563657561E+02  0.15221260108E+02  0.41154170203E+03  0.41296052645E+03  0.19999931553E+01 0.  0.
        -13    1    3    3    0    0 -0.30563657561E+02 -0.15221260108E+02  0.12625121882E+03  0.13078686991E+03  0.10566000000E+00 0.  1.
         13    1    4    4    0    0  0.11175659561E+01  0.68003342803E+00  0.13798202228E+02  0.13860481517E+02  0.10566000000E+00 0. -1.
        -13    1    4    4    0    0  0.15391309456E+02  0.68306831165E+01  0.19944704298E+03  0.20015665054E+03  0.10566000000E+00 0.  1.
         14    1    4    4    0    0  0.14054782149E+02  0.77105435631E+01  0.19829645682E+03  0.19894339439E+03  0.00000000000E+00 0. -1.
<mgrwt>
<rscale>  0 0.80249644E+02</rscale>
<asrwt>0</asrwt>
<pdfrwt beam="1">  1        2 0.83195251E-01 0.80249644E+02</pdfrwt>
<pdfrwt beam="2">  1       -1 0.45803745E-03 0.80249644E+02</pdfrwt>
<totfact> 0.30950843E+05</totfact>
</mgrwt>
</event>
<event>
 8    1  0.1600673E-013  0.8126772E+02  0.7818608E-02  0.1325492E+00
          2   -1    0    0  501    0  0.00000000000E+00  0.00000000000E+00  0.19444298966E+02  0.19444299133E+02  0.25500000000E-02 0. -1.
         -1   -1    0    0    0  501 -0.00000000000E+00 -0.00000000000E+00 -0.84914892757E+02  0.84914892907E+02  0.50400000000E-02 0.  1.
         24    2    1    2    0    0  0.00000000000E+00  0.00000000000E+00 -0.65470593791E+02  0.10435919204E+03  0.81267719986E+02 0.  0.
         66    2    3    3    0    0  0.23533291624E+02 -0.67124552589E+01  0.88604599752E+01  0.26103268376E+02  0.19999996714E+01 0.  0.
        -13    1    3    3    0    0 -0.23533291624E+02  0.67124552589E+01 -0.74331053767E+02  0.78255923663E+02  0.10566000000E+00 0.  1.
         13    1    4    4    0    0  0.81588176904E+01 -0.29474600272E+01  0.30512247288E+01  0.91964647065E+01  0.10566000000E+00 0. -1.
        -13    1    4    4    0    0  0.85606463170E+01 -0.24218456922E+01  0.27024550093E+01  0.92986251153E+01  0.10566000000E+00 0.  1.
         14    1    4    4    0    0  0.68138276168E+01 -0.13431495395E+01  0.31067802371E+01  0.76081785546E+01  0.00000000000E+00 0. -1.
<mgrwt>
<rscale>  0 0.81267720E+02</rscale>
<asrwt>0</asrwt>
<pdfrwt beam="1">  1        2 0.29914307E-02 0.81267720E+02</pdfrwt>
<pdfrwt beam="2">  1       -1 0.13063830E-01 0.81267720E+02</pdfrwt>
<totfact> 0.11797936E+05</totfact>
</mgrwt>
</event>
<event>
 8    1  0.1600673E-013  0.7442297E+02  0.7818608E-02  0.1345667E+00
          2   -1    0    0  501    0  0.00000000000E+00  0.00000000000E+00  0.27449602491E+03  0.27449602492E+03  0.25500000000E-02 0. -1.
         -1   -1    0    0    0  501 -0.00000000000E+00 -0.00000000000E+00 -0.50444971268E+01  0.50444996446E+01  0.50400000000E-02 0.  1.
         24    2    1    2    0    0  0.00000000000E+00 -0.88817841970E-15  0.26945152778E+03  0.27954052457E+03  0.74422973941E+02 0.  0.
         66    2    3    3    0    0  0.34215648844E+02  0.69984044391E+01  0.18277776682E+03  0.18609513787E+03  0.20000016003E+01 0.  0.
        -13    1    3    3    0    0 -0.34215648844E+02 -0.69984044391E+01  0.86673760966E+02  0.93445386695E+02  0.10566000000E+00 0.  1.
         13    1    4    4    0    0  0.32663268332E+01  0.38900793775E+00  0.15894723653E+02  0.16231870570E+02  0.10566000000E+00 0.  1.
        -13    1    4    4    0    0  0.22941460806E+02  0.48989771911E+01  0.12696080383E+03  0.12910990464E+03  0.10566000000E+00 0. -1.
         14    1    4    4    0    0  0.80078612040E+01  0.17104193103E+01  0.39922239334E+02  0.40753362668E+02  0.00000000000E+00 0. -1.
<mgrwt>
<rscale>  0 0.74422974E+02</rscale>
<asrwt>0</asrwt>
<pdfrwt beam="1">  1        2 0.42230166E-01 0.74422974E+02</pdfrwt>
<pdfrwt beam="2">  1       -1 0.77607653E-03 0.74422974E+02</pdfrwt>
<totfact> 0.29821670E+05</totfact>
</mgrwt>
</event>
<event>
 8    1  0.1600673E-013  0.8054825E+02  0.7818608E-02  0.1327503E+00
          2   -1    0    0  501    0  0.00000000000E+00  0.00000000000E+00  0.62873006534E+03  0.62873006535E+03  0.25500000000E-02 0. -1.
         -1   -1    0    0    0  501 -0.00000000000E+00 -0.00000000000E+00 -0.25798092459E+01  0.25798141691E+01  0.50400000000E-02 0.  1.
         24    2    1    2    0    0  0.00000000000E+00  0.00000000000E+00  0.62615025610E+03  0.63130987952E+03  0.80548251165E+02 0.  0.
         66    2    3    3    0    0 -0.51727849600E+01  0.14234243656E+02  0.60554288575E+03  0.60573555111E+03  0.20000010623E+01 0.  0.
        -13    1    3    3    0    0  0.51727849600E+01 -0.14234243656E+02  0.20607370354E+02  0.25574328410E+02  0.10566000000E+00 0.  1.
         13    1    4    4    0    0 -0.10085388363E+01  0.17139568754E+01  0.96885137354E+02  0.96905602537E+02  0.10566000000E+00 0. -1.
        -13    1    4    4    0    0 -0.17559493991E+00  0.14140266896E+01  0.49948189713E+02  0.49968621401E+02  0.10566000000E+00 0.  1.
         14    1    4    4    0    0 -0.39886511837E+01  0.11106260091E+02  0.45870955868E+03  0.45886132717E+03  0.00000000000E+00 0. -1.
<mgrwt>
<rscale>  0 0.80548251E+02</rscale>
<asrwt>0</asrwt>
<pdfrwt beam="1">  1        2 0.96727655E-01 0.80548251E+02</pdfrwt>
<pdfrwt beam="2">  1       -1 0.39689431E-03 0.80548251E+02</pdfrwt>
<totfact> 0.32000949E+05</totfact>
</mgrwt>
</event>
<event>
 8    1  0.1600673E-013  0.8059120E+02  0.7818608E-02  0.1327382E+00
          2   -1    0    0  501    0  0.00000000000E+00  0.00000000000E+00  0.73161095490E+01  0.73161099934E+01  0.25500000000E-02 0. -1.
         -1   -1    0    0    0  501 -0.00000000000E+00 -0.00000000000E+00 -0.22193973610E+03  0.22193973615E+03  0.50400000000E-02 0.  1.
         24    2    1    2    0    0  0.35527136788E-14 -0.88817841970E-15 -0.21462362655E+03  0.22925584615E+03  0.80591202499E+02 0.  0.
         66    2    3    3    0    0  0.30037982191E+02 -0.37192625026E+01 -0.31813296357E+02  0.43956787120E+02  0.20000052981E+01 0.  0.
        -13    1    3    3    0    0 -0.30037982191E+02  0.37192625026E+01 -0.18281033019E+03  0.18529905903E+03  0.10566000000E+00 0.  1.
         13    1    4    4    0    0  0.24833960517E+02 -0.26734038228E+01 -0.25660586048E+02  0.35809908173E+02  0.10566000000E+00 0. -1.
        -13    1    4    4    0    0  0.22515991272E+01 -0.42851794189E+00 -0.30849893472E+01  0.38446910883E+01  0.10566000000E+00 0.  1.
        -14    1    4    4    0    0  0.29524225469E+01 -0.61734073787E+00 -0.30677209615E+01  0.43021878596E+01  0.00000000000E+00 0.  1.
<mgrwt>
<rscale>  0 0.80591202E+02</rscale>
<asrwt>0</asrwt>
<pdfrwt beam="1">  1        2 0.11255555E-02 0.80591202E+02</pdfrwt>
<pdfrwt beam="2">  1       -1 0.34144570E-01 0.80591202E+02</pdfrwt>
<totfact> 0.94615448E+04</totfact>
</mgrwt>
</event>
<event>
 8    1  0.1600673E-013  0.7716167E+02  0.7818608E-02  0.1337305E+00
         -1   -1    0    0    0  501 -0.00000000000E+00  0.00000000000E+00  0.19894281010E+01  0.19894344851E+01  0.50400000000E-02 0.  1.
          2   -1    0    0  501    0  0.00000000000E+00 -0.00000000000E+00 -0.74819407706E+03  0.74819407706E+03  0.25500000000E-02 0. -1.
         24    2    1    2    0    0  0.00000000000E+00  0.00000000000E+00 -0.74620464896E+03  0.75018351155E+03  0.77161667120E+02 0.  0.
         66    2    3    3    0    0 -0.14598883912E+02 -0.16224761953E+02 -0.68234573829E+03  0.68269764675E+03  0.20000008186E+01 0.  0.
        -13    1    3    3    0    0  0.14598883912E+02  0.16224761953E+02 -0.63858910670E+02  0.67485864801E+02  0.10566000000E+00 0.  1.
         13    1    4    4    0    0 -0.24234373254E+01 -0.19172296597E+01 -0.10180131066E+03  0.10184825396E+03  0.10566000000E+00 0.  1.
        -13    1    4    4    0    0 -0.69173783098E+01 -0.75150530217E+01 -0.32701705455E+03  0.32717654450E+03  0.10566000000E+00 0. -1.
         14    1    4    4    0    0 -0.52580682772E+01 -0.67924792711E+01 -0.25352737308E+03  0.25367284829E+03  0.00000000000E+00 0. -1.
<mgrwt>
<rscale>  0 0.77161667E+02</rscale>
<asrwt>0</asrwt>
<pdfrwt beam="1">  1        2 0.11510656E+00 0.77161667E+02</pdfrwt>
<pdfrwt beam="2">  1       -1 0.30606695E-03 0.77161667E+02</pdfrwt>
<totfact> 0.37269704E+05</totfact>
</mgrwt>
</event>
<event>
 8    1  0.1600673E-013  0.7927211E+02  0.7818608E-02  0.1331130E+00
          2   -1    0    0  501    0  0.00000000000E+00  0.00000000000E+00  0.64954664136E+01  0.64954669141E+01  0.25500000000E-02 0. -1.
         -1   -1    0    0    0  501 -0.00000000000E+00 -0.00000000000E+00 -0.24186357996E+03  0.24186358001E+03  0.50400000000E-02 0.  1.
         24    2    1    2    0    0  0.88817841970E-15  0.71054273576E-14 -0.23536811355E+03  0.24835904693E+03  0.79272109319E+02 0.  0.
         66    2    3    3    0    0 -0.52676739473E+01 -0.36172024104E+02 -0.16556625104E+03  0.16956517096E+03  0.20000005464E+01 0.  0.
        -13    1    3    3    0    0  0.52676739473E+01  0.36172024104E+02 -0.69801862503E+02  0.78793875965E+02  0.10566000000E+00 0.  1.
         13    1    4    4    0    0 -0.13279272730E+01 -0.13096574162E+02 -0.58942795992E+02  0.60394933637E+02  0.10566000000E+00 0. -1.
        -13    1    4    4    0    0 -0.20774288988E+01 -0.13196317815E+02 -0.58054436769E+02  0.59571698879E+02  0.10566000000E+00 0.  1.
        -14    1    4    4    0    0 -0.18623177754E+01 -0.98791321268E+01 -0.48569018282E+02  0.49598538446E+02  0.00000000000E+00 0.  1.
<mgrwt>
<rscale>  0 0.79272109E+02</rscale>
<asrwt>0</asrwt>
<pdfrwt beam="1">  1        2 0.99930275E-03 0.79272109E+02</pdfrwt>
<pdfrwt beam="2">  1       -1 0.37209775E-01 0.79272109E+02</pdfrwt>
<totfact> 0.95893856E+04</totfact>
</mgrwt>
</event>
<event>
 8    1  0.1600673E-013  0.7950959E+02  0.7818608E-02  0.1330449E+00
          2   -1    0    0  501    0  0.00000000000E+00  0.00000000000E+00  0.15866818273E+03  0.15866818275E+03  0.25500000000E-02 0. -1.
         -1   -1    0    0    0  501 -0.00000000000E+00 -0.00000000000E+00 -0.99606836583E+01  0.99606849334E+01  0.50400000000E-02 0.  1.
         24    2    1    2    0    0 -0.17763568394E-14  0.35527136788E-14  0.14870749907E+03  0.16862886768E+03  0.79509588957E+02 0.  0.
         66    2    3    3    0    0  0.74325217667E+01 -0.16920745149E+02  0.14899005004E+03  0.15014522639E+03  0.20000005618E+01 0.  0.
        -13    1    3    3    0    0 -0.74325217667E+01  0.16920745149E+02 -0.28255096737E+00  0.18483641289E+02  0.10566000000E+00 0.  1.
         13    1    4    4    0    0  0.37152694721E+01 -0.92200634544E+01  0.80192855696E+02  0.80806670925E+02  0.10566000000E+00 0. -1.
        -13    1    4    4    0    0  0.92831657937E+00 -0.24202146040E+01  0.25464664607E+02  0.25596474718E+02  0.10566000000E+00 0.  1.
         14    1    4    4    0    0  0.27889357152E+01 -0.52804670911E+01  0.43332529734E+02  0.43742080750E+02  0.00000000000E+00 0. -1.
<mgrwt>
<rscale>  0 0.79509589E+02</rscale>
<asrwt>0</asrwt>
<pdfrwt beam="1">  1        2 0.24410488E-01 0.79509589E+02</pdfrwt>
<pdfrwt beam="2">  1       -1 0.15324131E-02 0.79509589E+02</pdfrwt>
<totfact> 0.20733966E+05</totfact>
</mgrwt>
</event>
<event>
 8    1  0.1600673E-013  0.8088910E+02  0.7818608E-02  0.1326547E+00
         -1   -1    0    0    0  501 -0.00000000000E+00  0.00000000000E+00  0.63472301648E+01  0.63472321658E+01  0.50400000000E-02 0.  1.
          2   -1    0    0  501    0  0.00000000000E+00 -0.00000000000E+00 -0.25771263164E+03  0.25771263165E+03  0.25500000000E-02 0. -1.
         24    2    1    2    0    0 -0.88817841970E-15  0.00000000000E+00 -0.25136540147E+03  0.26405986382E+03  0.80889100755E+02 0.  0.
         66    2    3    3    0    0  0.53001061884E+01  0.29415470339E+02 -0.21458618261E+03  0.21666700438E+03  0.20000003114E+01 0.  0.
        -13    1    3    3    0    0 -0.53001061884E+01 -0.29415470339E+02 -0.36779218864E+02  0.47392859432E+02  0.10566000000E+00 0.  1.
         13    1    4    4    0    0  0.12033878214E+01  0.79689521418E+01 -0.60352629044E+02  0.60888449947E+02  0.10566000000E+00 0. -1.
        -13    1    4    4    0    0  0.51664848907E+00  0.39433465539E+01 -0.24576496730E+02  0.24896430734E+02  0.10566000000E+00 0.  1.
        -14    1    4    4    0    0  0.35800698780E+01  0.17503171643E+02 -0.12965705683E+03  0.13088212370E+03  0.00000000000E+00 0.  1.
<mgrwt>
<rscale>  0 0.80889101E+02</rscale>
<asrwt>0</asrwt>
<pdfrwt beam="1">  1        2 0.39648089E-01 0.80889101E+02</pdfrwt>
<pdfrwt beam="2">  1       -1 0.97649731E-03 0.80889101E+02</pdfrwt>
<totfact> 0.23439022E+05</totfact>
</mgrwt>
</event>
<event>
 8    1  0.1600673E-013  0.7975002E+02  0.7818608E-02  0.1329762E+00
         -1   -1    0    0    0  501 -0.00000000000E+00  0.00000000000E+00  0.10667665712E+02  0.10667666903E+02  0.50400000000E-02 0.  1.
          2   -1    0    0  501    0  0.00000000000E+00 -0.00000000000E+00 -0.14905006839E+03  0.14905006841E+03  0.25500000000E-02 0. -1.
         24    2    1    2    0    0 -0.35527136788E-14  0.35527136788E-14 -0.13838240268E+03  0.15971773532E+03  0.79750019456E+02 0.  0.
         66    2    3    3    0    0  0.22159769895E+02 -0.20761113138E+02 -0.12091636411E+03  0.12468699327E+03  0.19999907151E+01 0.  0.
        -13    1    3    3    0    0 -0.22159769895E+02  0.20761113138E+02 -0.17466038575E+02  0.35030742043E+02  0.10566000000E+00 0.  1.
         13    1    4    4    0    0  0.12964285106E+02 -0.12678497996E+02 -0.72930892476E+02  0.75151468656E+02  0.10566000000E+00 0. -1.
        -13    1    4    4    0    0  0.38355044137E+01 -0.32449844310E+01 -0.21909076685E+02  0.22477985303E+02  0.10566000000E+00 0.  1.
        -14    1    4    4    0    0  0.53599803755E+01 -0.48376307103E+01 -0.26076394945E+02  0.27057539316E+02  0.00000000000E+00 0.  1.
<mgrwt>
<rscale>  0 0.79750019E+02</rscale>
<asrwt>0</asrwt>
<pdfrwt beam="1">  1        2 0.22930778E-01 0.79750019E+02</pdfrwt>
<pdfrwt beam="2">  1       -1 0.16411796E-02 0.79750019E+02</pdfrwt>
<totfact> 0.20155773E+05</totfact>
</mgrwt>
</event>
<event>
 8    1  0.1600673E-013  0.7955727E+02  0.7818608E-02  0.1330313E+00
          2   -1    0    0  501    0  0.00000000000E+00  0.00000000000E+00  0.38429990481E+03  0.38429990482E+03  0.25500000000E-02 0. -1.
         -1   -1    0    0    0  501 -0.00000000000E+00 -0.00000000000E+00 -0.41174594537E+01  0.41174625383E+01  0.50400000000E-02 0.  1.
         24    2    1    2    0    0  0.00000000000E+00  0.00000000000E+00  0.38018244536E+03  0.38841736736E+03  0.79557271869E+02 0.  0.
         66    2    3    3    0    0 -0.22999530017E+02 -0.79549298032E+01  0.34367761378E+03  0.34454399067E+03  0.20000017401E+01 0.  0.
        -13    1    3    3    0    0  0.22999530017E+02  0.79549298032E+01  0.36504831581E+02  0.43873376688E+02  0.10566000000E+00 0.  1.
         13    1    4    4    0    0 -0.10481253138E+02 -0.36877382839E+01  0.15289039061E+03  0.15329363583E+03  0.10566000000E+00 0. -1.
        -13    1    4    4    0    0 -0.20902760992E+01 -0.45943720052E+00  0.24862848249E+02  0.24955014001E+02  0.10566000000E+00 0.  1.
         14    1    4    4    0    0 -0.10428000779E+02 -0.38077543188E+01  0.16592437492E+03  0.16629534084E+03  0.00000000000E+00 0. -1.
<mgrwt>
<rscale>  0 0.79557272E+02</rscale>
<asrwt>0</asrwt>
<pdfrwt beam="1">  1        2 0.59123060E-01 0.79557272E+02</pdfrwt>
<pdfrwt beam="2">  1       -1 0.63345557E-03 0.79557272E+02</pdfrwt>
<totfact> 0.28265780E+05</totfact>
</mgrwt>
</event>
<event>
 8    1  0.1600673E-013  0.8044170E+02  0.7818608E-02  0.1327803E+00
          2   -1    0    0  501    0  0.00000000000E+00  0.00000000000E+00  0.61160418913E+03  0.61160418914E+03  0.25500000000E-02 0. -1.
         -1   -1    0    0    0  501 -0.00000000000E+00 -0.00000000000E+00 -0.26450362575E+01  0.26450410592E+01  0.50400000000E-02 0.  1.
         24    2    1    2    0    0 -0.17763568394E-14  0.00000000000E+00  0.60895915287E+03  0.61424923020E+03  0.80441698934E+02 0.  0.
         66    2    3    3    0    0  0.14835194862E+02 -0.35653146524E+02  0.38986273460E+03  0.39177567777E+03  0.20000000682E+01 0.  0.
        -13    1    3    3    0    0 -0.14835194862E+02  0.35653146524E+02  0.21909641828E+03  0.22247355243E+03  0.10566000000E+00 0.  1.
         13    1    4    4    0    0  0.89385248211E+01 -0.20965368384E+02  0.23893197441E+03  0.24001654830E+03  0.10566000000E+00 0. -1.
        -13    1    4    4    0    0  0.41529651002E+01 -0.10775121102E+02  0.11137015792E+03  0.11196728805E+03  0.10566000000E+00 0.  1.
         14    1    4    4    0    0  0.17437049409E+01 -0.39126570380E+01  0.39560602268E+02  0.39791841423E+02  0.00000000000E+00 0. -1.
<mgrwt>
<rscale>  0 0.80441699E+02</rscale>
<asrwt>0</asrwt>
<pdfrwt beam="1">  1        2 0.94092982E-01 0.80441699E+02</pdfrwt>
<pdfrwt beam="2">  1       -1 0.40692890E-03 0.80441699E+02</pdfrwt>
<totfact> 0.31873767E+05</totfact>
</mgrwt>
</event>
<event>
 8    1  0.1600673E-013  0.8164459E+02  0.7818608E-02  0.1324448E+00
          2   -1    0    0  501    0  0.00000000000E+00  0.00000000000E+00  0.51900881135E+02  0.51900881198E+02  0.25500000000E-02 0. -1.
         -1   -1    0    0    0  501 -0.00000000000E+00 -0.00000000000E+00 -0.32108506937E+02  0.32108507333E+02  0.50400000000E-02 0.  1.
         24    2    1    2    0    0  0.71054273576E-14  0.00000000000E+00  0.19792374198E+02  0.84009388530E+02  0.81644591277E+02 0.  0.
         66    2    3    3    0    0 -0.38142857454E+02  0.14462537392E+02  0.92414264637E+01  0.41874174935E+02  0.20000002020E+01 0.  0.
        -13    1    3    3    0    0  0.38142857454E+02 -0.14462537392E+02  0.10550947734E+02  0.42135213595E+02  0.10566000000E+00 0.  1.
         13    1    4    4    0    0 -0.13729691566E+02  0.52027602152E+01  0.26773462565E+01  0.14924895021E+02  0.10566000000E+00 0. -1.
        -13    1    4    4    0    0 -0.34011389648E+01  0.90529585501E+00  0.10559926534E+01  0.36760836991E+01  0.10566000000E+00 0.  1.
        -14    1    4    4    0    0 -0.21012026923E+02  0.83544813214E+01  0.55080875538E+01  0.23273196215E+02  0.00000000000E+00 0.  1.
<mgrwt>
<rscale>  0 0.81644591E+02</rscale>
<asrwt>0</asrwt>
<pdfrwt beam="1">  1        2 0.79847509E-02 0.81644591E+02</pdfrwt>
<pdfrwt beam="2">  1       -1 0.49397704E-02 0.81644591E+02</pdfrwt>
<totfact> 0.14248734E+05</totfact>
</mgrwt>
</event>
<event>
 8    1  0.1600673E-013  0.7926707E+02  0.7818608E-02  0.1331144E+00
          2   -1    0    0  501    0  0.00000000000E+00  0.00000000000E+00  0.23417183205E+02  0.23417183344E+02  0.25500000000E-02 0. -1.
         -1   -1    0    0    0  501 -0.00000000000E+00 -0.00000000000E+00 -0.67079677371E+02  0.67079677561E+02  0.50400000000E-02 0.  1.
         24    2    1    2    0    0 -0.71054273576E-14  0.88817841970E-15 -0.43662494166E+02  0.90496860905E+02  0.79267070318E+02 0.  0.
         66    2    3    3    0    0 -0.33550147769E+02  0.47050606405E+01  0.15817389252E+01  0.33974283088E+02  0.20000006022E+01 0.  0.
        -13    1    3    3    0    0  0.33550147769E+02 -0.47050606405E+01 -0.45244233091E+02  0.56522577816E+02  0.10566000000E+00 0.  1.
         13    1    4    4    0    0 -0.70413795654E+00 -0.69071094129E-01  0.17782682750E+00  0.73713465124E+00  0.10566000000E+00 0. -1.
        -13    1    4    4    0    0 -0.96232862732E+01  0.16516722018E+01  0.80672512214E+00  0.97978379868E+01  0.10566000000E+00 0.  1.
         14    1    4    4    0    0 -0.23222723539E+02  0.31224595329E+01  0.59718697554E+00  0.23439310450E+02  0.00000000000E+00 0. -1.
<mgrwt>
<rscale>  0 0.79267070E+02</rscale>
<asrwt>0</asrwt>
<pdfrwt beam="1">  1        2 0.36026436E-02 0.79267070E+02</pdfrwt>
<pdfrwt beam="2">  1       -1 0.10319950E-01 0.79267070E+02</pdfrwt>
<totfact> 0.13153003E+05</totfact>
</mgrwt>
</event>
<event>
 8    1  0.1600673E-013  0.7986236E+02  0.7818608E-02  0.1329442E+00
         -1   -1    0    0    0  501 -0.00000000000E+00  0.00000000000E+00  0.12657036325E+02  0.12657037329E+02  0.50400000000E-02 0.  1.
          2   -1    0    0  501    0  0.00000000000E+00 -0.00000000000E+00 -0.12597728363E+03  0.12597728366E+03  0.25500000000E-02 0. -1.
         24    2    1    2    0    0  0.00000000000E+00  0.00000000000E+00 -0.11332024731E+03  0.13863432099E+03  0.79862359757E+02 0.  0.
         66    2    3    3    0    0 -0.19455638315E+02 -0.34301707691E+02 -0.46084419972E+02  0.60686924275E+02  0.20000002623E+01 0.  0.
        -13    1    3    3    0    0  0.19455638315E+02  0.34301707691E+02 -0.67235827337E+02  0.77947396714E+02  0.10566000000E+00 0.  1.
         13    1    4    4    0    0 -0.13045059414E+02 -0.21534735224E+02 -0.29931771337E+02  0.39113175474E+02  0.10566000000E+00 0. -1.
        -13    1    4    4    0    0 -0.48962410924E+01 -0.92522449966E+01 -0.11561226098E+02  0.15596484451E+02  0.10566000000E+00 0.  1.
        -14    1    4    4    0    0 -0.15143378081E+01 -0.35147274705E+01 -0.45914225379E+01  0.59772643500E+01  0.00000000000E+00 0.  1.
<mgrwt>
<rscale>  0 0.79862360E+02</rscale>
<asrwt>0</asrwt>
<pdfrwt beam="1">  1        2 0.19381120E-01 0.79862360E+02</pdfrwt>
<pdfrwt beam="2">  1       -1 0.19472365E-02 0.79862360E+02</pdfrwt>
<totfact> 0.19050158E+05</totfact>
</mgrwt>
</event>
<event>
 8    1  0.1600673E-013  0.7556059E+02  0.7818608E-02  0.1342144E+00
          2   -1    0    0  501    0  0.00000000000E+00  0.00000000000E+00  0.60585724115E+01  0.60585729481E+01  0.25500000000E-02 0. -1.
         -1   -1    0    0    0  501 -0.00000000000E+00 -0.00000000000E+00 -0.23559188132E+03  0.23559188137E+03  0.50400000000E-02 0.  1.
         24    2    1    2    0    0  0.17763568394E-14  0.00000000000E+00 -0.22953330890E+03  0.24165045432E+03  0.75560586124E+02 0.  0.
         66    2    3    3    0    0 -0.10231695021E+02 -0.33828579498E+02 -0.72384847033E+02  0.80576835726E+02  0.20000004313E+01 0.  0.
        -13    1    3    3    0    0  0.10231695021E+02  0.33828579498E+02 -0.15714846187E+03  0.16107361859E+03  0.10566000000E+00 0.  1.
         13    1    4    4    0    0 -0.12230663606E+01 -0.34378317161E+01 -0.67192207225E+01  0.76468077904E+01  0.10566000000E+00 0. -1.
        -13    1    4    4    0    0 -0.57618087134E+00 -0.21866672632E+01 -0.39369970280E+01  0.45414323457E+01  0.10566000000E+00 0.  1.
        -14    1    4    4    0    0 -0.84324477887E+01 -0.28204080519E+02 -0.61728629283E+02  0.68388595590E+02  0.00000000000E+00 0.  1.
<mgrwt>
<rscale>  0 0.75560586E+02</rscale>
<asrwt>0</asrwt>
<pdfrwt beam="1">  1        2 0.93208829E-03 0.75560586E+02</pdfrwt>
<pdfrwt beam="2">  1       -1 0.36244898E-01 0.75560586E+02</pdfrwt>
<totfact> 0.10933954E+05</totfact>
</mgrwt>
</event>
<event>
 8    1  0.1600673E-013  0.7741537E+02  0.7818608E-02  0.1336550E+00
          2   -1    0    0  501    0  0.00000000000E+00  0.00000000000E+00  0.48106531764E+03  0.48106531765E+03  0.25500000000E-02 0. -1.
         -1   -1    0    0    0  501 -0.00000000000E+00 -0.00000000000E+00 -0.31145123639E+01  0.31145164419E+01  0.50400000000E-02 0.  1.
         24    2    1    2    0    0  0.00000000000E+00  0.35527136788E-14  0.47795080528E+03  0.48417983409E+03  0.77415369753E+02 0.  0.
         66    2    3    3    0    0 -0.33042366223E+01 -0.27473432030E+02  0.40818289636E+03  0.40912465622E+03  0.19999986005E+01 0.  0.
        -13    1    3    3    0    0  0.33042366223E+01  0.27473432030E+02  0.69767908915E+02  0.75055177873E+02  0.10566000000E+00 0.  1.
         13    1    4    4    0    0 -0.34148464535E+01 -0.24302771391E+02  0.35766727645E+03  0.35850826724E+03  0.10566000000E+00 0. -1.
        -13    1    4    4    0    0  0.12644158141E+00 -0.13943161259E+01  0.24490402668E+02  0.24530615398E+02  0.10566000000E+00 0.  1.
         14    1    4    4    0    0 -0.15831750135E-01 -0.17763445131E+01  0.26025217250E+02  0.26085773583E+02  0.00000000000E+00 0. -1.
<mgrwt>
<rscale>  0 0.77415370E+02</rscale>
<asrwt>0</asrwt>
<pdfrwt beam="1">  1        2 0.74010066E-01 0.77415370E+02</pdfrwt>
<pdfrwt beam="2">  1       -1 0.47915595E-03 0.77415370E+02</pdfrwt>
<totfact> 0.32759110E+05</totfact>
</mgrwt>
</event>
<event>
 8    1  0.1600673E-013  0.8074382E+02  0.7818608E-02  0.1326954E+00
         -1   -1    0    0    0  501 -0.00000000000E+00  0.00000000000E+00  0.21819835254E+01  0.21819893461E+01  0.50400000000E-02 0.  1.
          2   -1    0    0  501    0  0.00000000000E+00 -0.00000000000E+00 -0.74697580133E+03  0.74697580134E+03  0.25500000000E-02 0. -1.
         24    2    1    2    0    0 -0.17763568394E-14  0.00000000000E+00 -0.74479381781E+03  0.74915779068E+03  0.80743818942E+02 0.  0.
         66    2    3    3    0    0  0.15605438205E+02  0.32926074907E+02 -0.53338958487E+03  0.53463642350E+03  0.19999936507E+01 0.  0.
        -13    1    3    3    0    0 -0.15605438205E+02 -0.32926074907E+02 -0.21140423294E+03  0.21452136719E+03  0.10566000000E+00 0.  1.
         13    1    4    4    0    0  0.29993086454E+01  0.56291589789E+01 -0.10384666275E+03  0.10404241352E+03  0.10566000000E+00 0. -1.
        -13    1    4    4    0    0  0.77297230601E+01  0.16658217367E+02 -0.26335074197E+03  0.26399028256E+03  0.10566000000E+00 0.  1.
         14    1    4    4    0    0  0.48764064995E+01  0.10638698562E+02 -0.16619218014E+03  0.16660372741E+03  0.00000000000E+00 0. -1.
<mgrwt>
<rscale>  0 0.80743819E+02</rscale>
<asrwt>0</asrwt>
<pdfrwt beam="1">  1        2 0.11491915E+00 0.80743819E+02</pdfrwt>
<pdfrwt beam="2">  1       -1 0.33569082E-03 0.80743819E+02</pdfrwt>
<totfact> 0.33118483E+05</totfact>
</mgrwt>
</event>
<event>
 8    1  0.1600673E-013  0.8108338E+02  0.7818608E-02  0.1326005E+00
         -1   -1    0    0    0  501 -0.00000000000E+00  0.00000000000E+00  0.10642481745E+02  0.10642482939E+02  0.50400000000E-02 0.  1.
          2   -1    0    0  501    0  0.00000000000E+00 -0.00000000000E+00 -0.15444035609E+03  0.15444035611E+03  0.25500000000E-02 0. -1.
         24    2    1    2    0    0  0.00000000000E+00  0.00000000000E+00 -0.14379787435E+03  0.16508283905E+03  0.81083383519E+02 0.  0.
         66    2    3    3    0    0 -0.21419485836E+02  0.34216126787E+02 -0.64864520451E+02  0.76426067020E+02  0.20000002546E+01 0.  0.
        -13    1    3    3    0    0  0.21419485836E+02 -0.34216126787E+02 -0.78933353898E+02  0.88656772033E+02  0.10566000000E+00 0.  1.
         13    1    4    4    0    0 -0.48234636947E+01  0.84607694222E+01 -0.16852282225E+02  0.19464352068E+02  0.10566000000E+00 0. -1.
        -13    1    4    4    0    0 -0.25376652001E+01  0.44602986697E+01 -0.78786828707E+01  0.94031280276E+01  0.10566000000E+00 0.  1.
         14    1    4    4    0    0 -0.14058356941E+02  0.21295058696E+02 -0.40133555355E+02  0.47558586924E+02  0.00000000000E+00 0. -1.
<mgrwt>
<rscale>  0 0.81083384E+02</rscale>
<asrwt>0</asrwt>
<pdfrwt beam="1">  1        2 0.23760053E-01 0.81083384E+02</pdfrwt>
<pdfrwt beam="2">  1       -1 0.16373051E-02 0.81083384E+02</pdfrwt>
<totfact> 0.19510911E+05</totfact>
</mgrwt>
</event>
<event>
 8    1  0.1600673E-013  0.7877239E+02  0.7818608E-02  0.1332572E+00
          2   -1    0    0  501    0  0.00000000000E+00  0.00000000000E+00  0.26350487290E+02  0.26350487413E+02  0.25500000000E-02 0. -1.
         -1   -1    0    0    0  501 -0.00000000000E+00 -0.00000000000E+00 -0.58870728816E+02  0.58870729032E+02  0.50400000000E-02 0.  1.
         24    2    1    2    0    0 -0.17763568394E-14 -0.35527136788E-14 -0.32520241526E+02  0.85221216445E+02  0.78772391252E+02 0.  0.
         66    2    3    3    0    0  0.12052778887E+02  0.16523312796E+02  0.20112619221E+02  0.28754247879E+02  0.19999936260E+01 0.  0.
        -13    1    3    3    0    0 -0.12052778887E+02 -0.16523312796E+02 -0.52632860747E+02  0.56466968567E+02  0.10566000000E+00 0.  1.
         13    1    4    4    0    0  0.72655297515E+01  0.96576930663E+01  0.12263564530E+02  0.17218162996E+02  0.10566000000E+00 0. -1.
        -13    1    4    4    0    0  0.46885684898E+01  0.67113625848E+01  0.73432823549E+01  0.10998182668E+02  0.10566000000E+00 0.  1.
         14    1    4    4    0    0  0.98680645385E-01  0.15425714468E+00  0.50577233602E+00  0.53790221447E+00  0.00000000000E+00 0. -1.
<mgrwt>
<rscale>  0 0.78772391E+02</rscale>
<asrwt>0</asrwt>
<pdfrwt beam="1">  1        2 0.40539211E-02 0.78772391E+02</pdfrwt>
<pdfrwt beam="2">  1       -1 0.90570352E-02 0.78772391E+02</pdfrwt>
<totfact> 0.13700170E+05</totfact>
</mgrwt>
</event>
<event>
 8    1  0.1600673E-013  0.7710299E+02  0.7818608E-02  0.1337480E+00
          2   -1    0    0  501    0  0.00000000000E+00  0.00000000000E+00  0.19916936334E+02  0.19916936498E+02  0.25500000000E-02 0. -1.
         -1   -1    0    0    0  501 -0.00000000000E+00 -0.00000000000E+00 -0.74620800297E+02  0.74620800467E+02  0.50400000000E-02 0.  1.
         24    2    1    2    0    0  0.00000000000E+00  0.00000000000E+00 -0.54703863962E+02  0.94537736965E+02  0.77102989423E+02 0.  0.
         66    2    3    3    0    0  0.98373465777E+01 -0.31463141613E+02 -0.29242675369E+01  0.33154999670E+02  0.19999986579E+01 0.  0.
        -13    1    3    3    0    0 -0.98373465777E+01  0.31463141613E+02 -0.51779596426E+02  0.61382737295E+02  0.10566000000E+00 0.  1.
         13    1    4    4    0    0  0.66562815597E+01 -0.20852155140E+02 -0.15068665555E+01  0.21940835650E+02  0.10566000000E+00 0. -1.
        -13    1    4    4    0    0  0.16551784817E+01 -0.39329548767E+01 -0.71925661827E+00  0.43285383199E+01  0.10566000000E+00 0.  1.
        -14    1    4    4    0    0  0.15258865363E+01 -0.66780315963E+01 -0.69814436318E+00  0.68856256996E+01  0.00000000000E+00 0.  1.
<mgrwt>
<rscale>  0 0.77102989E+02</rscale>
<asrwt>0</asrwt>
<pdfrwt beam="1">  1        2 0.30641441E-02 0.77102989E+02</pdfrwt>
<pdfrwt beam="2">  1       -1 0.11480123E-01 0.77102989E+02</pdfrwt>
<totfact> 0.13786607E+05</totfact>
</mgrwt>
</event>
<event>
 8    1  0.1600673E-013  0.7930293E+02  0.7818608E-02  0.1331041E+00
         -1   -1    0    0    0  501 -0.00000000000E+00  0.00000000000E+00  0.40591294971E+02  0.40591295284E+02  0.50400000000E-02 0.  1.
          2   -1    0    0  501    0  0.00000000000E+00 -0.00000000000E+00 -0.38733392738E+02  0.38733392822E+02  0.25500000000E-02 0. -1.
         24    2    1    2    0    0  0.00000000000E+00 -0.35527136788E-14  0.18579022331E+01  0.79324688106E+02  0.79302927704E+02 0.  0.
         66    2    3    3    0    0 -0.21811102110E+02 -0.28577020805E+02 -0.15744266915E+02  0.39296975005E+02  0.20000026316E+01 0.  0.
        -13    1    3    3    0    0  0.21811102110E+02  0.28577020805E+02  0.17602169148E+02  0.40027713101E+02  0.10566000000E+00 0.  1.
         13    1    4    4    0    0 -0.72671914857E+01 -0.91241359754E+01 -0.48205431328E+01  0.12621835426E+02  0.10566000000E+00 0. -1.
        -13    1    4    4    0    0 -0.29231255273E+01 -0.49289380838E+01 -0.23785262381E+01  0.62054528105E+01  0.10566000000E+00 0.  1.
        -14    1    4    4    0    0 -0.11620785097E+02 -0.14523946746E+02 -0.85451975444E+01  0.20469686769E+02  0.00000000000E+00 0.  1.
<mgrwt>
<rscale>  0 0.79302928E+02</rscale>
<asrwt>0</asrwt>
<pdfrwt beam="1">  1        2 0.59589835E-02 0.79302928E+02</pdfrwt>
<pdfrwt beam="2">  1       -1 0.62448146E-02 0.79302928E+02</pdfrwt>
<totfact> 0.14508639E+05</totfact>
</mgrwt>
</event>
<event>
 8    1  0.1600673E-013  0.7906965E+02  0.7818608E-02  0.1331713E+00
          2   -1    0    0  501    0  0.00000000000E+00  0.00000000000E+00  0.30971219290E+03  0.30971219291E+03  0.25500000000E-02 0. -1.
         -1   -1    0    0    0  501 -0.00000000000E+00 -0.00000000000E+00 -0.50466272966E+01  0.50466298133E+01  0.50400000000E-02 0.  1.
         24    2    1    2    0    0  0.00000000000E+00 -0.44408920985E-15  0.30466556561E+03  0.31475882273E+03  0.79069650424E+02 0.  0.
         66    2    3    3    0    0  0.35143952531E+02 -0.25935265159E+01  0.22354831545E+03  0.22631763766E+03  0.19999988710E+01 0.  0.
        -13    1    3    3    0    0 -0.35143952531E+02  0.25935265159E+01  0.81117250155E+02  0.88441185067E+02  0.10566000000E+00 0.  1.
         13    1    4    4    0    0  0.38604754604E+01 -0.31799121066E+00  0.27242572306E+02  0.27516782135E+02  0.10566000000E+00 0. -1.
        -13    1    4    4    0    0  0.11976517055E+02 -0.27938921211E+00  0.72767048474E+02  0.73746657733E+02  0.10566000000E+00 0.  1.
        -14    1    4    4    0    0  0.19306960016E+02 -0.19961460931E+01  0.12353869467E+03  0.12505419779E+03  0.00000000000E+00 0.  1.
<mgrwt>
<rscale>  0 0.79069650E+02</rscale>
<asrwt>0</asrwt>
<pdfrwt beam="1">  1        2 0.47648025E-01 0.79069650E+02</pdfrwt>
<pdfrwt beam="2">  1       -1 0.77640447E-03 0.79069650E+02</pdfrwt>
<totfact> 0.26592448E+05</totfact>
</mgrwt>
</event>
<event>
 8    1  0.1600673E-013  0.7917427E+02  0.7818608E-02  0.1331411E+00
         -1   -1    0    0    0  501 -0.00000000000E+00  0.00000000000E+00  0.66578968564E+00  0.66580876166E+00  0.50400000000E-02 0.  1.
          2   -1    0    0  501    0  0.00000000000E+00 -0.00000000000E+00 -0.23537744279E+04  0.23537744279E+04  0.25500000000E-02 0. -1.
         24    2    1    2    0    0  0.44408920985E-15  0.00000000000E+00 -0.23531086382E+04  0.23544402367E+04  0.79174268414E+02 0.  0.
         66    2    3    3    0    0 -0.29606534455E+01 -0.10689826106E+02 -0.23065814862E+04  0.23066090241E+04  0.20000014429E+01 0.  0.
        -13    1    3    3    0    0  0.29606534455E+01  0.10689826106E+02 -0.46527152056E+02  0.47831212544E+02  0.10566000000E+00 0.  1.
         13    1    4    4    0    0 -0.11402897068E+01 -0.56611137446E+01 -0.11650027637E+04  0.11650170810E+04  0.10566000000E+00 0. -1.
        -13    1    4    4    0    0 -0.13228334298E+01 -0.29084148562E+01 -0.55808462675E+03  0.55809378293E+03  0.10566000000E+00 0.  1.
         14    1    4    4    0    0 -0.49753030892E+00 -0.21202975050E+01 -0.58349409575E+03  0.58349816022E+03  0.00000000000E+00 0. -1.
<mgrwt>
<rscale>  0 0.79174268E+02</rscale>
<asrwt>0</asrwt>
<pdfrwt beam="1">  1        2 0.36211248E+00 0.79174268E+02</pdfrwt>
<pdfrwt beam="2">  1       -1 0.10243253E-03 0.79174268E+02</pdfrwt>
<totfact> 0.23633804E+05</totfact>
</mgrwt>
</event>
<event>
 8    1  0.1600673E-013  0.7905280E+02  0.7818608E-02  0.1331761E+00
          2   -1    0    0  501    0  0.00000000000E+00  0.00000000000E+00  0.15421487135E+03  0.15421487137E+03  0.25500000000E-02 0. -1.
         -1   -1    0    0    0  501 -0.00000000000E+00 -0.00000000000E+00 -0.10130906000E+02  0.10130907254E+02  0.50400000000E-02 0.  1.
         24    2    1    2    0    0  0.00000000000E+00  0.00000000000E+00  0.14408396535E+03  0.16434577862E+03  0.79052804383E+02 0.  0.
         66    2    3    3    0    0 -0.25949891809E+02  0.19629404274E+02  0.11864970368E+03  0.12304658701E+03  0.19999987979E+01 0.  0.
        -13    1    3    3    0    0  0.25949891809E+02 -0.19629404274E+02  0.25434261669E+02  0.41299191611E+02  0.10566000000E+00 0.  1.
         13    1    4    4    0    0 -0.14236334602E+02  0.10593708150E+02  0.67681610720E+02  0.69969360930E+02  0.10566000000E+00 0. -1.
        -13    1    4    4    0    0 -0.79782362020E+01  0.65239922739E+01  0.36152746500E+02  0.37593177195E+02  0.10566000000E+00 0.  1.
         14    1    4    4    0    0 -0.37353210051E+01  0.25117038496E+01  0.14815346458E+02  0.15484048886E+02  0.00000000000E+00 0. -1.
<mgrwt>
<rscale>  0 0.79052804E+02</rscale>
<asrwt>0</asrwt>
<pdfrwt beam="1">  1        2 0.23725366E-01 0.79052804E+02</pdfrwt>
<pdfrwt beam="2">  1       -1 0.15586010E-02 0.79052804E+02</pdfrwt>
<totfact> 0.20858533E+05</totfact>
</mgrwt>
</event>
<event>
 8    1  0.1600673E-013  0.7798527E+02  0.7818608E-02  0.1334868E+00
         -1   -1    0    0    0  501 -0.00000000000E+00  0.00000000000E+00  0.16090595344E+02  0.16090596133E+02  0.50400000000E-02 0.  1.
          2   -1    0    0  501    0  0.00000000000E+00 -0.00000000000E+00 -0.94491570674E+02  0.94491570708E+02  0.25500000000E-02 0. -1.
         24    2    1    2    0    0  0.00000000000E+00  0.00000000000E+00 -0.78400975330E+02  0.11058216684E+03  0.77985272267E+02 0.  0.
         66    2    3    3    0    0  0.20030569688E+02  0.45920042546E+01 -0.86172315177E+02  0.88611388245E+02  0.19999996642E+01 0.  0.
        -13    1    3    3    0    0 -0.20030569688E+02 -0.45920042546E+01  0.77713398466E+01  0.21970778596E+02  0.10566000000E+00 0.  1.
         13    1    4    4    0    0  0.43831323155E+01  0.11611996675E+01 -0.18683326728E+02  0.19225974493E+02  0.10566000000E+00 0. -1.
        -13    1    4    4    0    0  0.41056419831E+01  0.16318504362E+01 -0.17412842728E+02  0.17964895987E+02  0.10566000000E+00 0.  1.
        -14    1    4    4    0    0  0.11541795389E+02  0.17989541508E+01 -0.50076145722E+02  0.51420517764E+02  0.00000000000E+00 0.  1.
<mgrwt>
<rscale>  0 0.77985272E+02</rscale>
<asrwt>0</asrwt>
<pdfrwt beam="1">  1        2 0.14537164E-01 0.77985272E+02</pdfrwt>
<pdfrwt beam="2">  1       -1 0.24754763E-02 0.77985272E+02</pdfrwt>
<totfact> 0.18683846E+05</totfact>
</mgrwt>
</event>
<event>
 8    1  0.1600673E-013  0.7940545E+02  0.7818608E-02  0.1330747E+00
          2   -1    0    0  501    0  0.00000000000E+00  0.00000000000E+00  0.77232152712E+03  0.77232152713E+03  0.25500000000E-02 0. -1.
         -1   -1    0    0    0  501 -0.00000000000E+00 -0.00000000000E+00 -0.20409943091E+01  0.20410005320E+01  0.50400000000E-02 0.  1.
         24    2    1    2    0    0 -0.35527136788E-14  0.00000000000E+00  0.77028053281E+03  0.77436252766E+03  0.79405446984E+02 0.  0.
         66    2    3    3    0    0  0.28684260498E+02 -0.14205592100E+01  0.65236398518E+03  0.65299890807E+03  0.19999994866E+01 0.  0.
        -13    1    3    3    0    0 -0.28684260498E+02  0.14205592100E+01  0.11791654764E+03  0.12136361959E+03  0.10566000000E+00 0.  1.
         13    1    4    4    0    0  0.18824882089E+01  0.97550333253E-01  0.37188478407E+02  0.37236371577E+02  0.10566000000E+00 0. -1.
        -13    1    4    4    0    0  0.43259358561E+01 -0.62825946810E+00  0.92728307129E+02  0.92831344588E+02  0.10566000000E+00 0.  1.
         14    1    4    4    0    0  0.22475836433E+02 -0.88985007512E+00  0.52244719964E+03  0.52293119191E+03  0.00000000000E+00 0. -1.
<mgrwt>
<rscale>  0 0.79405447E+02</rscale>
<asrwt>0</asrwt>
<pdfrwt beam="1">  1        2 0.11881875E+00 0.79405447E+02</pdfrwt>
<pdfrwt beam="2">  1       -1 0.31399947E-03 0.79405447E+02</pdfrwt>
<totfact> 0.34815774E+05</totfact>
</mgrwt>
</event>
<event>
 8    1  0.1600673E-013  0.7979316E+02  0.7818608E-02  0.1329639E+00
         -1   -1    0    0    0  501 -0.00000000000E+00  0.00000000000E+00  0.32648742345E+02  0.32648742734E+02  0.50400000000E-02 0.  1.
          2   -1    0    0  501    0  0.00000000000E+00 -0.00000000000E+00 -0.48753398527E+02  0.48753398593E+02  0.25500000000E-02 0. -1.
         24    2    1    2    0    0  0.35527136788E-14 -0.35527136788E-14 -0.16104656181E+02  0.81402141328E+02  0.79793161750E+02 0.  0.
         66    2    3    3    0    0  0.19861737336E+02 -0.19827472491E+02 -0.36950094610E+02  0.46442725676E+02  0.20000002747E+01 0.  0.
        -13    1    3    3    0    0 -0.19861737336E+02  0.19827472491E+02  0.20845438429E+02  0.34959415652E+02  0.10566000000E+00 0.  1.
         13    1    4    4    0    0  0.18790786116E+02 -0.18396457341E+02 -0.33977605162E+02  0.42965242954E+02  0.10566000000E+00 0. -1.
        -13    1    4    4    0    0  0.48134096355E+00 -0.56978839634E+00 -0.14066408868E+01  0.15956661806E+01  0.10566000000E+00 0. -1.
         14    1    4    4    0    0  0.58961025721E+00 -0.86122675393E+00 -0.15658485613E+01  0.18818165410E+01  0.00000000000E+00 0. -1.
<mgrwt>
<rscale>  0 0.79793162E+02</rscale>
<asrwt>0</asrwt>
<pdfrwt beam="1">  1        2 0.75005229E-02 0.79793162E+02</pdfrwt>
<pdfrwt beam="2">  1       -1 0.50228835E-02 0.79793162E+02</pdfrwt>
<totfact> 0.14967252E+05</totfact>
</mgrwt>
</event>
<event>
 8    1  0.1600673E-013  0.7982771E+02  0.7818608E-02  0.1329541E+00
          2   -1    0    0  501    0  0.00000000000E+00  0.00000000000E+00  0.17610557879E+03  0.17610557881E+03  0.25500000000E-02 0. -1.
         -1   -1    0    0    0  501 -0.00000000000E+00 -0.00000000000E+00 -0.90463667515E+01  0.90463681554E+01  0.50400000000E-02 0.  1.
         24    2    1    2    0    0  0.00000000000E+00  0.35527136788E-14  0.16705921204E+03  0.18515194696E+03  0.79827709084E+02 0.  0.
         66    2    3    3    0    0 -0.29516552852E+02 -0.23422199891E+02  0.53226654190E+02  0.65244946624E+02  0.20000009449E+01 0.  0.
        -13    1    3    3    0    0  0.29516552852E+02  0.23422199891E+02  0.11383255785E+03  0.11990700034E+03  0.10566000000E+00 0.  1.
         13    1    4    4    0    0 -0.14667260147E+02 -0.12110712782E+02  0.28138573244E+02  0.33964516080E+02  0.10566000000E+00 0. -1.
        -13    1    4    4    0    0 -0.79032119478E+00 -0.69498425416E+00  0.12176211576E+01  0.16128781800E+01  0.10566000000E+00 0. -1.
         14    1    4    4    0    0 -0.14058971510E+02 -0.10616502855E+02  0.23870459788E+02  0.29667552365E+02  0.00000000000E+00 0. -1.
<mgrwt>
<rscale>  0 0.79827709E+02</rscale>
<asrwt>0</asrwt>
<pdfrwt beam="1">  1        2 0.27093164E-01 0.79827709E+02</pdfrwt>
<pdfrwt beam="2">  1       -1 0.13917490E-02 0.79827709E+02</pdfrwt>
<totfact> 0.21238259E+05</totfact>
</mgrwt>
</event>
<event>
 8    1  0.1600673E-013  0.7209138E+02  0.7818608E-02  0.1353122E+00
         -1   -1    0    0    0  501 -0.00000000000E+00  0.00000000000E+00  0.74238218957E+01  0.74238236065E+01  0.50400000000E-02 0.  1.
          2   -1    0    0  501    0  0.00000000000E+00 -0.00000000000E+00 -0.17501653907E+03  0.17501653909E+03  0.25500000000E-02 0. -1.
         24    2    1    2    0    0  0.00000000000E+00 -0.35527136788E-14 -0.16759271718E+03  0.18244036270E+03  0.72091380140E+02 0.  0.
         66    2    3    3    0    0 -0.24308704833E+02 -0.18470442626E+02 -0.13222362732E+03  0.13571719860E+03  0.19999985596E+01 0.  0.
        -13    1    3    3    0    0  0.24308704833E+02  0.18470442626E+02 -0.35369089857E+02  0.46723164093E+02  0.10566000000E+00 0.  1.
         13    1    4    4    0    0 -0.17069275954E+02 -0.13386934775E+02 -0.93657543518E+02  0.96136969092E+02  0.10566000000E+00 0. -1.
        -13    1    4    4    0    0 -0.17920333136E+01 -0.17750387937E+01 -0.11512247155E+02  0.11785802675E+02  0.10566000000E+00 0. -1.
         14    1    4    4    0    0 -0.54473955648E+01 -0.33084690577E+01 -0.27053836646E+02  0.27794426837E+02  0.00000000000E+00 0. -1.
<mgrwt>
<rscale>  0 0.72091380E+02</rscale>
<asrwt>0</asrwt>
<pdfrwt beam="1">  1        2 0.26925618E-01 0.72091380E+02</pdfrwt>
<pdfrwt beam="2">  1       -1 0.11421267E-02 0.72091380E+02</pdfrwt>
<totfact> 0.27705692E+05</totfact>
</mgrwt>
</event>
<event>
 8    1  0.1600673E-013  0.8125983E+02  0.7818608E-02  0.1325514E+00
         -1   -1    0    0    0  501 -0.00000000000E+00  0.00000000000E+00  0.23265225758E+01  0.23265280349E+01  0.50400000000E-02 0.  1.
          2   -1    0    0  501    0  0.00000000000E+00 -0.00000000000E+00 -0.70955169222E+03  0.70955169222E+03  0.25500000000E-02 0. -1.
         24    2    1    2    0    0  0.35527136788E-14  0.00000000000E+00 -0.70722516964E+03  0.71187822026E+03  0.81259829569E+02 0.  0.
         66    2    3    3    0    0 -0.30497736524E+02  0.13668336760E+02 -0.55586008765E+03  0.55686746394E+03  0.19999980878E+01 0.  0.
        -13    1    3    3    0    0  0.30497736524E+02 -0.13668336760E+02 -0.15136508199E+03  0.15501075631E+03  0.10566000000E+00 0.  1.
         13    1    4    4    0    0 -0.14388488525E+02  0.60857987268E+01 -0.27333655864E+03  0.27378267111E+03  0.10566000000E+00 0. -1.
        -13    1    4    4    0    0 -0.43439716517E+01  0.19313233797E+01 -0.71315769793E+02  0.71474123184E+02  0.10566000000E+00 0.  1.
         14    1    4    4    0    0 -0.11765276348E+02  0.56512146539E+01 -0.21120775922E+03  0.21161066965E+03  0.00000000000E+00 0. -1.
<mgrwt>
<rscale>  0 0.81259830E+02</rscale>
<asrwt>0</asrwt>
<pdfrwt beam="1">  1        2 0.10916163E+00 0.81259830E+02</pdfrwt>
<pdfrwt beam="2">  1       -1 0.35792754E-03 0.81259830E+02</pdfrwt>
<totfact> 0.32217932E+05</totfact>
</mgrwt>
</event>
<event>
 8    1  0.1600673E-013  0.8143669E+02  0.7818608E-02  0.1325023E+00
         -1   -1    0    0    0  501 -0.00000000000E+00  0.00000000000E+00  0.36003160721E+01  0.36003195998E+01  0.50400000000E-02 0.  1.
          2   -1    0    0  501    0  0.00000000000E+00 -0.00000000000E+00 -0.46051040183E+03  0.46051040184E+03  0.25500000000E-02 0. -1.
         24    2    1    2    0    0 -0.35527136788E-14  0.35527136788E-14 -0.45691008576E+03  0.46411072144E+03  0.81436694957E+02 0.  0.
         66    2    3    3    0    0 -0.21740524117E+02  0.24983958360E+02 -0.36335150675E+03  0.36486321550E+03  0.20000012786E+01 0.  0.
        -13    1    3    3    0    0  0.21740524117E+02 -0.24983958360E+02 -0.93558579010E+02  0.99247505937E+02  0.10566000000E+00 0.  1.
         13    1    4    4    0    0 -0.11522668555E+02  0.13869387193E+02 -0.19950692210E+03  0.20032013110E+03  0.10566000000E+00 0. -1.
        -13    1    4    4    0    0 -0.29058259245E+00  0.54646738998E+00 -0.85816909562E+01  0.86046294838E+01  0.10566000000E+00 0.  1.
        -14    1    4    4    0    0 -0.99272729696E+01  0.10568103777E+02 -0.15526289369E+03  0.15593845492E+03  0.00000000000E+00 0.  1.
<mgrwt>
<rscale>  0 0.81436695E+02</rscale>
<asrwt>0</asrwt>
<pdfrwt beam="1">  1        2 0.70847708E-01 0.81436695E+02</pdfrwt>
<pdfrwt beam="2">  1       -1 0.55389542E-03 0.81436695E+02</pdfrwt>
<totfact> 0.28300169E+05</totfact>
</mgrwt>
</event>
<event>
 8    1  0.1600673E-013  0.7939727E+02  0.7818608E-02  0.1330771E+00
         -1   -1    0    0    0  501 -0.00000000000E+00  0.00000000000E+00  0.33353266806E+01  0.33353304885E+01  0.50400000000E-02 0.  1.
          2   -1    0    0  501    0  0.00000000000E+00 -0.00000000000E+00 -0.47251170128E+03  0.47251170128E+03  0.25500000000E-02 0. -1.
         24    2    1    2    0    0  0.00000000000E+00  0.17763568394E-14 -0.46917637460E+03  0.47584703177E+03  0.79397274306E+02 0.  0.
         66    2    3    3    0    0 -0.37266718160E+02  0.10469702667E+02 -0.28683091986E+03  0.28943807548E+03  0.19999993997E+01 0.  0.
        -13    1    3    3    0    0  0.37266718160E+02 -0.10469702667E+02 -0.18234545474E+03  0.18640895629E+03  0.10566000000E+00 0.  1.
         13    1    4    4    0    0 -0.15102555782E+02  0.43056365659E+01 -0.11975612070E+03  0.12078147750E+03  0.10566000000E+00 0. -1.
        -13    1    4    4    0    0 -0.93348254045E+00  0.16247331158E+00 -0.87985303438E+01  0.88500331907E+01  0.10566000000E+00 0.  1.
        -14    1    4    4    0    0 -0.21230679837E+02  0.60015927894E+01 -0.15827626881E+03  0.15980656479E+03  0.00000000000E+00 0.  1.
<mgrwt>
<rscale>  0 0.79397274E+02</rscale>
<asrwt>0</asrwt>
<pdfrwt beam="1">  1        2 0.72694055E-01 0.79397274E+02</pdfrwt>
<pdfrwt beam="2">  1       -1 0.51312785E-03 0.79397274E+02</pdfrwt>
<totfact> 0.30494477E+05</totfact>
</mgrwt>
</event>
<event>
 8    1  0.1600673E-013  0.7741354E+02  0.7818608E-02  0.1336556E+00
         -1   -1    0    0    0  501 -0.00000000000E+00  0.00000000000E+00  0.28063758954E+02  0.28063759406E+02  0.50400000000E-02 0.  1.
          2   -1    0    0  501    0  0.00000000000E+00 -0.00000000000E+00 -0.53386074294E+02  0.53386074355E+02  0.25500000000E-02 0. -1.
         24    2    1    2    0    0  0.00000000000E+00  0.88817841970E-15 -0.25322315340E+02  0.81449833761E+02  0.77413537353E+02 0.  0.
         66    2    3    3    0    0  0.18287763531E+02 -0.40370186285E+01 -0.48279013201E+02  0.51822802944E+02  0.19999937434E+01 0.  0.
        -13    1    3    3    0    0 -0.18287763531E+02  0.40370186285E+01  0.22956697860E+02  0.29627030817E+02  0.10566000000E+00 0.  1.
         13    1    4    4    0    0  0.82277556102E+01 -0.22036665676E+01 -0.21035128730E+02  0.22694490817E+02  0.10566000000E+00 0. -1.
        -13    1    4    4    0    0  0.57837639125E+00  0.17410001543E+00 -0.17528738593E+01  0.18570301202E+01  0.10566000000E+00 0.  1.
        -14    1    4    4    0    0  0.94816315294E+01 -0.20074520763E+01 -0.25491010612E+02  0.27271282007E+02  0.00000000000E+00 0.  1.
<mgrwt>
<rscale>  0 0.77413537E+02</rscale>
<asrwt>0</asrwt>
<pdfrwt beam="1">  1        2 0.82132422E-02 0.77413537E+02</pdfrwt>
<pdfrwt beam="2">  1       -1 0.43175014E-02 0.77413537E+02</pdfrwt>
<totfact> 0.16580865E+05</totfact>
</mgrwt>
</event>
<event>
 8    1  0.1600673E-013  0.7935449E+02  0.7818608E-02  0.1330893E+00
         -1   -1    0    0    0  501 -0.00000000000E+00  0.00000000000E+00  0.10860197958E+01  0.10860314905E+01  0.50400000000E-02 0.  1.
          2   -1    0    0  501    0  0.00000000000E+00 -0.00000000000E+00 -0.14495826282E+04  0.14495826282E+04  0.25500000000E-02 0. -1.
         24    2    1    2    0    0  0.88817841970E-15 -0.35527136788E-14 -0.14484966084E+04  0.14506686597E+04  0.79354493612E+02 0.  0.
         66    2    3    3    0    0  0.55434661451E+01 -0.19691827786E+02 -0.13456595556E+04  0.13458165319E+04  0.19999995208E+01 0.  0.
        -13    1    3    3    0    0 -0.55434661451E+01  0.19691827786E+02 -0.10283705283E+03  0.10485212777E+03  0.10566000000E+00 0.  1.
         13    1    4    4    0    0  0.11807660038E+01 -0.33639157191E+01 -0.22244080374E+03  0.22246939671E+03  0.10566000000E+00 0. -1.
        -13    1    4    4    0    0  0.40479197271E+01 -0.14611845466E+02 -0.10358258714E+04  0.10359368411E+04  0.10566000000E+00 0.  1.
        -14    1    4    4    0    0  0.31478041420E+00 -0.17160666014E+01 -0.87392880442E+02  0.87410294149E+02  0.00000000000E+00 0.  1.
<mgrwt>
<rscale>  0 0.79354494E+02</rscale>
<asrwt>0</asrwt>
<pdfrwt beam="1">  1        2 0.22301116E+00 0.79354494E+02</pdfrwt>
<pdfrwt beam="2">  1       -1 0.16708203E-03 0.79354494E+02</pdfrwt>
<totfact> 0.34370214E+05</totfact>
</mgrwt>
</event>
<event>
 8    1  0.1600673E-013  0.7877424E+02  0.7818608E-02  0.1332566E+00
          2   -1    0    0  501    0  0.00000000000E+00  0.00000000000E+00  0.34190432388E+03  0.34190432389E+03  0.25500000000E-02 0. -1.
         -1   -1    0    0    0  501 -0.00000000000E+00 -0.00000000000E+00 -0.45373655074E+01  0.45373683065E+01  0.50400000000E-02 0.  1.
         24    2    1    2    0    0  0.00000000000E+00  0.00000000000E+00  0.33736695837E+03  0.34644169219E+03  0.78774243824E+02 0.  0.
         66    2    3    3    0    0  0.15629841316E+02 -0.29772839078E+02  0.25877466514E+03  0.26095792996E+03  0.20000011344E+01 0.  0.
        -13    1    3    3    0    0 -0.15629841316E+02  0.29772839078E+02  0.78592293232E+02  0.85483762235E+02  0.10566000000E+00 0.  1.
         13    1    4    4    0    0  0.32154322962E+01 -0.66148124015E+01  0.59144473636E+02  0.59600123101E+02  0.10566000000E+00 0. -1.
        -13    1    4    4    0    0  0.36497785523E+01 -0.72527570766E+01  0.66919008638E+02  0.67409852765E+02  0.10566000000E+00 0.  1.
         14    1    4    4    0    0  0.87646304678E+01 -0.15905269600E+02  0.13271118287E+03  0.13394795409E+03  0.00000000000E+00 0. -1.
<mgrwt>
<rscale>  0 0.78774244E+02</rscale>
<asrwt>0</asrwt>
<pdfrwt beam="1">  1        2 0.52600650E-01 0.78774244E+02</pdfrwt>
<pdfrwt beam="2">  1       -1 0.69805666E-03 0.78774244E+02</pdfrwt>
<totfact> 0.27826234E+05</totfact>
</mgrwt>
</event>
<event>
 8    1  0.1600673E-013  0.7955886E+02  0.7818608E-02  0.1330308E+00
          2   -1    0    0  501    0  0.00000000000E+00  0.00000000000E+00  0.18796537429E+03  0.18796537430E+03  0.25500000000E-02 0. -1.
         -1   -1    0    0    0  501 -0.00000000000E+00 -0.00000000000E+00 -0.84185881075E+01  0.84185896161E+01  0.50400000000E-02 0.  1.
         24    2    1    2    0    0  0.00000000000E+00  0.00000000000E+00  0.17954678618E+03  0.19638396392E+03  0.79558864105E+02 0.  0.
         66    2    3    3    0    0 -0.31674003307E+02  0.19241278091E+02  0.12533812300E+03  0.13071768950E+03  0.20000009755E+01 0.  0.
        -13    1    3    3    0    0  0.31674003307E+02 -0.19241278091E+02  0.54208663182E+02  0.65666274419E+02  0.10566000000E+00 0.  1.
         13    1    4    4    0    0 -0.67699663440E+01  0.39137453216E+01  0.28326325118E+02  0.29386080131E+02  0.10566000000E+00 0.  1.
        -13    1    4    4    0    0 -0.20732845125E+02  0.13216131802E+02  0.82411387834E+02  0.86000959387E+02  0.10566000000E+00 0. -1.
        -14    1    4    4    0    0 -0.41711918387E+01  0.21114009671E+01  0.14600410044E+02  0.15330649982E+02  0.00000000000E+00 0.  1.
<mgrwt>
<rscale>  0 0.79558864E+02</rscale>
<asrwt>0</asrwt>
<pdfrwt beam="1">  1        2 0.28917750E-01 0.79558864E+02</pdfrwt>
<pdfrwt beam="2">  1       -1 0.12951675E-02 0.79558864E+02</pdfrwt>
<totfact> 0.21908711E+05</totfact>
</mgrwt>
</event>
<event>
 8    1  0.1600673E-013  0.7957305E+02  0.7818608E-02  0.1330267E+00
         -1   -1    0    0    0  501 -0.00000000000E+00  0.00000000000E+00  0.30829326149E+01  0.30829367346E+01  0.50400000000E-02 0.  1.
          2   -1    0    0  501    0  0.00000000000E+00 -0.00000000000E+00 -0.51346131936E+03  0.51346131937E+03  0.25500000000E-02 0. -1.
         24    2    1    2    0    0  0.00000000000E+00  0.00000000000E+00 -0.51037838675E+03  0.51654425610E+03  0.79573053569E+02 0.  0.
         66    2    3    3    0    0  0.30831843343E+02 -0.24605704538E+02 -0.28775488842E+03  0.29045295501E+03  0.20000007837E+01 0.  0.
        -13    1    3    3    0    0 -0.30831843343E+02  0.24605704538E+02 -0.22262349833E+03  0.22609130110E+03  0.10566000000E+00 0.  1.
         13    1    4    4    0    0  0.75489245670E+01 -0.56894009343E+01 -0.66197989567E+02  0.66869578523E+02  0.10566000000E+00 0. -1.
        -13    1    4    4    0    0  0.13042438404E+02 -0.11080868966E+02 -0.12174343489E+03  0.12294049763E+03  0.10566000000E+00 0.  1.
        -14    1    4    4    0    0  0.10240480372E+02 -0.78354346378E+01 -0.99813463965E+02  0.10064287885E+03  0.00000000000E+00 0.  1.
<mgrwt>
<rscale>  0 0.79573054E+02</rscale>
<asrwt>0</asrwt>
<pdfrwt beam="1">  1        2 0.78993981E-01 0.79573054E+02</pdfrwt>
<pdfrwt beam="2">  1       -1 0.47429805E-03 0.79573054E+02</pdfrwt>
<totfact> 0.31139235E+05</totfact>
</mgrwt>
</event>
<event>
 8    1  0.1600673E-013  0.8071641E+02  0.7818608E-02  0.1327031E+00
          2   -1    0    0  501    0  0.00000000000E+00  0.00000000000E+00  0.46536086663E+03  0.46536086664E+03  0.25500000000E-02 0. -1.
         -1   -1    0    0    0  501 -0.00000000000E+00 -0.00000000000E+00 -0.35000449184E+01  0.35000485472E+01  0.50400000000E-02 0.  1.
         24    2    1    2    0    0  0.00000000000E+00  0.00000000000E+00  0.46186082171E+03  0.46886091518E+03  0.80716411933E+02 0.  0.
         66    2    3    3    0    0  0.26573890951E+02  0.59395021290E+01  0.40390806532E+03  0.40482980943E+03  0.20000030687E+01 0.  0.
        -13    1    3    3    0    0 -0.26573890951E+02 -0.59395021290E+01  0.57952756394E+02  0.64031105750E+02  0.10566000000E+00 0.  1.
         13    1    4    4    0    0  0.39363988854E+01  0.49603503195E+00  0.66899149314E+02  0.67016778720E+02  0.10566000000E+00 0. -1.
        -13    1    4    4    0    0  0.84336259891E+01  0.19994909557E+01  0.13052780159E+03  0.13081529789E+03  0.10566000000E+00 0. -1.
         14    1    4    4    0    0  0.14203866077E+02  0.34439761414E+01  0.20648111441E+03  0.20699773282E+03  0.00000000000E+00 0. -1.
<mgrwt>
<rscale>  0 0.80716412E+02</rscale>
<asrwt>0</asrwt>
<pdfrwt beam="1">  1        2 0.71593992E-01 0.80716412E+02</pdfrwt>
<pdfrwt beam="2">  1       -1 0.53846864E-03 0.80716412E+02</pdfrwt>
<totfact> 0.29065341E+05</totfact>
</mgrwt>
</event>
<event>
 8    1  0.1600673E-013  0.7894291E+02  0.7818608E-02  0.1332078E+00
          2   -1    0    0  501    0  0.00000000000E+00  0.00000000000E+00  0.92508926185E+03  0.92508926186E+03  0.25500000000E-02 0. -1.
         -1   -1    0    0    0  501 -0.00000000000E+00 -0.00000000000E+00 -0.16841532899E+01  0.16841608313E+01  0.50400000000E-02 0.  1.
         24    2    1    2    0    0  0.00000000000E+00 -0.35527136788E-14  0.92340510856E+03  0.92677342269E+03  0.78942906458E+02 0.  0.
         66    2    3    3    0    0 -0.69963199791E+01 -0.28642060441E+02  0.76963320772E+03  0.77020035740E+03  0.19999999121E+01 0.  0.
        -13    1    3    3    0    0  0.69963199791E+01  0.28642060441E+02  0.15377190084E+03  0.15657306528E+03  0.10566000000E+00 0.  1.
         13    1    4    4    0    0 -0.97629895742E+00 -0.52099379734E+01  0.14159341742E+03  0.14169263789E+03  0.10566000000E+00 0. -1.
        -13    1    4    4    0    0 -0.38468976697E+01 -0.17297039793E+02  0.47030610026E+03  0.47063980422E+03  0.10566000000E+00 0.  1.
        -14    1    4    4    0    0 -0.21731233520E+01 -0.61350826747E+01  0.15773369004E+03  0.15786791529E+03  0.00000000000E+00 0.  1.
<mgrwt>
<rscale>  0 0.78942906E+02</rscale>
<asrwt>0</asrwt>
<pdfrwt beam="1">  1        2 0.14232132E+00 0.78942906E+02</pdfrwt>
<pdfrwt beam="2">  1       -1 0.25910128E-03 0.78942906E+02</pdfrwt>
<totfact> 0.36275150E+05</totfact>
</mgrwt>
</event>
<event>
 8    1  0.1600673E-013  0.8070986E+02  0.7818608E-02  0.1327049E+00
          2   -1    0    0  501    0  0.00000000000E+00  0.00000000000E+00  0.96680453329E+01  0.96680456692E+01  0.25500000000E-02 0. -1.
         -1   -1    0    0    0  501 -0.00000000000E+00 -0.00000000000E+00 -0.16844358715E+03  0.16844358723E+03  0.50400000000E-02 0.  1.
         24    2    1    2    0    0 -0.35527136788E-14  0.00000000000E+00 -0.15877554182E+03  0.17811163290E+03  0.80709857472E+02 0.  0.
         66    2    3    3    0    0  0.17211343577E+02  0.30169816971E+02 -0.34206544758E+02  0.48790735914E+02  0.20000007216E+01 0.  0.
        -13    1    3    3    0    0 -0.17211343577E+02 -0.30169816971E+02 -0.12456899706E+03  0.12932089699E+03  0.10566000000E+00 0.  1.
         13    1    4    4    0    0  0.31202687031E+01  0.60549784570E+01 -0.71229742782E+01  0.98563059763E+01  0.10566000000E+00 0. -1.
        -13    1    4    4    0    0  0.40496476330E+01  0.59078478339E+01 -0.75057824013E+01  0.10375463627E+02  0.10566000000E+00 0.  1.
        -14    1    4    4    0    0  0.10041427241E+02  0.18206990680E+02 -0.19577788079E+02  0.28558966310E+02  0.00000000000E+00 0.  1.
<mgrwt>
<rscale>  0 0.80709857E+02</rscale>
<asrwt>0</asrwt>
<pdfrwt beam="1">  1        2 0.14873917E-02 0.80709857E+02</pdfrwt>
<pdfrwt beam="2">  1       -1 0.25914396E-01 0.80709857E+02</pdfrwt>
<totfact> 0.10231349E+05</totfact>
</mgrwt>
</event>
<event>
 8    1  0.1600673E-013  0.8030137E+02  0.7818608E-02  0.1328198E+00
          2   -1    0    0  501    0  0.00000000000E+00  0.00000000000E+00  0.16975245441E+03  0.16975245443E+03  0.25500000000E-02 0. -1.
         -1   -1    0    0    0  501 -0.00000000000E+00 -0.00000000000E+00 -0.94966357723E+01  0.94966371097E+01  0.50400000000E-02 0.  1.
         24    2    1    2    0    0  0.00000000000E+00  0.00000000000E+00  0.16025581864E+03  0.17924909154E+03  0.80301366180E+02 0.  0.
         66    2    3    3    0    0 -0.73811339127E+01 -0.31396908317E+02  0.13346247043E+03  0.13731889166E+03  0.20000009936E+01 0.  0.
        -13    1    3    3    0    0  0.73811339127E+01  0.31396908317E+02  0.26793348212E+02  0.41930199882E+02  0.10566000000E+00 0.  1.
         13    1    4    4    0    0 -0.53987189379E+00 -0.22695570431E+01  0.10996859255E+02  0.11242082919E+02  0.10566000000E+00 0. -1.
        -13    1    4    4    0    0 -0.60461869890E+01 -0.27017908158E+02  0.11434375814E+03  0.11764790660E+03  0.10566000000E+00 0.  1.
        -14    1    4    4    0    0 -0.79507502989E+00 -0.21094431163E+01  0.81218530354E+01  0.84289021404E+01  0.00000000000E+00 0.  1.
<mgrwt>
<rscale>  0 0.80301366E+02</rscale>
<asrwt>0</asrwt>
<pdfrwt beam="1">  1        2 0.26115763E-01 0.80301366E+02</pdfrwt>
<pdfrwt beam="2">  1       -1 0.14610209E-02 0.80301366E+02</pdfrwt>
<totfact> 0.20652579E+05</totfact>
</mgrwt>
</event>
<event>
 8    1  0.1600673E-013  0.7662669E+02  0.7818608E-02  0.1338906E+00
          2   -1    0    0  501    0  0.00000000000E+00  0.00000000000E+00  0.27444477072E+02  0.27444477191E+02  0.25500000000E-02 0. -1.
         -1   -1    0    0    0  501 -0.00000000000E+00 -0.00000000000E+00 -0.53486622388E+02  0.53486622625E+02  0.50400000000E-02 0.  1.
         24    2    1    2    0    0  0.17763568394E-14 -0.35527136788E-14 -0.26042145315E+02  0.80931099816E+02  0.76626689768E+02 0.  0.
         66    2    3    3    0    0  0.85358676203E+01  0.19470475897E+02  0.20601331701E+02  0.29671119521E+02  0.19999995268E+01 0.  0.
        -13    1    3    3    0    0 -0.85358676203E+01 -0.19470475897E+02 -0.46643477016E+02  0.51259980295E+02  0.10566000000E+00 0.  1.
         13    1    4    4    0    0  0.98451563201E+00  0.31925134091E+01  0.29623099229E+01  0.44663023870E+01  0.10566000000E+00 0.  1.
        -13    1    4    4    0    0  0.44063804949E+01  0.92776793668E+01  0.11090888708E+02  0.15116563758E+02  0.10566000000E+00 0. -1.
         14    1    4    4    0    0  0.31449714934E+01  0.70002831209E+01  0.65481330700E+01  0.10088253376E+02  0.00000000000E+00 0. -1.
<mgrwt>
<rscale>  0 0.76626690E+02</rscale>
<asrwt>0</asrwt>
<pdfrwt beam="1">  1        2 0.42222273E-02 0.76626690E+02</pdfrwt>
<pdfrwt beam="2">  1       -1 0.82287112E-02 0.76626690E+02</pdfrwt>
<totfact> 0.14919966E+05</totfact>
</mgrwt>
</event>
<event>
 8    1  0.1600673E-013  0.7717499E+02  0.7818608E-02  0.1337265E+00
          2   -1    0    0  501    0  0.00000000000E+00  0.00000000000E+00  0.32665695751E+03  0.32665695752E+03  0.25500000000E-02 0. -1.
         -1   -1    0    0    0  501 -0.00000000000E+00 -0.00000000000E+00 -0.45582818405E+01  0.45582846269E+01  0.50400000000E-02 0.  1.
         24    2    1    2    0    0 -0.35527136788E-14  0.44408920985E-15  0.32209867567E+03  0.33121524215E+03  0.77174994411E+02 0.  0.
         66    2    3    3    0    0 -0.19257502516E+02  0.20318581950E+01  0.30427316239E+03  0.30489528891E+03  0.19999989824E+01 0.  0.
        -13    1    3    3    0    0  0.19257502516E+02 -0.20318581950E+01  0.17825513282E+02  0.26319953242E+02  0.10566000000E+00 0.  1.
         13    1    4    4    0    0 -0.94297753235E+01  0.10525318270E+01  0.13863123013E+03  0.13895559585E+03  0.10566000000E+00 0. -1.
        -13    1    4    4    0    0 -0.55255401202E+01  0.10799028274E+01  0.95520896613E+02  0.95686731774E+02  0.10566000000E+00 0.  1.
        -14    1    4    4    0    0 -0.43021870724E+01 -0.10057645937E+00  0.70121035650E+02  0.70252961289E+02  0.00000000000E+00 0.  1.
<mgrwt>
<rscale>  0 0.77174994E+02</rscale>
<asrwt>0</asrwt>
<pdfrwt beam="1">  1        2 0.50254913E-01 0.77174994E+02</pdfrwt>
<pdfrwt beam="2">  1       -1 0.70127440E-03 0.77174994E+02</pdfrwt>
<totfact> 0.28881262E+05</totfact>
</mgrwt>
</event>
<event>
 8    1  0.1600673E-013  0.7885152E+02  0.7818608E-02  0.1332343E+00
          2   -1    0    0  501    0  0.00000000000E+00  0.00000000000E+00  0.65432572593E+03  0.65432572594E+03  0.25500000000E-02 0. -1.
         -1   -1    0    0    0  501 -0.00000000000E+00 -0.00000000000E+00 -0.23755583730E+01  0.23755637194E+01  0.50400000000E-02 0.  1.
         24    2    1    2    0    0  0.17763568394E-14  0.17763568394E-14  0.65195016756E+03  0.65670128965E+03  0.78851524121E+02 0.  0.
         66    2    3    3    0    0  0.75522725994E+01  0.71087706365E+01  0.64274986724E+03  0.64283665365E+03  0.20000021306E+01 0.  0.
        -13    1    3    3    0    0 -0.75522725994E+01 -0.71087706365E+01  0.92003003212E+01  0.13864636000E+02  0.10566000000E+00 0.  1.
         13    1    4    4    0    0  0.21154363392E+01  0.23971418658E+01  0.23254861240E+03  0.23257061218E+03  0.10566000000E+00 0. -1.
        -13    1    4    4    0    0  0.68388120187E+00  0.25242719075E+00  0.30745892801E+02  0.30754715104E+02  0.10566000000E+00 0.  1.
         14    1    4    4    0    0  0.47529550584E+01  0.44592015799E+01  0.37945536204E+03  0.37951132637E+03  0.00000000000E+00 0. -1.
<mgrwt>
<rscale>  0 0.78851524E+02</rscale>
<asrwt>0</asrwt>
<pdfrwt beam="1">  1        2 0.10066552E+00 0.78851524E+02</pdfrwt>
<pdfrwt beam="2">  1       -1 0.36547085E-03 0.78851524E+02</pdfrwt>
<totfact> 0.34172892E+05</totfact>
</mgrwt>
</event>
<event>
 8    1  0.1600673E-013  0.7754615E+02  0.7818608E-02  0.1336163E+00
         -1   -1    0    0    0  501 -0.00000000000E+00  0.00000000000E+00  0.86801740713E+02  0.86801740860E+02  0.50400000000E-02 0.  1.
          2   -1    0    0  501    0  0.00000000000E+00 -0.00000000000E+00 -0.17319369934E+02  0.17319370121E+02  0.25500000000E-02 0. -1.
         24    2    1    2    0    0 -0.22204460493E-15  0.00000000000E+00  0.69482370780E+02  0.10412111098E+03  0.77546153372E+02 0.  0.
         66    2    3    3    0    0 -0.19026554371E+01  0.16693758553E+02 -0.12115853994E+02  0.20810948800E+02  0.19999999003E+01 0.  0.
        -13    1    3    3    0    0  0.19026554371E+01 -0.16693758553E+02  0.81598224774E+02  0.83310162181E+02  0.10566000000E+00 0.  1.
         13    1    4    4    0    0 -0.21832197511E-01  0.44970744285E+01 -0.41124403966E+01  0.60948736748E+01  0.10566000000E+00 0. -1.
        -13    1    4    4    0    0 -0.71617987561E+00  0.44003313477E+01 -0.26537222739E+01  0.51893386405E+01  0.10566000000E+00 0.  1.
         14    1    4    4    0    0 -0.11646433640E+01  0.77963527769E+01 -0.53496913239E+01  0.95267364846E+01  0.00000000000E+00 0. -1.
<mgrwt>
<rscale>  0 0.77546153E+02</rscale>
<asrwt>0</asrwt>
<pdfrwt beam="1">  1        2 0.26645185E-02 0.77546153E+02</pdfrwt>
<pdfrwt beam="2">  1       -1 0.13354114E-01 0.77546153E+02</pdfrwt>
<totfact> 0.13190430E+05</totfact>
</mgrwt>
</event>
<event>
 8    1  0.1600673E-013  0.8358395E+02  0.7818608E-02  0.1319178E+00
          2   -1    0    0  501    0  0.00000000000E+00  0.00000000000E+00  0.77010767026E+03  0.77010767026E+03  0.25500000000E-02 0. -1.
         -1   -1    0    0    0  501 -0.00000000000E+00 -0.00000000000E+00 -0.22679518667E+01  0.22679574668E+01  0.50400000000E-02 0.  1.
         24    2    1    2    0    0  0.00000000000E+00 -0.35527136788E-14  0.76783971839E+03  0.77237562773E+03  0.83583952829E+02 0.  0.
         66    2    3    3    0    0 -0.20081176653E+02  0.16811715221E+02  0.68480716736E+03  0.68531069151E+03  0.20000006492E+01 0.  0.
        -13    1    3    3    0    0  0.20081176653E+02 -0.16811715221E+02  0.83032551031E+02  0.87064936221E+02  0.10566000000E+00 0.  1.
         13    1    4    4    0    0 -0.11382642430E+02  0.95137843931E+01  0.39126789077E+03  0.39154903927E+03  0.10566000000E+00 0. -1.
        -13    1    4    4    0    0 -0.47429204517E+01  0.37986482213E+01  0.17304643873E+03  0.17315312918E+03  0.10566000000E+00 0.  1.
        -14    1    4    4    0    0 -0.39556137705E+01  0.34992826069E+01  0.12049283786E+03  0.12060852306E+03  0.00000000000E+00 0.  1.
<mgrwt>
<rscale>  0 0.83583953E+02</rscale>
<asrwt>0</asrwt>
<pdfrwt beam="1">  1        2 0.11847815E+00 0.83583953E+02</pdfrwt>
<pdfrwt beam="2">  1       -1 0.34891596E-03 0.83583953E+02</pdfrwt>
<totfact> 0.30448511E+05</totfact>
</mgrwt>
</event>
<event>
 8    1  0.1600673E-013  0.7956790E+02  0.7818608E-02  0.1330282E+00
         -1   -1    0    0    0  501 -0.00000000000E+00  0.00000000000E+00  0.47496860377E+02  0.47496860644E+02  0.50400000000E-02 0.  1.
          2   -1    0    0  501    0  0.00000000000E+00 -0.00000000000E+00 -0.33323520756E+02  0.33323520854E+02  0.25500000000E-02 0. -1.
         24    2    1    2    0    0  0.00000000000E+00 -0.35527136788E-14  0.14173339620E+02  0.80820381498E+02  0.79567898738E+02 0.  0.
         66    2    3    3    0    0  0.34829683774E+02 -0.18613045401E+02  0.24137209390E+01  0.39615380267E+02  0.19999935097E+01 0.  0.
        -13    1    3    3    0    0 -0.34829683774E+02  0.18613045401E+02  0.11759618681E+02  0.41205001231E+02  0.10566000000E+00 0.  1.
         13    1    4    4    0    0  0.28766915125E+01 -0.15421836860E+01 -0.67454480276E-01  0.32664045557E+01  0.10566000000E+00 0. -1.
        -13    1    4    4    0    0  0.28327602738E+02 -0.14653542241E+02  0.25034225219E+01  0.31991524900E+02  0.10566000000E+00 0.  1.
        -14    1    4    4    0    0  0.36253895239E+01 -0.24173194742E+01 -0.22247102676E-01  0.43574508115E+01  0.00000000000E+00 0.  1.
<mgrwt>
<rscale>  0 0.79567899E+02</rscale>
<asrwt>0</asrwt>
<pdfrwt beam="1">  1        2 0.51266956E-02 0.79567899E+02</pdfrwt>
<pdfrwt beam="2">  1       -1 0.73072093E-02 0.79567899E+02</pdfrwt>
<totfact> 0.13947393E+05</totfact>
</mgrwt>
</event>
<event>
 8    1  0.1600673E-013  0.7734876E+02  0.7818608E-02  0.1336748E+00
         -1   -1    0    0    0  501 -0.00000000000E+00  0.00000000000E+00  0.22675685057E+03  0.22675685062E+03  0.50400000000E-02 0.  1.
          2   -1    0    0  501    0  0.00000000000E+00 -0.00000000000E+00 -0.65960864088E+01  0.65960869018E+01  0.25500000000E-02 0. -1.
         24    2    1    2    0    0  0.00000000000E+00 -0.35527136788E-14  0.22016076416E+03  0.23335293752E+03  0.77348764546E+02 0.  0.
         66    2    3    3    0    0 -0.32180086721E+02  0.15897438654E+02  0.66914595880E+02  0.75959526630E+02  0.20000017203E+01 0.  0.
        -13    1    3    3    0    0  0.32180086721E+02 -0.15897438654E+02  0.15324616828E+03  0.15739341089E+03  0.10566000000E+00 0.  1.
         13    1    4    4    0    0 -0.57492888371E+01  0.29705578386E+01  0.11192434170E+02  0.12929048019E+02  0.10566000000E+00 0. -1.
        -13    1    4    4    0    0 -0.62573170883E+01  0.23824865206E+01  0.12516635155E+02  0.14195336516E+02  0.10566000000E+00 0.  1.
         14    1    4    4    0    0 -0.20173480796E+02  0.10544394295E+02  0.43205526555E+02  0.48835142094E+02  0.00000000000E+00 0. -1.
<mgrwt>
<rscale>  0 0.77348765E+02</rscale>
<asrwt>0</asrwt>
<pdfrwt beam="1">  1        2 0.10147826E-02 0.77348765E+02</pdfrwt>
<pdfrwt beam="2">  1       -1 0.34885669E-01 0.77348765E+02</pdfrwt>
<totfact> 0.10432763E+05</totfact>
</mgrwt>
</event>
<event>
 8    1  0.1600673E-013  0.8243744E+02  0.7818608E-02  0.1322273E+00
         -1   -1    0    0    0  501 -0.00000000000E+00  0.00000000000E+00  0.11125521640E+03  0.11125521652E+03  0.50400000000E-02 0.  1.
          2   -1    0    0  501    0  0.00000000000E+00 -0.00000000000E+00 -0.15271040299E+02  0.15271040512E+02  0.25500000000E-02 0. -1.
         24    2    1    2    0    0 -0.35527136788E-14  0.00000000000E+00  0.95984176106E+02  0.12652625703E+03  0.82437440859E+02 0.  0.
         66    2    3    3    0    0 -0.24229569280E+02 -0.32782819721E+02  0.38915211794E+02  0.56393075525E+02  0.19999904645E+01 0.  0.
        -13    1    3    3    0    0  0.24229569280E+02  0.32782819721E+02  0.57068964312E+02  0.70133181505E+02  0.10566000000E+00 0.  1.
         13    1    4    4    0    0 -0.12732368219E+02 -0.16770577126E+02  0.18879635135E+02  0.28281040371E+02  0.10566000000E+00 0. -1.
        -13    1    4    4    0    0 -0.94375072427E+01 -0.12870813982E+02  0.16033938588E+02  0.22623499866E+02  0.10566000000E+00 0.  1.
        -14    1    4    4    0    0 -0.20596938189E+01 -0.31414286129E+01  0.40016380710E+01  0.54885352881E+01  0.00000000000E+00 0.  1.
<mgrwt>
<rscale>  0 0.82437441E+02</rscale>
<asrwt>0</asrwt>
<pdfrwt beam="1">  1        2 0.23493909E-02 0.82437441E+02</pdfrwt>
<pdfrwt beam="2">  1       -1 0.17116187E-01 0.82437441E+02</pdfrwt>
<totfact> 0.10742299E+05</totfact>
</mgrwt>
</event>
<event>
 8    1  0.1600673E-013  0.8111529E+02  0.7818608E-02  0.1325916E+00
         -1   -1    0    0    0  501 -0.00000000000E+00  0.00000000000E+00  0.85656483542E+01  0.85656498370E+01  0.50400000000E-02 0.  1.
          2   -1    0    0  501    0  0.00000000000E+00 -0.00000000000E+00 -0.19203712942E+03  0.19203712944E+03  0.25500000000E-02 0. -1.
         24    2    1    2    0    0  0.00000000000E+00  0.00000000000E+00 -0.18347148107E+03  0.20060277928E+03  0.81115292566E+02 0.  0.
         66    2    3    3    0    0  0.13754379725E+02  0.12570318845E+01 -0.18603251645E+03  0.18655524721E+03  0.19999993015E+01 0.  0.
        -13    1    3    3    0    0 -0.13754379725E+02 -0.12570318845E+01  0.25610353782E+01  0.14047532062E+02  0.10566000000E+00 0.  1.
         13    1    4    4    0    0  0.11709518303E+02  0.93913308048E+00 -0.15049780891E+03  0.15095561083E+03  0.10566000000E+00 0. -1.
        -13    1    4    4    0    0  0.78393481764E+00  0.20482641539E+00 -0.98891711169E+01  0.99228714127E+01  0.10566000000E+00 0. -1.
         14    1    4    4    0    0  0.12609266040E+01  0.11307238860E+00 -0.25645536418E+02  0.25676764972E+02  0.00000000000E+00 0. -1.
<mgrwt>
<rscale>  0 0.81115293E+02</rscale>
<asrwt>0</asrwt>
<pdfrwt beam="1">  1        2 0.29544171E-01 0.81115293E+02</pdfrwt>
<pdfrwt beam="2">  1       -1 0.13177923E-02 0.81115293E+02</pdfrwt>
<totfact> 0.20969372E+05</totfact>
</mgrwt>
</event>
<event>
 8    1  0.1600673E-013  0.7921644E+02  0.7818608E-02  0.1331290E+00
         -1   -1    0    0    0  501 -0.00000000000E+00  0.00000000000E+00  0.19245795806E+01  0.19245861798E+01  0.50400000000E-02 0.  1.
          2   -1    0    0  501    0  0.00000000000E+00 -0.00000000000E+00 -0.81514343482E+03  0.81514343482E+03  0.25500000000E-02 0. -1.
         24    2    1    2    0    0  0.17763568394E-14  0.00000000000E+00 -0.81321885524E+03  0.81706802100E+03  0.79216440403E+02 0.  0.
         66    2    3    3    0    0  0.12875027739E+02  0.19893750788E+02 -0.73389675208E+03  0.73428194202E+03  0.20000011373E+01 0.  0.
        -13    1    3    3    0    0 -0.12875027739E+02 -0.19893750788E+02 -0.79322103154E+02  0.82786078978E+02  0.10566000000E+00 0.  1.
         13    1    4    4    0    0  0.65064407882E+01  0.83242436051E+01 -0.31929424849E+03  0.31946902054E+03  0.10566000000E+00 0. -1.
        -13    1    4    4    0    0  0.12672253994E+01  0.24976854028E+01 -0.87008577941E+02  0.87053708088E+02  0.10566000000E+00 0.  1.
         14    1    4    4    0    0  0.51013615511E+01  0.90718217798E+01 -0.32759392565E+03  0.32775921339E+03  0.00000000000E+00 0. -1.
<mgrwt>
<rscale>  0 0.79216440E+02</rscale>
<asrwt>0</asrwt>
<pdfrwt beam="1">  1        2 0.12540641E+00 0.79216440E+02</pdfrwt>
<pdfrwt beam="2">  1       -1 0.29609033E-03 0.79216440E+02</pdfrwt>
<totfact> 0.35366304E+05</totfact>
</mgrwt>
</event>
<event>
 8    1  0.1600673E-013  0.7875775E+02  0.7818608E-02  0.1332614E+00
          2   -1    0    0  501    0  0.00000000000E+00  0.00000000000E+00  0.14835504205E+02  0.14835504425E+02  0.25500000000E-02 0. -1.
         -1   -1    0    0    0  501 -0.00000000000E+00 -0.00000000000E+00 -0.10452598200E+03  0.10452598212E+03  0.50400000000E-02 0.  1.
         24    2    1    2    0    0  0.00000000000E+00  0.00000000000E+00 -0.89690477796E+02  0.11936148655E+03  0.78757746689E+02 0.  0.
         66    2    3    3    0    0  0.33811442669E+02 -0.11114403533E+02 -0.19426013247E+02  0.40596965578E+02  0.20000005422E+01 0.  0.
        -13    1    3    3    0    0 -0.33811442669E+02  0.11114403533E+02 -0.70264464549E+02  0.78764520970E+02  0.10566000000E+00 0.  1.
         13    1    4    4    0    0  0.18107295053E+02 -0.64512880794E+01 -0.10266250923E+02  0.21792207875E+02  0.10566000000E+00 0. -1.
        -13    1    4    4    0    0  0.69110493111E+00 -0.41529369987E+00 -0.33406906713E+00  0.87912516752E+00  0.10566000000E+00 0.  1.
        -14    1    4    4    0    0  0.15013042685E+02 -0.42478217533E+01 -0.88256932569E+01  0.17925632535E+02  0.00000000000E+00 0.  1.
<mgrwt>
<rscale>  0 0.78757747E+02</rscale>
<asrwt>0</asrwt>
<pdfrwt beam="1">  1        2 0.22823854E-02 0.78757747E+02</pdfrwt>
<pdfrwt beam="2">  1       -1 0.16080920E-01 0.78757747E+02</pdfrwt>
<totfact> 0.12208194E+05</totfact>
</mgrwt>
</event>
<event>
 8    1  0.1600673E-013  0.7983561E+02  0.7818608E-02  0.1329519E+00
          2   -1    0    0  501    0  0.00000000000E+00  0.00000000000E+00  0.46160021859E+01  0.46160028902E+01  0.25500000000E-02 0. -1.
         -1   -1    0    0    0  501 -0.00000000000E+00 -0.00000000000E+00 -0.34519723995E+03  0.34519723998E+03  0.50400000000E-02 0.  1.
         24    2    1    2    0    0  0.00000000000E+00  0.00000000000E+00 -0.34058123776E+03  0.34981324287E+03  0.79835614704E+02 0.  0.
         66    2    3    3    0    0  0.13486136185E+02  0.16935141904E+02 -0.31721589701E+03  0.31796006073E+03  0.20000000378E+01 0.  0.
        -13    1    3    3    0    0 -0.13486136185E+02 -0.16935141904E+02 -0.23365340749E+02  0.31853182147E+02  0.10566000000E+00 0.  1.
         13    1    4    4    0    0  0.61256999522E+01  0.91539891514E+01 -0.16478278003E+03  0.16515052369E+03  0.10566000000E+00 0. -1.
        -13    1    4    4    0    0  0.56100733860E+01  0.58347545739E+01 -0.11742075550E+03  0.11769945739E+03  0.10566000000E+00 0.  1.
         14    1    4    4    0    0  0.17503628466E+01  0.19463981786E+01 -0.35012361477E+02  0.35110079637E+02  0.00000000000E+00 0. -1.
<mgrwt>
<rscale>  0 0.79835615E+02</rscale>
<asrwt>0</asrwt>
<pdfrwt beam="1">  1        2 0.71015451E-03 0.79835615E+02</pdfrwt>
<pdfrwt beam="2">  1       -1 0.53107248E-01 0.79835615E+02</pdfrwt>
<totfact> 0.81817956E+04</totfact>
</mgrwt>
</event>
<event>
 8    1  0.1600673E-013  0.7958566E+02  0.7818608E-02  0.1330231E+00
          2   -1    0    0  501    0  0.00000000000E+00  0.00000000000E+00  0.25553626305E+02  0.25553626432E+02  0.25500000000E-02 0. -1.
         -1   -1    0    0    0  501 -0.00000000000E+00 -0.00000000000E+00 -0.61966513677E+02  0.61966513882E+02  0.50400000000E-02 0.  1.
         24    2    1    2    0    0 -0.71054273576E-14  0.00000000000E+00 -0.36412887372E+02  0.87520140314E+02  0.79585655703E+02 0.  0.
         66    2    3    3    0    0 -0.35947268611E+02 -0.23602553281E+01  0.30431441367E+00  0.36081429241E+02  0.20000007587E+01 0.  0.
        -13    1    3    3    0    0  0.35947268611E+02  0.23602553281E+01 -0.36717201786E+02  0.51438711073E+02  0.10566000000E+00 0.  1.
         13    1    4    4    0    0 -0.21017767735E+02 -0.17161712351E+01  0.71854927341E+00  0.21100219936E+02  0.10566000000E+00 0. -1.
        -13    1    4    4    0    0 -0.14046886568E+02 -0.74244308632E+00 -0.57527298419E+00  0.14078648623E+02  0.10566000000E+00 0.  1.
        -14    1    4    4    0    0 -0.88261430752E+00  0.98358993355E-01  0.16103812445E+00  0.90256068214E+00  0.00000000000E+00 0.  1.
<mgrwt>
<rscale>  0 0.79585656E+02</rscale>
<asrwt>0</asrwt>
<pdfrwt beam="1">  1        2 0.39313272E-02 0.79585656E+02</pdfrwt>
<pdfrwt beam="2">  1       -1 0.95333098E-02 0.79585656E+02</pdfrwt>
<totfact> 0.13229357E+05</totfact>
</mgrwt>
</event>
<event>
 8    1  0.1600673E-013  0.8144602E+02  0.7818608E-02  0.1324997E+00
         -1   -1    0    0    0  501 -0.00000000000E+00  0.00000000000E+00  0.20483429361E+03  0.20483429367E+03  0.50400000000E-02 0.  1.
          2   -1    0    0  501    0  0.00000000000E+00 -0.00000000000E+00 -0.80961231454E+01  0.80961235470E+01  0.25500000000E-02 0. -1.
         24    2    1    2    0    0  0.00000000000E+00  0.00000000000E+00  0.19673817046E+03  0.21293041722E+03  0.81446024208E+02 0.  0.
         66    2    3    3    0    0  0.29733917411E+02  0.18303496854E+02  0.15309523481E+03  0.15703908660E+03  0.19999893498E+01 0.  0.
        -13    1    3    3    0    0 -0.29733917411E+02 -0.18303496854E+02  0.43642935658E+02  0.55891330621E+02  0.10566000000E+00 0.  1.
         13    1    4    4    0    0  0.14257085545E+02  0.86045798641E+01  0.72158425183E+02  0.74055065808E+02  0.10566000000E+00 0. -1.
        -13    1    4    4    0    0  0.40380612697E+01  0.21364623085E+01  0.18039418046E+02  0.18609196047E+02  0.10566000000E+00 0.  1.
         14    1    4    4    0    0  0.11438770596E+02  0.75624546815E+01  0.62897391577E+02  0.64374824743E+02  0.00000000000E+00 0. -1.
<mgrwt>
<rscale>  0 0.81446024E+02</rscale>
<asrwt>0</asrwt>
<pdfrwt beam="1">  1        2 0.12455576E-02 0.81446024E+02</pdfrwt>
<pdfrwt beam="2">  1       -1 0.31512965E-01 0.81446024E+02</pdfrwt>
<totfact> 0.94469960E+04</totfact>
</mgrwt>
</event>
<event>
 8    1  0.1600673E-013  0.7959867E+02  0.7818608E-02  0.1330194E+00
         -1   -1    0    0    0  501 -0.00000000000E+00  0.00000000000E+00  0.13397790244E+02  0.13397791192E+02  0.50400000000E-02 0.  1.
          2   -1    0    0  501    0  0.00000000000E+00 -0.00000000000E+00 -0.11822747070E+03  0.11822747073E+03  0.25500000000E-02 0. -1.
         24    2    1    2    0    0  0.00000000000E+00  0.00000000000E+00 -0.10482968046E+03  0.13162526192E+03  0.79598666263E+02 0.  0.
         66    2    3    3    0    0  0.85562268082E+01  0.28718598080E+02 -0.95695864672E+02  0.10029788336E+03  0.19999993532E+01 0.  0.
        -13    1    3    3    0    0 -0.85562268082E+01 -0.28718598080E+02 -0.91338157843E+01  0.31327378564E+02  0.10566000000E+00 0.  1.
         13    1    4    4    0    0  0.58149523794E+01  0.18327085569E+02 -0.62730693126E+02  0.65611331039E+02  0.10566000000E+00 0. -1.
        -13    1    4    4    0    0  0.21122084452E+01  0.86424248428E+01 -0.28259324310E+02  0.29626905107E+02  0.10566000000E+00 0.  1.
        -14    1    4    4    0    0  0.62906598354E+00  0.17490876683E+01 -0.47058472354E+01  0.50596472096E+01  0.00000000000E+00 0.  1.
<mgrwt>
<rscale>  0 0.79598666E+02</rscale>
<asrwt>0</asrwt>
<pdfrwt beam="1">  1        2 0.18188841E-01 0.79598666E+02</pdfrwt>
<pdfrwt beam="2">  1       -1 0.20611987E-02 0.79598666E+02</pdfrwt>
<totfact> 0.18855001E+05</totfact>
</mgrwt>
</event>
<event>
 8    1  0.1600673E-013  0.8038168E+02  0.7818608E-02  0.1327972E+00
         -1   -1    0    0    0  501 -0.00000000000E+00  0.00000000000E+00  0.34552603793E+01  0.34552640551E+01  0.50400000000E-02 0.  1.
          2   -1    0    0  501    0  0.00000000000E+00 -0.00000000000E+00 -0.46749086291E+03  0.46749086292E+03  0.25500000000E-02 0. -1.
         24    2    1    2    0    0  0.00000000000E+00  0.00000000000E+00 -0.46403560253E+03  0.47094612697E+03  0.80381677601E+02 0.  0.
         66    2    3    3    0    0  0.28645874610E+02  0.87599838803E+01 -0.38893109804E+03  0.39008809578E+03  0.19999988889E+01 0.  0.
        -13    1    3    3    0    0 -0.28645874610E+02 -0.87599838803E+01 -0.75104504492E+02  0.80858031195E+02  0.10566000000E+00 0.  1.
         13    1    4    4    0    0  0.42979792789E+01  0.11159199811E+01 -0.54312516140E+02  0.54493838888E+02  0.10566000000E+00 0. -1.
        -13    1    4    4    0    0  0.24071643784E+02  0.76118471011E+01 -0.33256526784E+03  0.33352219235E+03  0.10566000000E+00 0.  1.
        -14    1    4    4    0    0  0.27625154625E+00  0.32216798106E-01 -0.20533140529E+01  0.20720645354E+01  0.00000000000E+00 0.  1.
<mgrwt>
<rscale>  0 0.80381678E+02</rscale>
<asrwt>0</asrwt>
<pdfrwt beam="1">  1        2 0.71921621E-01 0.80381678E+02</pdfrwt>
<pdfrwt beam="2">  1       -1 0.53157918E-03 0.80381678E+02</pdfrwt>
<totfact> 0.29426647E+05</totfact>
</mgrwt>
</event>
<event>
 8    1  0.1600673E-013  0.7658312E+02  0.7818608E-02  0.1339038E+00
         -1   -1    0    0    0  501 -0.00000000000E+00  0.00000000000E+00  0.49332870988E+01  0.49332896733E+01  0.50400000000E-02 0.  1.
          2   -1    0    0  501    0  0.00000000000E+00 -0.00000000000E+00 -0.29721420445E+03  0.29721420446E+03  0.25500000000E-02 0. -1.
         24    2    1    2    0    0 -0.35527136788E-14  0.00000000000E+00 -0.29228091735E+03  0.30214749413E+03  0.76583115397E+02 0.  0.
         66    2    3    3    0    0  0.18456978799E+02  0.14573691954E+02 -0.26533373710E+03  0.26638138935E+03  0.19999969866E+01 0.  0.
        -13    1    3    3    0    0 -0.18456978799E+02 -0.14573691954E+02 -0.26947180253E+02  0.35766104781E+02  0.10566000000E+00 0.  1.
         13    1    4    4    0    0  0.14922527609E+02  0.11907896731E+02 -0.21028426926E+03  0.21114915320E+03  0.10566000000E+00 0. -1.
        -13    1    4    4    0    0  0.64568288246E+00  0.86814212648E+00 -0.13239007931E+02  0.13283563986E+02  0.10566000000E+00 0. -1.
         14    1    4    4    0    0  0.28887683069E+01  0.17976530968E+01 -0.41810459908E+02  0.41948672168E+02  0.00000000000E+00 0. -1.
<mgrwt>
<rscale>  0 0.76583115E+02</rscale>
<asrwt>0</asrwt>
<pdfrwt beam="1">  1        2 0.45725248E-01 0.76583115E+02</pdfrwt>
<pdfrwt beam="2">  1       -1 0.75896768E-03 0.76583115E+02</pdfrwt>
<totfact> 0.28482536E+05</totfact>
</mgrwt>
</event>
<event>
 8    1  0.1600673E-013  0.8201098E+02  0.7818608E-02  0.1323440E+00
         -1   -1    0    0    0  501 -0.00000000000E+00  0.00000000000E+00  0.20770933624E+02  0.20770934236E+02  0.50400000000E-02 0.  1.
          2   -1    0    0  501    0  0.00000000000E+00 -0.00000000000E+00 -0.80952078277E+02  0.80952078317E+02  0.25500000000E-02 0. -1.
         24    2    1    2    0    0  0.00000000000E+00  0.00000000000E+00 -0.60181144653E+02  0.10172301255E+03  0.82010981650E+02 0.  0.
         66    2    3    3    0    0  0.30948672417E+02  0.21797597847E+02 -0.49582032799E+02  0.62412607666E+02  0.20000057511E+01 0.  0.
        -13    1    3    3    0    0 -0.30948672417E+02 -0.21797597847E+02 -0.10599111854E+02  0.39310404887E+02  0.10566000000E+00 0.  1.
         13    1    4    4    0    0  0.11842214619E+02  0.81854049399E+01 -0.17819471303E+02  0.22908156247E+02  0.10566000000E+00 0. -1.
        -13    1    4    4    0    0  0.15486140737E+02  0.11239274174E+02 -0.26593808554E+02  0.32762534339E+02  0.10566000000E+00 0.  1.
        -14    1    4    4    0    0  0.36203170616E+01  0.23729187326E+01 -0.51687529420E+01  0.67419170800E+01  0.00000000000E+00 0.  1.
<mgrwt>
<rscale>  0 0.82010982E+02</rscale>
<asrwt>0</asrwt>
<pdfrwt beam="1">  1        2 0.12454166E-01 0.82010982E+02</pdfrwt>
<pdfrwt beam="2">  1       -1 0.31955283E-02 0.82010982E+02</pdfrwt>
<totfact> 0.15661163E+05</totfact>
</mgrwt>
</event>
<event>
 8    1  0.1600673E-013  0.7991582E+02  0.7818608E-02  0.1329291E+00
          2   -1    0    0  501    0  0.00000000000E+00  0.00000000000E+00  0.17102832548E+03  0.17102832549E+03  0.25500000000E-02 0. -1.
         -1   -1    0    0    0  501 -0.00000000000E+00 -0.00000000000E+00 -0.93354966749E+01  0.93354980354E+01  0.50400000000E-02 0.  1.
         24    2    1    2    0    0 -0.88817841970E-15  0.00000000000E+00  0.16169282880E+03  0.18036382353E+03  0.79915817914E+02 0.  0.
         66    2    3    3    0    0 -0.73539440922E+01  0.33181012531E+02  0.12821535008E+03  0.13265834343E+03  0.19999995940E+01 0.  0.
        -13    1    3    3    0    0  0.73539440922E+01 -0.33181012531E+02  0.33477478718E+02  0.47705480101E+02  0.10566000000E+00 0.  1.
         13    1    4    4    0    0 -0.25535290532E+01  0.15487649309E+02  0.59701505153E+02  0.61730613745E+02  0.10566000000E+00 0. -1.
        -13    1    4    4    0    0 -0.53341150012E+00  0.13997289381E+01  0.53406651081E+01  0.55477596163E+01  0.10566000000E+00 0. -1.
        -14    1    4    4    0    0 -0.42670035389E+01  0.16293634284E+02  0.63173179821E+02  0.65379970068E+02  0.00000000000E+00 0.  1.
<mgrwt>
<rscale>  0 0.79915818E+02</rscale>
<asrwt>0</asrwt>
<pdfrwt beam="1">  1        2 0.26312049E-01 0.79915818E+02</pdfrwt>
<pdfrwt beam="2">  1       -1 0.14362304E-02 0.79915818E+02</pdfrwt>
<totfact> 0.20969726E+05</totfact>
</mgrwt>
</event>
<event>
 8    1  0.1600673E-013  0.7887325E+02  0.7818608E-02  0.1332280E+00
         -1   -1    0    0    0  501 -0.00000000000E+00  0.00000000000E+00  0.14893925884E+02  0.14893926737E+02  0.50400000000E-02 0.  1.
          2   -1    0    0  501    0  0.00000000000E+00 -0.00000000000E+00 -0.10442158607E+03  0.10442158610E+03  0.25500000000E-02 0. -1.
         24    2    1    2    0    0  0.00000000000E+00  0.00000000000E+00 -0.89527660184E+02  0.11931551284E+03  0.78873250633E+02 0.  0.
         66    2    3    3    0    0 -0.34983036924E+01  0.11792816020E+02 -0.10143353467E+03  0.10219623570E+03  0.19999996297E+01 0.  0.
        -13    1    3    3    0    0  0.34983036924E+01 -0.11792816020E+02  0.11905874481E+02  0.17119277134E+02  0.10566000000E+00 0.  1.
         13    1    4    4    0    0 -0.92181252809E+00  0.19774674106E+01 -0.19745149263E+02  0.19865603418E+02  0.10566000000E+00 0. -1.
        -13    1    4    4    0    0 -0.53625395680E+00  0.26627131680E+01 -0.27533046882E+02  0.27666901604E+02  0.10566000000E+00 0.  1.
        -14    1    4    4    0    0 -0.20402372075E+01  0.71526354415E+01 -0.54155338521E+02  0.54663730680E+02  0.00000000000E+00 0.  1.
<mgrwt>
<rscale>  0 0.78873251E+02</rscale>
<asrwt>0</asrwt>
<pdfrwt beam="1">  1        2 0.16064859E-01 0.78873251E+02</pdfrwt>
<pdfrwt beam="2">  1       -1 0.22913734E-02 0.78873251E+02</pdfrwt>
<totfact> 0.18637158E+05</totfact>
</mgrwt>
</event>
<event>
 8    1  0.1600673E-013  0.7998022E+02  0.7818608E-02  0.1329108E+00
         -1   -1    0    0    0  501 -0.00000000000E+00  0.00000000000E+00  0.97582169430E+00  0.97583470970E+00  0.50400000000E-02 0.  1.
          2   -1    0    0  501    0  0.00000000000E+00 -0.00000000000E+00 -0.16388220729E+04  0.16388220729E+04  0.25500000000E-02 0. -1.
         24    2    1    2    0    0  0.00000000000E+00  0.00000000000E+00 -0.16378462512E+04  0.16397979076E+04  0.79980217672E+02 0.  0.
         66    2    3    3    0    0 -0.12134052131E+02  0.22884039317E+00 -0.16001248356E+04  0.16001721086E+04  0.20000007265E+01 0.  0.
        -13    1    3    3    0    0  0.12134052131E+02 -0.22884039317E+00 -0.37721415586E+02  0.39625799007E+02  0.10566000000E+00 0.  1.
         13    1    4    4    0    0 -0.20207235014E+01  0.13093070059E+00 -0.35327130105E+03  0.35327712037E+03  0.10566000000E+00 0. -1.
        -13    1    4    4    0    0 -0.12370252609E+01 -0.31653430930E+00 -0.15502900123E+03  0.15503429560E+03  0.10566000000E+00 0.  1.
         14    1    4    4    0    0 -0.88763033683E+01  0.41444400189E+00 -0.10918245333E+04  0.10918606926E+04  0.00000000000E+00 0. -1.
<mgrwt>
<rscale>  0 0.79980218E+02</rscale>
<asrwt>0</asrwt>
<pdfrwt beam="1">  1        2 0.25212427E+00 0.79980218E+02</pdfrwt>
<pdfrwt beam="2">  1       -1 0.15012873E-03 0.79980218E+02</pdfrwt>
<totfact> 0.31990668E+05</totfact>
</mgrwt>
</event>
<event>
 8    1  0.1600673E-013  0.7958775E+02  0.7818608E-02  0.1330225E+00
          2   -1    0    0  501    0  0.00000000000E+00  0.00000000000E+00  0.27900973991E+02  0.27900974108E+02  0.25500000000E-02 0. -1.
         -1   -1    0    0    0  501 -0.00000000000E+00 -0.00000000000E+00 -0.56756175620E+02  0.56756175843E+02  0.50400000000E-02 0.  1.
         24    2    1    2    0    0  0.88817841970E-15  0.00000000000E+00 -0.28855201628E+02  0.84657149951E+02  0.79587752681E+02 0.  0.
         66    2    3    3    0    0 -0.78428715873E+01  0.35621627362E+02  0.24200101942E+01  0.36609662928E+02  0.19999999368E+01 0.  0.
        -13    1    3    3    0    0  0.78428715873E+01 -0.35621627362E+02 -0.31275211822E+02  0.48047487023E+02  0.10566000000E+00 0.  1.
         13    1    4    4    0    0 -0.23385119314E+01  0.11727290246E+02  0.10675640142E+01  0.12006199712E+02  0.10566000000E+00 0. -1.
        -13    1    4    4    0    0 -0.20388486348E+01  0.96661196394E+01  0.12566592650E+01  0.99589722955E+01  0.10566000000E+00 0.  1.
         14    1    4    4    0    0 -0.34655110211E+01  0.14228217476E+02  0.95786915042E-01  0.14644490921E+02  0.00000000000E+00 0. -1.
<mgrwt>
<rscale>  0 0.79587753E+02</rscale>
<asrwt>0</asrwt>
<pdfrwt beam="1">  1        2 0.42924575E-02 0.79587753E+02</pdfrwt>
<pdfrwt beam="2">  1       -1 0.87317194E-02 0.79587753E+02</pdfrwt>
<totfact> 0.13458426E+05</totfact>
</mgrwt>
</event>
<event>
 8    1  0.1600673E-013  0.8007911E+02  0.7818608E-02  0.1328827E+00
          2   -1    0    0  501    0  0.00000000000E+00  0.00000000000E+00  0.75630596009E+03  0.75630596010E+03  0.25500000000E-02 0. -1.
         -1   -1    0    0    0  501 -0.00000000000E+00 -0.00000000000E+00 -0.21197288333E+01  0.21197348250E+01  0.50400000000E-02 0.  1.
         24    2    1    2    0    0 -0.17763568394E-14  0.00000000000E+00  0.75418623126E+03  0.75842569492E+03  0.80079106493E+02 0.  0.
         66    2    3    3    0    0 -0.15742252826E+02 -0.23084423337E+02  0.64860927749E+03  0.64921391234E+03  0.19999991350E+01 0.  0.
        -13    1    3    3    0    0  0.15742252826E+02  0.23084423337E+02  0.10557695376E+03  0.10921178258E+03  0.10566000000E+00 0.  1.
         13    1    4    4    0    0 -0.13411989126E+02 -0.19995848183E+02  0.56531433024E+03  0.56582684502E+03  0.10566000000E+00 0. -1.
        -13    1    4    4    0    0 -0.95697786270E+00 -0.17370861389E+01  0.44521629973E+02  0.44565905964E+02  0.10566000000E+00 0.  1.
         14    1    4    4    0    0 -0.13732858376E+01 -0.13514890153E+01  0.38773317277E+02  0.38821161359E+02  0.00000000000E+00 0. -1.
<mgrwt>
<rscale>  0 0.80079106E+02</rscale>
<asrwt>0</asrwt>
<pdfrwt beam="1">  1        2 0.11635492E+00 0.80079106E+02</pdfrwt>
<pdfrwt beam="2">  1       -1 0.32611215E-03 0.80079106E+02</pdfrwt>
<totfact> 0.33922382E+05</totfact>
</mgrwt>
</event>
<event>
 8    1  0.1600673E-013  0.7998751E+02  0.7818608E-02  0.1329087E+00
         -1   -1    0    0    0  501 -0.00000000000E+00  0.00000000000E+00  0.41439637307E+01  0.41439667956E+01  0.50400000000E-02 0.  1.
          2   -1    0    0  501    0  0.00000000000E+00 -0.00000000000E+00 -0.38598311477E+03  0.38598311477E+03  0.25500000000E-02 0. -1.
         24    2    1    2    0    0  0.00000000000E+00  0.00000000000E+00 -0.38183915104E+03  0.39012708157E+03  0.79987514720E+02 0.  0.
         66    2    3    3    0    0  0.67332425779E+01  0.33317201379E+02 -0.29359329998E+03  0.29556115824E+03  0.20000004525E+01 0.  0.
        -13    1    3    3    0    0 -0.67332425779E+01 -0.33317201379E+02 -0.88245851054E+02  0.94565923332E+02  0.10566000000E+00 0.  1.
         13    1    4    4    0    0  0.11462818648E+01  0.37650865699E+01 -0.32357122138E+02  0.32595772058E+02  0.10566000000E+00 0. -1.
        -13    1    4    4    0    0 -0.46007405956E-02  0.10527900011E+01 -0.10251838441E+02  0.10306296300E+02  0.10566000000E+00 0.  1.
         14    1    4    4    0    0  0.55915614537E+01  0.28499324808E+02 -0.25098433940E+03  0.25265908988E+03  0.00000000000E+00 0. -1.
<mgrwt>
<rscale>  0 0.79987515E+02</rscale>
<asrwt>0</asrwt>
<pdfrwt beam="1">  1        2 0.59381989E-01 0.79987515E+02</pdfrwt>
<pdfrwt beam="2">  1       -1 0.63753343E-03 0.79987515E+02</pdfrwt>
<totfact> 0.27913288E+05</totfact>
</mgrwt>
</event>
<event>
 8    1  0.1600673E-013  0.8138575E+02  0.7818608E-02  0.1325164E+00
          2   -1    0    0  501    0  0.00000000000E+00  0.00000000000E+00  0.55384072241E+03  0.55384072241E+03  0.25500000000E-02 0. -1.
         -1   -1    0    0    0  501 -0.00000000000E+00 -0.00000000000E+00 -0.29898647131E+01  0.29898689610E+01  0.50400000000E-02 0.  1.
         24    2    1    2    0    0  0.00000000000E+00  0.00000000000E+00  0.55085085769E+03  0.55683059137E+03  0.81385748554E+02 0.  0.
         66    2    3    3    0    0 -0.34307649060E+02  0.19980678773E+02  0.33588625680E+03  0.33823042415E+03  0.20000015204E+01 0.  0.
        -13    1    3    3    0    0  0.34307649060E+02 -0.19980678773E+02  0.21496460089E+03  0.21860016722E+03  0.10566000000E+00 0.  1.
         13    1    4    4    0    0 -0.11246040746E+02  0.65068740961E+01  0.10471868116E+03  0.10552168587E+03  0.10566000000E+00 0. -1.
        -13    1    4    4    0    0 -0.15690910510E+02  0.94927405916E+01  0.16293520456E+03  0.16396404742E+03  0.10566000000E+00 0.  1.
        -14    1    4    4    0    0 -0.73706978043E+01  0.39810640855E+01  0.68232371089E+02  0.68744690862E+02  0.00000000000E+00 0.  1.
<mgrwt>
<rscale>  0 0.81385749E+02</rscale>
<asrwt>0</asrwt>
<pdfrwt beam="1">  1        2 0.85206134E-01 0.81385749E+02</pdfrwt>
<pdfrwt beam="2">  1       -1 0.45998022E-03 0.81385749E+02</pdfrwt>
<totfact> 0.30052934E+05</totfact>
</mgrwt>
</event>
<event>
 8    1  0.1600673E-013  0.8027172E+02  0.7818608E-02  0.1328282E+00
          2   -1    0    0  501    0  0.00000000000E+00  0.00000000000E+00  0.43857155954E+03  0.43857155955E+03  0.25500000000E-02 0. -1.
         -1   -1    0    0    0  501 -0.00000000000E+00 -0.00000000000E+00 -0.36730303039E+01  0.36730337618E+01  0.50400000000E-02 0.  1.
         24    2    1    2    0    0  0.00000000000E+00  0.35527136788E-14  0.43489852924E+03  0.44224459331E+03  0.80271723412E+02 0.  0.
         66    2    3    3    0    0 -0.65884749786E+01 -0.30711827937E+02  0.35501503367E+03  0.35640748941E+03  0.19999996658E+01 0.  0.
        -13    1    3    3    0    0  0.65884749786E+01  0.30711827937E+02  0.79883495568E+02  0.85837103900E+02  0.10566000000E+00 0.  1.
         13    1    4    4    0    0 -0.29706240022E+01 -0.14339762063E+02  0.16976261724E+03  0.17039310655E+03  0.10566000000E+00 0. -1.
        -13    1    4    4    0    0 -0.76270142496E+00 -0.34424989218E+01  0.45191592258E+02  0.45329060073E+02  0.10566000000E+00 0.  1.
         14    1    4    4    0    0 -0.28551495514E+01 -0.12929566952E+02  0.14006082417E+03  0.14068532279E+03  0.00000000000E+00 0. -1.
<mgrwt>
<rscale>  0 0.80271723E+02</rscale>
<asrwt>0</asrwt>
<pdfrwt beam="1">  1        2 0.67472553E-01 0.80271723E+02</pdfrwt>
<pdfrwt beam="2">  1       -1 0.56508181E-03 0.80271723E+02</pdfrwt>
<totfact> 0.28907300E+05</totfact>
</mgrwt>
</event>
<event>
 8    1  0.1600673E-013  0.8142650E+02  0.7818608E-02  0.1325051E+00
         -1   -1    0    0    0  501 -0.00000000000E+00  0.00000000000E+00  0.54664321556E+01  0.54664344791E+01  0.50400000000E-02 0.  1.
          2   -1    0    0  501    0  0.00000000000E+00 -0.00000000000E+00 -0.30322675067E+03  0.30322675068E+03  0.25500000000E-02 0. -1.
         24    2    1    2    0    0 -0.88817841970E-15  0.00000000000E+00 -0.29776031852E+03  0.30869318516E+03  0.81426502334E+02 0.  0.
         66    2    3    3    0    0 -0.71351766279E+01 -0.31850053103E+02 -0.24107211172E+03  0.24327987931E+03  0.20000004115E+01 0.  0.
        -13    1    3    3    0    0  0.71351766279E+01  0.31850053103E+02 -0.56688206799E+02  0.65413305850E+02  0.10566000000E+00 0.  1.
         13    1    4    4    0    0 -0.20297542910E+01 -0.62985115761E+01 -0.48932350880E+02  0.49377902722E+02  0.10566000000E+00 0.  1.
        -13    1    4    4    0    0 -0.93042419824E+00 -0.54014248542E+01 -0.37247452672E+02  0.37648704815E+02  0.10566000000E+00 0. -1.
        -14    1    4    4    0    0 -0.41749981386E+01 -0.20150116673E+02 -0.15489230817E+03  0.15625327178E+03  0.00000000000E+00 0.  1.
<mgrwt>
<rscale>  0 0.81426502E+02</rscale>
<asrwt>0</asrwt>
<pdfrwt beam="1">  1        2 0.46650256E-01 0.81426502E+02</pdfrwt>
<pdfrwt beam="2">  1       -1 0.84098998E-03 0.81426502E+02</pdfrwt>
<totfact> 0.24433691E+05</totfact>
</mgrwt>
</event>
<event>
 8    1  0.1600673E-013  0.7967889E+02  0.7818608E-02  0.1329965E+00
          2   -1    0    0  501    0  0.00000000000E+00  0.00000000000E+00  0.69882261688E+01  0.69882266341E+01  0.25500000000E-02 0. -1.
         -1   -1    0    0    0  501 -0.00000000000E+00 -0.00000000000E+00 -0.22712218008E+03  0.22712218014E+03  0.50400000000E-02 0.  1.
         24    2    1    2    0    0  0.00000000000E+00  0.35527136788E-14 -0.22013395391E+03  0.23411040677E+03  0.79678886121E+02 0.  0.
         66    2    3    3    0    0  0.35162776064E+02  0.17842097225E+02 -0.93932160090E+02  0.10189215848E+03  0.20000014951E+01 0.  0.
        -13    1    3    3    0    0 -0.35162776064E+02 -0.17842097225E+02 -0.12620179382E+03  0.13221824829E+03  0.10566000000E+00 0.  1.
         13    1    4    4    0    0  0.36434946548E+01  0.22154427269E+01 -0.99917333553E+01  0.10864121651E+02  0.10566000000E+00 0. -1.
        -13    1    4    4    0    0  0.98177282190E+01  0.54605718107E+01 -0.25531997847E+02  0.27894438692E+02  0.10566000000E+00 0.  1.
        -14    1    4    4    0    0  0.21701553191E+02  0.10166082688E+02 -0.58408428888E+02  0.63133598133E+02  0.00000000000E+00 0.  1.
<mgrwt>
<rscale>  0 0.79678886E+02</rscale>
<asrwt>0</asrwt>
<pdfrwt beam="1">  1        2 0.10751119E-02 0.79678886E+02</pdfrwt>
<pdfrwt beam="2">  1       -1 0.34941868E-01 0.79678886E+02</pdfrwt>
<totfact> 0.96672300E+04</totfact>
</mgrwt>
</event>
<event>
 8    1  0.1600673E-013  0.8148715E+02  0.7818608E-02  0.1324883E+00
          2   -1    0    0  501    0  0.00000000000E+00  0.00000000000E+00  0.11940308239E+03  0.11940308242E+03  0.25500000000E-02 0. -1.
         -1   -1    0    0    0  501 -0.00000000000E+00 -0.00000000000E+00 -0.13902812524E+02  0.13902813437E+02  0.50400000000E-02 0.  1.
         24    2    1    2    0    0 -0.35527136788E-14  0.00000000000E+00  0.10550026987E+03  0.13330589585E+03  0.81487145782E+02 0.  0.
         66    2    3    3    0    0 -0.21436345757E+02  0.25333786936E+02  0.91380918468E+02  0.97240886110E+02  0.19999978828E+01 0.  0.
        -13    1    3    3    0    0  0.21436345757E+02 -0.25333786936E+02  0.14119351398E+02  0.36065009744E+02  0.10566000000E+00 0.  1.
         13    1    4    4    0    0 -0.13141656296E+02  0.15799237193E+02  0.54516886213E+02  0.58261660399E+02  0.10566000000E+00 0. -1.
        -13    1    4    4    0    0 -0.55525677769E+01  0.66878150244E+01  0.26339141458E+02  0.27736607859E+02  0.10566000000E+00 0.  1.
        -14    1    4    4    0    0 -0.27421216844E+01  0.28467347178E+01  0.10524890797E+02  0.11242617852E+02  0.00000000000E+00 0.  1.
<mgrwt>
<rscale>  0 0.81487146E+02</rscale>
<asrwt>0</asrwt>
<pdfrwt beam="1">  1        2 0.18369705E-01 0.81487146E+02</pdfrwt>
<pdfrwt beam="2">  1       -1 0.21388943E-02 0.81487146E+02</pdfrwt>
<totfact> 0.17763334E+05</totfact>
</mgrwt>
</event>
<event>
 8    1  0.1600673E-013  0.7947770E+02  0.7818608E-02  0.1330540E+00
         -1   -1    0    0    0  501 -0.00000000000E+00  0.00000000000E+00  0.57052244247E+02  0.57052244469E+02  0.50400000000E-02 0.  1.
          2   -1    0    0  501    0  0.00000000000E+00 -0.00000000000E+00 -0.27679478250E+02  0.27679478368E+02  0.25500000000E-02 0. -1.
         24    2    1    2    0    0  0.00000000000E+00  0.00000000000E+00  0.29372765997E+02  0.84731722837E+02  0.79477704249E+02 0.  0.
         66    2    3    3    0    0  0.36937204147E+02  0.71217745237E+01  0.11223673186E+01  0.37687351101E+02  0.20000005145E+01 0.  0.
        -13    1    3    3    0    0 -0.36937204147E+02 -0.71217745237E+01  0.28250398678E+02  0.47044371736E+02  0.10566000000E+00 0.  1.
         13    1    4    4    0    0  0.24477616999E+02  0.45706396306E+01 -0.31091724460E-01  0.24900935953E+02  0.10566000000E+00 0. -1.
        -13    1    4    4    0    0  0.11934752533E+02  0.25683796892E+01  0.10787423026E+01  0.12256008373E+02  0.10566000000E+00 0.  1.
        -14    1    4    4    0    0  0.52483461429E+00 -0.17244796117E-01  0.74716740493E-01  0.53040677471E+00  0.00000000000E+00 0.  1.
<mgrwt>
<rscale>  0 0.79477704E+02</rscale>
<asrwt>0</asrwt>
<pdfrwt beam="1">  1        2 0.42583813E-02 0.79477704E+02</pdfrwt>
<pdfrwt beam="2">  1       -1 0.87772684E-02 0.79477704E+02</pdfrwt>
<totfact> 0.13489807E+05</totfact>
</mgrwt>
</event>
<event>
 8    1  0.1600673E-013  0.7899833E+02  0.7818608E-02  0.1331918E+00
         -1   -1    0    0    0  501 -0.00000000000E+00  0.00000000000E+00  0.12676988058E+02  0.12676989060E+02  0.50400000000E-02 0.  1.
          2   -1    0    0  501    0  0.00000000000E+00 -0.00000000000E+00 -0.12307212928E+03  0.12307212930E+03  0.25500000000E-02 0. -1.
         24    2    1    2    0    0 -0.35527136788E-14  0.00000000000E+00 -0.11039514122E+03  0.13574911836E+03  0.78998328663E+02 0.  0.
         66    2    3    3    0    0 -0.26094120981E+02  0.17004117786E+02 -0.96906155939E+02  0.10180788887E+03  0.20000015180E+01 0.  0.
        -13    1    3    3    0    0  0.26094120981E+02 -0.17004117786E+02 -0.13488985279E+02  0.33941229491E+02  0.10566000000E+00 0.  1.
         13    1    4    4    0    0 -0.44862898732E+01  0.26630001156E+01 -0.18358779623E+02  0.19085971805E+02  0.10566000000E+00 0.  1.
        -13    1    4    4    0    0 -0.63769677274E+01  0.44836576545E+01 -0.24558084026E+02  0.25765860327E+02  0.10566000000E+00 0. -1.
        -14    1    4    4    0    0 -0.15230863381E+02  0.98574600160E+01 -0.53989292290E+02  0.56956056739E+02  0.00000000000E+00 0.  1.
<mgrwt>
<rscale>  0 0.78998329E+02</rscale>
<asrwt>0</asrwt>
<pdfrwt beam="1">  1        2 0.18934173E-01 0.78998329E+02</pdfrwt>
<pdfrwt beam="2">  1       -1 0.19503060E-02 0.78998329E+02</pdfrwt>
<totfact> 0.19471661E+05</totfact>
</mgrwt>
</event>
<event>
 8    1  0.1600673E-013  0.8073779E+02  0.7818608E-02  0.1326971E+00
          2   -1    0    0  501    0  0.00000000000E+00  0.00000000000E+00  0.17321200342E+03  0.17321200344E+03  0.25500000000E-02 0. -1.
         -1   -1    0    0    0  501 -0.00000000000E+00 -0.00000000000E+00 -0.94083994961E+01  0.94084008460E+01  0.50400000000E-02 0.  1.
         24    2    1    2    0    0  0.00000000000E+00  0.88817841970E-15  0.16380360393E+03  0.18262040429E+03  0.80737794141E+02 0.  0.
         66    2    3    3    0    0 -0.28090596673E+02 -0.55555236344E+01  0.14623501227E+03  0.14902558265E+03  0.20000011383E+01 0.  0.
        -13    1    3    3    0    0  0.28090596673E+02  0.55555236344E+01  0.17568591654E+02  0.33594821640E+02  0.10566000000E+00 0.  1.
         13    1    4    4    0    0 -0.94008775698E+01 -0.18288350787E+01  0.53842822051E+02  0.54688040624E+02  0.10566000000E+00 0. -1.
        -13    1    4    4    0    0 -0.14408289116E+02 -0.27990247864E+01  0.71425680257E+02  0.72918257654E+02  0.10566000000E+00 0.  1.
         14    1    4    4    0    0 -0.42814299871E+01 -0.92766376928E+00  0.20966509963E+02  0.21419284368E+02  0.00000000000E+00 0. -1.
<mgrwt>
<rscale>  0 0.80737794E+02</rscale>
<asrwt>0</asrwt>
<pdfrwt beam="1">  1        2 0.26648001E-01 0.80737794E+02</pdfrwt>
<pdfrwt beam="2">  1       -1 0.14474461E-02 0.80737794E+02</pdfrwt>
<totfact> 0.20496147E+05</totfact>
</mgrwt>
</event>
<event>
 8    1  0.1600673E-013  0.7909373E+02  0.7818608E-02  0.1331643E+00
          2   -1    0    0  501    0  0.00000000000E+00  0.00000000000E+00  0.55898501724E+02  0.55898501782E+02  0.25500000000E-02 0. -1.
         -1   -1    0    0    0  501 -0.00000000000E+00 -0.00000000000E+00 -0.27978470342E+02  0.27978470796E+02  0.50400000000E-02 0.  1.
         24    2    1    2    0    0  0.00000000000E+00 -0.17763568394E-14  0.27920031382E+02  0.83876972578E+02  0.79093731587E+02 0.  0.
         66    2    3    3    0    0 -0.12065212807E+02 -0.15976278118E+02  0.50105139612E+02  0.53993850020E+02  0.20000004855E+01 0.  0.
        -13    1    3    3    0    0  0.12065212807E+02  0.15976278118E+02 -0.22185108230E+02  0.29883122557E+02  0.10566000000E+00 0.  1.
         13    1    4    4    0    0 -0.12474548945E+01 -0.14103668653E+01  0.54065759191E+01  0.57260375141E+01  0.10566000000E+00 0. -1.
        -13    1    4    4    0    0 -0.42241558641E+01 -0.44219933993E+01  0.15263638221E+02  0.16443458705E+02  0.10566000000E+00 0.  1.
         14    1    4    4    0    0 -0.65936020482E+01 -0.10143917853E+02  0.29434925471E+02  0.31824353802E+02  0.00000000000E+00 0. -1.
<mgrwt>
<rscale>  0 0.79093732E+02</rscale>
<asrwt>0</asrwt>
<pdfrwt beam="1">  1        2 0.85997695E-02 0.79093732E+02</pdfrwt>
<pdfrwt beam="2">  1       -1 0.43043801E-02 0.79093732E+02</pdfrwt>
<totfact> 0.15799812E+05</totfact>
</mgrwt>
</event>
<event>
 8    1  0.1600673E-013  0.7844622E+02  0.7818608E-02  0.1333520E+00
         -1   -1    0    0    0  501 -0.00000000000E+00  0.00000000000E+00  0.11547067940E+02  0.11547069040E+02  0.50400000000E-02 0.  1.
          2   -1    0    0  501    0  0.00000000000E+00 -0.00000000000E+00 -0.13323314323E+03  0.13323314325E+03  0.25500000000E-02 0. -1.
         24    2    1    2    0    0  0.00000000000E+00  0.71054273576E-14 -0.12168607529E+03  0.14478021229E+03  0.78446216940E+02 0.  0.
         66    2    3    3    0    0 -0.15564391340E+02 -0.34672050497E+02 -0.78589252555E+02  0.87319367735E+02  0.20000002565E+01 0.  0.
        -13    1    3    3    0    0  0.15564391340E+02  0.34672050497E+02 -0.43096822731E+02  0.57460844555E+02  0.10566000000E+00 0.  1.
         13    1    4    4    0    0 -0.35976117626E+01 -0.96693846630E+01 -0.20672411500E+02  0.23104102913E+02  0.10566000000E+00 0.  1.
        -13    1    4    4    0    0 -0.84538193403E+01 -0.17935559811E+02 -0.42360148886E+02  0.46771195675E+02  0.10566000000E+00 0. -1.
         14    1    4    4    0    0 -0.35129602368E+01 -0.70671060227E+01 -0.15556692169E+02  0.17444069147E+02  0.00000000000E+00 0. -1.
<mgrwt>
<rscale>  0 0.78446217E+02</rscale>
<asrwt>0</asrwt>
<pdfrwt beam="1">  1        2 0.20497406E-01 0.78446217E+02</pdfrwt>
<pdfrwt beam="2">  1       -1 0.17764722E-02 0.78446217E+02</pdfrwt>
<totfact> 0.20324739E+05</totfact>
</mgrwt>
</event>
<event>
 8    1  0.1600673E-013  0.7992431E+02  0.7818608E-02  0.1329266E+00
          2   -1    0    0  501    0  0.00000000000E+00  0.00000000000E+00  0.11058896011E+03  0.11058896014E+03  0.25500000000E-02 0. -1.
         -1   -1    0    0    0  501 -0.00000000000E+00 -0.00000000000E+00 -0.14440627228E+02  0.14440628108E+02  0.50400000000E-02 0.  1.
         24    2    1    2    0    0  0.00000000000E+00  0.00000000000E+00  0.96148332879E+02  0.12502958824E+03  0.79924314329E+02 0.  0.
         66    2    3    3    0    0 -0.97955240492E+01  0.17714162042E+02  0.10196021413E+03  0.10396936612E+03  0.19999995517E+01 0.  0.
        -13    1    3    3    0    0  0.97955240492E+01 -0.17714162042E+02 -0.58118812479E+01  0.21060222125E+02  0.10566000000E+00 0.  1.
         13    1    4    4    0    0 -0.31045924242E+01  0.47542086001E+01  0.29609595360E+02  0.30149300074E+02  0.10566000000E+00 0. -1.
        -13    1    4    4    0    0 -0.18119022037E+00  0.41311744370E+00  0.37359616505E+01  0.37645809074E+01  0.10566000000E+00 0.  1.
         14    1    4    4    0    0 -0.65097414046E+01  0.12546835999E+02  0.68614657117E+02  0.70055485138E+02  0.00000000000E+00 0. -1.
<mgrwt>
<rscale>  0 0.79924314E+02</rscale>
<asrwt>0</asrwt>
<pdfrwt beam="1">  1        2 0.17013687E-01 0.79924314E+02</pdfrwt>
<pdfrwt beam="2">  1       -1 0.22216349E-02 0.79924314E+02</pdfrwt>
<totfact> 0.18288219E+05</totfact>
</mgrwt>
</event>
<event>
 8    1  0.1600673E-013  0.7919776E+02  0.7818608E-02  0.1331344E+00
          2   -1    0    0  501    0  0.00000000000E+00  0.00000000000E+00  0.16341608545E+03  0.16341608547E+03  0.25500000000E-02 0. -1.
         -1   -1    0    0    0  501 -0.00000000000E+00 -0.00000000000E+00 -0.95955739301E+01  0.95955752537E+01  0.50400000000E-02 0.  1.
         24    2    1    2    0    0  0.35527136788E-14  0.00000000000E+00  0.15382051152E+03  0.17301166072E+03  0.79197758694E+02 0.  0.
         66    2    3    3    0    0  0.27985052887E+02  0.25334793379E+02  0.10290401375E+03  0.10962778383E+03  0.20000003648E+01 0.  0.
        -13    1    3    3    0    0 -0.27985052887E+02 -0.25334793379E+02  0.50916497771E+02  0.63383876892E+02  0.10566000000E+00 0.  1.
         13    1    4    4    0    0  0.10302855176E+02  0.97388291160E+01  0.36724896046E+02  0.39366518400E+02  0.10566000000E+00 0. -1.
        -13    1    4    4    0    0  0.24063090010E+01  0.25930557111E+01  0.97685318870E+01  0.10389881626E+02  0.10566000000E+00 0.  1.
        -14    1    4    4    0    0  0.15275888710E+02  0.13002908552E+02  0.56410585817E+02  0.59871383806E+02  0.00000000000E+00 0.  1.
<mgrwt>
<rscale>  0 0.79197759E+02</rscale>
<asrwt>0</asrwt>
<pdfrwt beam="1">  1        2 0.25140936E-01 0.79197759E+02</pdfrwt>
<pdfrwt beam="2">  1       -1 0.14762423E-02 0.79197759E+02</pdfrwt>
<totfact> 0.21154595E+05</totfact>
</mgrwt>
</event>
<event>
 8    1  0.1600673E-013  0.7871084E+02  0.7818608E-02  0.1332750E+00
          2   -1    0    0  501    0  0.00000000000E+00  0.00000000000E+00  0.14819903875E+02  0.14819904095E+02  0.25500000000E-02 0. -1.
         -1   -1    0    0    0  501 -0.00000000000E+00 -0.00000000000E+00 -0.10451139886E+03  0.10451139898E+03  0.50400000000E-02 0.  1.
         24    2    1    2    0    0  0.00000000000E+00  0.17763568394E-14 -0.89691494985E+02  0.11933130308E+03  0.78710835475E+02 0.  0.
         66    2    3    3    0    0 -0.37960775923E+02 -0.10188017796E+02 -0.47033498330E+02  0.61326716551E+02  0.19999956159E+01 0.  0.
        -13    1    3    3    0    0  0.37960775923E+02  0.10188017796E+02 -0.42657996655E+02  0.58004586525E+02  0.10566000000E+00 0.  1.
         13    1    4    4    0    0 -0.30531988729E+00 -0.65232743636E-01 -0.24507993303E+00  0.41073562493E+00  0.10566000000E+00 0. -1.
        -13    1    4    4    0    0 -0.90741990158E+01 -0.19714262944E+01 -0.11240748616E+02  0.14580576220E+02  0.10566000000E+00 0.  1.
         14    1    4    4    0    0 -0.28581257020E+02 -0.81513587584E+01 -0.35547669781E+02  0.46335404706E+02  0.00000000000E+00 0. -1.
<mgrwt>
<rscale>  0 0.78710835E+02</rscale>
<asrwt>0</asrwt>
<pdfrwt beam="1">  1        2 0.22799853E-02 0.78710835E+02</pdfrwt>
<pdfrwt beam="2">  1       -1 0.16078676E-01 0.78710835E+02</pdfrwt>
<totfact> 0.12226739E+05</totfact>
</mgrwt>
</event>
<event>
 8    1  0.1600673E-013  0.8015405E+02  0.7818608E-02  0.1328615E+00
          2   -1    0    0  501    0  0.00000000000E+00  0.00000000000E+00  0.13933715312E+02  0.13933715546E+02  0.25500000000E-02 0. -1.
         -1   -1    0    0    0  501 -0.00000000000E+00 -0.00000000000E+00 -0.11527204432E+03  0.11527204443E+03  0.50400000000E-02 0.  1.
         24    2    1    2    0    0  0.35527136788E-14  0.00000000000E+00 -0.10133832901E+03  0.12920575998E+03  0.80154048462E+02 0.  0.
         66    2    3    3    0    0 -0.26226826389E+02  0.20043375289E+02 -0.14134182314E+02  0.35963292827E+02  0.20000014763E+01 0.  0.
        -13    1    3    3    0    0  0.26226826389E+02 -0.20043375289E+02 -0.87204146694E+02  0.93242467149E+02  0.10566000000E+00 0.  1.
         13    1    4    4    0    0 -0.14322075200E+02  0.99614310593E+01 -0.76815593187E+01  0.19062252343E+02  0.10566000000E+00 0. -1.
        -13    1    4    4    0    0 -0.10682706635E+02  0.87674949508E+01 -0.55630468694E+01  0.14897914057E+02  0.10566000000E+00 0.  1.
        -14    1    4    4    0    0 -0.12220445537E+01  0.13144492788E+01 -0.88957612630E+00  0.20031264269E+01  0.00000000000E+00 0.  1.
<mgrwt>
<rscale>  0 0.80154048E+02</rscale>
<asrwt>0</asrwt>
<pdfrwt beam="1">  1        2 0.21436486E-02 0.80154048E+02</pdfrwt>
<pdfrwt beam="2">  1       -1 0.17734160E-01 0.80154048E+02</pdfrwt>
<totfact> 0.11433615E+05</totfact>
</mgrwt>
</event>
<event>
 8    1  0.1600673E-013  0.8376091E+02  0.7818608E-02  0.1318705E+00
          2   -1    0    0  501    0  0.00000000000E+00  0.00000000000E+00  0.11377544233E+02  0.11377544518E+02  0.25500000000E-02 0. -1.
         -1   -1    0    0    0  501 -0.00000000000E+00 -0.00000000000E+00 -0.15416089845E+03  0.15416089853E+03  0.50400000000E-02 0.  1.
         24    2    1    2    0    0  0.00000000000E+00  0.00000000000E+00 -0.14278335421E+03  0.16553844305E+03  0.83760909057E+02 0.  0.
         66    2    3    3    0    0  0.28087859818E+02 -0.15638206456E+02 -0.18457790839E+02  0.37123731107E+02  0.19999995738E+01 0.  0.
        -13    1    3    3    0    0 -0.28087859818E+02  0.15638206456E+02 -0.12432556337E+03  0.12841471194E+03  0.10566000000E+00 0.  1.
         13    1    4    4    0    0  0.11822497187E+02 -0.64501471020E+01 -0.75981370829E+01  0.15463463019E+02  0.10566000000E+00 0. -1.
        -13    1    4    4    0    0  0.20683033176E+01 -0.13919336753E+01 -0.93562566741E+00  0.26649422874E+01  0.10566000000E+00 0.  1.
         14    1    4    4    0    0  0.14197059313E+02 -0.77961256791E+01 -0.99240280892E+01  0.18995325800E+02  0.00000000000E+00 0. -1.
<mgrwt>
<rscale>  0 0.83760909E+02</rscale>
<asrwt>0</asrwt>
<pdfrwt beam="1">  1        2 0.17503916E-02 0.83760909E+02</pdfrwt>
<pdfrwt beam="2">  1       -1 0.23717060E-01 0.83760909E+02</pdfrwt>
<totfact> 0.95360947E+04</totfact>
</mgrwt>
</event>
<event>
 8    1  0.1600673E-013  0.8052806E+02  0.7818608E-02  0.1327560E+00
          2   -1    0    0  501    0  0.00000000000E+00  0.00000000000E+00  0.43955388799E+03  0.43955388800E+03  0.25500000000E-02 0. -1.
         -1   -1    0    0    0  501 -0.00000000000E+00 -0.00000000000E+00 -0.36882651253E+01  0.36882685689E+01  0.50400000000E-02 0.  1.
         24    2    1    2    0    0  0.00000000000E+00  0.00000000000E+00  0.43586562287E+03  0.44324215657E+03  0.80528058231E+02 0.  0.
         66    2    3    3    0    0 -0.26977967310E+02  0.30767588888E+01  0.38152477414E+03  0.38249500709E+03  0.19999999971E+01 0.  0.
        -13    1    3    3    0    0  0.26977967310E+02 -0.30767588888E+01  0.54340848725E+02  0.60747149477E+02  0.10566000000E+00 0.  1.
         13    1    4    4    0    0 -0.11030414012E+02  0.18839982794E+01  0.16001473577E+03  0.16040556820E+03  0.10566000000E+00 0. -1.
        -13    1    4    4    0    0 -0.13595626638E+02  0.12051127539E+01  0.19351854782E+03  0.19399931153E+03  0.10566000000E+00 0.  1.
         14    1    4    4    0    0 -0.23519266598E+01 -0.12352144450E-01  0.27991490554E+02  0.28090127358E+02  0.00000000000E+00 0. -1.
<mgrwt>
<rscale>  0 0.80528058E+02</rscale>
<asrwt>0</asrwt>
<pdfrwt beam="1">  1        2 0.67623671E-01 0.80528058E+02</pdfrwt>
<pdfrwt beam="2">  1       -1 0.56742571E-03 0.80528058E+02</pdfrwt>
<totfact> 0.28689430E+05</totfact>
</mgrwt>
</event>
<event>
 8    1  0.1600673E-013  0.7851223E+02  0.7818608E-02  0.1333327E+00
          2   -1    0    0  501    0  0.00000000000E+00  0.00000000000E+00  0.15528448140E+02  0.15528448350E+02  0.25500000000E-02 0. -1.
         -1   -1    0    0    0  501 -0.00000000000E+00 -0.00000000000E+00 -0.99239948134E+02  0.99239948262E+02  0.50400000000E-02 0.  1.
         24    2    1    2    0    0  0.00000000000E+00  0.00000000000E+00 -0.83711499994E+02  0.11476839661E+03  0.78512225989E+02 0.  0.
         66    2    3    3    0    0  0.31233569064E+02  0.27574563175E+01 -0.74174922541E+01  0.32282481555E+02  0.20000055478E+01 0.  0.
        -13    1    3    3    0    0 -0.31233569064E+02 -0.27574563175E+01 -0.76294007740E+02  0.82485915057E+02  0.10566000000E+00 0.  1.
         13    1    4    4    0    0  0.11492002647E+02  0.50687714037E+00 -0.18894644526E+01  0.11657799502E+02  0.10566000000E+00 0. -1.
        -13    1    4    4    0    0  0.14062468686E+02  0.15677749545E+01 -0.39147983373E+01  0.14681544670E+02  0.10566000000E+00 0. -1.
         14    1    4    4    0    0  0.56790977309E+01  0.68280422268E+00 -0.16132294642E+01  0.59431373825E+01  0.00000000000E+00 0. -1.
<mgrwt>
<rscale>  0 0.78512226E+02</rscale>
<asrwt>0</asrwt>
<pdfrwt beam="1">  1        2 0.23889921E-02 0.78512226E+02</pdfrwt>
<pdfrwt beam="2">  1       -1 0.15267684E-01 0.78512226E+02</pdfrwt>
<totfact> 0.12440938E+05</totfact>
</mgrwt>
</event>
<event>
 8    1  0.1600673E-013  0.7945297E+02  0.7818608E-02  0.1330611E+00
         -1   -1    0    0    0  501 -0.00000000000E+00  0.00000000000E+00  0.25141423381E+02  0.25141423887E+02  0.50400000000E-02 0.  1.
          2   -1    0    0  501    0  0.00000000000E+00 -0.00000000000E+00 -0.62772650374E+02  0.62772650426E+02  0.25500000000E-02 0. -1.
         24    2    1    2    0    0  0.00000000000E+00 -0.35527136788E-14 -0.37631226993E+02  0.87914074313E+02  0.79452974880E+02 0.  0.
         66    2    3    3    0    0  0.10874920094E+02  0.28323244662E+02 -0.47161448118E+02  0.56113031028E+02  0.19999968460E+01 0.  0.
        -13    1    3    3    0    0 -0.10874920094E+02 -0.28323244662E+02  0.95302211250E+01  0.31801043284E+02  0.10566000000E+00 0.  1.
         13    1    4    4    0    0  0.65860672882E+01  0.16879301270E+02 -0.27250876331E+02  0.32724738632E+02  0.10566000000E+00 0. -1.
        -13    1    4    4    0    0  0.28458223778E+01  0.88309130598E+01 -0.14709102502E+02  0.17391164163E+02  0.10566000000E+00 0.  1.
        -14    1    4    4    0    0  0.14430304280E+01  0.26130303323E+01 -0.52014692847E+01  0.59971282338E+01  0.00000000000E+00 0.  1.
<mgrwt>
<rscale>  0 0.79452975E+02</rscale>
<asrwt>0</asrwt>
<pdfrwt beam="1">  1        2 0.96573308E-02 0.79452975E+02</pdfrwt>
<pdfrwt beam="2">  1       -1 0.38679114E-02 0.79452975E+02</pdfrwt>
<totfact> 0.16026572E+05</totfact>
</mgrwt>
</event>
<event>
 8    1  0.1600673E-013  0.8069144E+02  0.7818608E-02  0.1327101E+00
         -1   -1    0    0    0  501 -0.00000000000E+00  0.00000000000E+00  0.27223257874E+02  0.27223258340E+02  0.50400000000E-02 0.  1.
          2   -1    0    0  501    0  0.00000000000E+00 -0.00000000000E+00 -0.59793624191E+02  0.59793624246E+02  0.25500000000E-02 0. -1.
         24    2    1    2    0    0  0.71054273576E-14  0.71054273576E-14 -0.32570366318E+02  0.87016882586E+02  0.80691443740E+02 0.  0.
         66    2    3    3    0    0  0.26360223662E+02  0.19130606895E+02 -0.41926638171E+02  0.53128942272E+02  0.20000017469E+01 0.  0.
        -13    1    3    3    0    0 -0.26360223662E+02 -0.19130606895E+02  0.93562718534E+01  0.33887940313E+02  0.10566000000E+00 0.  1.
         13    1    4    4    0    0  0.80279681872E+01  0.63032149444E+01 -0.12531442375E+02  0.16162518489E+02  0.10566000000E+00 0. -1.
        -13    1    4    4    0    0  0.98367998626E+00  0.10436965570E+01 -0.20829682059E+01  0.25311754979E+01  0.10566000000E+00 0.  1.
        -14    1    4    4    0    0  0.17348575488E+02  0.11783695394E+02 -0.27312227590E+02  0.34435248286E+02  0.00000000000E+00 0.  1.
<mgrwt>
<rscale>  0 0.80691444E+02</rscale>
<asrwt>0</asrwt>
<pdfrwt beam="1">  1        2 0.91990191E-02 0.80691444E+02</pdfrwt>
<pdfrwt beam="2">  1       -1 0.41881936E-02 0.80691444E+02</pdfrwt>
<totfact> 0.15193625E+05</totfact>
</mgrwt>
</event>
<event>
 8    1  0.1600673E-013  0.7985826E+02  0.7818608E-02  0.1329454E+00
          2   -1    0    0  501    0  0.00000000000E+00  0.00000000000E+00  0.35444980978E+03  0.35444980979E+03  0.25500000000E-02 0. -1.
         -1   -1    0    0    0  501 -0.00000000000E+00 -0.00000000000E+00 -0.44980560484E+01  0.44980588721E+01  0.50400000000E-02 0.  1.
         24    2    1    2    0    0  0.00000000000E+00  0.00000000000E+00  0.34995175373E+03  0.35894786866E+03  0.79858264924E+02 0.  0.
         66    2    3    3    0    0 -0.48714177690E+01  0.19538303310E+02  0.32993498664E+03  0.33055494461E+03  0.19999973766E+01 0.  0.
        -13    1    3    3    0    0  0.48714177690E+01 -0.19538303310E+02  0.20016767090E+02  0.28392924050E+02  0.10566000000E+00 0.  1.
         13    1    4    4    0    0 -0.22897202224E+01  0.12207666469E+02  0.20349920019E+03  0.20387791833E+03  0.10566000000E+00 0. -1.
        -13    1    4    4    0    0 -0.11411596310E-01  0.27190865979E+00  0.61107360652E+01  0.61177057659E+01  0.10566000000E+00 0. -1.
        -14    1    4    4    0    0 -0.25702859503E+01  0.70587281816E+01  0.12032505039E+03  0.12055932052E+03  0.00000000000E+00 0.  1.
<mgrwt>
<rscale>  0 0.79858265E+02</rscale>
<asrwt>0</asrwt>
<pdfrwt beam="1">  1        2 0.54530734E-01 0.79858265E+02</pdfrwt>
<pdfrwt beam="2">  1       -1 0.69200892E-03 0.79858265E+02</pdfrwt>
<totfact> 0.27197177E+05</totfact>
</mgrwt>
</event>
<event>
 8    1  0.1600673E-013  0.8028112E+02  0.7818608E-02  0.1328256E+00
         -1   -1    0    0    0  501 -0.00000000000E+00  0.00000000000E+00  0.28237635399E+01  0.28237680377E+01  0.50400000000E-02 0.  1.
          2   -1    0    0  501    0  0.00000000000E+00 -0.00000000000E+00 -0.57060845107E+03  0.57060845108E+03  0.25500000000E-02 0. -1.
         24    2    1    2    0    0  0.17763568394E-14  0.00000000000E+00 -0.56778468753E+03  0.57343221912E+03  0.80281121838E+02 0.  0.
         66    2    3    3    0    0  0.14380575941E+02  0.53773575770E+01 -0.54878986722E+03  0.54900822882E+03  0.20000044709E+01 0.  0.
        -13    1    3    3    0    0 -0.14380575941E+02 -0.53773575770E+01 -0.18994820315E+02  0.24423990291E+02  0.10566000000E+00 0.  1.
         13    1    4    4    0    0  0.25871153505E+01  0.76191187240E+00 -0.97391657740E+02  0.97429050272E+02  0.10566000000E+00 0. -1.
        -13    1    4    4    0    0  0.66938125121E+01  0.24421747496E+01 -0.22358912829E+03  0.22370266157E+03  0.10566000000E+00 0.  1.
         14    1    4    4    0    0  0.50996480782E+01  0.21732709550E+01 -0.22780908119E+03  0.22787651698E+03  0.00000000000E+00 0. -1.
<mgrwt>
<rscale>  0 0.80281122E+02</rscale>
<asrwt>0</asrwt>
<pdfrwt beam="1">  1        2 0.87785824E-01 0.80281122E+02</pdfrwt>
<pdfrwt beam="2">  1       -1 0.43442596E-03 0.80281122E+02</pdfrwt>
<totfact> 0.31418112E+05</totfact>
</mgrwt>
</event>
<event>
 8    1  0.1600673E-013  0.8054587E+02  0.7818608E-02  0.1327509E+00
         -1   -1    0    0    0  501 -0.00000000000E+00  0.00000000000E+00  0.38872414760E+01  0.38872447433E+01  0.50400000000E-02 0.  1.
          2   -1    0    0  501    0  0.00000000000E+00 -0.00000000000E+00 -0.41723901165E+03  0.41723901166E+03  0.25500000000E-02 0. -1.
         24    2    1    2    0    0 -0.71054273576E-14  0.00000000000E+00 -0.41335177018E+03  0.42112625640E+03  0.80545874658E+02 0.  0.
         66    2    3    3    0    0 -0.34799815767E+02  0.16850674701E+02 -0.26524239696E+03  0.26805316924E+03  0.19999947693E+01 0.  0.
        -13    1    3    3    0    0  0.34799815767E+02 -0.16850674701E+02 -0.14810937322E+03  0.15307308716E+03  0.10566000000E+00 0.  1.
         13    1    4    4    0    0 -0.12897315461E+01  0.58822540425E+00 -0.10652928866E+02  0.10747347302E+02  0.10566000000E+00 0. -1.
        -13    1    4    4    0    0 -0.32520103604E+02  0.15553880693E+02 -0.24449716718E+03  0.24714035742E+03  0.10566000000E+00 0.  1.
        -14    1    4    4    0    0 -0.98998061629E+00  0.70856860417E+00 -0.10092300919E+02  0.10165464521E+02  0.00000000000E+00 0.  1.
<mgrwt>
<rscale>  0 0.80545875E+02</rscale>
<asrwt>0</asrwt>
<pdfrwt beam="1">  1        2 0.64190582E-01 0.80545875E+02</pdfrwt>
<pdfrwt beam="2">  1       -1 0.59803773E-03 0.80545875E+02</pdfrwt>
<totfact> 0.28166079E+05</totfact>
</mgrwt>
</event>
<event>
 8    1  0.1600673E-013  0.7805156E+02  0.7818608E-02  0.1334674E+00
         -1   -1    0    0    0  501 -0.00000000000E+00  0.00000000000E+00  0.59018258627E+02  0.59018258842E+02  0.50400000000E-02 0.  1.
          2   -1    0    0  501    0  0.00000000000E+00 -0.00000000000E+00 -0.25805766843E+02  0.25805766969E+02  0.25500000000E-02 0. -1.
         24    2    1    2    0    0  0.00000000000E+00  0.00000000000E+00  0.33212491784E+02  0.84824025811E+02  0.78051558244E+02 0.  0.
         66    2    3    3    0    0  0.30765603222E+01 -0.19491858164E+02 -0.19941135466E+02  0.28125551300E+02  0.19999985398E+01 0.  0.
        -13    1    3    3    0    0 -0.30765603222E+01  0.19491858164E+02  0.53153627249E+02  0.56698474511E+02  0.10566000000E+00 0.  1.
         13    1    4    4    0    0  0.20296188584E+00 -0.32197569695E+01 -0.38968037284E+01  0.50600663833E+01  0.10566000000E+00 0. -1.
        -13    1    4    4    0    0  0.74886533415E-01 -0.31529957149E+01 -0.31543512501E+01  0.44618478028E+01  0.10566000000E+00 0.  1.
         14    1    4    4    0    0  0.27987119029E+01 -0.13119105480E+02 -0.12889980487E+02  0.18603637114E+02  0.00000000000E+00 0. -1.
<mgrwt>
<rscale>  0 0.78051558E+02</rscale>
<asrwt>0</asrwt>
<pdfrwt beam="1">  1        2 0.39701180E-02 0.78051558E+02</pdfrwt>
<pdfrwt beam="2">  1       -1 0.90797321E-02 0.78051558E+02</pdfrwt>
<totfact> 0.14002453E+05</totfact>
</mgrwt>
</event>
<event>
 8    1  0.1600673E-013  0.7963578E+02  0.7818608E-02  0.1330088E+00
          2   -1    0    0  501    0  0.00000000000E+00  0.00000000000E+00  0.45588339798E+03  0.45588339799E+03  0.25500000000E-02 0. -1.
         -1   -1    0    0    0  501 -0.00000000000E+00 -0.00000000000E+00 -0.34777827722E+01  0.34777864242E+01  0.50400000000E-02 0.  1.
         24    2    1    2    0    0  0.00000000000E+00  0.00000000000E+00  0.45240561521E+03  0.45936118441E+03  0.79635777589E+02 0.  0.
         66    2    3    3    0    0  0.24987735469E+02  0.57008883039E+01  0.40192939719E+03  0.40275070128E+03  0.20000005585E+01 0.  0.
        -13    1    3    3    0    0 -0.24987735469E+02 -0.57008883039E+01  0.50476218020E+02  0.56610483136E+02  0.10566000000E+00 0.  1.
         13    1    4    4    0    0  0.13384938605E+02  0.26383805964E+01  0.21521610313E+03  0.21564809261E+03  0.10566000000E+00 0. -1.
        -13    1    4    4    0    0  0.72096800294E+01  0.21112805520E+01  0.10792473066E+03  0.10818593090E+03  0.10566000000E+00 0. -1.
         14    1    4    4    0    0  0.43931168339E+01  0.95122715548E+00  0.78788563395E+02  0.78916677771E+02  0.00000000000E+00 0. -1.
<mgrwt>
<rscale>  0 0.79635778E+02</rscale>
<asrwt>0</asrwt>
<pdfrwt beam="1">  1        2 0.70135893E-01 0.79635778E+02</pdfrwt>
<pdfrwt beam="2">  1       -1 0.53504390E-03 0.79635778E+02</pdfrwt>
<totfact> 0.29900404E+05</totfact>
</mgrwt>
</event>
<event>
 8    1  0.1600673E-013  0.7915857E+02  0.7818608E-02  0.1331456E+00
         -1   -1    0    0    0  501 -0.00000000000E+00  0.00000000000E+00  0.33757800527E+01  0.33757838150E+01  0.50400000000E-02 0.  1.
          2   -1    0    0  501    0  0.00000000000E+00 -0.00000000000E+00 -0.46404655135E+03  0.46404655136E+03  0.25500000000E-02 0. -1.
         24    2    1    2    0    0  0.00000000000E+00  0.00000000000E+00 -0.46067077130E+03  0.46742233517E+03  0.79158574331E+02 0.  0.
         66    2    3    3    0    0  0.39742989874E+01 -0.37357309045E+02 -0.30355755070E+03  0.30587996041E+03  0.20000013006E+01 0.  0.
        -13    1    3    3    0    0 -0.39742989874E+01  0.37357309045E+02 -0.15711322060E+03  0.16154237476E+03  0.10566000000E+00 0.  1.
         13    1    4    4    0    0  0.28106829457E+01 -0.28907865230E+02 -0.23520935765E+03  0.23699581790E+03  0.10566000000E+00 0. -1.
        -13    1    4    4    0    0  0.13799284477E+00 -0.31361457937E+01 -0.27622988601E+02  0.27800991273E+02  0.10566000000E+00 0.  1.
         14    1    4    4    0    0  0.10256231969E+01 -0.53132980220E+01 -0.40725204449E+02  0.41083151245E+02  0.00000000000E+00 0. -1.
<mgrwt>
<rscale>  0 0.79158574E+02</rscale>
<asrwt>0</asrwt>
<pdfrwt beam="1">  1        2 0.71391727E-01 0.79158574E+02</pdfrwt>
<pdfrwt beam="2">  1       -1 0.51935144E-03 0.79158574E+02</pdfrwt>
<totfact> 0.30552121E+05</totfact>
</mgrwt>
</event>
<event>
 8    1  0.1600673E-013  0.8222689E+02  0.7818608E-02  0.1322848E+00
         -1   -1    0    0    0  501 -0.00000000000E+00  0.00000000000E+00  0.77768850847E+02  0.77768851010E+02  0.50400000000E-02 0.  1.
          2   -1    0    0  501    0  0.00000000000E+00 -0.00000000000E+00 -0.21735120044E+02  0.21735120194E+02  0.25500000000E-02 0. -1.
         24    2    1    2    0    0  0.71054273576E-14  0.17763568394E-14  0.56033730802E+02  0.99503971204E+02  0.82226889141E+02 0.  0.
         66    2    3    3    0    0 -0.36650021199E+02 -0.11302388504E+02  0.10193237022E+02  0.39734998703E+02  0.20000002828E+01 0.  0.
        -13    1    3    3    0    0  0.36650021199E+02  0.11302388504E+02  0.45840493780E+02  0.59768972501E+02  0.10566000000E+00 0.  1.
         13    1    4    4    0    0 -0.92512167481E+01 -0.26748250753E+01  0.19641785846E+01  0.98289807230E+01  0.10566000000E+00 0. -1.
        -13    1    4    4    0    0 -0.41683690359E+01 -0.17158568754E+01  0.15097699306E+01  0.47550010006E+01  0.10566000000E+00 0.  1.
         14    1    4    4    0    0 -0.23230435415E+02 -0.69117065536E+01  0.67192885071E+01  0.25151016979E+02  0.00000000000E+00 0. -1.
<mgrwt>
<rscale>  0 0.82226889E+02</rscale>
<asrwt>0</asrwt>
<pdfrwt beam="1">  1        2 0.33438646E-02 0.82226889E+02</pdfrwt>
<pdfrwt beam="2">  1       -1 0.11964439E-01 0.82226889E+02</pdfrwt>
<totfact> 0.11670309E+05</totfact>
</mgrwt>
</event>
<event>
 8    1  0.1600673E-013  0.8012788E+02  0.7818608E-02  0.1328689E+00
         -1   -1    0    0    0  501 -0.00000000000E+00  0.00000000000E+00  0.30753924067E+01  0.30753965366E+01  0.50400000000E-02 0.  1.
          2   -1    0    0  501    0  0.00000000000E+00 -0.00000000000E+00 -0.52192305087E+03  0.52192305088E+03  0.25500000000E-02 0. -1.
         24    2    1    2    0    0  0.00000000000E+00  0.00000000000E+00 -0.51884765847E+03  0.52499844742E+03  0.80127879624E+02 0.  0.
         66    2    3    3    0    0  0.23351114550E+02  0.32068686381E+02 -0.29513476342E+03  0.29779557382E+03  0.20000024594E+01 0.  0.
        -13    1    3    3    0    0 -0.23351114550E+02 -0.32068686381E+02 -0.22371289505E+03  0.22720287360E+03  0.10566000000E+00 0.  1.
         13    1    4    4    0    0  0.31532742257E+01  0.40478775495E+01 -0.35853904417E+02  0.36219360526E+02  0.10566000000E+00 0. -1.
        -13    1    4    4    0    0  0.92885365547E+00  0.11433414800E+01 -0.91111736122E+01  0.92300946626E+01  0.10566000000E+00 0.  1.
         14    1    4    4    0    0  0.19268986669E+02  0.26877467352E+02 -0.25016968539E+03  0.25234611863E+03  0.00000000000E+00 0. -1.
<mgrwt>
<rscale>  0 0.80127880E+02</rscale>
<asrwt>0</asrwt>
<pdfrwt beam="1">  1        2 0.80295784E-01 0.80127880E+02</pdfrwt>
<pdfrwt beam="2">  1       -1 0.47313803E-03 0.80127880E+02</pdfrwt>
<totfact> 0.30737052E+05</totfact>
</mgrwt>
</event>
<event>
 8    1  0.1600673E-013  0.7992570E+02  0.7818608E-02  0.1329262E+00
          2   -1    0    0  501    0  0.00000000000E+00  0.00000000000E+00  0.48835713595E+03  0.48835713595E+03  0.25500000000E-02 0. -1.
         -1   -1    0    0    0  501 -0.00000000000E+00 -0.00000000000E+00 -0.32702060947E+01  0.32702099785E+01  0.50400000000E-02 0.  1.
         24    2    1    2    0    0  0.00000000000E+00  0.00000000000E+00  0.48508692985E+03  0.49162734593E+03  0.79925701465E+02 0.  0.
         66    2    3    3    0    0  0.39123395806E+02 -0.74669499325E+01  0.26076377267E+03  0.26379564170E+03  0.20000006328E+01 0.  0.
        -13    1    3    3    0    0 -0.39123395806E+02  0.74669499325E+01  0.22432315718E+03  0.22783170423E+03  0.10566000000E+00 0.  1.
         13    1    4    4    0    0  0.19978514683E+01 -0.56342091178E+00  0.12849039405E+02  0.13016060513E+02  0.10566000000E+00 0.  1.
        -13    1    4    4    0    0  0.13705840478E+02 -0.31069852907E+01  0.88463101789E+02  0.89572512318E+02  0.10566000000E+00 0. -1.
         14    1    4    4    0    0  0.23419703860E+02 -0.37965437300E+01  0.15945163147E+03  0.16120706887E+03  0.00000000000E+00 0. -1.
<mgrwt>
<rscale>  0 0.79925701E+02</rscale>
<asrwt>0</asrwt>
<pdfrwt beam="1">  1        2 0.75131830E-01 0.79925701E+02</pdfrwt>
<pdfrwt beam="2">  1       -1 0.50310918E-03 0.79925701E+02</pdfrwt>
<totfact> 0.30295358E+05</totfact>
</mgrwt>
</event>
<event>
 8    1  0.1600673E-013  0.7749523E+02  0.7818608E-02  0.1336314E+00
         -1   -1    0    0    0  501 -0.00000000000E+00  0.00000000000E+00  0.20524110062E+01  0.20524171944E+01  0.50400000000E-02 0.  1.
          2   -1    0    0  501    0  0.00000000000E+00 -0.00000000000E+00 -0.73151782251E+03  0.73151782252E+03  0.25500000000E-02 0. -1.
         24    2    1    2    0    0  0.00000000000E+00  0.00000000000E+00 -0.72946541151E+03  0.73357023971E+03  0.77495225699E+02 0.  0.
         66    2    3    3    0    0 -0.26895390020E+02 -0.16158312186E+02 -0.57977602813E+03  0.58062784625E+03  0.19999984708E+01 0.  0.
        -13    1    3    3    0    0  0.26895390020E+02  0.16158312186E+02 -0.14968938338E+03  0.15294239346E+03  0.10566000000E+00 0.  1.
         13    1    4    4    0    0 -0.20553420026E+02 -0.12512842780E+02 -0.45385733084E+03  0.45449477690E+03  0.10566000000E+00 0. -1.
        -13    1    4    4    0    0 -0.62283756374E+01 -0.36633902755E+01 -0.12300362607E+03  0.12321573066E+03  0.10566000000E+00 0.  1.
        -14    1    4    4    0    0 -0.11359435586E+00  0.17920869556E-01 -0.29150712134E+01  0.29173386869E+01  0.00000000000E+00 0.  1.
<mgrwt>
<rscale>  0 0.77495226E+02</rscale>
<asrwt>0</asrwt>
<pdfrwt beam="1">  1        2 0.11254100E+00 0.77495226E+02</pdfrwt>
<pdfrwt beam="2">  1       -1 0.31575660E-03 0.77495226E+02</pdfrwt>
<totfact> 0.36684343E+05</totfact>
</mgrwt>
</event>
<event>
 8    1  0.1600673E-013  0.7830034E+02  0.7818608E-02  0.1333945E+00
         -1   -1    0    0    0  501 -0.00000000000E+00  0.00000000000E+00  0.19028283601E+01  0.19028350348E+01  0.50400000000E-02 0.  1.
          2   -1    0    0  501    0  0.00000000000E+00 -0.00000000000E+00 -0.80550248921E+03  0.80550248921E+03  0.25500000000E-02 0. -1.
         24    2    1    2    0    0  0.44408920985E-15  0.35527136788E-14 -0.80359966085E+03  0.80740532425E+03  0.78300336573E+02 0.  0.
         66    2    3    3    0    0 -0.24055787744E+01 -0.26281602236E+02 -0.69989136823E+03  0.70039163098E+03  0.19999989637E+01 0.  0.
        -13    1    3    3    0    0  0.24055787744E+01  0.26281602236E+02 -0.10370829262E+03  0.10701369327E+03  0.10566000000E+00 0.  1.
         13    1    4    4    0    0 -0.17963150375E+01 -0.13533642947E+02 -0.38085630732E+03  0.38110093706E+03  0.10566000000E+00 0. -1.
        -13    1    4    4    0    0 -0.22016337751E+00 -0.33212454768E+01 -0.78040448948E+02  0.78111471497E+02  0.10566000000E+00 0.  1.
         14    1    4    4    0    0 -0.38910035940E+00 -0.94267138118E+01 -0.24099461196E+03  0.24117922242E+03  0.00000000000E+00 0. -1.
<mgrwt>
<rscale>  0 0.78300337E+02</rscale>
<asrwt>0</asrwt>
<pdfrwt beam="1">  1        2 0.12392319E+00 0.78300337E+02</pdfrwt>
<pdfrwt beam="2">  1       -1 0.29274398E-03 0.78300337E+02</pdfrwt>
<totfact> 0.36377466E+05</totfact>
</mgrwt>
</event>
<event>
 8    1  0.1600673E-013  0.8636282E+02  0.7818608E-02  0.1311907E+00
         -1   -1    0    0    0  501 -0.00000000000E+00  0.00000000000E+00  0.37200201706E+01  0.37200235848E+01  0.50400000000E-02 0.  1.
          2   -1    0    0  501    0  0.00000000000E+00 -0.00000000000E+00 -0.50124282378E+03  0.50124282379E+03  0.25500000000E-02 0. -1.
         24    2    1    2    0    0 -0.44408920985E-15  0.00000000000E+00 -0.49752280361E+03  0.50496284738E+03  0.86362822523E+02 0.  0.
         66    2    3    3    0    0 -0.35040657611E+01 -0.42963938995E+02 -0.26122965330E+03  0.26476991954E+03  0.20000003906E+01 0.  0.
        -13    1    3    3    0    0  0.35040657611E+01  0.42963938995E+02 -0.23629315032E+03  0.24019292784E+03  0.10566000000E+00 0.  1.
         13    1    4    4    0    0 -0.16588155239E+01 -0.19413946887E+02 -0.11812233994E+03  0.11971863413E+03  0.10566000000E+00 0. -1.
        -13    1    4    4    0    0 -0.49550826940E+00 -0.11389884248E+02 -0.65267604117E+02  0.66255915229E+02  0.10566000000E+00 0.  1.
        -14    1    4    4    0    0 -0.13497419678E+01 -0.12160107860E+02 -0.77839709243E+02  0.78795370178E+02  0.00000000000E+00 0.  1.
<mgrwt>
<rscale>  0 0.86362823E+02</rscale>
<asrwt>0</asrwt>
<pdfrwt beam="1">  1        2 0.77114227E-01 0.86362823E+02</pdfrwt>
<pdfrwt beam="2">  1       -1 0.57231146E-03 0.86362823E+02</pdfrwt>
<totfact> 0.24946237E+05</totfact>
</mgrwt>
</event>
<event>
 8    1  0.1600673E-013  0.7899035E+02  0.7818608E-02  0.1331941E+00
         -1   -1    0    0    0  501 -0.00000000000E+00  0.00000000000E+00  0.37881902040E+02  0.37881902375E+02  0.50400000000E-02 0.  1.
          2   -1    0    0  501    0  0.00000000000E+00 -0.00000000000E+00 -0.41177154467E+02  0.41177154546E+02  0.25500000000E-02 0. -1.
         24    2    1    2    0    0  0.00000000000E+00  0.00000000000E+00 -0.32952524266E+01  0.79059056921E+02  0.78990352529E+02 0.  0.
         66    2    3    3    0    0  0.29247950936E+01  0.20500440921E+02 -0.35279118111E+02  0.40956546079E+02  0.19999969264E+01 0.  0.
        -13    1    3    3    0    0 -0.29247950936E+01 -0.20500440921E+02  0.31983865685E+02  0.38102510842E+02  0.10566000000E+00 0.  1.
         13    1    4    4    0    0  0.25959584579E+01  0.16625295378E+02 -0.28531732251E+02  0.33124165740E+02  0.10566000000E+00 0. -1.
        -13    1    4    4    0    0 -0.16511201740E+00  0.26324544502E+01 -0.45240703452E+01  0.52378864950E+01  0.10566000000E+00 0.  1.
         14    1    4    4    0    0  0.49394865310E+00  0.12426910930E+01 -0.22233155149E+01  0.25944938434E+01  0.00000000000E+00 0. -1.
<mgrwt>
<rscale>  0 0.78990353E+02</rscale>
<asrwt>0</asrwt>
<pdfrwt beam="1">  1        2 0.63349468E-02 0.78990353E+02</pdfrwt>
<pdfrwt beam="2">  1       -1 0.58279850E-02 0.78990353E+02</pdfrwt>
<totfact> 0.14852001E+05</totfact>
</mgrwt>
</event>
<event>
 8    1  0.1600673E-013  0.8032928E+02  0.7818608E-02  0.1328120E+00
          2   -1    0    0  501    0  0.00000000000E+00  0.00000000000E+00  0.76725663997E+01  0.76725668234E+01  0.25500000000E-02 0. -1.
         -1   -1    0    0    0  501 -0.00000000000E+00 -0.00000000000E+00 -0.21025536270E+03  0.21025536276E+03  0.50400000000E-02 0.  1.
         24    2    1    2    0    0  0.00000000000E+00  0.00000000000E+00 -0.20258279630E+03  0.21792792958E+03  0.80329279442E+02 0.  0.
         66    2    3    3    0    0 -0.53576692813E+00  0.40119010379E+02 -0.98177124837E+02  0.10607813102E+03  0.20000000759E+01 0.  0.
        -13    1    3    3    0    0  0.53576692813E+00 -0.40119010379E+02 -0.10440567146E+03  0.11184979855E+03  0.10566000000E+00 0.  1.
         13    1    4    4    0    0 -0.18607670825E+00  0.21550482556E+02 -0.50331240220E+02  0.54751281529E+02  0.10566000000E+00 0. -1.
        -13    1    4    4    0    0 -0.12155108122E-01  0.11657047711E+02 -0.29594513117E+02  0.31807755025E+02  0.10566000000E+00 0.  1.
         14    1    4    4    0    0 -0.33753511177E+00  0.69114801120E+01 -0.18251371501E+02  0.19519094471E+02  0.00000000000E+00 0. -1.
<mgrwt>
<rscale>  0 0.80329279E+02</rscale>
<asrwt>0</asrwt>
<pdfrwt beam="1">  1        2 0.11803950E-02 0.80329279E+02</pdfrwt>
<pdfrwt beam="2">  1       -1 0.32346975E-01 0.80329279E+02</pdfrwt>
<totfact> 0.97062437E+04</totfact>
</mgrwt>
</event>
<event>
 8    1  0.1600673E-013  0.7812266E+02  0.7818608E-02  0.1334465E+00
          2   -1    0    0  501    0  0.00000000000E+00  0.00000000000E+00  0.24027368331E+03  0.24027368332E+03  0.25500000000E-02 0. -1.
         -1   -1    0    0    0  501 -0.00000000000E+00 -0.00000000000E+00 -0.63502058752E+01  0.63502078752E+01  0.50400000000E-02 0.  1.
         24    2    1    2    0    0  0.00000000000E+00  0.00000000000E+00  0.23392347743E+03  0.24662389120E+03  0.78122662620E+02 0.  0.
         66    2    3    3    0    0  0.13935569861E+02 -0.31676988762E+02  0.17405033330E+03  0.17746873032E+03  0.19999981641E+01 0.  0.
        -13    1    3    3    0    0 -0.13935569861E+02  0.31676988762E+02  0.59873144129E+02  0.69155160880E+02  0.10566000000E+00 0.  1.
         13    1    4    4    0    0  0.45347818913E+01 -0.90133476915E+01  0.47508685950E+02  0.48568416570E+02  0.10566000000E+00 0. -1.
        -13    1    4    4    0    0  0.67622565708E+01 -0.17077597669E+02  0.94832441505E+02  0.96594904534E+02  0.10566000000E+00 0.  1.
        -14    1    4    4    0    0  0.26385313992E+01 -0.55860434019E+01  0.31709205850E+02  0.32305409214E+02  0.00000000000E+00 0.  1.
<mgrwt>
<rscale>  0 0.78122663E+02</rscale>
<asrwt>0</asrwt>
<pdfrwt beam="1">  1        2 0.36965178E-01 0.78122663E+02</pdfrwt>
<pdfrwt beam="2">  1       -1 0.97695502E-03 0.78122663E+02</pdfrwt>
<totfact> 0.25047127E+05</totfact>
</mgrwt>
</event>
<event>
 8    1  0.1600673E-013  0.7854515E+02  0.7818608E-02  0.1333232E+00
         -1   -1    0    0    0  501 -0.00000000000E+00  0.00000000000E+00  0.20332600711E+01  0.20332663176E+01  0.50400000000E-02 0.  1.
          2   -1    0    0  501    0  0.00000000000E+00 -0.00000000000E+00 -0.75855163412E+03  0.75855163412E+03  0.25500000000E-02 0. -1.
         24    2    1    2    0    0  0.00000000000E+00  0.00000000000E+00 -0.75651837405E+03  0.76058490044E+03  0.78545149478E+02 0.  0.
         66    2    3    3    0    0  0.26115344600E+02 -0.10728510228E+02 -0.64249312893E+03  0.64311626699E+03  0.19999991591E+01 0.  0.
        -13    1    3    3    0    0 -0.26115344600E+02  0.10728510228E+02 -0.11402524512E+03  0.11746863345E+03  0.10566000000E+00 0.  1.
         13    1    4    4    0    0  0.26669092003E+01 -0.10266579693E+01 -0.59590837791E+02  0.59659412870E+02  0.10566000000E+00 0. -1.
        -13    1    4    4    0    0  0.41710826735E+01 -0.10497510306E+01 -0.97664804255E+02  0.97759526708E+02  0.10566000000E+00 0.  1.
         14    1    4    4    0    0  0.19277352727E+02 -0.86521012281E+01 -0.48523748688E+03  0.48569732741E+03  0.00000000000E+00 0. -1.
<mgrwt>
<rscale>  0 0.78545149E+02</rscale>
<asrwt>0</asrwt>
<pdfrwt beam="1">  1        2 0.11670003E+00 0.78545149E+02</pdfrwt>
<pdfrwt beam="2">  1       -1 0.31281033E-03 0.78545149E+02</pdfrwt>
<totfact> 0.35690055E+05</totfact>
</mgrwt>
</event>
<event>
 8    1  0.1600673E-013  0.7531633E+02  0.7818608E-02  0.1342894E+00
         -1   -1    0    0    0  501 -0.00000000000E+00  0.00000000000E+00  0.10864306442E+02  0.10864307611E+02  0.50400000000E-02 0.  1.
          2   -1    0    0  501    0  0.00000000000E+00 -0.00000000000E+00 -0.13053177672E+03  0.13053177675E+03  0.25500000000E-02 0. -1.
         24    2    1    2    0    0  0.00000000000E+00  0.00000000000E+00 -0.11966747028E+03  0.14139608436E+03  0.75316327769E+02 0.  0.
         66    2    3    3    0    0 -0.86885684712E+01  0.50256895177E+01 -0.12796441871E+03  0.12837305498E+03  0.20000029580E+01 0.  0.
        -13    1    3    3    0    0  0.86885684712E+01 -0.50256895177E+01  0.82969484225E+01  0.13023029385E+02  0.10566000000E+00 0.  1.
         13    1    4    4    0    0 -0.19040219830E+00  0.34350899737E+00 -0.31290842588E+01  0.31554054831E+01  0.10566000000E+00 0. -1.
        -13    1    4    4    0    0 -0.77501666379E+00  0.16005273914E+00 -0.78582359604E+01  0.78986900277E+01  0.10566000000E+00 0. -1.
         14    1    4    4    0    0 -0.77231496091E+01  0.45221277812E+01 -0.11697709849E+03  0.11731895946E+03  0.00000000000E+00 0. -1.
<mgrwt>
<rscale>  0 0.75316328E+02</rscale>
<asrwt>0</asrwt>
<pdfrwt beam="1">  1        2 0.20081811E-01 0.75316328E+02</pdfrwt>
<pdfrwt beam="2">  1       -1 0.16714320E-02 0.75316328E+02</pdfrwt>
<totfact> 0.22497305E+05</totfact>
</mgrwt>
</event>
<event>
 8    1  0.1600673E-013  0.7804690E+02  0.7818608E-02  0.1334687E+00
          2   -1    0    0  501    0  0.00000000000E+00  0.00000000000E+00  0.49832490162E+03  0.49832490163E+03  0.25500000000E-02 0. -1.
         -1   -1    0    0    0  501 -0.00000000000E+00 -0.00000000000E+00 -0.30558953257E+01  0.30558994819E+01  0.50400000000E-02 0.  1.
         24    2    1    2    0    0 -0.88817841970E-15 -0.71054273576E-14  0.49526900630E+03  0.50138080111E+03  0.78046903362E+02 0.  0.
         66    2    3    3    0    0 -0.63933045826E+01 -0.37841602749E+02  0.29228723336E+03  0.29480279514E+03  0.19999988120E+01 0.  0.
        -13    1    3    3    0    0  0.63933045826E+01  0.37841602749E+02  0.20298177294E+03  0.20657800597E+03  0.10566000000E+00 0.  1.
         13    1    4    4    0    0 -0.17758406997E+01 -0.89547106258E+01  0.65215184385E+02  0.65851134318E+02  0.10566000000E+00 0. -1.
        -13    1    4    4    0    0 -0.14940302129E+01 -0.12862416542E+02  0.99211458915E+02  0.10005297911E+03  0.10566000000E+00 0.  1.
        -14    1    4    4    0    0 -0.31234336699E+01 -0.16024475582E+02  0.12786059006E+03  0.12889868171E+03  0.00000000000E+00 0.  1.
<mgrwt>
<rscale>  0 0.78046903E+02</rscale>
<asrwt>0</asrwt>
<pdfrwt beam="1">  1        2 0.76665305E-01 0.78046903E+02</pdfrwt>
<pdfrwt beam="2">  1       -1 0.47013846E-03 0.78046903E+02</pdfrwt>
<totfact> 0.32440250E+05</totfact>
</mgrwt>
</event>
<event>
 8    1  0.1600673E-013  0.7972039E+02  0.7818608E-02  0.1329847E+00
          2   -1    0    0  501    0  0.00000000000E+00  0.00000000000E+00  0.43607803314E+01  0.43607810770E+01  0.25500000000E-02 0. -1.
         -1   -1    0    0    0  501 -0.00000000000E+00 -0.00000000000E+00 -0.36434645497E+03  0.36434645501E+03  0.50400000000E-02 0.  1.
         24    2    1    2    0    0  0.00000000000E+00  0.00000000000E+00 -0.35998567464E+03  0.36870723609E+03  0.79720386315E+02 0.  0.
         66    2    3    3    0    0 -0.17593707172E+01 -0.38660777185E+02 -0.13645423927E+03  0.14185031015E+03  0.19999997925E+01 0.  0.
        -13    1    3    3    0    0  0.17593707172E+01  0.38660777185E+02 -0.22353143538E+03  0.22685692593E+03  0.10566000000E+00 0.  1.
         13    1    4    4    0    0 -0.11098733378E+01 -0.11963445209E+02 -0.40020094426E+02  0.41784865226E+02  0.10566000000E+00 0. -1.
        -13    1    4    4    0    0  0.88262813012E-01 -0.25569538210E+01 -0.91994313345E+01  0.95491624806E+01  0.10566000000E+00 0.  1.
        -14    1    4    4    0    0 -0.73776019240E+00 -0.24140378155E+02 -0.87234713506E+02  0.90516282447E+02  0.00000000000E+00 0.  1.
<mgrwt>
<rscale>  0 0.79720386E+02</rscale>
<asrwt>0</asrwt>
<pdfrwt beam="1">  1        2 0.67088963E-03 0.79720386E+02</pdfrwt>
<pdfrwt beam="2">  1       -1 0.56053277E-01 0.79720386E+02</pdfrwt>
<totfact> 0.80094196E+04</totfact>
</mgrwt>
</event>
<event>
 8    1  0.1600673E-013  0.7966689E+02  0.7818608E-02  0.1329999E+00
         -1   -1    0    0    0  501 -0.00000000000E+00  0.00000000000E+00  0.79974335920E+02  0.79974336079E+02  0.50400000000E-02 0.  1.
          2   -1    0    0  501    0  0.00000000000E+00 -0.00000000000E+00 -0.19840157816E+02  0.19840157980E+02  0.25500000000E-02 0. -1.
         24    2    1    2    0    0 -0.35527136788E-14  0.00000000000E+00  0.60134178104E+02  0.99814494058E+02  0.79666893047E+02 0.  0.
         66    2    3    3    0    0  0.17551801544E+02 -0.14996828866E+02  0.70717913082E+02  0.74417698520E+02  0.20000022172E+01 0.  0.
        -13    1    3    3    0    0 -0.17551801544E+02  0.14996828866E+02 -0.10583734978E+02  0.25396795538E+02  0.10566000000E+00 0.  1.
         13    1    4    4    0    0  0.66849636637E+01 -0.57057530317E+01  0.26340657424E+02  0.27768430896E+02  0.10566000000E+00 0. -1.
        -13    1    4    4    0    0  0.10164406374E+02 -0.84708426992E+01  0.42070434883E+02  0.44102188021E+02  0.10566000000E+00 0.  1.
        -14    1    4    4    0    0  0.70243150621E+00 -0.82023313549E+00  0.23068207749E+01  0.25470796032E+01  0.00000000000E+00 0.  1.
<mgrwt>
<rscale>  0 0.79666893E+02</rscale>
<asrwt>0</asrwt>
<pdfrwt beam="1">  1        2 0.30523320E-02 0.79666893E+02</pdfrwt>
<pdfrwt beam="2">  1       -1 0.12303744E-01 0.79666893E+02</pdfrwt>
<totfact> 0.12545038E+05</totfact>
</mgrwt>
</event>
<event>
 8    1  0.1600673E-013  0.7834439E+02  0.7818608E-02  0.1333817E+00
          2   -1    0    0  501    0  0.00000000000E+00  0.00000000000E+00  0.38666573907E+03  0.38666573907E+03  0.25500000000E-02 0. -1.
         -1   -1    0    0    0  501 -0.00000000000E+00 -0.00000000000E+00 -0.39684412303E+01  0.39684444308E+01  0.50400000000E-02 0.  1.
         24    2    1    2    0    0 -0.17763568394E-14 -0.71054273576E-14  0.38269729784E+03  0.39063418350E+03  0.78344390686E+02 0.  0.
         66    2    3    3    0    0 -0.15517247444E+02 -0.34210345999E+02  0.24639347721E+03  0.24924862759E+03  0.19999999473E+01 0.  0.
        -13    1    3    3    0    0  0.15517247444E+02  0.34210345999E+02  0.13630382062E+03  0.14138555592E+03  0.10566000000E+00 0.  1.
         13    1    4    4    0    0 -0.14649278255E+00 -0.26563191382E+00  0.16770246373E+01  0.17075116746E+01  0.10566000000E+00 0.  1.
        -13    1    4    4    0    0 -0.26414563947E+01 -0.71692591316E+01  0.50675264063E+02  0.51248113334E+02  0.10566000000E+00 0.  1.
         14    1    4    4    0    0 -0.12729298267E+02 -0.26775454953E+02  0.19404118851E+03  0.19629300258E+03  0.00000000000E+00 0. -1.
<mgrwt>
<rscale>  0 0.78344391E+02</rscale>
<asrwt>0</asrwt>
<pdfrwt beam="1">  1        2 0.59487042E-01 0.78344391E+02</pdfrwt>
<pdfrwt beam="2">  1       -1 0.61052961E-03 0.78344391E+02</pdfrwt>
<totfact> 0.29485841E+05</totfact>
</mgrwt>
</event>
<event>
 8    1  0.1600673E-013  0.7917906E+02  0.7818608E-02  0.1331397E+00
         -1   -1    0    0    0  501 -0.00000000000E+00  0.00000000000E+00  0.11160134147E+02  0.11160135285E+02  0.50400000000E-02 0.  1.
          2   -1    0    0  501    0  0.00000000000E+00 -0.00000000000E+00 -0.14044013624E+03  0.14044013627E+03  0.25500000000E-02 0. -1.
         24    2    1    2    0    0  0.35527136788E-14  0.35527136788E-14 -0.12928000210E+03  0.15160027155E+03  0.79179059052E+02 0.  0.
         66    2    3    3    0    0  0.18917525610E+02  0.23007011456E+02 -0.11454044196E+03  0.11836683735E+03  0.19999976316E+01 0.  0.
        -13    1    3    3    0    0 -0.18917525610E+02 -0.23007011456E+02 -0.14739560141E+02  0.33233434197E+02  0.10566000000E+00 0.  1.
         13    1    4    4    0    0  0.84066397439E+01  0.11307361474E+02 -0.55756844574E+02  0.57509693932E+02  0.10566000000E+00 0.  1.
        -13    1    4    4    0    0  0.84088386096E+01  0.98384068258E+01 -0.48426752501E+02  0.50126483394E+02  0.10566000000E+00 0. -1.
        -14    1    4    4    0    0  0.21020472568E+01  0.18612431564E+01 -0.10356844880E+02  0.10730660027E+02  0.00000000000E+00 0.  1.
<mgrwt>
<rscale>  0 0.79179059E+02</rscale>
<asrwt>0</asrwt>
<pdfrwt beam="1">  1        2 0.21606174E-01 0.79179059E+02</pdfrwt>
<pdfrwt beam="2">  1       -1 0.17169439E-02 0.79179059E+02</pdfrwt>
<totfact> 0.20158246E+05</totfact>
</mgrwt>
</event>
<event>
 8    1  0.1600673E-013  0.8267953E+02  0.7818608E-02  0.1321615E+00
          2   -1    0    0  501    0  0.00000000000E+00  0.00000000000E+00  0.27251098277E+02  0.27251098396E+02  0.25500000000E-02 0. -1.
         -1   -1    0    0    0  501 -0.00000000000E+00 -0.00000000000E+00 -0.62712194779E+02  0.62712194981E+02  0.50400000000E-02 0.  1.
         24    2    1    2    0    0  0.00000000000E+00 -0.17763568394E-14 -0.35461096501E+02  0.89963293377E+02  0.82679530661E+02 0.  0.
         66    2    3    3    0    0  0.26670203652E+02  0.14806195563E+02  0.12578709817E+02  0.33056726577E+02  0.20000103527E+01 0.  0.
        -13    1    3    3    0    0 -0.26670203652E+02 -0.14806195563E+02 -0.48039806319E+02  0.56906566801E+02  0.10566000000E+00 0.  1.
         13    1    4    4    0    0  0.55480202968E+01  0.33545799827E+01  0.28537919309E+01  0.70844215356E+01  0.10566000000E+00 0. -1.
        -13    1    4    4    0    0  0.11309199084E+02  0.52010405563E+01  0.50239410648E+01  0.13423857666E+02  0.10566000000E+00 0.  1.
        -14    1    4    4    0    0  0.98129842711E+01  0.62505750242E+01  0.47009768214E+01  0.12548447375E+02  0.00000000000E+00 0.  1.
<mgrwt>
<rscale>  0 0.82679531E+02</rscale>
<asrwt>0</asrwt>
<pdfrwt beam="1">  1        2 0.41924767E-02 0.82679531E+02</pdfrwt>
<pdfrwt beam="2">  1       -1 0.96480299E-02 0.82679531E+02</pdfrwt>
<totfact> 0.12029094E+05</totfact>
</mgrwt>
</event>
<event>
 8    1  0.1600673E-013  0.7861630E+02  0.7818608E-02  0.1333025E+00
          2   -1    0    0  501    0  0.00000000000E+00  0.00000000000E+00  0.37867156002E+01  0.37867164588E+01  0.25500000000E-02 0. -1.
         -1   -1    0    0    0  501 -0.00000000000E+00 -0.00000000000E+00 -0.40803971585E+03  0.40803971588E+03  0.50400000000E-02 0.  1.
         24    2    1    2    0    0  0.00000000000E+00  0.00000000000E+00 -0.40425300025E+03  0.41182643234E+03  0.78616297057E+02 0.  0.
         66    2    3    3    0    0  0.34786362740E+02  0.71323807676E+01 -0.29025077838E+03  0.29242174380E+03  0.20000033903E+01 0.  0.
        -13    1    3    3    0    0 -0.34786362740E+02 -0.71323807676E+01 -0.11400222188E+03  0.11940468854E+03  0.10566000000E+00 0.  1.
         13    1    4    4    0    0  0.11359607311E+02  0.19740912414E+01 -0.91108166805E+02  0.91834889542E+02  0.10566000000E+00 0. -1.
        -13    1    4    4    0    0  0.86286750314E+01  0.21798167745E+01 -0.78932048941E+02  0.79432267675E+02  0.10566000000E+00 0.  1.
         14    1    4    4    0    0  0.14798080398E+02  0.29784727518E+01 -0.12021056263E+03  0.12115458659E+03  0.00000000000E+00 0. -1.
<mgrwt>
<rscale>  0 0.78616297E+02</rscale>
<asrwt>0</asrwt>
<pdfrwt beam="1">  1        2 0.58257202E-03 0.78616297E+02</pdfrwt>
<pdfrwt beam="2">  1       -1 0.62775306E-01 0.78616297E+02</pdfrwt>
<totfact> 0.78463897E+04</totfact>
</mgrwt>
</event>
<event>
 8    1  0.1600673E-013  0.8310868E+02  0.7818608E-02  0.1320454E+00
          2   -1    0    0  501    0  0.00000000000E+00  0.00000000000E+00  0.18821098426E+03  0.18821098428E+03  0.25500000000E-02 0. -1.
         -1   -1    0    0    0  501 -0.00000000000E+00 -0.00000000000E+00 -0.91746131888E+01  0.91746145731E+01  0.50400000000E-02 0.  1.
         24    2    1    2    0    0  0.71054273576E-14  0.00000000000E+00  0.17903637107E+03  0.19738559885E+03  0.83108678651E+02 0.  0.
         66    2    3    3    0    0  0.26900440996E+02 -0.30736261916E+02  0.10740738388E+03  0.11492909825E+03  0.19999971678E+01 0.  0.
        -13    1    3    3    0    0 -0.26900440996E+02  0.30736261916E+02  0.71628987187E+02  0.82456500604E+02  0.10566000000E+00 0.  1.
         13    1    4    4    0    0  0.98401169726E+01 -0.10482888788E+02  0.39132601345E+02  0.41690412704E+02  0.10566000000E+00 0. -1.
        -13    1    4    4    0    0  0.27131677517E+01 -0.28657119987E+01  0.93654713241E+01  0.10163503415E+02  0.10566000000E+00 0. -1.
        -14    1    4    4    0    0  0.14347156271E+02 -0.17387661128E+02  0.58909311214E+02  0.63075182126E+02  0.00000000000E+00 0.  1.
<mgrwt>
<rscale>  0 0.83108679E+02</rscale>
<asrwt>0</asrwt>
<pdfrwt beam="1">  1        2 0.28955534E-01 0.83108679E+02</pdfrwt>
<pdfrwt beam="2">  1       -1 0.14114792E-02 0.83108679E+02</pdfrwt>
<totfact> 0.19527511E+05</totfact>
</mgrwt>
</event>
<event>
 8    1  0.1600673E-013  0.7907781E+02  0.7818608E-02  0.1331689E+00
         -1   -1    0    0    0  501 -0.00000000000E+00  0.00000000000E+00  0.54681493428E+01  0.54681516655E+01  0.50400000000E-02 0.  1.
          2   -1    0    0  501    0  0.00000000000E+00 -0.00000000000E+00 -0.28589651010E+03  0.28589651012E+03  0.25500000000E-02 0. -1.
         24    2    1    2    0    0 -0.17763568394E-14 -0.71054273576E-14 -0.28042836076E+03  0.29136466178E+03  0.79077813674E+02 0.  0.
         66    2    3    3    0    0 -0.82432505308E+01 -0.38571288952E+02 -0.13156521933E+03  0.13736485154E+03  0.19999982421E+01 0.  0.
        -13    1    3    3    0    0  0.82432505308E+01  0.38571288952E+02 -0.14886314144E+03  0.15399981024E+03  0.10566000000E+00 0.  1.
         13    1    4    4    0    0 -0.39868700764E+01 -0.18191398539E+02 -0.63699798596E+02  0.66366389227E+02  0.10566000000E+00 0. -1.
        -13    1    4    4    0    0  0.39323651946E-01 -0.75028926552E+00 -0.27883139314E+01  0.28896953035E+01  0.10566000000E+00 0.  1.
        -14    1    4    4    0    0 -0.42957041064E+01 -0.19629601147E+02 -0.65077106798E+02  0.68108767014E+02  0.00000000000E+00 0.  1.
<mgrwt>
<rscale>  0 0.79077814E+02</rscale>
<asrwt>0</asrwt>
<pdfrwt beam="1">  1        2 0.43984067E-01 0.79077814E+02</pdfrwt>
<pdfrwt beam="2">  1       -1 0.84125415E-03 0.79077814E+02</pdfrwt>
<totfact> 0.25826985E+05</totfact>
</mgrwt>
</event>
<event>
 8    1  0.1600673E-013  0.7899940E+02  0.7818608E-02  0.1331915E+00
          2   -1    0    0  501    0  0.00000000000E+00  0.00000000000E+00  0.69026449328E+01  0.69026454038E+01  0.25500000000E-02 0. -1.
         -1   -1    0    0    0  501 -0.00000000000E+00 -0.00000000000E+00 -0.22603312495E+03  0.22603312500E+03  0.50400000000E-02 0.  1.
         24    2    1    2    0    0  0.35527136788E-14  0.00000000000E+00 -0.21913048002E+03  0.23293577041E+03  0.78999404200E+02 0.  0.
         66    2    3    3    0    0  0.27010422226E+02  0.28327424258E+02 -0.94538199315E+02  0.10234000689E+03  0.20000018105E+01 0.  0.
        -13    1    3    3    0    0 -0.27010422226E+02 -0.28327424258E+02 -0.12459228070E+03  0.13059576352E+03  0.10566000000E+00 0.  1.
         13    1    4    4    0    0  0.19179101747E+02  0.20397578049E+02 -0.68113438164E+02  0.73643402669E+02  0.10566000000E+00 0.  1.
        -13    1    4    4    0    0  0.73681145872E+01  0.72210962661E+01 -0.23840674116E+02  0.25977341091E+02  0.10566000000E+00 0. -1.
        -14    1    4    4    0    0  0.46320589205E+00  0.70874994297E+00 -0.25840870356E+01  0.27192631332E+01  0.00000000000E+00 0.  1.
<mgrwt>
<rscale>  0 0.78999404E+02</rscale>
<asrwt>0</asrwt>
<pdfrwt beam="1">  1        2 0.10619456E-02 0.78999404E+02</pdfrwt>
<pdfrwt beam="2">  1       -1 0.34774321E-01 0.78999404E+02</pdfrwt>
<totfact> 0.98963682E+04</totfact>
</mgrwt>
</event>
<event>
 8    1  0.1600673E-013  0.8031549E+02  0.7818608E-02  0.1328159E+00
         -1   -1    0    0    0  501 -0.00000000000E+00  0.00000000000E+00  0.86003295853E+01  0.86003310620E+01  0.50400000000E-02 0.  1.
          2   -1    0    0  501    0  0.00000000000E+00 -0.00000000000E+00 -0.18750959121E+03  0.18750959123E+03  0.25500000000E-02 0. -1.
         24    2    1    2    0    0  0.00000000000E+00  0.44408920985E-15 -0.17890926163E+03  0.19610992229E+03  0.80315488702E+02 0.  0.
         66    2    3    3    0    0  0.12083566297E+02  0.29108524272E+01 -0.18268590970E+03  0.18311916131E+03  0.20000000203E+01 0.  0.
        -13    1    3    3    0    0 -0.12083566297E+02 -0.29108524272E+01  0.37766480679E+01  0.12990760986E+02  0.10566000000E+00 0.  1.
         13    1    4    4    0    0  0.83927553974E+01  0.23412625210E+01 -0.13336476316E+03  0.13364913419E+03  0.10566000000E+00 0. -1.
        -13    1    4    4    0    0  0.54406810734E-01 -0.76960982796E-01 -0.17582713597E+01  0.17639629543E+01  0.10566000000E+00 0.  1.
         14    1    4    4    0    0  0.36364040893E+01  0.64655088905E+00 -0.47562875179E+02  0.47706064165E+02  0.00000000000E+00 0. -1.
<mgrwt>
<rscale>  0 0.80315489E+02</rscale>
<asrwt>0</asrwt>
<pdfrwt beam="1">  1        2 0.28847626E-01 0.80315489E+02</pdfrwt>
<pdfrwt beam="2">  1       -1 0.13231279E-02 0.80315489E+02</pdfrwt>
<totfact> 0.21349967E+05</totfact>
</mgrwt>
</event>
<event>
 8    1  0.1600673E-013  0.7959951E+02  0.7818608E-02  0.1330192E+00
          2   -1    0    0  501    0  0.00000000000E+00  0.00000000000E+00  0.76468466812E+02  0.76468466854E+02  0.25500000000E-02 0. -1.
         -1   -1    0    0    0  501 -0.00000000000E+00 -0.00000000000E+00 -0.20714687293E+02  0.20714687906E+02  0.50400000000E-02 0.  1.
         24    2    1    2    0    0 -0.35527136788E-14  0.71054273576E-14  0.55753779519E+02  0.97183154760E+02  0.79599507778E+02 0.  0.
         66    2    3    3    0    0  0.28887801334E+02 -0.25320767309E+02  0.40486256796E+02  0.55846068056E+02  0.20000012416E+01 0.  0.
        -13    1    3    3    0    0 -0.28887801334E+02  0.25320767309E+02  0.15267522723E+02  0.41337086704E+02  0.10566000000E+00 0.  1.
         13    1    4    4    0    0  0.45750678328E+01 -0.38190803445E+01  0.68223766827E+01  0.90593933566E+01  0.10566000000E+00 0. -1.
        -13    1    4    4    0    0  0.24950505782E+01 -0.26810311380E+01  0.33672126192E+01  0.49761923404E+01  0.10566000000E+00 0.  1.
         14    1    4    4    0    0  0.21817682923E+02 -0.18820655827E+02  0.30296667494E+02  0.41810482359E+02  0.00000000000E+00 0. -1.
<mgrwt>
<rscale>  0 0.79599508E+02</rscale>
<asrwt>0</asrwt>
<pdfrwt beam="1">  1        2 0.11764379E-01 0.79599508E+02</pdfrwt>
<pdfrwt beam="2">  1       -1 0.31868751E-02 0.79599508E+02</pdfrwt>
<totfact> 0.16729841E+05</totfact>
</mgrwt>
</event>
<event>
 8    1  0.1600673E-013  0.8138669E+02  0.7818608E-02  0.1325162E+00
         -1   -1    0    0    0  501 -0.00000000000E+00  0.00000000000E+00  0.28888904151E+01  0.28888948115E+01  0.50400000000E-02 0.  1.
          2   -1    0    0  501    0  0.00000000000E+00 -0.00000000000E+00 -0.57321215110E+03  0.57321215111E+03  0.25500000000E-02 0. -1.
         24    2    1    2    0    0  0.35527136788E-14  0.00000000000E+00 -0.57032326069E+03  0.57610104592E+03  0.81386690734E+02 0.  0.
         66    2    3    3    0    0 -0.22344008654E+02  0.10944867803E+02 -0.51304967365E+03  0.51365651221E+03  0.20000125955E+01 0.  0.
        -13    1    3    3    0    0  0.22344008654E+02 -0.10944867803E+02 -0.57273587038E+02  0.62444533710E+02  0.10566000000E+00 0.  1.
         13    1    4    4    0    0 -0.20985996104E+01  0.87305317200E+00 -0.39231765177E+02  0.39297695926E+02  0.10566000000E+00 0. -1.
        -13    1    4    4    0    0 -0.12618157698E+01  0.38378746797E+00 -0.31350140078E+02  0.31378048359E+02  0.10566000000E+00 0.  1.
         14    1    4    4    0    0 -0.18983593273E+02  0.96880271632E+01 -0.44246776840E+03  0.44298076793E+03  0.00000000000E+00 0. -1.
<mgrwt>
<rscale>  0 0.81386691E+02</rscale>
<asrwt>0</asrwt>
<pdfrwt beam="1">  1        2 0.88186394E-01 0.81386691E+02</pdfrwt>
<pdfrwt beam="2">  1       -1 0.44444547E-03 0.81386691E+02</pdfrwt>
<totfact> 0.30358308E+05</totfact>
</mgrwt>
</event>
<event>
 8    1  0.1600673E-013  0.7900293E+02  0.7818608E-02  0.1331905E+00
          2   -1    0    0  501    0  0.00000000000E+00  0.00000000000E+00  0.37982928884E+03  0.37982928885E+03  0.25500000000E-02 0. -1.
         -1   -1    0    0    0  501 -0.00000000000E+00 -0.00000000000E+00 -0.41080695685E+01  0.41080726601E+01  0.50400000000E-02 0.  1.
         24    2    1    2    0    0 -0.17763568394E-14 -0.35527136788E-14  0.37572121927E+03  0.38393736151E+03  0.79002930018E+02 0.  0.
         66    2    3    3    0    0 -0.11822769828E+02 -0.24971215591E+02  0.32500779807E+03  0.32618615590E+03  0.20000010722E+01 0.  0.
        -13    1    3    3    0    0  0.11822769828E+02  0.24971215591E+02  0.50713421203E+02  0.57751205604E+02  0.10566000000E+00 0.  1.
         13    1    4    4    0    0 -0.50071661502E+01 -0.92851993080E+01  0.13052124183E+03  0.13094690669E+03  0.10566000000E+00 0. -1.
        -13    1    4    4    0    0 -0.38166552793E+00 -0.14419449587E+01  0.17885368462E+02  0.17947769858E+02  0.10566000000E+00 0.  1.
        -14    1    4    4    0    0 -0.64339381502E+01 -0.14244071325E+02  0.17660118777E+03  0.17729147935E+03  0.00000000000E+00 0.  1.
<mgrwt>
<rscale>  0 0.79002930E+02</rscale>
<asrwt>0</asrwt>
<pdfrwt beam="1">  1        2 0.58435265E-01 0.79002930E+02</pdfrwt>
<pdfrwt beam="2">  1       -1 0.63201105E-03 0.79002930E+02</pdfrwt>
<totfact> 0.28667861E+05</totfact>
</mgrwt>
</event>
<event>
 8    1  0.1600673E-013  0.8088067E+02  0.7818608E-02  0.1326571E+00
          2   -1    0    0  501    0  0.00000000000E+00  0.00000000000E+00  0.45236746203E+03  0.45236746203E+03  0.25500000000E-02 0. -1.
         -1   -1    0    0    0  501 -0.00000000000E+00 -0.00000000000E+00 -0.36152465734E+01  0.36152500866E+01  0.50400000000E-02 0.  1.
         24    2    1    2    0    0  0.00000000000E+00 -0.35527136788E-14  0.44875221545E+03  0.45598271212E+03  0.80880670611E+02 0.  0.
         66    2    3    3    0    0  0.34030311608E+02  0.21721846653E+02  0.23508273391E+03  0.23853258166E+03  0.20000001683E+01 0.  0.
        -13    1    3    3    0    0 -0.34030311608E+02 -0.21721846653E+02  0.21366948154E+03  0.21745013046E+03  0.10566000000E+00 0.  1.
         13    1    4    4    0    0  0.26683411392E+02  0.16267079450E+02  0.18090683305E+03  0.18358626235E+03  0.10566000000E+00 0. -1.
        -13    1    4    4    0    0  0.56786189380E+01  0.40723023664E+01  0.42586433039E+02  0.43156063336E+02  0.10566000000E+00 0.  1.
         14    1    4    4    0    0  0.16682812781E+01  0.13824648365E+01  0.11589467829E+02  0.11790255977E+02  0.00000000000E+00 0. -1.
<mgrwt>
<rscale>  0 0.80880671E+02</rscale>
<asrwt>0</asrwt>
<pdfrwt beam="1">  1        2 0.69594982E-01 0.80880671E+02</pdfrwt>
<pdfrwt beam="2">  1       -1 0.55619215E-03 0.80880671E+02</pdfrwt>
<totfact> 0.28640050E+05</totfact>
</mgrwt>
</event>
<event>
 8    1  0.1600673E-013  0.7291273E+02  0.7818608E-02  0.1350459E+00
          2   -1    0    0  501    0  0.00000000000E+00  0.00000000000E+00  0.12621744868E+04  0.12621744868E+04  0.25500000000E-02 0. -1.
         -1   -1    0    0    0  501 -0.00000000000E+00 -0.00000000000E+00 -0.10529915526E+01  0.10530036141E+01  0.50400000000E-02 0.  1.
         24    2    1    2    0    0  0.00000000000E+00  0.00000000000E+00  0.12611214953E+04  0.12632274904E+04  0.72912733932E+02 0.  0.
         66    2    3    3    0    0  0.18515761528E+02 -0.10972347094E+02  0.11402402503E+04  0.11404451123E+04  0.19999992448E+01 0.  0.
        -13    1    3    3    0    0 -0.18515761528E+02  0.10972347094E+02  0.12088124496E+03  0.12278237810E+03  0.10566000000E+00 0.  1.
         13    1    4    4    0    0  0.95275755584E+00 -0.73470076159E+00  0.58262779265E+02  0.58275296171E+02  0.10566000000E+00 0. -1.
        -13    1    4    4    0    0  0.11406220808E+02 -0.56882560738E+01  0.67097661876E+03  0.67109767711E+03  0.10566000000E+00 0.  1.
        -14    1    4    4    0    0  0.61567831640E+01 -0.45493902581E+01  0.41100085228E+03  0.41107213905E+03  0.00000000000E+00 0.  1.
<mgrwt>
<rscale>  0 0.72912734E+02</rscale>
<asrwt>0</asrwt>
<pdfrwt beam="1">  1        2 0.19417930E+00 0.72912734E+02</pdfrwt>
<pdfrwt beam="2">  1       -1 0.16200079E-03 0.72912734E+02</pdfrwt>
<totfact> 0.44227968E+05</totfact>
</mgrwt>
</event>
<event>
 8    1  0.1600673E-013  0.8353120E+02  0.7818608E-02  0.1319319E+00
         -1   -1    0    0    0  501 -0.00000000000E+00  0.00000000000E+00  0.12162895751E+02  0.12162896796E+02  0.50400000000E-02 0.  1.
          2   -1    0    0  501    0  0.00000000000E+00 -0.00000000000E+00 -0.14341692362E+03  0.14341692365E+03  0.25500000000E-02 0. -1.
         24    2    1    2    0    0  0.00000000000E+00  0.27755575616E-16 -0.13125402787E+03  0.15557982044E+03  0.83531195945E+02 0.  0.
         66    2    3    3    0    0 -0.41732672774E+02 -0.21322304967E+00 -0.64107646638E+02  0.76520923929E+02  0.20000001236E+01 0.  0.
        -13    1    3    3    0    0  0.41732672774E+02  0.21322304967E+00 -0.67146381233E+02  0.79058896512E+02  0.10566000000E+00 0.  1.
         13    1    4    4    0    0 -0.19830233825E+02  0.14092865502E+00 -0.29466588422E+02  0.35518291509E+02  0.10566000000E+00 0. -1.
        -13    1    4    4    0    0 -0.60564268156E+01 -0.45226042706E+00 -0.89085471675E+01  0.10782310603E+02  0.10566000000E+00 0.  1.
         14    1    4    4    0    0 -0.15846012134E+02  0.98108722376E-01 -0.25732511049E+02  0.30220321817E+02  0.00000000000E+00 0. -1.
<mgrwt>
<rscale>  0 0.83531196E+02</rscale>
<asrwt>0</asrwt>
<pdfrwt beam="1">  1        2 0.22064141E-01 0.83531196E+02</pdfrwt>
<pdfrwt beam="2">  1       -1 0.18712149E-02 0.83531196E+02</pdfrwt>
<totfact> 0.17599588E+05</totfact>
</mgrwt>
</event>
<event>
 8    1  0.1600673E-013  0.8107403E+02  0.7818608E-02  0.1326031E+00
          2   -1    0    0  501    0  0.00000000000E+00  0.00000000000E+00  0.25606166207E+02  0.25606166334E+02  0.25500000000E-02 0. -1.
         -1   -1    0    0    0  501 -0.00000000000E+00 -0.00000000000E+00 -0.64173978309E+02  0.64173978507E+02  0.50400000000E-02 0.  1.
         24    2    1    2    0    0  0.00000000000E+00  0.00000000000E+00 -0.38567812102E+02  0.89780144841E+02  0.81074029611E+02 0.  0.
         66    2    3    3    0    0  0.35591179056E+02  0.48163595165E+01  0.14605517100E+01  0.36000869845E+02  0.20000181741E+01 0.  0.
        -13    1    3    3    0    0 -0.35591179056E+02 -0.48163595165E+01 -0.40028363812E+02  0.53779274996E+02  0.10566000000E+00 0.  1.
         13    1    4    4    0    0  0.24099375588E+02  0.32182568275E+01  0.17697300452E+01  0.24377862688E+02  0.10566000000E+00 0. -1.
        -13    1    4    4    0    0  0.50172856920E+01  0.69730115998E+00 -0.43177574050E+00  0.50849758061E+01  0.10566000000E+00 0.  1.
         14    1    4    4    0    0  0.64745177758E+01  0.90080152906E+00  0.12259740524E+00  0.65380313511E+01  0.00000000000E+00 0. -1.
<mgrwt>
<rscale>  0 0.81074030E+02</rscale>
<asrwt>0</asrwt>
<pdfrwt beam="1">  1        2 0.39394102E-02 0.81074030E+02</pdfrwt>
<pdfrwt beam="2">  1       -1 0.98729198E-02 0.81074030E+02</pdfrwt>
<totfact> 0.12558629E+05</totfact>
</mgrwt>
</event>
<event>
 8    1  0.1600673E-013  0.8921713E+02  0.7818608E-02  0.1304759E+00
         -1   -1    0    0    0  501 -0.00000000000E+00  0.00000000000E+00  0.19547798856E+01  0.19547863829E+01  0.50400000000E-02 0.  1.
          2   -1    0    0  501    0  0.00000000000E+00 -0.00000000000E+00 -0.10179768503E+04  0.10179768503E+04  0.25500000000E-02 0. -1.
         24    2    1    2    0    0  0.00000000000E+00 -0.35527136788E-14 -0.10160220704E+04  0.10199316367E+04  0.89217128086E+02 0.  0.
         66    2    3    3    0    0  0.19347746086E+02  0.30653914360E+02 -0.80504065338E+03  0.80585882841E+03  0.19999980429E+01 0.  0.
        -13    1    3    3    0    0 -0.19347746086E+02 -0.30653914360E+02 -0.21098141705E+03  0.21407280829E+03  0.10566000000E+00 0.  1.
         13    1    4    4    0    0  0.10100863142E+02  0.16532198438E+02 -0.41305974949E+03  0.41351385567E+03  0.10566000000E+00 0. -1.
        -13    1    4    4    0    0  0.81495275487E+00  0.16273677461E+01 -0.40578756259E+02  0.40619688543E+02  0.10566000000E+00 0.  1.
        -14    1    4    4    0    0  0.84319301891E+01  0.12494348176E+02 -0.35140214763E+03  0.35172528419E+03  0.00000000000E+00 0.  1.
<mgrwt>
<rscale>  0 0.89217128E+02</rscale>
<asrwt>0</asrwt>
<pdfrwt beam="1">  1        2 0.15661140E+00 0.89217128E+02</pdfrwt>
<pdfrwt beam="2">  1       -1 0.30073668E-03 0.89217128E+02</pdfrwt>
<totfact> 0.26520088E+05</totfact>
</mgrwt>
</event>
<event>
 8    1  0.1600673E-013  0.8004348E+02  0.7818608E-02  0.1328928E+00
          2   -1    0    0  501    0  0.00000000000E+00  0.00000000000E+00  0.12734344951E+03  0.12734344954E+03  0.25500000000E-02 0. -1.
         -1   -1    0    0    0  501 -0.00000000000E+00 -0.00000000000E+00 -0.12578107188E+02  0.12578108198E+02  0.50400000000E-02 0.  1.
         24    2    1    2    0    0  0.00000000000E+00  0.88817841970E-15  0.11476534232E+03  0.13992155773E+03  0.80043478936E+02 0.  0.
         66    2    3    3    0    0 -0.10874409118E+02  0.48131509818E+01  0.12417349121E+03  0.12475766557E+03  0.20000004949E+01 0.  0.
        -13    1    3    3    0    0  0.10874409118E+02 -0.48131509818E+01 -0.94081488902E+01  0.15163892166E+02  0.10566000000E+00 0.  1.
         13    1    4    4    0    0 -0.51420694578E+01  0.23202698081E+01  0.56774803820E+02  0.57054483112E+02  0.10566000000E+00 0. -1.
        -13    1    4    4    0    0 -0.35202637118E+01  0.86753140382E+00  0.34484343902E+02  0.34674572899E+02  0.10566000000E+00 0.  1.
        -14    1    4    4    0    0 -0.22120759482E+01  0.16253497699E+01  0.32914343492E+02  0.33028609558E+02  0.00000000000E+00 0.  1.
<mgrwt>
<rscale>  0 0.80043479E+02</rscale>
<asrwt>0</asrwt>
<pdfrwt beam="1">  1        2 0.19591300E-01 0.80043479E+02</pdfrwt>
<pdfrwt beam="2">  1       -1 0.19350935E-02 0.80043479E+02</pdfrwt>
<totfact> 0.18998050E+05</totfact>
</mgrwt>
</event>
<event>
 8    1  0.1600673E-013  0.7909637E+02  0.7818608E-02  0.1331636E+00
          2   -1    0    0  501    0  0.00000000000E+00  0.00000000000E+00  0.44197412026E+03  0.44197412027E+03  0.25500000000E-02 0. -1.
         -1   -1    0    0    0  501 -0.00000000000E+00 -0.00000000000E+00 -0.35388000443E+01  0.35388036333E+01  0.50400000000E-02 0.  1.
         24    2    1    2    0    0  0.00000000000E+00 -0.35527136788E-14  0.43843532022E+03  0.44551292390E+03  0.79096367489E+02 0.  0.
         66    2    3    3    0    0  0.27037684304E+02 -0.22451778953E+02  0.32120122258E+03  0.32312434779E+03  0.19999987758E+01 0.  0.
        -13    1    3    3    0    0 -0.27037684304E+02  0.22451778953E+02  0.11723409764E+03  0.12238857611E+03  0.10566000000E+00 0.  1.
         13    1    4    4    0    0  0.16055759117E+02 -0.12651647722E+02  0.18179073308E+03  0.18293641897E+03  0.10566000000E+00 0. -1.
        -13    1    4    4    0    0  0.59667132949E+01 -0.53198140411E+01  0.79674756726E+02  0.80074840695E+02  0.10566000000E+00 0.  1.
         14    1    4    4    0    0  0.50152118922E+01 -0.44803171896E+01  0.59735732782E+02  0.60113088121E+02  0.00000000000E+00 0. -1.
<mgrwt>
<rscale>  0 0.79096367E+02</rscale>
<asrwt>0</asrwt>
<pdfrwt beam="1">  1        2 0.67995946E-01 0.79096367E+02</pdfrwt>
<pdfrwt beam="2">  1       -1 0.54443163E-03 0.79096367E+02</pdfrwt>
<totfact> 0.30119899E+05</totfact>
</mgrwt>
</event>
<event>
 8    1  0.1600673E-013  0.8080862E+02  0.7818608E-02  0.1326772E+00
         -1   -1    0    0    0  501 -0.00000000000E+00  0.00000000000E+00  0.34282316361E+01  0.34282353409E+01  0.50400000000E-02 0.  1.
          2   -1    0    0  501    0  0.00000000000E+00 -0.00000000000E+00 -0.47619512113E+03  0.47619512113E+03  0.25500000000E-02 0. -1.
         24    2    1    2    0    0  0.00000000000E+00  0.00000000000E+00 -0.47276688949E+03  0.47962335648E+03  0.80808615117E+02 0.  0.
         66    2    3    3    0    0  0.33202067876E+02 -0.22363289422E+02 -0.26793957685E+03  0.27092085722E+03  0.20000030843E+01 0.  0.
        -13    1    3    3    0    0 -0.33202067876E+02  0.22363289422E+02 -0.20482731265E+03  0.20870249925E+03  0.10566000000E+00 0.  1.
         13    1    4    4    0    0  0.21620235255E+02 -0.15274871451E+02 -0.17689571026E+03  0.17886547946E+03  0.10566000000E+00 0. -1.
        -13    1    4    4    0    0  0.72566546118E+01 -0.47218600379E+01 -0.55545315261E+02  0.56216084974E+02  0.10566000000E+00 0.  1.
        -14    1    4    4    0    0  0.43251780098E+01 -0.23665579333E+01 -0.35498551330E+02  0.35839292791E+02  0.00000000000E+00 0.  1.
<mgrwt>
<rscale>  0 0.80808615E+02</rscale>
<asrwt>0</asrwt>
<pdfrwt beam="1">  1        2 0.73260736E-01 0.80808615E+02</pdfrwt>
<pdfrwt beam="2">  1       -1 0.52742092E-03 0.80808615E+02</pdfrwt>
<totfact> 0.29199197E+05</totfact>
</mgrwt>
</event>
<event>
 8    1  0.1600673E-013  0.8004712E+02  0.7818608E-02  0.1328918E+00
          2   -1    0    0  501    0  0.00000000000E+00  0.00000000000E+00  0.10363206424E+03  0.10363206427E+03  0.25500000000E-02 0. -1.
         -1   -1    0    0    0  501 -0.00000000000E+00 -0.00000000000E+00 -0.15457429613E+02  0.15457430435E+02  0.50400000000E-02 0.  1.
         24    2    1    2    0    0  0.00000000000E+00  0.00000000000E+00  0.88174634623E+02  0.11908949470E+03  0.80047120857E+02 0.  0.
         66    2    3    3    0    0  0.23434414165E+02 -0.22642046225E+02  0.78624178061E+02  0.85132810396E+02  0.20000013882E+01 0.  0.
        -13    1    3    3    0    0 -0.23434414165E+02  0.22642046225E+02  0.95504565619E+01  0.33956684307E+02  0.10566000000E+00 0.  1.
         13    1    4    4    0    0  0.12882796170E+02 -0.13356063702E+02  0.44403626942E+02  0.48125296097E+02  0.10566000000E+00 0. -1.
        -13    1    4    4    0    0  0.22222978630E+01 -0.14966644118E+01  0.61746691270E+01  0.67317393753E+01  0.10566000000E+00 0.  1.
        -14    1    4    4    0    0  0.83293201321E+01 -0.77893181116E+01  0.28045881992E+02  0.30275774923E+02  0.00000000000E+00 0.  1.
<mgrwt>
<rscale>  0 0.80047121E+02</rscale>
<asrwt>0</asrwt>
<pdfrwt beam="1">  1        2 0.15943395E-01 0.80047121E+02</pdfrwt>
<pdfrwt beam="2">  1       -1 0.23780661E-02 0.80047121E+02</pdfrwt>
<totfact> 0.17876742E+05</totfact>
</mgrwt>
</event>
<event>
 8    1  0.1600673E-013  0.7967263E+02  0.7818608E-02  0.1329983E+00
          2   -1    0    0  501    0  0.00000000000E+00  0.00000000000E+00  0.95510653516E+02  0.95510653550E+02  0.25500000000E-02 0. -1.
         -1   -1    0    0    0  501 -0.00000000000E+00 -0.00000000000E+00 -0.16615235299E+02  0.16615236063E+02  0.50400000000E-02 0.  1.
         24    2    1    2    0    0 -0.71054273576E-14  0.00000000000E+00  0.78895418217E+02  0.11212588961E+03  0.79672630845E+02 0.  0.
         66    2    3    3    0    0  0.35324971944E+02 -0.10747135781E+02  0.60421081517E+02  0.70838278264E+02  0.20000013451E+01 0.  0.
        -13    1    3    3    0    0 -0.35324971944E+02  0.10747135781E+02  0.18474336700E+02  0.41287611349E+02  0.10566000000E+00 0.  1.
         13    1    4    4    0    0  0.12276628361E+02 -0.36571171318E+01  0.22363057165E+02  0.25772225349E+02  0.10566000000E+00 0. -1.
        -13    1    4    4    0    0  0.26533566245E+01 -0.74319560015E+00  0.49369610428E+01  0.56548553873E+01  0.10566000000E+00 0.  1.
        -14    1    4    4    0    0  0.20394986958E+02 -0.63468230487E+01  0.33121063309E+02  0.39411197528E+02  0.00000000000E+00 0.  1.
<mgrwt>
<rscale>  0 0.79672631E+02</rscale>
<asrwt>0</asrwt>
<pdfrwt beam="1">  1        2 0.14693946E-01 0.79672631E+02</pdfrwt>
<pdfrwt beam="2">  1       -1 0.25561902E-02 0.79672631E+02</pdfrwt>
<totfact> 0.17694845E+05</totfact>
</mgrwt>
</event>
<event>
 8    1  0.1600673E-013  0.8048139E+02  0.7818608E-02  0.1327691E+00
         -1   -1    0    0    0  501 -0.00000000000E+00  0.00000000000E+00  0.59272385914E+01  0.59272407341E+01  0.50400000000E-02 0.  1.
          2   -1    0    0  501    0  0.00000000000E+00 -0.00000000000E+00 -0.27319859712E+03  0.27319859713E+03  0.25500000000E-02 0. -1.
         24    2    1    2    0    0  0.00000000000E+00  0.17763568394E-14 -0.26727135853E+03  0.27912583787E+03  0.80481390860E+02 0.  0.
         66    2    3    3    0    0 -0.19086087943E+01  0.15864838947E+02 -0.26171172630E+03  0.26220671919E+03  0.20000005928E+01 0.  0.
        -13    1    3    3    0    0  0.19086087943E+01 -0.15864838947E+02 -0.55596322318E+01  0.16919118681E+02  0.10566000000E+00 0.  1.
         13    1    4    4    0    0 -0.36908921518E+00  0.10820554399E+02 -0.17669197217E+03  0.17702340189E+03  0.10566000000E+00 0. -1.
        -13    1    4    4    0    0 -0.72860564075E+00  0.23674348312E+01 -0.39859468202E+02  0.39936499386E+02  0.10566000000E+00 0.  1.
         14    1    4    4    0    0 -0.81091393836E+00  0.26768497167E+01 -0.45160285929E+02  0.45246817911E+02  0.00000000000E+00 0. -1.
<mgrwt>
<rscale>  0 0.80481391E+02</rscale>
<asrwt>0</asrwt>
<pdfrwt beam="1">  1        2 0.42030544E-01 0.80481391E+02</pdfrwt>
<pdfrwt beam="2">  1       -1 0.91188324E-03 0.80481391E+02</pdfrwt>
<totfact> 0.24259475E+05</totfact>
</mgrwt>
</event>
<event>
 8    1  0.1600673E-013  0.7941569E+02  0.7818608E-02  0.1330718E+00
          2   -1    0    0  501    0  0.00000000000E+00  0.00000000000E+00  0.45934880940E+03  0.45934880941E+03  0.25500000000E-02 0. -1.
         -1   -1    0    0    0  501 -0.00000000000E+00 -0.00000000000E+00 -0.34324938593E+01  0.34324975595E+01  0.50400000000E-02 0.  1.
         24    2    1    2    0    0 -0.35527136788E-14  0.00000000000E+00  0.45591631555E+03  0.46278130697E+03  0.79415686748E+02 0.  0.
         66    2    3    3    0    0 -0.22742866710E+02 -0.17129825279E+02  0.38917700939E+03  0.39022226170E+03  0.19999975146E+01 0.  0.
        -13    1    3    3    0    0  0.22742866710E+02  0.17129825279E+02  0.66739306160E+02  0.72559045274E+02  0.10566000000E+00 0.  1.
         13    1    4    4    0    0 -0.25140799367E+00 -0.33831370463E+00  0.50529124043E+01  0.50715628699E+01  0.10566000000E+00 0. -1.
        -13    1    4    4    0    0 -0.18371047843E+01 -0.10774592453E+01  0.32960328663E+02  0.33029234051E+02  0.10566000000E+00 0.  1.
         14    1    4    4    0    0 -0.20654353932E+02 -0.15714052329E+02  0.35116376832E+03  0.35212146478E+03  0.00000000000E+00 0. -1.
<mgrwt>
<rscale>  0 0.79415687E+02</rscale>
<asrwt>0</asrwt>
<pdfrwt beam="1">  1        2 0.70668976E-01 0.79415687E+02</pdfrwt>
<pdfrwt beam="2">  1       -1 0.52807680E-03 0.79415687E+02</pdfrwt>
<totfact> 0.30192959E+05</totfact>
</mgrwt>
</event>
<event>
 8    1  0.1600673E-013  0.8206193E+02  0.7818608E-02  0.1323300E+00
         -1   -1    0    0    0  501 -0.00000000000E+00  0.00000000000E+00  0.58787948251E+02  0.58787948467E+02  0.50400000000E-02 0.  1.
          2   -1    0    0  501    0  0.00000000000E+00 -0.00000000000E+00 -0.28637505070E+02  0.28637505184E+02  0.25500000000E-02 0. -1.
         24    2    1    2    0    0  0.00000000000E+00 -0.71054273576E-14  0.30150443180E+02  0.87425453651E+02  0.82061932235E+02 0.  0.
         66    2    3    3    0    0 -0.98766381386E+01  0.33991949857E+02 -0.69699357898E+01  0.36132819336E+02  0.19999980610E+01 0.  0.
        -13    1    3    3    0    0  0.98766381386E+01 -0.33991949857E+02  0.37120378970E+02  0.51292634315E+02  0.10566000000E+00 0.  1.
         13    1    4    4    0    0 -0.63498903955E+01  0.21369172499E+02 -0.36242065859E+01  0.22585585641E+02  0.10566000000E+00 0. -1.
        -13    1    4    4    0    0 -0.42607530323E+00  0.12864507819E+01 -0.14843755118E+00  0.13673673685E+01  0.10566000000E+00 0.  1.
         14    1    4    4    0    0 -0.31006724399E+01  0.11336326576E+02 -0.31972916528E+01  0.12179866326E+02  0.00000000000E+00 0. -1.
<mgrwt>
<rscale>  0 0.82061932E+02</rscale>
<asrwt>0</asrwt>
<pdfrwt beam="1">  1        2 0.44057701E-02 0.82061932E+02</pdfrwt>
<pdfrwt beam="2">  1       -1 0.90442996E-02 0.82061932E+02</pdfrwt>
<totfact> 0.12410471E+05</totfact>
</mgrwt>
</event>
<event>
 8    1  0.1600673E-013  0.8031526E+02  0.7818608E-02  0.1328159E+00
          2   -1    0    0  501    0  0.00000000000E+00  0.00000000000E+00  0.39001035069E+02  0.39001035152E+02  0.25500000000E-02 0. -1.
         -1   -1    0    0    0  501 -0.00000000000E+00 -0.00000000000E+00 -0.41348527771E+02  0.41348528078E+02  0.50400000000E-02 0.  1.
         24    2    1    2    0    0  0.00000000000E+00  0.00000000000E+00 -0.23474927018E+01  0.80349563230E+02  0.80315263738E+02 0.  0.
         66    2    3    3    0    0  0.20684995491E+02 -0.24594191135E+02  0.22875077758E+02  0.39496992923E+02  0.19999978769E+01 0.  0.
        -13    1    3    3    0    0 -0.20684995491E+02  0.24594191135E+02 -0.25222570460E+02  0.40852570307E+02  0.10566000000E+00 0.  1.
         13    1    4    4    0    0  0.94792619086E+01 -0.10162849910E+02  0.10534404530E+02  0.17439173359E+02  0.10566000000E+00 0. -1.
        -13    1    4    4    0    0  0.29654234380E+01 -0.37606593607E+01  0.35630671782E+01  0.59701680668E+01  0.10566000000E+00 0.  1.
         14    1    4    4    0    0  0.82403101441E+01 -0.10670681865E+02  0.87776060497E+01  0.16087651497E+02  0.00000000000E+00 0. -1.
<mgrwt>
<rscale>  0 0.80315264E+02</rscale>
<asrwt>0</asrwt>
<pdfrwt beam="1">  1        2 0.60001592E-02 0.80315264E+02</pdfrwt>
<pdfrwt beam="2">  1       -1 0.63613120E-02 0.80315264E+02</pdfrwt>
<totfact> 0.14027919E+05</totfact>
</mgrwt>
</event>
<event>
 8    1  0.1600673E-013  0.8344281E+02  0.7818608E-02  0.1319556E+00
         -1   -1    0    0    0  501 -0.00000000000E+00  0.00000000000E+00  0.27177760761E+01  0.27177807494E+01  0.50400000000E-02 0.  1.
          2   -1    0    0  501    0  0.00000000000E+00 -0.00000000000E+00 -0.64047741146E+03  0.64047741147E+03  0.25500000000E-02 0. -1.
         24    2    1    2    0    0  0.00000000000E+00  0.00000000000E+00 -0.63775963539E+03  0.64319519222E+03  0.83442811331E+02 0.  0.
         66    2    3    3    0    0 -0.23824679723E+02  0.20798175027E+02 -0.52853476669E+03  0.52948387988E+03  0.20000002486E+01 0.  0.
        -13    1    3    3    0    0  0.23824679723E+02 -0.20798175027E+02 -0.10922486870E+03  0.11371131234E+03  0.10566000000E+00 0.  1.
         13    1    4    4    0    0 -0.36697798101E+01  0.34459660245E+01 -0.84929244830E+02  0.85078374204E+02  0.10566000000E+00 0. -1.
        -13    1    4    4    0    0 -0.14633909381E+02  0.12051950270E+02 -0.30448114618E+03  0.30507077925E+03  0.10566000000E+00 0.  1.
        -14    1    4    4    0    0 -0.55209905324E+01  0.53002587320E+01 -0.13912437568E+03  0.13933472642E+03  0.00000000000E+00 0.  1.
<mgrwt>
<rscale>  0 0.83442811E+02</rscale>
<asrwt>0</asrwt>
<pdfrwt beam="1">  1        2 0.98534866E-01 0.83442811E+02</pdfrwt>
<pdfrwt beam="2">  1       -1 0.41812027E-03 0.83442811E+02</pdfrwt>
<totfact> 0.29328711E+05</totfact>
</mgrwt>
</event>
<event>
 8    1  0.1600673E-013  0.7937228E+02  0.7818608E-02  0.1330842E+00
         -1   -1    0    0    0  501 -0.00000000000E+00  0.00000000000E+00  0.44699560398E+01  0.44699588812E+01  0.50400000000E-02 0.  1.
          2   -1    0    0  501    0  0.00000000000E+00 -0.00000000000E+00 -0.35235005566E+03  0.35235005567E+03  0.25500000000E-02 0. -1.
         24    2    1    2    0    0  0.00000000000E+00  0.35527136788E-14 -0.34788009962E+03  0.35682001455E+03  0.79372281510E+02 0.  0.
         66    2    3    3    0    0  0.33759271703E+02 -0.17265533209E+02 -0.22632169488E+03  0.22948485055E+03  0.19999994431E+01 0.  0.
        -13    1    3    3    0    0 -0.33759271703E+02  0.17265533209E+02 -0.12155840474E+03  0.12733516400E+03  0.10566000000E+00 0.  1.
         13    1    4    4    0    0  0.25988877151E+02 -0.12934103005E+02 -0.17080983865E+03  0.17325912646E+03  0.10566000000E+00 0. -1.
        -13    1    4    4    0    0  0.76865088253E+01 -0.42392266808E+01 -0.54017870752E+02  0.54726547354E+02  0.10566000000E+00 0.  1.
         14    1    4    4    0    0  0.83885727057E-01 -0.92203523177E-01 -0.14939854728E+01  0.14991767401E+01  0.00000000000E+00 0. -1.
<mgrwt>
<rscale>  0 0.79372282E+02</rscale>
<asrwt>0</asrwt>
<pdfrwt beam="1">  1        2 0.54207679E-01 0.79372282E+02</pdfrwt>
<pdfrwt beam="2">  1       -1 0.68768605E-03 0.79372282E+02</pdfrwt>
<totfact> 0.27576325E+05</totfact>
</mgrwt>
</event>
<event>
 8    1  0.1600673E-013  0.8309713E+02  0.7818608E-02  0.1320485E+00
         -1   -1    0    0    0  501 -0.00000000000E+00  0.00000000000E+00  0.18407436417E+01  0.18407505415E+01  0.50400000000E-02 0.  1.
          2   -1    0    0  501    0  0.00000000000E+00 -0.00000000000E+00 -0.93781653425E+03  0.93781653425E+03  0.25500000000E-02 0. -1.
         24    2    1    2    0    0  0.00000000000E+00  0.00000000000E+00 -0.93597579061E+03  0.93965728479E+03  0.83097125483E+02 0.  0.
         66    2    3    3    0    0 -0.19180742630E+02 -0.24006630074E+02 -0.78408372393E+03  0.78468815800E+03  0.20000000804E+01 0.  0.
        -13    1    3    3    0    0  0.19180742630E+02  0.24006630074E+02 -0.15189206668E+03  0.15496912680E+03  0.10566000000E+00 0.  1.
         13    1    4    4    0    0 -0.14673971733E+02 -0.17700456169E+02 -0.58770207844E+03  0.58815166051E+03  0.10566000000E+00 0. -1.
        -13    1    4    4    0    0 -0.13142707632E+01 -0.16475821716E+01 -0.63038790638E+02  0.63074100262E+02  0.10566000000E+00 0.  1.
        -14    1    4    4    0    0 -0.31925001340E+01 -0.46585917332E+01 -0.13334285485E+03  0.13346239723E+03  0.00000000000E+00 0.  1.
<mgrwt>
<rscale>  0 0.83097125E+02</rscale>
<asrwt>0</asrwt>
<pdfrwt beam="1">  1        2 0.14427909E+00 0.83097125E+02</pdfrwt>
<pdfrwt beam="2">  1       -1 0.28319261E-03 0.83097125E+02</pdfrwt>
<totfact> 0.31786023E+05</totfact>
</mgrwt>
</event>
<event>
 8    1  0.1600673E-013  0.7552902E+02  0.7818608E-02  0.1342241E+00
          2   -1    0    0  501    0  0.00000000000E+00  0.00000000000E+00  0.19216470209E+02  0.19216470378E+02  0.25500000000E-02 0. -1.
         -1   -1    0    0    0  501 -0.00000000000E+00 -0.00000000000E+00 -0.74215402417E+02  0.74215402589E+02  0.50400000000E-02 0.  1.
         24    2    1    2    0    0  0.00000000000E+00  0.00000000000E+00 -0.54998932209E+02  0.93431872966E+02  0.75529016556E+02 0.  0.
         66    2    3    3    0    0 -0.24552362437E+02  0.28584293808E+02 -0.24961642222E+02  0.45243385674E+02  0.20000027777E+01 0.  0.
        -13    1    3    3    0    0  0.24552362437E+02 -0.28584293808E+02 -0.30037289987E+02  0.48188487292E+02  0.10566000000E+00 0.  1.
         13    1    4    4    0    0 -0.15359095541E+02  0.17423504640E+02 -0.14981004685E+02  0.27639138829E+02  0.10566000000E+00 0. -1.
        -13    1    4    4    0    0 -0.63337288372E+01  0.83332753889E+01 -0.68783567076E+01  0.12525276633E+02  0.10566000000E+00 0.  1.
        -14    1    4    4    0    0 -0.28595380581E+01  0.28275137788E+01 -0.31022808295E+01  0.50789702126E+01  0.00000000000E+00 0.  1.
<mgrwt>
<rscale>  0 0.75529017E+02</rscale>
<asrwt>0</asrwt>
<pdfrwt beam="1">  1        2 0.29563801E-02 0.75529017E+02</pdfrwt>
<pdfrwt beam="2">  1       -1 0.11417754E-01 0.75529017E+02</pdfrwt>
<totfact> 0.14519867E+05</totfact>
</mgrwt>
</event>
<event>
 8    1  0.1600673E-013  0.7869266E+02  0.7818608E-02  0.1332803E+00
          2   -1    0    0  501    0  0.00000000000E+00  0.00000000000E+00  0.97378688640E+03  0.97378688640E+03  0.25500000000E-02 0. -1.
         -1   -1    0    0    0  501 -0.00000000000E+00 -0.00000000000E+00 -0.15898034632E+01  0.15898114521E+01  0.50400000000E-02 0.  1.
         24    2    1    2    0    0  0.35527136788E-14  0.00000000000E+00  0.97219708293E+03  0.97537669785E+03  0.78692659433E+02 0.  0.
         66    2    3    3    0    0  0.21241435058E+02 -0.30722107562E+01  0.89477937271E+03  0.89503897283E+03  0.20000014545E+01 0.  0.
        -13    1    3    3    0    0 -0.21241435058E+02  0.30722107562E+01  0.77417710217E+02  0.80337725021E+02  0.10566000000E+00 0.  1.
         13    1    4    4    0    0  0.15749702925E+02 -0.20964499092E+01  0.69278841675E+03  0.69297059807E+03  0.10566000000E+00 0. -1.
        -13    1    4    4    0    0  0.18583649084E+01 -0.20831143315E+00  0.63203048795E+02  0.63230795146E+02  0.10566000000E+00 0.  1.
         14    1    4    4    0    0  0.36333672243E+01 -0.76744941384E+00  0.13878790717E+03  0.13883757961E+03  0.00000000000E+00 0. -1.
<mgrwt>
<rscale>  0 0.78692659E+02</rscale>
<asrwt>0</asrwt>
<pdfrwt beam="1">  1        2 0.14981367E+00 0.78692659E+02</pdfrwt>
<pdfrwt beam="2">  1       -1 0.24458527E-03 0.78692659E+02</pdfrwt>
<totfact> 0.36719775E+05</totfact>
</mgrwt>
</event>
<event>
 8    1  0.1600673E-013  0.8026412E+02  0.7818608E-02  0.1328304E+00
         -1   -1    0    0    0  501 -0.00000000000E+00  0.00000000000E+00  0.11870170092E+02  0.11870171162E+02  0.50400000000E-02 0.  1.
          2   -1    0    0  501    0  0.00000000000E+00 -0.00000000000E+00 -0.13568317419E+03  0.13568317421E+03  0.25500000000E-02 0. -1.
         24    2    1    2    0    0  0.00000000000E+00  0.35527136788E-14 -0.12381300410E+03  0.14755334537E+03  0.80264124910E+02 0.  0.
         66    2    3    3    0    0 -0.17215868322E+02  0.28359427686E+02 -0.10337639546E+03  0.10858785555E+03  0.19999934111E+01 0.  0.
        -13    1    3    3    0    0  0.17215868322E+02 -0.28359427686E+02 -0.20436608638E+02  0.38965489827E+02  0.10566000000E+00 0.  1.
         13    1    4    4    0    0 -0.12937831719E+00  0.11552163938E+00 -0.56645020584E+00  0.60175897951E+00  0.10566000000E+00 0.  1.
        -13    1    4    4    0    0 -0.44446660070E+00  0.66502130140E+00 -0.20647734783E+01  0.22168124509E+01  0.10566000000E+00 0.  1.
         14    1    4    4    0    0 -0.16642023404E+02  0.27578884745E+02 -0.10074517177E+03  0.10576928412E+03  0.00000000000E+00 0. -1.
<mgrwt>
<rscale>  0 0.80264125E+02</rscale>
<asrwt>0</asrwt>
<pdfrwt beam="1">  1        2 0.20874333E-01 0.80264125E+02</pdfrwt>
<pdfrwt beam="2">  1       -1 0.18261802E-02 0.80264125E+02</pdfrwt>
<totfact> 0.19233052E+05</totfact>
</mgrwt>
</event>
<event>
 8    1  0.1600673E-013  0.8177258E+02  0.7818608E-02  0.1324095E+00
         -1   -1    0    0    0  501 -0.00000000000E+00  0.00000000000E+00  0.49015232203E+02  0.49015232462E+02  0.50400000000E-02 0.  1.
          2   -1    0    0  501    0  0.00000000000E+00 -0.00000000000E+00 -0.34105495132E+02  0.34105495228E+02  0.25500000000E-02 0. -1.
         24    2    1    2    0    0  0.00000000000E+00  0.00000000000E+00  0.14909737071E+02  0.83120727690E+02  0.81772581665E+02 0.  0.
         66    2    3    3    0    0 -0.39190613344E+02  0.10841137697E+02  0.33618094126E+01  0.40850167744E+02  0.20000003378E+01 0.  0.
        -13    1    3    3    0    0  0.39190613344E+02 -0.10841137697E+02  0.11547927658E+02  0.42270559945E+02  0.10566000000E+00 0.  1.
         13    1    4    4    0    0 -0.26097766449E+02  0.80696881465E+01  0.25994789695E+01  0.27440512665E+02  0.10566000000E+00 0. -1.
        -13    1    4    4    0    0 -0.12137941212E+02  0.25110953543E+01  0.77748202705E+00  0.12419776933E+02  0.10566000000E+00 0.  1.
         14    1    4    4    0    0 -0.95490568401E+00  0.26035419626E+00 -0.15151583967E-01  0.98987814572E+00  0.00000000000E+00 0. -1.
<mgrwt>
<rscale>  0 0.81772582E+02</rscale>
<asrwt>0</asrwt>
<pdfrwt beam="1">  1        2 0.52469993E-02 0.81772582E+02</pdfrwt>
<pdfrwt beam="2">  1       -1 0.75408050E-02 0.81772582E+02</pdfrwt>
<totfact> 0.12983617E+05</totfact>
</mgrwt>
</event>
<event>
 8    1  0.1600673E-013  0.7734522E+02  0.7818608E-02  0.1336759E+00
          2   -1    0    0  501    0  0.00000000000E+00  0.00000000000E+00  0.31843688594E+03  0.31843688595E+03  0.25500000000E-02 0. -1.
         -1   -1    0    0    0  501 -0.00000000000E+00 -0.00000000000E+00 -0.46965984482E+01  0.46966011524E+01  0.50400000000E-02 0.  1.
         24    2    1    2    0    0  0.00000000000E+00 -0.35527136788E-14  0.31374028749E+03  0.32313348710E+03  0.77345216346E+02 0.  0.
         66    2    3    3    0    0 -0.16927416022E+02 -0.16952977985E+02  0.28366810065E+03  0.28468497008E+03  0.19999969506E+01 0.  0.
        -13    1    3    3    0    0  0.16927416022E+02  0.16952977985E+02  0.30072186843E+02  0.38448517023E+02  0.10566000000E+00 0.  1.
         13    1    4    4    0    0 -0.16897178072E+01 -0.18451623137E+01  0.23508498227E+02  0.23641497904E+02  0.10566000000E+00 0.  1.
        -13    1    4    4    0    0 -0.25373078734E+01 -0.23503816203E+01  0.40767991075E+02  0.40914575463E+02  0.10566000000E+00 0. -1.
        -14    1    4    4    0    0 -0.12700390341E+02 -0.12757434051E+02  0.21939161134E+03  0.22012889671E+03  0.00000000000E+00 0.  1.
<mgrwt>
<rscale>  0 0.77345216E+02</rscale>
<asrwt>0</asrwt>
<pdfrwt beam="1">  1        2 0.48990291E-01 0.77345216E+02</pdfrwt>
<pdfrwt beam="2">  1       -1 0.72255380E-03 0.77345216E+02</pdfrwt>
<totfact> 0.28453905E+05</totfact>
</mgrwt>
</event>
<event>
 8    1  0.1600673E-013  0.8149744E+02  0.7818608E-02  0.1324855E+00
          2   -1    0    0  501    0  0.00000000000E+00  0.00000000000E+00  0.99000617628E+03  0.99000617628E+03  0.25500000000E-02 0. -1.
         -1   -1    0    0    0  501 -0.00000000000E+00 -0.00000000000E+00 -0.16772161958E+01  0.16772237684E+01  0.50400000000E-02 0.  1.
         24    2    1    2    0    0  0.00000000000E+00  0.00000000000E+00  0.98832896008E+03  0.99168340005E+03  0.81497439205E+02 0.  0.
         66    2    3    3    0    0  0.26116437259E+02 -0.18448588061E+02  0.80134183778E+03  0.80198201954E+03  0.19999978858E+01 0.  0.
        -13    1    3    3    0    0 -0.26116437259E+02  0.18448588061E+02  0.18698712230E+03  0.18970138051E+03  0.10566000000E+00 0.  1.
         13    1    4    4    0    0  0.61538936567E+01 -0.40175559610E+01  0.18464716312E+03  0.18479339051E+03  0.10566000000E+00 0. -1.
        -13    1    4    4    0    0  0.18994705538E+02 -0.13289965641E+02  0.57516481384E+03  0.57563182353E+03  0.10566000000E+00 0.  1.
        -14    1    4    4    0    0  0.96783806414E+00 -0.11410664598E+01  0.41529860819E+02  0.41556805494E+02  0.00000000000E+00 0.  1.
<mgrwt>
<rscale>  0 0.81497439E+02</rscale>
<asrwt>0</asrwt>
<pdfrwt beam="1">  1        2 0.15230878E+00 0.81497439E+02</pdfrwt>
<pdfrwt beam="2">  1       -1 0.25803361E-03 0.81497439E+02</pdfrwt>
<totfact> 0.33558274E+05</totfact>
</mgrwt>
</event>
<event>
 8    1  0.1600673E-013  0.7895715E+02  0.7818608E-02  0.1332037E+00
         -1   -1    0    0    0  501 -0.00000000000E+00  0.00000000000E+00  0.14673869810E+01  0.14673956364E+01  0.50400000000E-02 0.  1.
          2   -1    0    0  501    0  0.00000000000E+00 -0.00000000000E+00 -0.10621282084E+04  0.10621282084E+04  0.25500000000E-02 0. -1.
         24    2    1    2    0    0  0.17763568394E-14 -0.17763568394E-14 -0.10606608214E+04  0.10635956040E+04  0.78957145585E+02 0.  0.
         66    2    3    3    0    0  0.15613278352E+02 -0.14228788909E+02 -0.97952791707E+03  0.97975771149E+03  0.20000035170E+01 0.  0.
        -13    1    3    3    0    0 -0.15613278352E+02  0.14228788909E+02 -0.81132904359E+02  0.83837892557E+02  0.10566000000E+00 0.  1.
         13    1    4    4    0    0  0.76628956060E+01 -0.67337082437E+01 -0.48091772109E+03  0.48102591241E+03  0.10566000000E+00 0. -1.
        -13    1    4    4    0    0  0.63793446620E+01 -0.66581526880E+01 -0.42582636307E+03  0.42592620216E+03  0.10566000000E+00 0.  1.
        -14    1    4    4    0    0  0.15710380837E+01 -0.83692797705E+00 -0.72783832912E+02  0.72805596917E+02  0.00000000000E+00 0.  1.
<mgrwt>
<rscale>  0 0.78957146E+02</rscale>
<asrwt>0</asrwt>
<pdfrwt beam="1">  1        2 0.16340373E+00 0.78957146E+02</pdfrwt>
<pdfrwt beam="2">  1       -1 0.22575336E-03 0.78957146E+02</pdfrwt>
<totfact> 0.36494628E+05</totfact>
</mgrwt>
</event>
<event>
 8    1  0.1600673E-013  0.7937277E+02  0.7818608E-02  0.1330841E+00
          2   -1    0    0  501    0  0.00000000000E+00  0.00000000000E+00  0.78719470128E+02  0.78719470170E+02  0.25500000000E-02 0. -1.
         -1   -1    0    0    0  501 -0.00000000000E+00 -0.00000000000E+00 -0.20007871435E+02  0.20007872070E+02  0.50400000000E-02 0.  1.
         24    2    1    2    0    0  0.00000000000E+00  0.00000000000E+00  0.58711598693E+02  0.98727342240E+02  0.79372767903E+02 0.  0.
         66    2    3    3    0    0 -0.25517722396E+02 -0.30002446540E+02  0.35169039657E+02  0.52840915001E+02  0.19999982745E+01 0.  0.
        -13    1    3    3    0    0  0.25517722396E+02  0.30002446540E+02  0.23542559037E+02  0.45886427238E+02  0.10566000000E+00 0.  1.
         13    1    4    4    0    0 -0.17623402165E+02 -0.20229313480E+02  0.24483198803E+02  0.36321448421E+02  0.10566000000E+00 0. -1.
        -13    1    4    4    0    0 -0.51307470555E+00 -0.36842009177E+00  0.60994181629E+00  0.88440492556E+00  0.10566000000E+00 0.  1.
         14    1    4    4    0    0 -0.73812455251E+01 -0.94047129688E+01  0.10075899038E+02  0.15635061655E+02  0.00000000000E+00 0. -1.
<mgrwt>
<rscale>  0 0.79372768E+02</rscale>
<asrwt>0</asrwt>
<pdfrwt beam="1">  1        2 0.12110688E-01 0.79372768E+02</pdfrwt>
<pdfrwt beam="2">  1       -1 0.30781342E-02 0.79372768E+02</pdfrwt>
<totfact> 0.16983389E+05</totfact>
</mgrwt>
</event>
<event>
 8    1  0.1600673E-013  0.7983711E+02  0.7818608E-02  0.1329514E+00
          2   -1    0    0  501    0  0.00000000000E+00  0.00000000000E+00  0.32881401325E+02  0.32881401424E+02  0.25500000000E-02 0. -1.
         -1   -1    0    0    0  501 -0.00000000000E+00 -0.00000000000E+00 -0.48461777672E+02  0.48461777934E+02  0.50400000000E-02 0.  1.
         24    2    1    2    0    0  0.00000000000E+00  0.00000000000E+00 -0.15580376347E+02  0.81343179358E+02  0.79837113556E+02 0.  0.
         66    2    3    3    0    0 -0.17606738086E+02  0.23541701523E+02  0.19681747678E+02  0.35434166175E+02  0.20000010574E+01 0.  0.
        -13    1    3    3    0    0  0.17606738086E+02 -0.23541701523E+02 -0.35262124025E+02  0.45909013183E+02  0.10566000000E+00 0.  1.
         13    1    4    4    0    0 -0.10906071438E+02  0.15789334274E+02  0.12180027054E+02  0.22729049565E+02  0.10566000000E+00 0. -1.
        -13    1    4    4    0    0 -0.27231349981E+01  0.29194161373E+01  0.28340251302E+01  0.48970723167E+01  0.10566000000E+00 0.  1.
         14    1    4    4    0    0 -0.39775316496E+01  0.48329511117E+01  0.46676954933E+01  0.78080442935E+01  0.00000000000E+00 0. -1.
<mgrwt>
<rscale>  0 0.79837114E+02</rscale>
<asrwt>0</asrwt>
<pdfrwt beam="1">  1        2 0.50586771E-02 0.79837114E+02</pdfrwt>
<pdfrwt beam="2">  1       -1 0.74556582E-02 0.79837114E+02</pdfrwt>
<totfact> 0.13780080E+05</totfact>
</mgrwt>
</event>
<event>
 8    1  0.1600673E-013  0.7986544E+02  0.7818608E-02  0.1329434E+00
         -1   -1    0    0    0  501 -0.00000000000E+00  0.00000000000E+00  0.80818651270E+02  0.80818651428E+02  0.50400000000E-02 0.  1.
          2   -1    0    0  501    0  0.00000000000E+00 -0.00000000000E+00 -0.19730866466E+02  0.19730866631E+02  0.25500000000E-02 0. -1.
         24    2    1    2    0    0  0.00000000000E+00  0.00000000000E+00  0.61087784804E+02  0.10054951806E+03  0.79865437641E+02 0.  0.
         66    2    3    3    0    0  0.19003769037E+02  0.58132978806E+01 -0.13007392630E+02  0.23835476627E+02  0.20000032868E+01 0.  0.
        -13    1    3    3    0    0 -0.19003769037E+02 -0.58132978806E+01  0.74095177434E+02  0.76714041432E+02  0.10566000000E+00 0.  1.
         13    1    4    4    0    0  0.91216455381E+01  0.18672094793E+01 -0.55788156259E+01  0.10854733363E+02  0.10566000000E+00 0. -1.
        -13    1    4    4    0    0  0.73869069123E+01  0.28832152971E+01 -0.56568391281E+01  0.97411661076E+01  0.10566000000E+00 0.  1.
         14    1    4    4    0    0  0.24952165864E+01  0.10628731042E+01 -0.17717378759E+01  0.32395771560E+01  0.00000000000E+00 0. -1.
<mgrwt>
<rscale>  0 0.79865438E+02</rscale>
<asrwt>0</asrwt>
<pdfrwt beam="1">  1        2 0.30355180E-02 0.79865438E+02</pdfrwt>
<pdfrwt beam="2">  1       -1 0.12433638E-01 0.79865438E+02</pdfrwt>
<totfact> 0.12441758E+05</totfact>
</mgrwt>
</event>
<event>
 8    1  0.1600673E-013  0.7980416E+02  0.7818608E-02  0.1329608E+00
          2   -1    0    0  501    0  0.00000000000E+00  0.00000000000E+00  0.29055283267E+03  0.29055283268E+03  0.25500000000E-02 0. -1.
         -1   -1    0    0    0  501 -0.00000000000E+00 -0.00000000000E+00 -0.54798140856E+01  0.54798164033E+01  0.50400000000E-02 0.  1.
         24    2    1    2    0    0  0.71054273576E-14 -0.35527136788E-14  0.28507301859E+03  0.29603264909E+03  0.79804156528E+02 0.  0.
         66    2    3    3    0    0 -0.30272776623E+02  0.24487939216E+02  0.11070030598E+03  0.11736548860E+03  0.19999995339E+01 0.  0.
        -13    1    3    3    0    0  0.30272776623E+02 -0.24487939216E+02  0.17437271260E+03  0.17866716049E+03  0.10566000000E+00 0.  1.
         13    1    4    4    0    0 -0.88575436002E+01  0.69087437245E+01  0.31030053776E+02  0.33000942712E+02  0.10566000000E+00 0. -1.
        -13    1    4    4    0    0 -0.91552045803E-01  0.15559393938E+00  0.49721236105E+00  0.53942137392E+00  0.10566000000E+00 0.  1.
        -14    1    4    4    0    0 -0.21323680977E+02  0.17423601552E+02  0.79173039845E+02  0.83825124514E+02  0.00000000000E+00 0.  1.
<mgrwt>
<rscale>  0 0.79804157E+02</rscale>
<asrwt>0</asrwt>
<pdfrwt beam="1">  1        2 0.44700455E-01 0.79804157E+02</pdfrwt>
<pdfrwt beam="2">  1       -1 0.84304813E-03 0.79804157E+02</pdfrwt>
<totfact> 0.25363251E+05</totfact>
</mgrwt>
</event>
<event>
 8    1  0.1600673E-013  0.8115127E+02  0.7818608E-02  0.1325816E+00
          2   -1    0    0  501    0  0.00000000000E+00  0.00000000000E+00  0.50584056491E+03  0.50584056492E+03  0.25500000000E-02 0. -1.
         -1   -1    0    0    0  501 -0.00000000000E+00 -0.00000000000E+00 -0.32547436086E+01  0.32547475108E+01  0.50400000000E-02 0.  1.
         24    2    1    2    0    0  0.00000000000E+00  0.00000000000E+00  0.50258582130E+03  0.50909531243E+03  0.81151274557E+02 0.  0.
         66    2    3    3    0    0 -0.10192441303E+02  0.25343325655E+00  0.49766569961E+03  0.49777414422E+03  0.19999992418E+01 0.  0.
        -13    1    3    3    0    0  0.10192441303E+02 -0.25343325655E+00  0.49201216949E+01  0.11321168211E+02  0.10566000000E+00 0.  1.
         13    1    4    4    0    0 -0.43511850800E+01  0.38980858207E+00  0.22048019928E+03  0.22052350033E+03  0.10566000000E+00 0. -1.
        -13    1    4    4    0    0 -0.53829454680E+01 -0.12932703824E+00  0.23055941045E+03  0.23062230104E+03  0.10566000000E+00 0.  1.
         14    1    4    4    0    0 -0.45831075553E+00 -0.70482872764E-02  0.46626089880E+02  0.46628342839E+02  0.00000000000E+00 0. -1.
<mgrwt>
<rscale>  0 0.81151275E+02</rscale>
<asrwt>0</asrwt>
<pdfrwt beam="1">  1        2 0.77821645E-01 0.81151275E+02</pdfrwt>
<pdfrwt beam="2">  1       -1 0.50072996E-03 0.81151275E+02</pdfrwt>
<totfact> 0.29445981E+05</totfact>
</mgrwt>
</event>
<event>
 8    1  0.1600673E-013  0.7994053E+02  0.7818608E-02  0.1329220E+00
          2   -1    0    0  501    0  0.00000000000E+00  0.00000000000E+00  0.17948963358E+03  0.17948963360E+03  0.25500000000E-02 0. -1.
         -1   -1    0    0    0  501 -0.00000000000E+00 -0.00000000000E+00 -0.89009147267E+01  0.89009161537E+01  0.50400000000E-02 0.  1.
         24    2    1    2    0    0 -0.35527136788E-14  0.00000000000E+00  0.17058871886E+03  0.18839054976E+03  0.79940529370E+02 0.  0.
         66    2    3    3    0    0 -0.18563679714E+02 -0.28677358169E+02  0.13413709069E+03  0.13843323361E+03  0.19999984883E+01 0.  0.
        -13    1    3    3    0    0  0.18563679714E+02  0.28677358169E+02  0.36451628168E+02  0.49957316143E+02  0.10566000000E+00 0.  1.
         13    1    4    4    0    0 -0.12680410027E+01 -0.23723921588E+01  0.10030014186E+02  0.10385014259E+02  0.10566000000E+00 0. -1.
        -13    1    4    4    0    0 -0.34458210744E+01 -0.59793092984E+01  0.29429967717E+02  0.30228463183E+02  0.10566000000E+00 0.  1.
        -14    1    4    4    0    0 -0.13849817636E+02 -0.20325656712E+02  0.94677108787E+02  0.97819756172E+02  0.00000000000E+00 0.  1.
<mgrwt>
<rscale>  0 0.79940529E+02</rscale>
<asrwt>0</asrwt>
<pdfrwt beam="1">  1        2 0.27613789E-01 0.79940529E+02</pdfrwt>
<pdfrwt beam="2">  1       -1 0.13693716E-02 0.79940529E+02</pdfrwt>
<totfact> 0.21295767E+05</totfact>
</mgrwt>
</event>
<event>
 8    1  0.1600673E-013  0.6979691E+02  0.7818608E-02  0.1360785E+00
         -1   -1    0    0    0  501 -0.00000000000E+00  0.00000000000E+00  0.56000612088E+02  0.56000612314E+02  0.50400000000E-02 0.  1.
          2   -1    0    0  501    0  0.00000000000E+00 -0.00000000000E+00 -0.21748014378E+02  0.21748014528E+02  0.25500000000E-02 0. -1.
         24    2    1    2    0    0 -0.71054273576E-14  0.88817841970E-15  0.34252597710E+02  0.77748626842E+02  0.69796909143E+02 0.  0.
         66    2    3    3    0    0 -0.31047588235E+02  0.59819673688E+01  0.76292358700E+00  0.31690987892E+02  0.19999980864E+01 0.  0.
        -13    1    3    3    0    0  0.31047588235E+02 -0.59819673688E+01  0.33489674123E+02  0.46057638950E+02  0.10566000000E+00 0.  1.
         13    1    4    4    0    0 -0.38034774716E+01  0.84578804931E+00  0.44533085493E+00  0.39231724289E+01  0.10566000000E+00 0. -1.
        -13    1    4    4    0    0 -0.53071998929E+01  0.48116042366E+00  0.36353956050E+00  0.53423975053E+01  0.10566000000E+00 0.  1.
         14    1    4    4    0    0 -0.21936910870E+02  0.46550188958E+01 -0.45946828424E-01  0.22425417957E+02  0.00000000000E+00 0. -1.
<mgrwt>
<rscale>  0 0.69796909E+02</rscale>
<asrwt>0</asrwt>
<pdfrwt beam="1">  1        2 0.33458485E-02 0.69796909E+02</pdfrwt>
<pdfrwt beam="2">  1       -1 0.86154787E-02 0.69796909E+02</pdfrwt>
<totfact> 0.18541340E+05</totfact>
</mgrwt>
</event>
<event>
 8    1  0.1600673E-013  0.7369872E+02  0.7818608E-02  0.1347949E+00
         -1   -1    0    0    0  501 -0.00000000000E+00  0.00000000000E+00  0.14675976196E+01  0.14676062737E+01  0.50400000000E-02 0.  1.
          2   -1    0    0  501    0  0.00000000000E+00 -0.00000000000E+00 -0.92523416277E+03  0.92523416277E+03  0.25500000000E-02 0. -1.
         24    2    1    2    0    0  0.00000000000E+00  0.00000000000E+00 -0.92376656515E+03  0.92670176905E+03  0.73698723636E+02 0.  0.
         66    2    3    3    0    0  0.13181990246E+02  0.26042744272E+00 -0.89453293277E+03  0.89463232697E+03  0.19999876663E+01 0.  0.
        -13    1    3    3    0    0 -0.13181990246E+02 -0.26042744272E+00 -0.29233632380E+02  0.32069442082E+02  0.10566000000E+00 0.  1.
         13    1    4    4    0    0  0.33216584850E+01  0.65463344458E+00 -0.21866317189E+03  0.21868940501E+03  0.10566000000E+00 0. -1.
        -13    1    4    4    0    0  0.65706383329E+01 -0.14332458991E+00 -0.48684932325E+03  0.48689369326E+03  0.10566000000E+00 0.  1.
        -14    1    4    4    0    0  0.32896934282E+01 -0.25088141195E+00 -0.18902043764E+03  0.18904922869E+03  0.00000000000E+00 0.  1.
<mgrwt>
<rscale>  0 0.73698724E+02</rscale>
<asrwt>0</asrwt>
<pdfrwt beam="1">  1        2 0.14234325E+00 0.73698724E+02</pdfrwt>
<pdfrwt beam="2">  1       -1 0.22578566E-03 0.73698724E+02</pdfrwt>
<totfact> 0.43326203E+05</totfact>
</mgrwt>
</event>
<event>
 8    1  0.1600673E-013  0.7980070E+02  0.7818608E-02  0.1329618E+00
          2   -1    0    0  501    0  0.00000000000E+00  0.00000000000E+00  0.29256935779E+02  0.29256935890E+02  0.25500000000E-02 0. -1.
         -1   -1    0    0    0  501 -0.00000000000E+00 -0.00000000000E+00 -0.54415746682E+02  0.54415746915E+02  0.50400000000E-02 0.  1.
         24    2    1    2    0    0  0.71054273576E-14  0.00000000000E+00 -0.25158810903E+02  0.83672682806E+02  0.79800702264E+02 0.  0.
         66    2    3    3    0    0 -0.38921307450E+02  0.86243065751E+01 -0.11657567356E+02  0.41582997860E+02  0.19999992075E+01 0.  0.
        -13    1    3    3    0    0  0.38921307450E+02 -0.86243065751E+01 -0.13501243547E+02  0.42089684946E+02  0.10566000000E+00 0.  1.
         13    1    4    4    0    0 -0.62077465589E+01  0.19104173342E+01 -0.17515317063E+01  0.67279149135E+01  0.10566000000E+00 0. -1.
        -13    1    4    4    0    0 -0.23034056997E+02  0.47271790877E+01 -0.75511655100E+01  0.24697070038E+02  0.10566000000E+00 0.  1.
         14    1    4    4    0    0 -0.96795038942E+01  0.19867101532E+01 -0.23548701399E+01  0.10158012908E+02  0.00000000000E+00 0. -1.
<mgrwt>
<rscale>  0 0.79800702E+02</rscale>
<asrwt>0</asrwt>
<pdfrwt beam="1">  1        2 0.45010671E-02 0.79800702E+02</pdfrwt>
<pdfrwt beam="2">  1       -1 0.83716534E-02 0.79800702E+02</pdfrwt>
<totfact> 0.13482859E+05</totfact>
</mgrwt>
</event>
<event>
 8    1  0.1600673E-013  0.8037987E+02  0.7818608E-02  0.1327977E+00
          2   -1    0    0  501    0  0.00000000000E+00  0.00000000000E+00  0.12001358897E+02  0.12001359168E+02  0.25500000000E-02 0. -1.
         -1   -1    0    0    0  501 -0.00000000000E+00 -0.00000000000E+00 -0.13458733996E+03  0.13458734006E+03  0.50400000000E-02 0.  1.
         24    2    1    2    0    0  0.00000000000E+00  0.00000000000E+00 -0.12258598107E+03  0.14658869923E+03  0.80379873021E+02 0.  0.
         66    2    3    3    0    0 -0.29492725208E+02  0.13803694057E+02 -0.18450115945E+02  0.37480256022E+02  0.20000008121E+01 0.  0.
        -13    1    3    3    0    0  0.29492725208E+02 -0.13803694057E+02 -0.10413586512E+03  0.10910844320E+03  0.10566000000E+00 0.  1.
         13    1    4    4    0    0 -0.75009146865E+01  0.35242661099E+01 -0.51630081951E+01  0.97648343768E+01  0.10566000000E+00 0.  1.
        -13    1    4    4    0    0 -0.11002002905E+02  0.43224312584E+01 -0.63205595072E+01  0.13404779611E+02  0.10566000000E+00 0. -1.
        -14    1    4    4    0    0 -0.10989807617E+02  0.59569966892E+01 -0.69665482423E+01  0.14310642034E+02  0.00000000000E+00 0.  1.
<mgrwt>
<rscale>  0 0.80379873E+02</rscale>
<asrwt>0</asrwt>
<pdfrwt beam="1">  1        2 0.18463630E-02 0.80379873E+02</pdfrwt>
<pdfrwt beam="2">  1       -1 0.20705744E-01 0.80379873E+02</pdfrwt>
<totfact> 0.10949843E+05</totfact>
</mgrwt>
</event>
<event>
 8    1  0.1600673E-013  0.8027670E+02  0.7818608E-02  0.1328268E+00
         -1   -1    0    0    0  501 -0.00000000000E+00  0.00000000000E+00  0.10020733039E+02  0.10020734307E+02  0.50400000000E-02 0.  1.
          2   -1    0    0  501    0  0.00000000000E+00 -0.00000000000E+00 -0.16077535513E+03  0.16077535515E+03  0.25500000000E-02 0. -1.
         24    2    1    2    0    0  0.44408920985E-15  0.00000000000E+00 -0.15075462209E+03  0.17079608946E+03  0.80276697068E+02 0.  0.
         66    2    3    3    0    0 -0.18227993001E+01 -0.11995792099E+02 -0.15677093749E+03  0.15725249908E+03  0.20000003749E+01 0.  0.
        -13    1    3    3    0    0  0.18227993001E+01  0.11995792099E+02  0.60163153937E+01  0.13543590378E+02  0.10566000000E+00 0.  1.
         13    1    4    4    0    0 -0.42026789616E+00 -0.61562499080E+01 -0.69848587262E+02  0.70120698403E+02  0.10566000000E+00 0. -1.
        -13    1    4    4    0    0 -0.13332318144E+01 -0.55522545823E+01 -0.80282890519E+02  0.80485767140E+02  0.10566000000E+00 0.  1.
         14    1    4    4    0    0 -0.69299589534E-01 -0.28728760891E+00 -0.66394597063E+01  0.66460335385E+01  0.00000000000E+00 0. -1.
<mgrwt>
<rscale>  0 0.80276697E+02</rscale>
<asrwt>0</asrwt>
<pdfrwt beam="1">  1        2 0.24734668E-01 0.80276697E+02</pdfrwt>
<pdfrwt beam="2">  1       -1 0.15416515E-02 0.80276697E+02</pdfrwt>
<totfact> 0.20300752E+05</totfact>
</mgrwt>
</event>
<event>
 8    1  0.1600673E-013  0.8489197E+02  0.7818608E-02  0.1315715E+00
         -1   -1    0    0    0  501 -0.00000000000E+00  0.00000000000E+00  0.38350393195E+01  0.38350426313E+01  0.50400000000E-02 0.  1.
          2   -1    0    0  501    0  0.00000000000E+00 -0.00000000000E+00 -0.46978936735E+03  0.46978936736E+03  0.25500000000E-02 0. -1.
         24    2    1    2    0    0  0.00000000000E+00  0.00000000000E+00 -0.46595432803E+03  0.47362440999E+03  0.84891966206E+02 0.  0.
         66    2    3    3    0    0 -0.24358051395E+02 -0.25136100555E+02 -0.36683320456E+03  0.36850473295E+03  0.20000046384E+01 0.  0.
        -13    1    3    3    0    0  0.24358051395E+02  0.25136100555E+02 -0.99121123467E+02  0.10511967704E+03  0.10566000000E+00 0.  1.
         13    1    4    4    0    0 -0.15087436146E+02 -0.14803815280E+02 -0.22438404130E+03  0.22537744526E+03  0.10566000000E+00 0. -1.
        -13    1    4    4    0    0 -0.86718471789E+01 -0.92662637617E+01 -0.12926213929E+03  0.12988370335E+03  0.10566000000E+00 0.  1.
        -14    1    4    4    0    0 -0.59876807023E+00 -0.10660215131E+01 -0.13187023967E+02  0.13243584340E+02  0.00000000000E+00 0.  1.
<mgrwt>
<rscale>  0 0.84891966E+02</rscale>
<asrwt>0</asrwt>
<pdfrwt beam="1">  1        2 0.72275242E-01 0.84891966E+02</pdfrwt>
<pdfrwt beam="2">  1       -1 0.59000668E-03 0.84891966E+02</pdfrwt>
<totfact> 0.25551717E+05</totfact>
</mgrwt>
</event>
<event>
 8    1  0.1600673E-013  0.7772207E+02  0.7818608E-02  0.1335643E+00
          2   -1    0    0  501    0  0.00000000000E+00  0.00000000000E+00  0.93101184430E+02  0.93101184465E+02  0.25500000000E-02 0. -1.
         -1   -1    0    0    0  501 -0.00000000000E+00 -0.00000000000E+00 -0.16220846412E+02  0.16220847195E+02  0.50400000000E-02 0.  1.
         24    2    1    2    0    0 -0.17763568394E-14 -0.35527136788E-14  0.76880338018E+02  0.10932203166E+03  0.77722070433E+02 0.  0.
         66    2    3    3    0    0 -0.11662007768E+02 -0.19472186009E+02  0.82789600159E+02  0.85867842348E+02  0.20000004648E+01 0.  0.
        -13    1    3    3    0    0  0.11662007768E+02  0.19472186009E+02 -0.59092621410E+01  0.23454189311E+02  0.10566000000E+00 0.  1.
         13    1    4    4    0    0 -0.58844395817E+01 -0.96373674829E+01  0.40859628647E+02  0.42391342258E+02  0.10566000000E+00 0. -1.
        -13    1    4    4    0    0 -0.17663083092E+01 -0.21561929181E+01  0.87252010742E+01  0.91602025504E+01  0.10566000000E+00 0.  1.
        -14    1    4    4    0    0 -0.40112598772E+01 -0.76786256084E+01  0.33204770438E+02  0.34316297540E+02  0.00000000000E+00 0.  1.
<mgrwt>
<rscale>  0 0.77722070E+02</rscale>
<asrwt>0</asrwt>
<pdfrwt beam="1">  1        2 0.14323259E-01 0.77722070E+02</pdfrwt>
<pdfrwt beam="2">  1       -1 0.24955149E-02 0.77722070E+02</pdfrwt>
<totfact> 0.18777889E+05</totfact>
</mgrwt>
</event>
<event>
 8    1  0.1600673E-013  0.8160970E+02  0.7818608E-02  0.1324544E+00
          2   -1    0    0  501    0  0.00000000000E+00  0.00000000000E+00  0.14854409155E+03  0.14854409157E+03  0.25500000000E-02 0. -1.
         -1   -1    0    0    0  501 -0.00000000000E+00 -0.00000000000E+00 -0.11209032385E+02  0.11209033518E+02  0.50400000000E-02 0.  1.
         24    2    1    2    0    0  0.00000000000E+00  0.00000000000E+00  0.13733505916E+03  0.15975312509E+03  0.81609696118E+02 0.  0.
         66    2    3    3    0    0  0.17123776755E+02 -0.28202951664E+02  0.11562400737E+03  0.12025614866E+03  0.19999994085E+01 0.  0.
        -13    1    3    3    0    0 -0.17123776755E+02  0.28202951664E+02  0.21711051794E+02  0.39496976428E+02  0.10566000000E+00 0.  1.
         13    1    4    4    0    0  0.34844620734E+01 -0.61583439139E+01  0.26852850475E+02  0.27769649231E+02  0.10566000000E+00 0. -1.
        -13    1    4    4    0    0  0.30065433294E+01 -0.46896573441E+01  0.17433594211E+02  0.18302282916E+02  0.10566000000E+00 0.  1.
        -14    1    4    4    0    0  0.10632771352E+02 -0.17354950406E+02  0.71337562685E+02  0.74184216516E+02  0.00000000000E+00 0.  1.
<mgrwt>
<rscale>  0 0.81609696E+02</rscale>
<asrwt>0</asrwt>
<pdfrwt beam="1">  1        2 0.22852938E-01 0.81609696E+02</pdfrwt>
<pdfrwt beam="2">  1       -1 0.17244666E-02 0.81609696E+02</pdfrwt>
<totfact> 0.18937889E+05</totfact>
</mgrwt>
</event>
<event>
 8    1  0.1600673E-013  0.8023077E+02  0.7818608E-02  0.1328398E+00
          2   -1    0    0  501    0  0.00000000000E+00  0.00000000000E+00  0.91889801364E+01  0.91889804902E+01  0.25500000000E-02 0. -1.
         -1   -1    0    0    0  501 -0.00000000000E+00 -0.00000000000E+00 -0.17512762013E+03  0.17512762020E+03  0.50400000000E-02 0.  1.
         24    2    1    2    0    0  0.00000000000E+00  0.00000000000E+00 -0.16593863999E+03  0.18431660069E+03  0.80230773697E+02 0.  0.
         66    2    3    3    0    0 -0.37755975270E+02 -0.90129154758E+01 -0.59990872940E+02  0.71481824042E+02  0.20000046043E+01 0.  0.
        -13    1    3    3    0    0  0.37755975270E+02  0.90129154758E+01 -0.10594776706E+03  0.11283477665E+03  0.10566000000E+00 0.  1.
         13    1    4    4    0    0 -0.32566958613E+02 -0.74711686155E+01 -0.52090934907E+02  0.61886200540E+02  0.10566000000E+00 0. -1.
        -13    1    4    4    0    0 -0.88160545501E+00 -0.22013607224E+00 -0.10041470893E+01  0.13583679476E+01  0.10566000000E+00 0.  1.
         14    1    4    4    0    0 -0.43074112018E+01 -0.13216107880E+01 -0.68957909436E+01  0.82372555548E+01  0.00000000000E+00 0. -1.
<mgrwt>
<rscale>  0 0.80230774E+02</rscale>
<asrwt>0</asrwt>
<pdfrwt beam="1">  1        2 0.14136894E-02 0.80230774E+02</pdfrwt>
<pdfrwt beam="2">  1       -1 0.26942708E-01 0.80230774E+02</pdfrwt>
<totfact> 0.10276425E+05</totfact>
</mgrwt>
</event>
<event>
 8    1  0.1600673E-013  0.7938480E+02  0.7818608E-02  0.1330806E+00
          2   -1    0    0  501    0  0.00000000000E+00  0.00000000000E+00  0.11924715925E+02  0.11924716198E+02  0.25500000000E-02 0. -1.
         -1   -1    0    0    0  501 -0.00000000000E+00 -0.00000000000E+00 -0.13211943208E+03  0.13211943217E+03  0.50400000000E-02 0.  1.
         24    2    1    2    0    0 -0.35527136788E-14 -0.35527136788E-14 -0.12019471615E+03  0.14404414837E+03  0.79384802634E+02 0.  0.
         66    2    3    3    0    0 -0.31173960578E+02 -0.23998339308E+02 -0.69342231514E+02  0.79750117035E+02  0.19999970058E+01 0.  0.
        -13    1    3    3    0    0  0.31173960578E+02  0.23998339308E+02 -0.50852484638E+02  0.64294031337E+02  0.10566000000E+00 0.  1.
         13    1    4    4    0    0 -0.44752382279E+01 -0.35691049526E+01 -0.10349259848E+02  0.11827282477E+02  0.10566000000E+00 0. -1.
        -13    1    4    4    0    0 -0.12834445641E+02 -0.87174297906E+01 -0.26960226962E+02  0.31105973365E+02  0.10566000000E+00 0.  1.
        -14    1    4    4    0    0 -0.13864276709E+02 -0.11711804565E+02 -0.32032744704E+02  0.36816861193E+02  0.00000000000E+00 0.  1.
<mgrwt>
<rscale>  0 0.79384803E+02</rscale>
<asrwt>0</asrwt>
<pdfrwt beam="1">  1        2 0.18345718E-02 0.79384803E+02</pdfrwt>
<pdfrwt beam="2">  1       -1 0.20326065E-01 0.79384803E+02</pdfrwt>
<totfact> 0.11349176E+05</totfact>
</mgrwt>
</event>
<event>
 8    1  0.1600673E-013  0.7981222E+02  0.7818608E-02  0.1329585E+00
         -1   -1    0    0    0  501 -0.00000000000E+00  0.00000000000E+00  0.49493963691E+01  0.49493989353E+01  0.50400000000E-02 0.  1.
          2   -1    0    0  501    0  0.00000000000E+00 -0.00000000000E+00 -0.32175581498E+03  0.32175581499E+03  0.25500000000E-02 0. -1.
         24    2    1    2    0    0 -0.88817841970E-15  0.00000000000E+00 -0.31680641861E+03  0.32670521393E+03  0.79812216690E+02 0.  0.
         66    2    3    3    0    0 -0.53763811669E+01  0.33589739053E+02 -0.24371215120E+03  0.24608288987E+03  0.19999997875E+01 0.  0.
        -13    1    3    3    0    0  0.53763811669E+01 -0.33589739053E+02 -0.73094267412E+02  0.80622324059E+02  0.10566000000E+00 0.  1.
         13    1    4    4    0    0 -0.28484129356E+01  0.18688718979E+02 -0.13393139818E+03  0.13525905609E+03  0.10566000000E+00 0. -1.
        -13    1    4    4    0    0  0.14288974982E-01  0.14556271092E+01 -0.12660115856E+02  0.12743969240E+02  0.10566000000E+00 0.  1.
        -14    1    4    4    0    0 -0.25422572063E+01  0.13445392965E+02 -0.97120637167E+02  0.98079864536E+02  0.00000000000E+00 0.  1.
<mgrwt>
<rscale>  0 0.79812217E+02</rscale>
<asrwt>0</asrwt>
<pdfrwt beam="1">  1        2 0.49500878E-01 0.79812217E+02</pdfrwt>
<pdfrwt beam="2">  1       -1 0.76144604E-03 0.79812217E+02</pdfrwt>
<totfact> 0.26309219E+05</totfact>
</mgrwt>
</event>
<event>
 8    1  0.1600673E-013  0.8079387E+02  0.7818608E-02  0.1326814E+00
          2   -1    0    0  501    0  0.00000000000E+00  0.00000000000E+00  0.92278464968E+03  0.92278464969E+03  0.25500000000E-02 0. -1.
         -1   -1    0    0    0  501 -0.00000000000E+00 -0.00000000000E+00 -0.17684616160E+01  0.17684687978E+01  0.50400000000E-02 0.  1.
         24    2    1    2    0    0  0.00000000000E+00  0.00000000000E+00  0.92101618807E+03  0.92455311848E+03  0.80793874877E+02 0.  0.
         66    2    3    3    0    0 -0.18729115260E+02  0.21398117164E+02  0.78872670749E+03  0.78924171094E+03  0.20000002280E+01 0.  0.
        -13    1    3    3    0    0  0.18729115260E+02 -0.21398117164E+02  0.13228948057E+03  0.13531140754E+03  0.10566000000E+00 0.  1.
         13    1    4    4    0    0 -0.77092622243E+01  0.88149568661E+01  0.34080475657E+03  0.34100590824E+03  0.10566000000E+00 0. -1.
        -13    1    4    4    0    0 -0.38895997663E+01  0.40046743492E+01  0.13659626578E+03  0.13671034120E+03  0.10566000000E+00 0.  1.
        -14    1    4    4    0    0 -0.71302532690E+01  0.85784859489E+01  0.31132568514E+03  0.31152546150E+03  0.00000000000E+00 0.  1.
<mgrwt>
<rscale>  0 0.80793875E+02</rscale>
<asrwt>0</asrwt>
<pdfrwt beam="1">  1        2 0.14196688E+00 0.80793875E+02</pdfrwt>
<pdfrwt beam="2">  1       -1 0.27207156E-03 0.80793875E+02</pdfrwt>
<totfact> 0.34148953E+05</totfact>
</mgrwt>
</event>
<event>
 8    1  0.1600673E-013  0.7679322E+02  0.7818608E-02  0.1338406E+00
         -1   -1    0    0    0  501 -0.00000000000E+00  0.00000000000E+00  0.26213094166E+01  0.26213142618E+01  0.50400000000E-02 0.  1.
          2   -1    0    0  501    0  0.00000000000E+00 -0.00000000000E+00 -0.56242818507E+03  0.56242818508E+03  0.25500000000E-02 0. -1.
         24    2    1    2    0    0  0.00000000000E+00  0.00000000000E+00 -0.55980687565E+03  0.56504949934E+03  0.76793220227E+02 0.  0.
         66    2    3    3    0    0  0.22219877060E+02  0.27936854038E+02 -0.38365710443E+03  0.38531930206E+03  0.20000010798E+01 0.  0.
        -13    1    3    3    0    0 -0.22219877060E+02 -0.27936854038E+02 -0.17614977122E+03  0.17973019728E+03  0.10566000000E+00 0.  1.
         13    1    4    4    0    0  0.73388631025E+01  0.95034567223E+01 -0.13070167471E+03  0.13125209917E+03  0.10566000000E+00 0. -1.
        -13    1    4    4    0    0  0.16218656562E+01  0.14028369377E+01 -0.20687957251E+02  0.20799065818E+02  0.10566000000E+00 0.  1.
        -14    1    4    4    0    0  0.13259148301E+02  0.17030560378E+02 -0.23226747248E+03  0.23326813707E+03  0.00000000000E+00 0.  1.
<mgrwt>
<rscale>  0 0.76793220E+02</rscale>
<asrwt>0</asrwt>
<pdfrwt beam="1">  1        2 0.86527317E-01 0.76793220E+02</pdfrwt>
<pdfrwt beam="2">  1       -1 0.40327919E-03 0.76793220E+02</pdfrwt>
<totfact> 0.35113122E+05</totfact>
</mgrwt>
</event>
<event>
 8    1  0.1600673E-013  0.7984286E+02  0.7818608E-02  0.1329498E+00
         -1   -1    0    0    0  501 -0.00000000000E+00  0.00000000000E+00  0.11548355724E+03  0.11548355735E+03  0.50400000000E-02 0.  1.
          2   -1    0    0  501    0  0.00000000000E+00 -0.00000000000E+00 -0.13800411826E+02  0.13800412061E+02  0.25500000000E-02 0. -1.
         24    2    1    2    0    0 -0.35527136788E-14  0.35527136788E-14  0.10168314542E+03  0.12928396941E+03  0.79842862458E+02 0.  0.
         66    2    3    3    0    0  0.23429949266E+02 -0.23996420980E+02  0.15884337118E+02  0.37163193191E+02  0.20000049941E+01 0.  0.
        -13    1    3    3    0    0 -0.23429949266E+02  0.23996420980E+02  0.85798808300E+02  0.92120776224E+02  0.10566000000E+00 0.  1.
         13    1    4    4    0    0  0.70799968851E+01 -0.66623292489E+01  0.48107959306E+01  0.10847483968E+02  0.10566000000E+00 0.  1.
        -13    1    4    4    0    0  0.53198054551E+01 -0.52351868164E+01  0.41420335156E+01  0.85366923784E+01  0.10566000000E+00 0.  1.
         14    1    4    4    0    0  0.11030146926E+02 -0.12098904915E+02  0.69315076719E+01  0.17779016844E+02  0.00000000000E+00 0. -1.
<mgrwt>
<rscale>  0 0.79842862E+02</rscale>
<asrwt>0</asrwt>
<pdfrwt beam="1">  1        2 0.21231403E-02 0.79842862E+02</pdfrwt>
<pdfrwt beam="2">  1       -1 0.17766701E-01 0.79842862E+02</pdfrwt>
<totfact> 0.11540868E+05</totfact>
</mgrwt>
</event>
<event>
 8    1  0.1600673E-013  0.8533802E+02  0.7818608E-02  0.1314551E+00
         -1   -1    0    0    0  501 -0.00000000000E+00  0.00000000000E+00  0.96119502199E+01  0.96119515412E+01  0.50400000000E-02 0.  1.
          2   -1    0    0  501    0  0.00000000000E+00 -0.00000000000E+00 -0.18941465805E+03  0.18941465807E+03  0.25500000000E-02 0. -1.
         24    2    1    2    0    0 -0.35527136788E-14 -0.71054273576E-14 -0.17980270783E+03  0.19902660961E+03  0.85338019600E+02 0.  0.
         66    2    3    3    0    0 -0.20669134479E+02 -0.29116648125E+02 -0.14432907944E+03  0.14869389864E+03  0.20000006942E+01 0.  0.
        -13    1    3    3    0    0  0.20669134479E+02  0.29116648125E+02 -0.35473628389E+02  0.50332710967E+02  0.10566000000E+00 0.  1.
         13    1    4    4    0    0 -0.13342908322E+02 -0.20245132981E+02 -0.96694398743E+02  0.99688096201E+02  0.10566000000E+00 0. -1.
        -13    1    4    4    0    0 -0.89327037739E+00 -0.11550367321E+01 -0.62666180445E+01  0.64353482867E+01  0.10566000000E+00 0.  1.
         14    1    4    4    0    0 -0.64329557793E+01 -0.77164784116E+01 -0.41368062657E+02  0.42570454157E+02  0.00000000000E+00 0. -1.
<mgrwt>
<rscale>  0 0.85338020E+02</rscale>
<asrwt>0</asrwt>
<pdfrwt beam="1">  1        2 0.29140714E-01 0.85338020E+02</pdfrwt>
<pdfrwt beam="2">  1       -1 0.14787618E-02 0.85338020E+02</pdfrwt>
<totfact> 0.18241971E+05</totfact>
</mgrwt>
</event>
<event>
 8    1  0.1600673E-013  0.8090238E+02  0.7818608E-02  0.1326510E+00
         -1   -1    0    0    0  501 -0.00000000000E+00  0.00000000000E+00  0.31865344834E+01  0.31865384692E+01  0.50400000000E-02 0.  1.
          2   -1    0    0  501    0  0.00000000000E+00 -0.00000000000E+00 -0.51350382280E+03  0.51350382281E+03  0.25500000000E-02 0. -1.
         24    2    1    2    0    0  0.35527136788E-14  0.00000000000E+00 -0.51031728832E+03  0.51669036128E+03  0.80902377470E+02 0.  0.
         66    2    3    3    0    0  0.22469680843E+02 -0.19505775771E+02 -0.43009353805E+03  0.43112621507E+03  0.19999998957E+01 0.  0.
        -13    1    3    3    0    0 -0.22469680843E+02  0.19505775771E+02 -0.80223750267E+02  0.85564146209E+02  0.10566000000E+00 0.  1.
         13    1    4    4    0    0  0.82828621189E+01 -0.66717903996E+01 -0.15108350538E+03  0.15145743744E+03  0.10566000000E+00 0. -1.
        -13    1    4    4    0    0  0.51146693066E+01 -0.37285046574E+01 -0.91507995280E+02  0.91726691607E+02  0.10566000000E+00 0.  1.
         14    1    4    4    0    0  0.90721494171E+01 -0.91054807143E+01 -0.18750203739E+03  0.18794208603E+03  0.00000000000E+00 0. -1.
<mgrwt>
<rscale>  0 0.80902377E+02</rscale>
<asrwt>0</asrwt>
<pdfrwt beam="1">  1        2 0.79000522E-01 0.80902377E+02</pdfrwt>
<pdfrwt beam="2">  1       -1 0.49023679E-03 0.80902377E+02</pdfrwt>
<totfact> 0.29824004E+05</totfact>
</mgrwt>
</event>
<event>
 8    1  0.1600673E-013  0.7852633E+02  0.7818608E-02  0.1333286E+00
         -1   -1    0    0    0  501 -0.00000000000E+00  0.00000000000E+00  0.85597476338E+01  0.85597491176E+01  0.50400000000E-02 0.  1.
          2   -1    0    0  501    0  0.00000000000E+00 -0.00000000000E+00 -0.18009831765E+03  0.18009831767E+03  0.25500000000E-02 0. -1.
         24    2    1    2    0    0  0.00000000000E+00 -0.35527136788E-14 -0.17153857001E+03  0.18865806678E+03  0.78526334182E+02 0.  0.
         66    2    3    3    0    0  0.30899255163E+02  0.22694058723E+02 -0.10589765707E+03  0.11264145750E+03  0.19999759282E+01 0.  0.
        -13    1    3    3    0    0 -0.30899255163E+02 -0.22694058723E+02 -0.65640912948E+02  0.76016609288E+02  0.10566000000E+00 0.  1.
         13    1    4    4    0    0  0.35599010117E+01  0.30476656464E+01 -0.12030962397E+02  0.12911869785E+02  0.10566000000E+00 0. -1.
        -13    1    4    4    0    0  0.18920138140E+01  0.10069937468E+01 -0.58098205779E+01  0.61934587963E+01  0.10566000000E+00 0.  1.
         14    1    4    4    0    0  0.25447340337E+02  0.18639399329E+02 -0.88056874091E+02  0.93536128914E+02  0.00000000000E+00 0. -1.
<mgrwt>
<rscale>  0 0.78526334E+02</rscale>
<asrwt>0</asrwt>
<pdfrwt beam="1">  1        2 0.27707431E-01 0.78526334E+02</pdfrwt>
<pdfrwt beam="2">  1       -1 0.13168845E-02 0.78526334E+02</pdfrwt>
<totfact> 0.22349324E+05</totfact>
</mgrwt>
</event>
<event>
 8    1  0.1600673E-013  0.7942350E+02  0.7818608E-02  0.1330695E+00
         -1   -1    0    0    0  501 -0.00000000000E+00  0.00000000000E+00  0.38698476746E+01  0.38698509566E+01  0.50400000000E-02 0.  1.
          2   -1    0    0  501    0  0.00000000000E+00 -0.00000000000E+00 -0.40751535741E+03  0.40751535742E+03  0.25500000000E-02 0. -1.
         24    2    1    2    0    0 -0.35527136788E-14  0.00000000000E+00 -0.40364550974E+03  0.41138520837E+03  0.79423498663E+02 0.  0.
         66    2    3    3    0    0 -0.24247620134E+02 -0.27805947351E+02 -0.27770433509E+03  0.28015141537E+03  0.20000045035E+01 0.  0.
        -13    1    3    3    0    0  0.24247620134E+02  0.27805947351E+02 -0.12594117465E+03  0.13123379300E+03  0.10566000000E+00 0.  1.
         13    1    4    4    0    0 -0.12387684854E+02 -0.13967215371E+02 -0.14295034332E+03  0.14416431480E+03  0.10566000000E+00 0. -1.
        -13    1    4    4    0    0 -0.41888512859E+01 -0.40579454958E+01 -0.44985457797E+02  0.45362054340E+02  0.10566000000E+00 0.  1.
        -14    1    4    4    0    0 -0.76710839945E+01 -0.97807864843E+01 -0.89768533969E+02  0.90625046234E+02  0.00000000000E+00 0.  1.
<mgrwt>
<rscale>  0 0.79423499E+02</rscale>
<asrwt>0</asrwt>
<pdfrwt beam="1">  1        2 0.62694637E-01 0.79423499E+02</pdfrwt>
<pdfrwt beam="2">  1       -1 0.59536176E-03 0.79423499E+02</pdfrwt>
<totfact> 0.28979602E+05</totfact>
</mgrwt>
</event>
<event>
 8    1  0.1600673E-013  0.7866775E+02  0.7818608E-02  0.1332875E+00
         -1   -1    0    0    0  501 -0.00000000000E+00  0.00000000000E+00  0.38930053307E+02  0.38930053633E+02  0.50400000000E-02 0.  1.
          2   -1    0    0  501    0  0.00000000000E+00 -0.00000000000E+00 -0.39741884063E+02  0.39741884145E+02  0.25500000000E-02 0. -1.
         24    2    1    2    0    0  0.00000000000E+00 -0.35527136788E-14 -0.81183075635E+00  0.78671937778E+02  0.78667748948E+02 0.  0.
         66    2    3    3    0    0 -0.60491159827E+01 -0.26879875998E+02 -0.28443882173E+02  0.39650649135E+02  0.20000014792E+01 0.  0.
        -13    1    3    3    0    0  0.60491159827E+01  0.26879875998E+02  0.27632051416E+02  0.39021288643E+02  0.10566000000E+00 0.  1.
         13    1    4    4    0    0 -0.26838545588E+01 -0.13478410839E+02 -0.14688665491E+02  0.20115633024E+02  0.10566000000E+00 0. -1.
        -13    1    4    4    0    0 -0.20445463776E+01 -0.10279271021E+02 -0.10378900724E+02  0.14750468701E+02  0.10566000000E+00 0.  1.
        -14    1    4    4    0    0 -0.13207150462E+01 -0.31221941381E+01 -0.33763159582E+01  0.47845474100E+01  0.00000000000E+00 0.  1.
<mgrwt>
<rscale>  0 0.78667749E+02</rscale>
<asrwt>0</asrwt>
<pdfrwt beam="1">  1        2 0.61141360E-02 0.78667749E+02</pdfrwt>
<pdfrwt beam="2">  1       -1 0.59892390E-02 0.78667749E+02</pdfrwt>
<totfact> 0.14912089E+05</totfact>
</mgrwt>
</event>
<event>
 8    1  0.1600673E-013  0.7862913E+02  0.7818608E-02  0.1332987E+00
          2   -1    0    0  501    0  0.00000000000E+00  0.00000000000E+00  0.38033124859E+03  0.38033124860E+03  0.25500000000E-02 0. -1.
         -1   -1    0    0    0  501 -0.00000000000E+00 -0.00000000000E+00 -0.40639167677E+01  0.40639198930E+01  0.50400000000E-02 0.  1.
         24    2    1    2    0    0  0.00000000000E+00  0.00000000000E+00  0.37626733182E+03  0.38439516849E+03  0.78629133043E+02 0.  0.
         66    2    3    3    0    0  0.15317027734E+02 -0.33211373043E+02  0.25842527417E+03  0.26100810129E+03  0.19999921592E+01 0.  0.
        -13    1    3    3    0    0 -0.15317027734E+02  0.33211373043E+02  0.11784205765E+03  0.12338706721E+03  0.10566000000E+00 0.  1.
         13    1    4    4    0    0  0.81613664288E+01 -0.17155751231E+02  0.13388730208E+03  0.13522850485E+03  0.10566000000E+00 0. -1.
        -13    1    4    4    0    0  0.49264123795E+01 -0.12420542002E+02  0.95401503940E+02  0.96332743761E+02  0.10566000000E+00 0.  1.
        -14    1    4    4    0    0  0.22292489260E+01 -0.36350798100E+01  0.29136468153E+02  0.29446852675E+02  0.00000000000E+00 0.  1.
<mgrwt>
<rscale>  0 0.78629133E+02</rscale>
<asrwt>0</asrwt>
<pdfrwt beam="1">  1        2 0.58512487E-01 0.78629133E+02</pdfrwt>
<pdfrwt beam="2">  1       -1 0.62521834E-03 0.78629133E+02</pdfrwt>
<totfact> 0.29038465E+05</totfact>
</mgrwt>
</event>
<event>
 8    1  0.1600673E-013  0.7992565E+02  0.7818608E-02  0.1329263E+00
         -1   -1    0    0    0  501 -0.00000000000E+00  0.00000000000E+00  0.61801656935E+01  0.61801677486E+01  0.50400000000E-02 0.  1.
          2   -1    0    0  501    0  0.00000000000E+00 -0.00000000000E+00 -0.25841170712E+03  0.25841170714E+03  0.25500000000E-02 0. -1.
         24    2    1    2    0    0  0.88817841970E-15  0.00000000000E+00 -0.25223154143E+03  0.26459187488E+03  0.79925651469E+02 0.  0.
         66    2    3    3    0    0 -0.68766250470E+01  0.24326260461E+02 -0.22855018726E+03  0.22995269736E+03  0.20000019449E+01 0.  0.
        -13    1    3    3    0    0  0.68766250470E+01 -0.24326260461E+02 -0.23681354172E+02  0.34639177524E+02  0.10566000000E+00 0.  1.
         13    1    4    4    0    0 -0.54050455723E+01  0.16169661854E+02 -0.14968440760E+03  0.15065226691E+03  0.10566000000E+00 0. -1.
        -13    1    4    4    0    0 -0.57357981176E+00  0.28091246003E+01 -0.27252423717E+02  0.27403027886E+02  0.10566000000E+00 0.  1.
         14    1    4    4    0    0 -0.89799966289E+00  0.53474740066E+01 -0.51613355941E+02  0.51897402566E+02  0.00000000000E+00 0. -1.
<mgrwt>
<rscale>  0 0.79925651E+02</rscale>
<asrwt>0</asrwt>
<pdfrwt beam="1">  1        2 0.39755639E-01 0.79925651E+02</pdfrwt>
<pdfrwt beam="2">  1       -1 0.95079508E-03 0.79925651E+02</pdfrwt>
<totfact> 0.24212824E+05</totfact>
</mgrwt>
</event>
<event>
 8    1  0.1600673E-013  0.8086495E+02  0.7818608E-02  0.1326615E+00
         -1   -1    0    0    0  501 -0.00000000000E+00  0.00000000000E+00  0.17986685347E+03  0.17986685354E+03  0.50400000000E-02 0.  1.
          2   -1    0    0  501    0  0.00000000000E+00 -0.00000000000E+00 -0.90888608383E+01  0.90888611960E+01  0.25500000000E-02 0. -1.
         24    2    1    2    0    0 -0.35527136788E-14  0.88817841970E-15  0.17077799263E+03  0.18895571474E+03  0.80864945213E+02 0.  0.
         66    2    3    3    0    0 -0.31354690449E+02  0.70806029633E+01  0.28226783980E+02  0.42825259993E+02  0.20000020384E+01 0.  0.
        -13    1    3    3    0    0  0.31354690449E+02 -0.70806029633E+01  0.14255120865E+03  0.14613045475E+03  0.10566000000E+00 0.  1.
         13    1    4    4    0    0 -0.10966994871E+02  0.21608119729E+01  0.88744236693E+01  0.14272723790E+02  0.10566000000E+00 0. -1.
        -13    1    4    4    0    0 -0.20074091280E+02  0.47472160330E+01  0.18915138337E+02  0.27987476184E+02  0.10566000000E+00 0.  1.
         14    1    4    4    0    0 -0.31360429744E+00  0.17257495751E+00  0.43722197312E+00  0.56506001903E+00  0.00000000000E+00 0. -1.
<mgrwt>
<rscale>  0 0.80864945E+02</rscale>
<asrwt>0</asrwt>
<pdfrwt beam="1">  1        2 0.13982864E-02 0.80864945E+02</pdfrwt>
<pdfrwt beam="2">  1       -1 0.27671822E-01 0.80864945E+02</pdfrwt>
<totfact> 0.99977229E+04</totfact>
</mgrwt>
</event>
<event>
 8    1  0.1600673E-013  0.8103941E+02  0.7818608E-02  0.1326127E+00
         -1   -1    0    0    0  501 -0.00000000000E+00  0.00000000000E+00  0.10236790384E+02  0.10236791625E+02  0.50400000000E-02 0.  1.
          2   -1    0    0  501    0  0.00000000000E+00 -0.00000000000E+00 -0.16038683307E+03  0.16038683309E+03  0.25500000000E-02 0. -1.
         24    2    1    2    0    0  0.35527136788E-14 -0.35527136788E-14 -0.15015004269E+03  0.17062362472E+03  0.81039410118E+02 0.  0.
         66    2    3    3    0    0 -0.27455909665E+02  0.20933914729E+02 -0.11967373047E+03  0.12457069287E+03  0.19999988177E+01 0.  0.
        -13    1    3    3    0    0  0.27455909665E+02 -0.20933914729E+02 -0.30476312212E+02  0.46052931845E+02  0.10566000000E+00 0.  1.
         13    1    4    4    0    0 -0.66636162434E+01  0.57889026135E+01 -0.30517916320E+02  0.31769003060E+02  0.10566000000E+00 0. -1.
        -13    1    4    4    0    0 -0.19009432454E+00  0.22650368267E+00 -0.88674906048E+00  0.94070595956E+00  0.10566000000E+00 0. -1.
         14    1    4    4    0    0 -0.20602199097E+02  0.14918508433E+02 -0.88269065094E+02  0.91860983851E+02  0.00000000000E+00 0. -1.
<mgrwt>
<rscale>  0 0.81039410E+02</rscale>
<asrwt>0</asrwt>
<pdfrwt beam="1">  1        2 0.24674896E-01 0.81039410E+02</pdfrwt>
<pdfrwt beam="2">  1       -1 0.15748910E-02 0.81039410E+02</pdfrwt>
<totfact> 0.19782206E+05</totfact>
</mgrwt>
</event>
<event>
 8    1  0.1600673E-013  0.8086748E+02  0.7818608E-02  0.1326608E+00
          2   -1    0    0  501    0  0.00000000000E+00  0.00000000000E+00  0.18122801434E+02  0.18122801614E+02  0.25500000000E-02 0. -1.
         -1   -1    0    0    0  501 -0.00000000000E+00 -0.00000000000E+00 -0.90211629797E+02  0.90211629938E+02  0.50400000000E-02 0.  1.
         24    2    1    2    0    0  0.00000000000E+00  0.00000000000E+00 -0.72088828363E+02  0.10833443155E+03  0.80867483483E+02 0.  0.
         66    2    3    3    0    0  0.29495788121E+02  0.16290096101E+02 -0.61853998863E+01  0.34316583725E+02  0.19999997397E+01 0.  0.
        -13    1    3    3    0    0 -0.29495788121E+02 -0.16290096101E+02 -0.65903428477E+02  0.74017847827E+02  0.10566000000E+00 0.  1.
         13    1    4    4    0    0  0.23463487639E+02  0.12585892219E+02 -0.46624510446E+01  0.27031269835E+02  0.10566000000E+00 0. -1.
        -13    1    4    4    0    0  0.34257477172E+01  0.21882796181E+01 -0.12667853471E+01  0.42591342149E+01  0.10566000000E+00 0.  1.
         14    1    4    4    0    0  0.26065527649E+01  0.15159242634E+01 -0.25616349458E+00  0.30261796749E+01  0.00000000000E+00 0. -1.
<mgrwt>
<rscale>  0 0.80867483E+02</rscale>
<asrwt>0</asrwt>
<pdfrwt beam="1">  1        2 0.27881234E-02 0.80867483E+02</pdfrwt>
<pdfrwt beam="2">  1       -1 0.13878712E-01 0.80867483E+02</pdfrwt>
<totfact> 0.11793691E+05</totfact>
</mgrwt>
</event>
<event>
 8    1  0.1600673E-013  0.8035481E+02  0.7818608E-02  0.1328048E+00
          2   -1    0    0  501    0  0.00000000000E+00  0.00000000000E+00  0.41466757365E+02  0.41466757443E+02  0.25500000000E-02 0. -1.
         -1   -1    0    0    0  501 -0.00000000000E+00 -0.00000000000E+00 -0.38928141458E+02  0.38928141784E+02  0.50400000000E-02 0.  1.
         24    2    1    2    0    0  0.00000000000E+00  0.00000000000E+00  0.25386159067E+01  0.80394899227E+02  0.80354808512E+02 0.  0.
         66    2    3    3    0    0  0.30801886264E+02  0.19018655343E+02  0.18649809467E+02  0.40771078482E+02  0.19999997448E+01 0.  0.
        -13    1    3    3    0    0 -0.30801886264E+02 -0.19018655343E+02 -0.16111193560E+02  0.39623820745E+02  0.10566000000E+00 0.  1.
         13    1    4    4    0    0  0.42353757851E+01  0.27453623396E+01  0.24982105300E+01  0.56327295607E+01  0.10566000000E+00 0. -1.
        -13    1    4    4    0    0  0.14949066925E+02  0.10186229300E+02  0.94862332598E+01  0.20426298117E+02  0.10566000000E+00 0.  1.
         14    1    4    4    0    0  0.11617443554E+02  0.60870637033E+01  0.66653656769E+01  0.14712050804E+02  0.00000000000E+00 0. -1.
<mgrwt>
<rscale>  0 0.80354809E+02</rscale>
<asrwt>0</asrwt>
<pdfrwt beam="1">  1        2 0.63795012E-02 0.80354809E+02</pdfrwt>
<pdfrwt beam="2">  1       -1 0.59889449E-02 0.80354809E+02</pdfrwt>
<totfact> 0.14187131E+05</totfact>
</mgrwt>
</event>
<event>
 8    1  0.1600673E-013  0.8732365E+02  0.7818608E-02  0.1309465E+00
         -1   -1    0    0    0  501 -0.00000000000E+00  0.00000000000E+00  0.25624922017E+02  0.25624922512E+02  0.50400000000E-02 0.  1.
          2   -1    0    0  501    0  0.00000000000E+00 -0.00000000000E+00 -0.74394565531E+02  0.74394565575E+02  0.25500000000E-02 0. -1.
         24    2    1    2    0    0 -0.17763568394E-14 -0.88817841970E-15 -0.48769643515E+02  0.10001948809E+03  0.87323650111E+02 0.  0.
         66    2    3    3    0    0 -0.89887199475E+01 -0.68068458834E+01 -0.72683807814E+02  0.73580338038E+02  0.19999975508E+01 0.  0.
        -13    1    3    3    0    0  0.89887199475E+01  0.68068458834E+01  0.23914164299E+02  0.26439150050E+02  0.10566000000E+00 0.  1.
         13    1    4    4    0    0 -0.13555005982E+01 -0.10953708876E+01 -0.15153581747E+02  0.15253833061E+02  0.10566000000E+00 0. -1.
        -13    1    4    4    0    0 -0.10093976585E+01 -0.10812344241E+01 -0.11023687982E+02  0.11122985762E+02  0.10566000000E+00 0.  1.
         14    1    4    4    0    0 -0.66238216908E+01 -0.46302405716E+01 -0.46506538086E+02  0.47203519215E+02  0.00000000000E+00 0. -1.
<mgrwt>
<rscale>  0 0.87323650E+02</rscale>
<asrwt>0</asrwt>
<pdfrwt beam="1">  1        2 0.11445318E-01 0.87323650E+02</pdfrwt>
<pdfrwt beam="2">  1       -1 0.39422958E-02 0.87323650E+02</pdfrwt>
<totfact> 0.12919582E+05</totfact>
</mgrwt>
</event>
<event>
 8    1  0.1600673E-013  0.7801372E+02  0.7818608E-02  0.1334785E+00
          2   -1    0    0  501    0  0.00000000000E+00  0.00000000000E+00  0.46389205460E+02  0.46389205530E+02  0.25500000000E-02 0. -1.
         -1   -1    0    0    0  501 -0.00000000000E+00 -0.00000000000E+00 -0.32799338581E+02  0.32799338968E+02  0.50400000000E-02 0.  1.
         24    2    1    2    0    0  0.00000000000E+00  0.00000000000E+00  0.13589866880E+02  0.79188544498E+02  0.78013723780E+02 0.  0.
         66    2    3    3    0    0 -0.19608659158E+02  0.33317376981E+02  0.11872979336E+02  0.40490921965E+02  0.20000001068E+01 0.  0.
        -13    1    3    3    0    0  0.19608659158E+02 -0.33317376981E+02  0.17168875441E+01  0.38697622533E+02  0.10566000000E+00 0.  1.
         13    1    4    4    0    0 -0.61584667633E+01  0.99836999244E+01  0.40552904671E+01  0.12411991052E+02  0.10566000000E+00 0. -1.
        -13    1    4    4    0    0 -0.13462249472E+02  0.23209652488E+02  0.78374551594E+01  0.27952763671E+02  0.10566000000E+00 0.  1.
        -14    1    4    4    0    0  0.12057077622E-01  0.12402456863E+00 -0.19766290919E-01  0.12616724219E+00  0.00000000000E+00 0.  1.
<mgrwt>
<rscale>  0 0.78013724E+02</rscale>
<asrwt>0</asrwt>
<pdfrwt beam="1">  1        2 0.71368008E-02 0.78013724E+02</pdfrwt>
<pdfrwt beam="2">  1       -1 0.50460522E-02 0.78013724E+02</pdfrwt>
<totfact> 0.15753299E+05</totfact>
</mgrwt>
</event>
<event>
 8    1  0.1600673E-013  0.8117773E+02  0.7818608E-02  0.1325742E+00
          2   -1    0    0  501    0  0.00000000000E+00  0.00000000000E+00  0.81324234728E+03  0.81324234728E+03  0.25500000000E-02 0. -1.
         -1   -1    0    0    0  501 -0.00000000000E+00 -0.00000000000E+00 -0.20257841943E+01  0.20257904638E+01  0.50400000000E-02 0.  1.
         24    2    1    2    0    0 -0.35527136788E-14 -0.35527136788E-14  0.81121656308E+03  0.81526813774E+03  0.81177732182E+02 0.  0.
         66    2    3    3    0    0  0.21814583651E+02  0.20530502486E+02  0.68053926555E+03  0.68120119609E+03  0.19999991173E+01 0.  0.
        -13    1    3    3    0    0 -0.21814583651E+02 -0.20530502486E+02  0.13067729753E+03  0.13406694166E+03  0.10566000000E+00 0.  1.
         13    1    4    4    0    0  0.60445385682E+01  0.57399003487E+01  0.17747710998E+03  0.17767278530E+03  0.10566000000E+00 0. -1.
        -13    1    4    4    0    0  0.48609724490E+01  0.37631601040E+01  0.14719838165E+03  0.14732672925E+03  0.10566000000E+00 0.  1.
        -14    1    4    4    0    0  0.10909072634E+02  0.11027442033E+02  0.35586377392E+03  0.35620168154E+03  0.00000000000E+00 0.  1.
<mgrwt>
<rscale>  0 0.81177732E+02</rscale>
<asrwt>0</asrwt>
<pdfrwt beam="1">  1        2 0.12511403E+00 0.81177732E+02</pdfrwt>
<pdfrwt beam="2">  1       -1 0.31166003E-03 0.81177732E+02</pdfrwt>
<totfact> 0.33176280E+05</totfact>
</mgrwt>
</event>
<event>
 8    1  0.1600673E-013  0.7713324E+02  0.7818608E-02  0.1337389E+00
         -1   -1    0    0    0  501 -0.00000000000E+00  0.00000000000E+00  0.18753355289E+02  0.18753355966E+02  0.50400000000E-02 0.  1.
          2   -1    0    0  501    0  0.00000000000E+00 -0.00000000000E+00 -0.79312970814E+02  0.79312970855E+02  0.25500000000E-02 0. -1.
         24    2    1    2    0    0  0.00000000000E+00  0.00000000000E+00 -0.60559615525E+02  0.98066326822E+02  0.77133244608E+02 0.  0.
         66    2    3    3    0    0  0.25764433380E+02 -0.22771842458E+02 -0.81685744262E+01  0.35398989334E+02  0.20000003413E+01 0.  0.
        -13    1    3    3    0    0 -0.25764433380E+02  0.22771842458E+02 -0.52391041099E+02  0.62667337488E+02  0.10566000000E+00 0.  1.
         13    1    4    4    0    0  0.14198225722E+02 -0.13160708270E+02 -0.49412483976E+01  0.19980514397E+02  0.10566000000E+00 0. -1.
        -13    1    4    4    0    0  0.50043379600E+01 -0.35195088225E+01 -0.14939527089E+01  0.62986823624E+01  0.10566000000E+00 0.  1.
         14    1    4    4    0    0  0.65618696984E+01 -0.60916253653E+01 -0.17333733198E+01  0.91197925741E+01  0.00000000000E+00 0. -1.
<mgrwt>
<rscale>  0 0.77133245E+02</rscale>
<asrwt>0</asrwt>
<pdfrwt beam="1">  1        2 0.12201995E-01 0.77133245E+02</pdfrwt>
<pdfrwt beam="2">  1       -1 0.28851317E-02 0.77133245E+02</pdfrwt>
<totfact> 0.18377241E+05</totfact>
</mgrwt>
</event>
<event>
 8    1  0.1600673E-013  0.8086917E+02  0.7818608E-02  0.1326603E+00
          2   -1    0    0  501    0  0.00000000000E+00  0.00000000000E+00  0.77761573149E+03  0.77761573149E+03  0.25500000000E-02 0. -1.
         -1   -1    0    0    0  501 -0.00000000000E+00 -0.00000000000E+00 -0.21025210190E+01  0.21025270597E+01  0.50400000000E-02 0.  1.
         24    2    1    2    0    0 -0.35527136788E-14  0.44408920985E-15  0.77551321047E+03  0.77971825855E+03  0.80869172787E+02 0.  0.
         66    2    3    3    0    0  0.31825244479E+02 -0.27944453017E+01  0.62657380818E+03  0.62739094049E+03  0.19999992461E+01 0.  0.
        -13    1    3    3    0    0 -0.31825244479E+02  0.27944453017E+01  0.14893940229E+03  0.15232731806E+03  0.10566000000E+00 0.  1.
         13    1    4    4    0    0  0.12900329131E+02 -0.11012288953E+01  0.25793128282E+03  0.25825605320E+03  0.10566000000E+00 0. -1.
        -13    1    4    4    0    0  0.14224875276E+02 -0.16982941328E+01  0.28660912039E+03  0.28696694990E+03  0.10566000000E+00 0.  1.
        -14    1    4    4    0    0  0.47000400713E+01  0.50777264413E-02  0.82033404977E+02  0.82167937388E+02  0.00000000000E+00 0.  1.
<mgrwt>
<rscale>  0 0.80869173E+02</rscale>
<asrwt>0</asrwt>
<pdfrwt beam="1">  1        2 0.11963317E+00 0.80869173E+02</pdfrwt>
<pdfrwt beam="2">  1       -1 0.32346529E-03 0.80869173E+02</pdfrwt>
<totfact> 0.33244343E+05</totfact>
</mgrwt>
</event>
<event>
 8    1  0.1600673E-013  0.7950557E+02  0.7818608E-02  0.1330460E+00
         -1   -1    0    0    0  501 -0.00000000000E+00  0.00000000000E+00  0.30561869189E+01  0.30561910747E+01  0.50400000000E-02 0.  1.
          2   -1    0    0  501    0  0.00000000000E+00 -0.00000000000E+00 -0.51707663829E+03  0.51707663829E+03  0.25500000000E-02 0. -1.
         24    2    1    2    0    0  0.00000000000E+00  0.00000000000E+00 -0.51402045137E+03  0.52013282937E+03  0.79505570633E+02 0.  0.
         66    2    3    3    0    0  0.17409121647E+02  0.21404088517E+02 -0.44417404085E+03  0.44503459538E+03  0.19999995364E+01 0.  0.
        -13    1    3    3    0    0 -0.17409121647E+02 -0.21404088517E+02 -0.69846410514E+02  0.75098233984E+02  0.10566000000E+00 0.  1.
         13    1    4    4    0    0  0.72375086232E+01  0.82474475507E+01 -0.16759306973E+03  0.16795192797E+03  0.10566000000E+00 0. -1.
        -13    1    4    4    0    0  0.45618128605E+01  0.66320137266E+01 -0.13886379069E+03  0.13909693480E+03  0.10566000000E+00 0.  1.
         14    1    4    4    0    0  0.56098001638E+01  0.65246272399E+01 -0.13771718043E+03  0.13798573261E+03  0.00000000000E+00 0. -1.
<mgrwt>
<rscale>  0 0.79505571E+02</rscale>
<asrwt>0</asrwt>
<pdfrwt beam="1">  1        2 0.79550182E-01 0.79505571E+02</pdfrwt>
<pdfrwt beam="2">  1       -1 0.47018334E-03 0.79505571E+02</pdfrwt>
<totfact> 0.31276684E+05</totfact>
</mgrwt>
</event>
<event>
 8    1  0.1600673E-013  0.8471034E+02  0.7818608E-02  0.1316192E+00
          2   -1    0    0  501    0  0.00000000000E+00  0.00000000000E+00  0.86853766216E+02  0.86853766253E+02  0.25500000000E-02 0. -1.
         -1   -1    0    0    0  501 -0.00000000000E+00 -0.00000000000E+00 -0.20654953552E+02  0.20654954167E+02  0.50400000000E-02 0.  1.
         24    2    1    2    0    0  0.00000000000E+00  0.00000000000E+00  0.66198812664E+02  0.10750872042E+03  0.84710342746E+02 0.  0.
         66    2    3    3    0    0 -0.24394362670E+02  0.22199553918E+02  0.66792923238E+02  0.74519794162E+02  0.20000007693E+01 0.  0.
        -13    1    3    3    0    0  0.24394362670E+02 -0.22199553918E+02 -0.59411057388E+00  0.32988926258E+02  0.10566000000E+00 0.  1.
         13    1    4    4    0    0 -0.81441690455E+01  0.69362137305E+01  0.22786507783E+02  0.25172895172E+02  0.10566000000E+00 0. -1.
        -13    1    4    4    0    0 -0.73896511890E+01  0.64674037931E+01  0.20479975080E+02  0.22712877401E+02  0.10566000000E+00 0.  1.
        -14    1    4    4    0    0 -0.88605424355E+01  0.87959363941E+01  0.23526440375E+02  0.26634021589E+02  0.00000000000E+00 0.  1.
<mgrwt>
<rscale>  0 0.84710343E+02</rscale>
<asrwt>0</asrwt>
<pdfrwt beam="1">  1        2 0.13362118E-01 0.84710343E+02</pdfrwt>
<pdfrwt beam="2">  1       -1 0.31776852E-02 0.84710343E+02</pdfrwt>
<totfact> 0.14617216E+05</totfact>
</mgrwt>
</event>
<event>
 8    1  0.1600673E-013  0.8045592E+02  0.7818608E-02  0.1327763E+00
         -1   -1    0    0    0  501 -0.00000000000E+00  0.00000000000E+00  0.14049420342E+03  0.14049420351E+03  0.50400000000E-02 0.  1.
          2   -1    0    0  501    0  0.00000000000E+00 -0.00000000000E+00 -0.11518545840E+02  0.11518546123E+02  0.25500000000E-02 0. -1.
         24    2    1    2    0    0 -0.88817841970E-15  0.00000000000E+00  0.12897565758E+03  0.15201274963E+03  0.80455924598E+02 0.  0.
         66    2    3    3    0    0  0.70296049436E+01 -0.20808544080E+02  0.90602104993E+00  0.22073325988E+02  0.19999984046E+01 0.  0.
        -13    1    3    3    0    0 -0.70296049436E+01  0.20808544080E+02  0.12806963653E+03  0.12993942365E+03  0.10566000000E+00 0.  1.
         13    1    4    4    0    0  0.49630537242E+01 -0.15481623799E+02  0.10423210207E+00  0.16258370340E+02  0.10566000000E+00 0. -1.
        -13    1    4    4    0    0  0.17013185380E+00 -0.11842839238E+01  0.10158656119E+00  0.12053867117E+01  0.10566000000E+00 0.  1.
         14    1    4    4    0    0  0.18964193656E+01 -0.41426363570E+01  0.70020238667E+00  0.46095689364E+01  0.00000000000E+00 0. -1.
<mgrwt>
<rscale>  0 0.80455925E+02</rscale>
<asrwt>0</asrwt>
<pdfrwt beam="1">  1        2 0.17720840E-02 0.80455925E+02</pdfrwt>
<pdfrwt beam="2">  1       -1 0.21614493E-01 0.80455925E+02</pdfrwt>
<totfact> 0.10809676E+05</totfact>
</mgrwt>
</event>
<event>
 8    1  0.1600673E-013  0.7861873E+02  0.7818608E-02  0.1333018E+00
         -1   -1    0    0    0  501 -0.00000000000E+00  0.00000000000E+00  0.40787731158E+01  0.40787762297E+01  0.50400000000E-02 0.  1.
          2   -1    0    0  501    0  0.00000000000E+00 -0.00000000000E+00 -0.37884565707E+03  0.37884565708E+03  0.25500000000E-02 0. -1.
         24    2    1    2    0    0  0.00000000000E+00  0.71054273576E-14 -0.37476688395E+03  0.38292443331E+03  0.78618727513E+02 0.  0.
         66    2    3    3    0    0 -0.89083582896E+01  0.38246950278E+02 -0.19245494395E+03  0.19643088735E+03  0.20000000626E+01 0.  0.
        -13    1    3    3    0    0  0.89083582896E+01 -0.38246950278E+02 -0.18231194000E+03  0.18649354596E+03  0.10566000000E+00 0.  1.
         13    1    4    4    0    0 -0.59314151991E+01  0.28773780346E+02 -0.14423952644E+03  0.14720110147E+03  0.10566000000E+00 0. -1.
        -13    1    4    4    0    0 -0.10898106333E+01  0.29026895858E+01 -0.14439033131E+02  0.14768552259E+02  0.10566000000E+00 0.  1.
         14    1    4    4    0    0 -0.18871324572E+01  0.65704803462E+01 -0.33776384377E+02  0.34461233618E+02  0.00000000000E+00 0. -1.
<mgrwt>
<rscale>  0 0.78618728E+02</rscale>
<asrwt>0</asrwt>
<pdfrwt beam="1">  1        2 0.58283920E-01 0.78618728E+02</pdfrwt>
<pdfrwt beam="2">  1       -1 0.62750410E-03 0.78618728E+02</pdfrwt>
<totfact> 0.29008330E+05</totfact>
</mgrwt>
</event>
<event>
 8    1  0.1600673E-013  0.7492362E+02  0.7818608E-02  0.1344108E+00
         -1   -1    0    0    0  501 -0.00000000000E+00  0.00000000000E+00  0.32271758345E+01  0.32271797701E+01  0.50400000000E-02 0.  1.
          2   -1    0    0  501    0  0.00000000000E+00 -0.00000000000E+00 -0.43486511079E+03  0.43486511079E+03  0.25500000000E-02 0. -1.
         24    2    1    2    0    0  0.00000000000E+00 -0.71054273576E-14 -0.43163793495E+03  0.43809229056E+03  0.74923615517E+02 0.  0.
         66    2    3    3    0    0 -0.86373123443E+01 -0.32010291493E+02 -0.31760580248E+03  0.31933792085E+03  0.19999995309E+01 0.  0.
        -13    1    3    3    0    0  0.86373123443E+01  0.32010291493E+02 -0.11403213247E+03  0.11875436972E+03  0.10566000000E+00 0.  1.
         13    1    4    4    0    0 -0.43448703596E+01 -0.16495948967E+02 -0.16104958572E+03  0.16195053089E+03  0.10566000000E+00 0. -1.
        -13    1    4    4    0    0 -0.39368136986E+01 -0.12783468438E+02 -0.13286811055E+03  0.13353973765E+03  0.10566000000E+00 0.  1.
        -14    1    4    4    0    0 -0.35562828607E+00 -0.27308740874E+01 -0.23688106208E+02  0.23847652305E+02  0.00000000000E+00 0.  1.
<mgrwt>
<rscale>  0 0.74923616E+02</rscale>
<asrwt>0</asrwt>
<pdfrwt beam="1">  1        2 0.66902278E-01 0.74923616E+02</pdfrwt>
<pdfrwt beam="2">  1       -1 0.49648924E-03 0.74923616E+02</pdfrwt>
<totfact> 0.34487068E+05</totfact>
</mgrwt>
</event>
<event>
 8    1  0.1600673E-013  0.7765074E+02  0.7818608E-02  0.1335854E+00
          2   -1    0    0  501    0  0.00000000000E+00  0.00000000000E+00  0.38045472790E+02  0.38045472875E+02  0.25500000000E-02 0. -1.
         -1   -1    0    0    0  501 -0.00000000000E+00 -0.00000000000E+00 -0.39621251140E+02  0.39621251460E+02  0.50400000000E-02 0.  1.
         24    2    1    2    0    0  0.00000000000E+00 -0.17763568394E-14 -0.15757783497E+01  0.77666724335E+02  0.77650737225E+02 0.  0.
         66    2    3    3    0    0  0.33118407027E+02  0.14734499838E+02 -0.14628526159E+02  0.39139853727E+02  0.20000006765E+01 0.  0.
        -13    1    3    3    0    0 -0.33118407027E+02 -0.14734499838E+02  0.13052747809E+02  0.38526870608E+02  0.10566000000E+00 0.  1.
         13    1    4    4    0    0  0.22910905455E+02  0.97833195422E+01 -0.10821478614E+02  0.27161341894E+02  0.10566000000E+00 0. -1.
        -13    1    4    4    0    0  0.59338092213E+01  0.31133439467E+01 -0.23935493685E+01  0.71164067493E+01  0.10566000000E+00 0.  1.
         14    1    4    4    0    0  0.42736923506E+01  0.18378363494E+01 -0.14134981762E+01  0.48621050841E+01  0.00000000000E+00 0. -1.
<mgrwt>
<rscale>  0 0.77650737E+02</rscale>
<asrwt>0</asrwt>
<pdfrwt beam="1">  1        2 0.58531497E-02 0.77650737E+02</pdfrwt>
<pdfrwt beam="2">  1       -1 0.60955772E-02 0.77650737E+02</pdfrwt>
<totfact> 0.15321703E+05</totfact>
</mgrwt>
</event>
<event>
 8    1  0.1600673E-013  0.7872166E+02  0.7818608E-02  0.1332719E+00
         -1   -1    0    0    0  501 -0.00000000000E+00  0.00000000000E+00  0.44329177062E+01  0.44329205713E+01  0.50400000000E-02 0.  1.
          2   -1    0    0  501    0  0.00000000000E+00 -0.00000000000E+00 -0.34949319091E+03  0.34949319092E+03  0.25500000000E-02 0. -1.
         24    2    1    2    0    0  0.00000000000E+00  0.00000000000E+00 -0.34506027321E+03  0.35392611149E+03  0.78721663165E+02 0.  0.
         66    2    3    3    0    0  0.13330650092E+02  0.16466415025E+02 -0.32164684939E+03  0.32235003456E+03  0.20000005958E+01 0.  0.
        -13    1    3    3    0    0 -0.13330650092E+02 -0.16466415025E+02 -0.23413423814E+02  0.31576076931E+02  0.10566000000E+00 0.  1.
         13    1    4    4    0    0  0.23476900575E+01  0.21082097632E+01 -0.50674386978E+02  0.50772638859E+02  0.10566000000E+00 0. -1.
        -13    1    4    4    0    0  0.11819776617E+01  0.11155510143E+01 -0.27449109513E+02  0.27497387191E+02  0.10566000000E+00 0.  1.
        -14    1    4    4    0    0  0.98009823725E+01  0.13242654247E+02 -0.24352335290E+03  0.24408000851E+03  0.00000000000E+00 0.  1.
<mgrwt>
<rscale>  0 0.78721663E+02</rscale>
<asrwt>0</asrwt>
<pdfrwt beam="1">  1        2 0.53768162E-01 0.78721663E+02</pdfrwt>
<pdfrwt beam="2">  1       -1 0.68198784E-03 0.78721663E+02</pdfrwt>
<totfact> 0.28094246E+05</totfact>
</mgrwt>
</event>
<event>
 8    1  0.1600673E-013  0.7626549E+02  0.7818608E-02  0.1339996E+00
          2   -1    0    0  501    0  0.00000000000E+00  0.00000000000E+00  0.12637088806E+04  0.12637088806E+04  0.25500000000E-02 0. -1.
         -1   -1    0    0    0  501 -0.00000000000E+00 -0.00000000000E+00 -0.11506599134E+01  0.11506709512E+01  0.50400000000E-02 0.  1.
         24    2    1    2    0    0 -0.22204460493E-15  0.00000000000E+00  0.12625582206E+04  0.12648595515E+04  0.76265487171E+02 0.  0.
         66    2    3    3    0    0 -0.18369919692E+01 -0.17992168065E+02  0.11879904048E+04  0.11881297465E+04  0.20000009411E+01 0.  0.
        -13    1    3    3    0    0  0.18369919692E+01  0.17992168065E+02  0.74567815859E+02  0.76729805012E+02  0.10566000000E+00 0.  1.
         13    1    4    4    0    0 -0.85359892153E-01 -0.60912494028E+01  0.35999578874E+03  0.36004734366E+03  0.10566000000E+00 0.  1.
        -13    1    4    4    0    0 -0.78091258570E+00 -0.78866881216E+01  0.53803737170E+03  0.53809574816E+03  0.10566000000E+00 0. -1.
        -14    1    4    4    0    0 -0.97071949132E+00 -0.40142305406E+01  0.28995724434E+03  0.28998665468E+03  0.00000000000E+00 0.  1.
<mgrwt>
<rscale>  0 0.76265487E+02</rscale>
<asrwt>0</asrwt>
<pdfrwt beam="1">  1        2 0.19441716E+00 0.76265487E+02</pdfrwt>
<pdfrwt beam="2">  1       -1 0.17702508E-03 0.76265487E+02</pdfrwt>
<totfact> 0.39378350E+05</totfact>
</mgrwt>
</event>
<event>
 8    1  0.1600673E-013  0.7968219E+02  0.7818608E-02  0.1329956E+00
          2   -1    0    0  501    0  0.00000000000E+00  0.00000000000E+00  0.36136887586E+02  0.36136887676E+02  0.25500000000E-02 0. -1.
         -1   -1    0    0    0  501 -0.00000000000E+00 -0.00000000000E+00 -0.43925005339E+02  0.43925005628E+02  0.50400000000E-02 0.  1.
         24    2    1    2    0    0  0.00000000000E+00  0.11102230246E-15 -0.77881177526E+01  0.80061893304E+02  0.79682193627E+02 0.  0.
         66    2    3    3    0    0  0.35466466290E+02  0.76744074552E+00  0.14268605362E+02  0.38289062480E+02  0.20000025499E+01 0.  0.
        -13    1    3    3    0    0 -0.35466466290E+02 -0.76744074552E+00 -0.22056723115E+02  0.41772830824E+02  0.10566000000E+00 0.  1.
         13    1    4    4    0    0  0.22439758665E+02  0.91744817813E-01  0.86231216875E+01  0.24039978738E+02  0.10566000000E+00 0. -1.
        -13    1    4    4    0    0  0.24966142370E+01  0.74349029924E-01  0.67598539214E+00  0.25897356453E+01  0.10566000000E+00 0.  1.
        -14    1    4    4    0    0  0.10530093388E+02  0.60134689778E+00  0.49694982828E+01  0.11659348097E+02  0.00000000000E+00 0.  1.
<mgrwt>
<rscale>  0 0.79682194E+02</rscale>
<asrwt>0</asrwt>
<pdfrwt beam="1">  1        2 0.55595212E-02 0.79682194E+02</pdfrwt>
<pdfrwt beam="2">  1       -1 0.67576931E-02 0.79682194E+02</pdfrwt>
<totfact> 0.14118702E+05</totfact>
</mgrwt>
</event>
<event>
 8    1  0.1600673E-013  0.7796872E+02  0.7818608E-02  0.1334917E+00
          2   -1    0    0  501    0  0.00000000000E+00  0.00000000000E+00  0.69225828737E+03  0.69225828737E+03  0.25500000000E-02 0. -1.
         -1   -1    0    0    0  501 -0.00000000000E+00 -0.00000000000E+00 -0.21953918520E+01  0.21953976372E+01  0.50400000000E-02 0.  1.
         24    2    1    2    0    0 -0.35527136788E-14  0.00000000000E+00  0.69006289551E+03  0.69445368501E+03  0.77968717163E+02 0.  0.
         66    2    3    3    0    0  0.28246060061E+02 -0.81434590758E+01  0.57296956033E+03  0.57372665348E+03  0.20000014312E+01 0.  0.
        -13    1    3    3    0    0 -0.28246060061E+02  0.81434590758E+01  0.11709333518E+03  0.12072703153E+03  0.10566000000E+00 0.  1.
         13    1    4    4    0    0  0.14190459826E+02 -0.39119396534E+01  0.28522801541E+03  0.28560760558E+03  0.10566000000E+00 0. -1.
        -13    1    4    4    0    0  0.10522714180E+02 -0.37596619956E+01  0.22137364866E+03  0.22165551213E+03  0.10566000000E+00 0.  1.
        -14    1    4    4    0    0  0.35328860559E+01 -0.47185742684E+00  0.66367896264E+02  0.66463535776E+02  0.00000000000E+00 0.  1.
<mgrwt>
<rscale>  0 0.77968717E+02</rscale>
<asrwt>0</asrwt>
<pdfrwt beam="1">  1        2 0.10650116E+00 0.77968717E+02</pdfrwt>
<pdfrwt beam="2">  1       -1 0.33775341E-03 0.77968717E+02</pdfrwt>
<totfact> 0.35669995E+05</totfact>
</mgrwt>
</event>
<event>
 8    1  0.1600673E-013  0.7847707E+02  0.7818608E-02  0.1333430E+00
         -1   -1    0    0    0  501 -0.00000000000E+00  0.00000000000E+00  0.19774114174E+02  0.19774114816E+02  0.50400000000E-02 0.  1.
          2   -1    0    0  501    0  0.00000000000E+00 -0.00000000000E+00 -0.77862540252E+02  0.77862540294E+02  0.25500000000E-02 0. -1.
         24    2    1    2    0    0  0.22204460493E-15 -0.71054273576E-14 -0.58088426078E+02  0.97636655110E+02  0.78477074211E+02 0.  0.
         66    2    3    3    0    0  0.15484673108E+01 -0.33036244991E+02 -0.55274793573E+02  0.64444503537E+02  0.19999993962E+01 0.  0.
        -13    1    3    3    0    0 -0.15484673108E+01  0.33036244991E+02 -0.28136325056E+01  0.33192151572E+02  0.10566000000E+00 0.  1.
         13    1    4    4    0    0  0.10289015375E+01 -0.24426175125E+02 -0.39400790865E+02  0.46369495948E+02  0.10566000000E+00 0. -1.
        -13    1    4    4    0    0  0.16135223212E+00 -0.70462753896E+00 -0.13194675902E+01  0.15082086290E+01  0.10566000000E+00 0.  1.
         14    1    4    4    0    0  0.35821354118E+00 -0.79054423268E+01 -0.14554535117E+02  0.16566798960E+02  0.00000000000E+00 0. -1.
<mgrwt>
<rscale>  0 0.78477074E+02</rscale>
<asrwt>0</asrwt>
<pdfrwt beam="1">  1        2 0.11978852E-01 0.78477074E+02</pdfrwt>
<pdfrwt beam="2">  1       -1 0.30421715E-02 0.78477074E+02</pdfrwt>
<totfact> 0.17461902E+05</totfact>
</mgrwt>
</event>
<event>
 8    1  0.1600673E-013  0.8192176E+02  0.7818608E-02  0.1323685E+00
         -1   -1    0    0    0  501 -0.00000000000E+00  0.00000000000E+00  0.69242114779E+02  0.69242114962E+02  0.50400000000E-02 0.  1.
          2   -1    0    0  501    0  0.00000000000E+00 -0.00000000000E+00 -0.24230828395E+02  0.24230828529E+02  0.25500000000E-02 0. -1.
         24    2    1    2    0    0 -0.17763568394E-14  0.00000000000E+00  0.45011286384E+02  0.93472943491E+02  0.81921763060E+02 0.  0.
         66    2    3    3    0    0  0.14206157332E+02 -0.13476788604E+02 -0.18499191607E+02  0.27012197815E+02  0.20000008663E+01 0.  0.
        -13    1    3    3    0    0 -0.14206157332E+02  0.13476788604E+02  0.63510477991E+02  0.66460745676E+02  0.10566000000E+00 0.  1.
         13    1    4    4    0    0  0.10420681727E+02 -0.10350771845E+02 -0.14149554927E+02  0.20394856070E+02  0.10566000000E+00 0. -1.
        -13    1    4    4    0    0  0.37793552538E+01 -0.31271719080E+01 -0.43856052344E+01  0.65808379090E+01  0.10566000000E+00 0. -1.
         14    1    4    4    0    0  0.61203510216E-02  0.11551485011E-02  0.35968555174E-01  0.36503835771E-01  0.00000000000E+00 0. -1.
<mgrwt>
<rscale>  0 0.81921763E+02</rscale>
<asrwt>0</asrwt>
<pdfrwt beam="1">  1        2 0.37278198E-02 0.81921763E+02</pdfrwt>
<pdfrwt beam="2">  1       -1 0.10652633E-01 0.81921763E+02</pdfrwt>
<totfact> 0.12058536E+05</totfact>
</mgrwt>
</event>
<event>
 8    1  0.1600673E-013  0.7700794E+02  0.7818608E-02  0.1337763E+00
         -1   -1    0    0    0  501 -0.00000000000E+00  0.00000000000E+00  0.50512086203E+01  0.50512111347E+01  0.50400000000E-02 0.  1.
          2   -1    0    0  501    0  0.00000000000E+00 -0.00000000000E+00 -0.29350509534E+03  0.29350509535E+03  0.25500000000E-02 0. -1.
         24    2    1    2    0    0  0.00000000000E+00  0.00000000000E+00 -0.28845388672E+03  0.29855630649E+03  0.77007943608E+02 0.  0.
         66    2    3    3    0    0 -0.92632198164E+01  0.28297170096E+02 -0.23881464242E+03  0.24067191468E+03  0.20000003101E+01 0.  0.
        -13    1    3    3    0    0  0.92632198164E+01 -0.28297170096E+02 -0.49639244296E+02  0.57884391809E+02  0.10566000000E+00 0.  1.
         13    1    4    4    0    0 -0.34243901403E+01  0.11576949764E+02 -0.93140856847E+02  0.93920086200E+02  0.10566000000E+00 0. -1.
        -13    1    4    4    0    0 -0.48823626576E+01  0.12327425618E+02 -0.10878866756E+03  0.10959374180E+03  0.10566000000E+00 0.  1.
        -14    1    4    4    0    0 -0.95646701849E+00  0.43927947150E+01 -0.36885118018E+02  0.37158086680E+02  0.00000000000E+00 0.  1.
<mgrwt>
<rscale>  0 0.77007944E+02</rscale>
<asrwt>0</asrwt>
<pdfrwt beam="1">  1        2 0.45154617E-01 0.77007944E+02</pdfrwt>
<pdfrwt beam="2">  1       -1 0.77710944E-03 0.77007944E+02</pdfrwt>
<totfact> 0.27947098E+05</totfact>
</mgrwt>
</event>
<event>
 8    1  0.1600673E-013  0.7795591E+02  0.7818608E-02  0.1334954E+00
          2   -1    0    0  501    0  0.00000000000E+00  0.00000000000E+00  0.98961550611E+03  0.98961550612E+03  0.25500000000E-02 0. -1.
         -1   -1    0    0    0  501 -0.00000000000E+00 -0.00000000000E+00 -0.15352193658E+01  0.15352276387E+01  0.50400000000E-02 0.  1.
         24    2    1    2    0    0  0.35527136788E-14  0.00000000000E+00  0.98808028675E+03  0.99115073375E+03  0.77955910389E+02 0.  0.
         66    2    3    3    0    0  0.26644157582E+02 -0.62479089703E+01  0.84678733900E+03  0.84723181302E+03  0.19999985876E+01 0.  0.
        -13    1    3    3    0    0 -0.26644157582E+02  0.62479089703E+01  0.14129294774E+03  0.14391892074E+03  0.10566000000E+00 0.  1.
         13    1    4    4    0    0  0.89928225408E+01 -0.29703962677E+01  0.29981353622E+03  0.29996310069E+03  0.10566000000E+00 0. -1.
        -13    1    4    4    0    0  0.50549234137E+01 -0.91863106430E+00  0.14853359663E+03  0.14862246339E+03  0.10566000000E+00 0.  1.
         14    1    4    4    0    0  0.12596411628E+02 -0.23588816384E+01  0.39844020616E+03  0.39864624894E+03  0.00000000000E+00 0. -1.
<mgrwt>
<rscale>  0 0.77955910E+02</rscale>
<asrwt>0</asrwt>
<pdfrwt beam="1">  1        2 0.15224850E+00 0.77955910E+02</pdfrwt>
<pdfrwt beam="2">  1       -1 0.23618830E-03 0.77955910E+02</pdfrwt>
<totfact> 0.37658737E+05</totfact>
</mgrwt>
</event>
<event>
 8    1  0.1600673E-013  0.7925390E+02  0.7818608E-02  0.1331182E+00
          2   -1    0    0  501    0  0.00000000000E+00  0.00000000000E+00  0.27570865443E+03  0.27570865444E+03  0.25500000000E-02 0. -1.
         -1   -1    0    0    0  501 -0.00000000000E+00 -0.00000000000E+00 -0.56954863681E+01  0.56954885981E+01  0.50400000000E-02 0.  1.
         24    2    1    2    0    0  0.00000000000E+00  0.00000000000E+00  0.27001316806E+03  0.28140414304E+03  0.79253900808E+02 0.  0.
         66    2    3    3    0    0  0.28973385851E+02  0.59142824699E+01  0.22862083077E+03  0.23053398897E+03  0.19999957342E+01 0.  0.
        -13    1    3    3    0    0 -0.28973385851E+02 -0.59142824699E+01  0.41392337294E+02  0.50870154074E+02  0.10566000000E+00 0.  1.
         13    1    4    4    0    0  0.19618313589E+02  0.34996542232E+01  0.15546942009E+03  0.15674143534E+03  0.10566000000E+00 0. -1.
        -13    1    4    4    0    0  0.16292078241E+01  0.42610908923E+00  0.15562454394E+02  0.15653658930E+02  0.10566000000E+00 0.  1.
         14    1    4    4    0    0  0.77258644372E+01  0.19885191575E+01  0.57588956287E+02  0.58138894692E+02  0.00000000000E+00 0. -1.
<mgrwt>
<rscale>  0 0.79253901E+02</rscale>
<asrwt>0</asrwt>
<pdfrwt beam="1">  1        2 0.42416709E-01 0.79253901E+02</pdfrwt>
<pdfrwt beam="2">  1       -1 0.87622899E-03 0.79253901E+02</pdfrwt>
<totfact> 0.25341864E+05</totfact>
</mgrwt>
</event>
<event>
 8    1  0.1600673E-013  0.7635452E+02  0.7818608E-02  0.1339727E+00
          2   -1    0    0  501    0  0.00000000000E+00  0.00000000000E+00  0.15202247992E+03  0.15202247994E+03  0.25500000000E-02 0. -1.
         -1   -1    0    0    0  501 -0.00000000000E+00 -0.00000000000E+00 -0.95874171615E+01  0.95874184862E+01  0.50400000000E-02 0.  1.
         24    2    1    2    0    0  0.00000000000E+00  0.35527136788E-14  0.14243506276E+03  0.16160989843E+03  0.76354516348E+02 0.  0.
         66    2    3    3    0    0 -0.18130397723E+02 -0.23488306932E+02  0.12202369908E+03  0.12559536226E+03  0.20000000805E+01 0.  0.
        -13    1    3    3    0    0  0.18130397723E+02  0.23488306932E+02  0.20411363683E+02  0.36014536170E+02  0.10566000000E+00 0.  1.
         13    1    4    4    0    0 -0.34755250330E+01 -0.55627274367E+01  0.26815975368E+02  0.27606718562E+02  0.10566000000E+00 0. -1.
        -13    1    4    4    0    0 -0.10274607085E+01 -0.11587664231E+01  0.54244214953E+01  0.56421563010E+01  0.10566000000E+00 0.  1.
         14    1    4    4    0    0 -0.13627411982E+02 -0.16766813072E+02  0.89783302213E+02  0.92346487395E+02  0.00000000000E+00 0. -1.
<mgrwt>
<rscale>  0 0.76354516E+02</rscale>
<asrwt>0</asrwt>
<pdfrwt beam="1">  1        2 0.23388072E-01 0.76354516E+02</pdfrwt>
<pdfrwt beam="2">  1       -1 0.14749875E-02 0.76354516E+02</pdfrwt>
<totfact> 0.22759137E+05</totfact>
</mgrwt>
</event>
<event>
 8    1  0.1600673E-013  0.7972447E+02  0.7818608E-02  0.1329835E+00
          2   -1    0    0  501    0  0.00000000000E+00  0.00000000000E+00  0.19802133026E+02  0.19802133190E+02  0.25500000000E-02 0. -1.
         -1   -1    0    0    0  501 -0.00000000000E+00 -0.00000000000E+00 -0.80243759495E+02  0.80243759653E+02  0.50400000000E-02 0.  1.
         24    2    1    2    0    0  0.35527136788E-14  0.00000000000E+00 -0.60441626469E+02  0.10004589284E+03  0.79724465909E+02 0.  0.
         66    2    3    3    0    0 -0.17697391358E+02 -0.29061824951E+02 -0.42417634294E+01  0.34347924076E+02  0.20000002453E+01 0.  0.
        -13    1    3    3    0    0  0.17697391358E+02  0.29061824951E+02 -0.56199863039E+02  0.65697968767E+02  0.10566000000E+00 0.  1.
         13    1    4    4    0    0 -0.14135550258E+01 -0.29077302275E+01 -0.56960960570E+00  0.32846083519E+01  0.10566000000E+00 0.  1.
        -13    1    4    4    0    0 -0.55527851466E+01 -0.95571720398E+01 -0.68486219066E+00  0.11074888737E+02  0.10566000000E+00 0. -1.
         14    1    4    4    0    0 -0.10731051185E+02 -0.16596922684E+02 -0.29872916330E+01  0.19988426987E+02  0.00000000000E+00 0. -1.
<mgrwt>
<rscale>  0 0.79724466E+02</rscale>
<asrwt>0</asrwt>
<pdfrwt beam="1">  1        2 0.30464821E-02 0.79724466E+02</pdfrwt>
<pdfrwt beam="2">  1       -1 0.12345194E-01 0.79724466E+02</pdfrwt>
<totfact> 0.12514191E+05</totfact>
</mgrwt>
</event>
<event>
 8    1  0.1600673E-013  0.8071453E+02  0.7818608E-02  0.1327036E+00
          2   -1    0    0  501    0  0.00000000000E+00  0.00000000000E+00  0.18314222439E+04  0.18314222439E+04  0.25500000000E-02 0. -1.
         -1   -1    0    0    0  501 -0.00000000000E+00 -0.00000000000E+00 -0.88930663142E+00  0.88932091300E+00  0.50400000000E-02 0.  1.
         24    2    1    2    0    0  0.35527136788E-14  0.00000000000E+00  0.18305329373E+04  0.18323115648E+04  0.80714534806E+02 0.  0.
         66    2    3    3    0    0  0.18056375714E+02 -0.88491534522E+00  0.17342927564E+04  0.17343881287E+04  0.20000017062E+01 0.  0.
        -13    1    3    3    0    0 -0.18056375714E+02  0.88491534522E+00  0.96240180857E+02  0.97923436186E+02  0.10566000000E+00 0.  1.
         13    1    4    4    0    0  0.27625788881E+01 -0.53419768883E+00  0.28721466369E+03  0.28722846553E+03  0.10566000000E+00 0. -1.
        -13    1    4    4    0    0  0.66250471674E+01  0.65696954546E-01  0.56391778150E+03  0.56395671024E+03  0.10566000000E+00 0.  1.
        -14    1    4    4    0    0  0.86687496587E+01 -0.41641461094E+00  0.88316031125E+03  0.88320295288E+03  0.00000000000E+00 0.  1.
<mgrwt>
<rscale>  0 0.80714535E+02</rscale>
<asrwt>0</asrwt>
<pdfrwt beam="1">  1        2 0.28175631E+00 0.80714535E+02</pdfrwt>
<pdfrwt beam="2">  1       -1 0.13681797E-03 0.80714535E+02</pdfrwt>
<totfact> 0.29166972E+05</totfact>
</mgrwt>
</event>
<event>
 8    1  0.1600673E-013  0.8223323E+02  0.7818608E-02  0.1322831E+00
         -1   -1    0    0    0  501 -0.00000000000E+00  0.00000000000E+00  0.10746043090E+03  0.10746043101E+03  0.50400000000E-02 0.  1.
          2   -1    0    0  501    0  0.00000000000E+00 -0.00000000000E+00 -0.15732077568E+02  0.15732077775E+02  0.25500000000E-02 0. -1.
         24    2    1    2    0    0  0.00000000000E+00  0.00000000000E+00  0.91728353328E+02  0.12319250879E+03  0.82233225751E+02 0.  0.
         66    2    3    3    0    0 -0.33084074431E+02 -0.15662243191E+02  0.17916329284E+02  0.40802655650E+02  0.20000025825E+01 0.  0.
        -13    1    3    3    0    0  0.33084074431E+02  0.15662243191E+02  0.73812024044E+02  0.82389853139E+02  0.10566000000E+00 0.  1.
         13    1    4    4    0    0 -0.80403890410E+01 -0.36573844868E+01  0.39753523967E+01  0.96870484632E+01  0.10566000000E+00 0. -1.
        -13    1    4    4    0    0 -0.14389016267E+02 -0.68716595479E+01  0.71254649273E+01  0.17465592133E+02  0.10566000000E+00 0.  1.
         14    1    4    4    0    0 -0.10654669123E+02 -0.51331991566E+01  0.68155119596E+01  0.13650015054E+02  0.00000000000E+00 0. -1.
<mgrwt>
<rscale>  0 0.82233226E+02</rscale>
<asrwt>0</asrwt>
<pdfrwt beam="1">  1        2 0.24203196E-02 0.82233226E+02</pdfrwt>
<pdfrwt beam="2">  1       -1 0.16532374E-01 0.82233226E+02</pdfrwt>
<totfact> 0.10893387E+05</totfact>
</mgrwt>
</event>
<event>
 8    1  0.1600673E-013  0.8329335E+02  0.7818608E-02  0.1319957E+00
         -1   -1    0    0    0  501 -0.00000000000E+00  0.00000000000E+00  0.63730013017E+02  0.63730013216E+02  0.50400000000E-02 0.  1.
          2   -1    0    0  501    0  0.00000000000E+00 -0.00000000000E+00 -0.27215521712E+02  0.27215521831E+02  0.25500000000E-02 0. -1.
         24    2    1    2    0    0  0.44408920985E-15  0.00000000000E+00  0.36514491305E+02  0.90945535048E+02  0.83293350694E+02 0.  0.
         66    2    3    3    0    0 -0.22667948707E+01 -0.36647007993E+02  0.39672271704E+02  0.54092797090E+02  0.20000002679E+01 0.  0.
        -13    1    3    3    0    0  0.22667948707E+01  0.36647007993E+02 -0.31577803988E+01  0.36852737957E+02  0.10566000000E+00 0.  1.
         13    1    4    4    0    0 -0.20135240239E+01 -0.31241268770E+02  0.33232953212E+02  0.45656450767E+02  0.10566000000E+00 0. -1.
        -13    1    4    4    0    0 -0.33971349878E+00 -0.53080245494E+01  0.62810729250E+01  0.82312557367E+01  0.10566000000E+00 0.  1.
        -14    1    4    4    0    0  0.86442651981E-01 -0.97714673681E-01  0.15824556610E+00  0.20509058663E+00  0.00000000000E+00 0.  1.
<mgrwt>
<rscale>  0 0.83293351E+02</rscale>
<asrwt>0</asrwt>
<pdfrwt beam="1">  1        2 0.41870034E-02 0.83293351E+02</pdfrwt>
<pdfrwt beam="2">  1       -1 0.98046174E-02 0.83293351E+02</pdfrwt>
<totfact> 0.11776222E+05</totfact>
</mgrwt>
</event>
<event>
 8    1  0.1600673E-013  0.7736291E+02  0.7818608E-02  0.1336706E+00
         -1   -1    0    0    0  501 -0.00000000000E+00  0.00000000000E+00  0.30694813325E+01  0.30694854702E+01  0.50400000000E-02 0.  1.
          2   -1    0    0  501    0  0.00000000000E+00 -0.00000000000E+00 -0.48746152433E+03  0.48746152434E+03  0.25500000000E-02 0. -1.
         24    2    1    2    0    0  0.00000000000E+00  0.11102230246E-15 -0.48439204300E+03  0.49053100981E+03  0.77362912709E+02 0.  0.
         66    2    3    3    0    0  0.18365133423E+02 -0.77435915760E+00 -0.45797419584E+03  0.45834729389E+03  0.20000009636E+01 0.  0.
        -13    1    3    3    0    0 -0.18365133423E+02  0.77435915760E+00 -0.26417847162E+02  0.32183715920E+02  0.10566000000E+00 0.  1.
         13    1    4    4    0    0  0.16186486385E+02 -0.68805793815E+00 -0.38906080730E+03  0.38939799525E+03  0.10566000000E+00 0. -1.
        -13    1    4    4    0    0  0.32888710538E+00  0.11378874116E+00 -0.11949432761E+02  0.11954966413E+02  0.10566000000E+00 0.  1.
         14    1    4    4    0    0  0.18497599329E+01 -0.20008996062E+00 -0.56963955780E+02  0.56994332226E+02  0.00000000000E+00 0. -1.
<mgrwt>
<rscale>  0 0.77362913E+02</rscale>
<asrwt>0</asrwt>
<pdfrwt beam="1">  1        2 0.74994019E-01 0.77362913E+02</pdfrwt>
<pdfrwt beam="2">  1       -1 0.47222860E-03 0.77362913E+02</pdfrwt>
<totfact> 0.32957344E+05</totfact>
</mgrwt>
</event>
<event>
 8    1  0.1600673E-013  0.8685725E+02  0.7818608E-02  0.1310646E+00
         -1   -1    0    0    0  501 -0.00000000000E+00  0.00000000000E+00  0.16679460553E+02  0.16679461314E+02  0.50400000000E-02 0.  1.
          2   -1    0    0  501    0  0.00000000000E+00 -0.00000000000E+00 -0.11307593572E+03  0.11307593575E+03  0.25500000000E-02 0. -1.
         24    2    1    2    0    0  0.00000000000E+00  0.00000000000E+00 -0.96396475164E+02  0.12975539706E+03  0.86857254401E+02 0.  0.
         66    2    3    3    0    0 -0.26855498613E+02 -0.24641541921E+02 -0.83437058125E+02  0.91072312281E+02  0.20000004039E+01 0.  0.
        -13    1    3    3    0    0  0.26855498613E+02  0.24641541921E+02 -0.12959417039E+02  0.38683084779E+02  0.10566000000E+00 0.  1.
         13    1    4    4    0    0 -0.12774073546E+02 -0.10644823731E+02 -0.38819344304E+02  0.42230816751E+02  0.10566000000E+00 0.  1.
        -13    1    4    4    0    0 -0.12483230996E+02 -0.12125708327E+02 -0.38745586389E+02  0.42474645228E+02  0.10566000000E+00 0. -1.
        -14    1    4    4    0    0 -0.15981940714E+01 -0.18710098641E+01 -0.58721274314E+01  0.63668503023E+01  0.00000000000E+00 0.  1.
<mgrwt>
<rscale>  0 0.86857254E+02</rscale>
<asrwt>0</asrwt>
<pdfrwt beam="1">  1        2 0.17396297E-01 0.86857254E+02</pdfrwt>
<pdfrwt beam="2">  1       -1 0.25660710E-02 0.86857254E+02</pdfrwt>
<totfact> 0.14724799E+05</totfact>
</mgrwt>
</event>
<event>
 8    1  0.1600673E-013  0.8049833E+02  0.7818608E-02  0.1327643E+00
         -1   -1    0    0    0  501 -0.00000000000E+00  0.00000000000E+00  0.45669463505E+02  0.45669463783E+02  0.50400000000E-02 0.  1.
          2   -1    0    0  501    0  0.00000000000E+00 -0.00000000000E+00 -0.35472180115E+02  0.35472180207E+02  0.25500000000E-02 0. -1.
         24    2    1    2    0    0  0.00000000000E+00  0.00000000000E+00  0.10197283390E+02  0.81141643989E+02  0.80498334149E+02 0.  0.
         66    2    3    3    0    0 -0.15616032924E+02 -0.29491335762E+02 -0.17536353544E+02  0.37750802203E+02  0.20000004904E+01 0.  0.
        -13    1    3    3    0    0  0.15616032924E+02  0.29491335762E+02  0.27733636934E+02  0.43390841787E+02  0.10566000000E+00 0.  1.
         13    1    4    4    0    0 -0.10609092456E+01 -0.14863660414E+01 -0.89194370878E+00  0.20350774068E+01  0.10566000000E+00 0. -1.
        -13    1    4    4    0    0 -0.73284423318E+01 -0.12419624597E+02 -0.76086316761E+01  0.16305078416E+02  0.10566000000E+00 0. -1.
         14    1    4    4    0    0 -0.72266813466E+01 -0.15585345124E+02 -0.90357781595E+01  0.19410646380E+02  0.00000000000E+00 0. -1.
<mgrwt>
<rscale>  0 0.80498334E+02</rscale>
<asrwt>0</asrwt>
<pdfrwt beam="1">  1        2 0.54572585E-02 0.80498334E+02</pdfrwt>
<pdfrwt beam="2">  1       -1 0.70260714E-02 0.80498334E+02</pdfrwt>
<totfact> 0.13673215E+05</totfact>
</mgrwt>
</event>
<event>
 8    1  0.1600673E-013  0.8103005E+02  0.7818608E-02  0.1326153E+00
          2   -1    0    0  501    0  0.00000000000E+00  0.00000000000E+00  0.36902979174E+03  0.36902979175E+03  0.25500000000E-02 0. -1.
         -1   -1    0    0    0  501 -0.00000000000E+00 -0.00000000000E+00 -0.44480601400E+01  0.44480629953E+01  0.50400000000E-02 0.  1.
         24    2    1    2    0    0  0.00000000000E+00  0.00000000000E+00  0.36458173160E+03  0.37347785474E+03  0.81030049783E+02 0.  0.
         66    2    3    3    0    0  0.41906809586E+00 -0.32555827805E+02  0.29334712845E+03  0.29515520545E+03  0.19999983791E+01 0.  0.
        -13    1    3    3    0    0 -0.41906809586E+00  0.32555827805E+02  0.71234603148E+02  0.78322649290E+02  0.10566000000E+00 0.  1.
         13    1    4    4    0    0 -0.63857263042E+00 -0.18285272959E+02  0.16690694225E+03  0.16790681200E+03  0.10566000000E+00 0. -1.
        -13    1    4    4    0    0  0.43724138671E+00 -0.45486086020E+01  0.38619003391E+02  0.38888553678E+02  0.10566000000E+00 0.  1.
        -14    1    4    4    0    0  0.62039933958E+00 -0.97219462439E+01  0.87821182809E+02  0.88359839770E+02  0.00000000000E+00 0.  1.
<mgrwt>
<rscale>  0 0.81030050E+02</rscale>
<asrwt>0</asrwt>
<pdfrwt beam="1">  1        2 0.56773797E-01 0.81030050E+02</pdfrwt>
<pdfrwt beam="2">  1       -1 0.68431738E-03 0.81030050E+02</pdfrwt>
<totfact> 0.26557661E+05</totfact>
</mgrwt>
</event>
<event>
 8    1  0.1600673E-013  0.8100545E+02  0.7818608E-02  0.1326222E+00
         -1   -1    0    0    0  501 -0.00000000000E+00  0.00000000000E+00  0.39648871152E+01  0.39648903185E+01  0.50400000000E-02 0.  1.
          2   -1    0    0  501    0  0.00000000000E+00 -0.00000000000E+00 -0.41374950698E+03  0.41374950699E+03  0.25500000000E-02 0. -1.
         24    2    1    2    0    0  0.00000000000E+00  0.00000000000E+00 -0.40978461987E+03  0.41771439731E+03  0.81005450676E+02 0.  0.
         66    2    3    3    0    0 -0.10184682477E+02  0.20324239016E+02 -0.37771850059E+03  0.37840727813E+03  0.20000009493E+01 0.  0.
        -13    1    3    3    0    0  0.10184682477E+02 -0.20324239016E+02 -0.32066119277E+02  0.39307119180E+02  0.10566000000E+00 0.  1.
         13    1    4    4    0    0 -0.34426324967E+01  0.57467395958E+01 -0.10985601141E+03  0.11006012512E+03  0.10566000000E+00 0. -1.
        -13    1    4    4    0    0 -0.17957698831E+01  0.39183112909E+01 -0.62224951875E+02  0.62374143302E+02  0.10566000000E+00 0.  1.
         14    1    4    4    0    0 -0.49462800975E+01  0.10659188129E+02 -0.20563753730E+03  0.20597300970E+03  0.00000000000E+00 0. -1.
<mgrwt>
<rscale>  0 0.81005451E+02</rscale>
<asrwt>0</asrwt>
<pdfrwt beam="1">  1        2 0.63653736E-01 0.81005451E+02</pdfrwt>
<pdfrwt beam="2">  1       -1 0.60998321E-03 0.81005451E+02</pdfrwt>
<totfact> 0.27669847E+05</totfact>
</mgrwt>
</event>
<event>
 8    1  0.1600673E-013  0.7391162E+02  0.7818608E-02  0.1347275E+00
          2   -1    0    0  501    0  0.00000000000E+00  0.00000000000E+00  0.76523389721E+01  0.76523393970E+01  0.25500000000E-02 0. -1.
         -1   -1    0    0    0  501 -0.00000000000E+00 -0.00000000000E+00 -0.17847247095E+03  0.17847247102E+03  0.50400000000E-02 0.  1.
         24    2    1    2    0    0 -0.71054273576E-14  0.00000000000E+00 -0.17082013198E+03  0.18612481042E+03  0.73911619954E+02 0.  0.
         66    2    3    3    0    0 -0.34811750513E+02 -0.19194516820E+01 -0.11612686548E+03  0.12126413795E+03  0.19999996068E+01 0.  0.
        -13    1    3    3    0    0  0.34811750513E+02  0.19194516820E+01 -0.54693266494E+02  0.64860672463E+02  0.10566000000E+00 0.  1.
         13    1    4    4    0    0 -0.21083297051E+02 -0.10691551917E+01 -0.72908102269E+02  0.75902905398E+02  0.10566000000E+00 0. -1.
        -13    1    4    4    0    0 -0.12154743772E+02 -0.92838207495E+00 -0.38793883965E+02  0.40664189240E+02  0.10566000000E+00 0.  1.
        -14    1    4    4    0    0 -0.15737096896E+01  0.78085584587E-01 -0.44248792475E+01  0.46970433147E+01  0.00000000000E+00 0.  1.
<mgrwt>
<rscale>  0 0.73911620E+02</rscale>
<asrwt>0</asrwt>
<pdfrwt beam="1">  1        2 0.11772831E-02 0.73911620E+02</pdfrwt>
<pdfrwt beam="2">  1       -1 0.27457300E-01 0.73911620E+02</pdfrwt>
<totfact> 0.12584346E+05</totfact>
</mgrwt>
</event>
<event>
 8    1  0.1600673E-013  0.8148777E+02  0.7818608E-02  0.1324882E+00
          2   -1    0    0  501    0  0.00000000000E+00  0.00000000000E+00  0.57482754663E+03  0.57482754663E+03  0.25500000000E-02 0. -1.
         -1   -1    0    0    0  501 -0.00000000000E+00 -0.00000000000E+00 -0.28879318708E+01  0.28879362687E+01  0.50400000000E-02 0.  1.
         24    2    1    2    0    0  0.00000000000E+00 -0.22204460493E-15  0.57193961476E+03  0.57771548290E+03  0.81487767526E+02 0.  0.
         66    2    3    3    0    0 -0.38322824982E+02 -0.11744196969E+01  0.38335983119E+03  0.38527753418E+03  0.19999983666E+01 0.  0.
        -13    1    3    3    0    0  0.38322824982E+02  0.11744196969E+01  0.18857978356E+03  0.19243794872E+03  0.10566000000E+00 0.  1.
         13    1    4    4    0    0 -0.31376842969E+02 -0.88428926371E+00  0.31044746582E+03  0.31203033256E+03  0.10566000000E+00 0. -1.
        -13    1    4    4    0    0 -0.47365674585E+01 -0.54161548568E+00  0.48649472641E+02  0.48882622381E+02  0.10566000000E+00 0.  1.
         14    1    4    4    0    0 -0.22094145542E+01  0.25148505248E+00  0.24262892731E+02  0.24364579231E+02  0.00000000000E+00 0. -1.
<mgrwt>
<rscale>  0 0.81487768E+02</rscale>
<asrwt>0</asrwt>
<pdfrwt beam="1">  1        2 0.88435004E-01 0.81487768E+02</pdfrwt>
<pdfrwt beam="2">  1       -1 0.44429757E-03 0.81487768E+02</pdfrwt>
<totfact> 0.30284959E+05</totfact>
</mgrwt>
</event>
<event>
 8    1  0.1600673E-013  0.7855592E+02  0.7818608E-02  0.1333200E+00
         -1   -1    0    0    0  501 -0.00000000000E+00  0.00000000000E+00  0.23381774005E+03  0.23381774011E+03  0.50400000000E-02 0.  1.
          2   -1    0    0  501    0  0.00000000000E+00 -0.00000000000E+00 -0.65981227085E+01  0.65981232013E+01  0.25500000000E-02 0. -1.
         24    2    1    2    0    0  0.35527136788E-14 -0.35527136788E-14  0.22721961735E+03  0.24041586331E+03  0.78555921637E+02 0.  0.
         66    2    3    3    0    0  0.25875556580E+02 -0.20805567187E+02  0.49608281158E+02  0.59727695572E+02  0.20000011335E+01 0.  0.
        -13    1    3    3    0    0 -0.25875556580E+02  0.20805567187E+02  0.17761133619E+03  0.18068816774E+03  0.10566000000E+00 0.  1.
         13    1    4    4    0    0  0.27486589711E+01 -0.24185376470E+01  0.56517375022E+01  0.67348163538E+01  0.10566000000E+00 0.  1.
        -13    1    4    4    0    0  0.25951661347E+00 -0.27243743271E+00  0.93078107102E+00  0.10094991160E+01  0.10566000000E+00 0.  1.
         14    1    4    4    0    0  0.22867380995E+02 -0.18114592107E+02  0.43025762585E+02  0.51983380102E+02  0.00000000000E+00 0. -1.
<mgrwt>
<rscale>  0 0.78555922E+02</rscale>
<asrwt>0</asrwt>
<pdfrwt beam="1">  1        2 0.10150957E-02 0.78555922E+02</pdfrwt>
<pdfrwt beam="2">  1       -1 0.35971967E-01 0.78555922E+02</pdfrwt>
<totfact> 0.99274882E+04</totfact>
</mgrwt>
</event>
<event>
 8    1  0.1600673E-013  0.7727283E+02  0.7818608E-02  0.1336974E+00
          2   -1    0    0  501    0  0.00000000000E+00  0.00000000000E+00  0.72223329974E+01  0.72223334476E+01  0.25500000000E-02 0. -1.
         -1   -1    0    0    0  501 -0.00000000000E+00 -0.00000000000E+00 -0.20668840630E+03  0.20668840636E+03  0.50400000000E-02 0.  1.
         24    2    1    2    0    0  0.00000000000E+00  0.35527136788E-14 -0.19946607331E+03  0.21391073981E+03  0.77272829681E+02 0.  0.
         66    2    3    3    0    0 -0.21962499751E+02  0.31543170148E+02 -0.10995000174E+03  0.11649174161E+03  0.20000005290E+01 0.  0.
        -13    1    3    3    0    0  0.21962499751E+02 -0.31543170148E+02 -0.89516071562E+02  0.97418998200E+02  0.10566000000E+00 0.  1.
         13    1    4    4    0    0 -0.63041670348E+01  0.98970150869E+01 -0.32529279350E+02  0.34581188654E+02  0.10566000000E+00 0. -1.
        -13    1    4    4    0    0 -0.10948321103E+02  0.14226817784E+02 -0.51144238430E+02  0.54203435019E+02  0.10566000000E+00 0.  1.
         14    1    4    4    0    0 -0.47100116136E+01  0.74193372778E+01 -0.26276483963E+02  0.27707117939E+02  0.00000000000E+00 0. -1.
<mgrwt>
<rscale>  0 0.77272830E+02</rscale>
<asrwt>0</asrwt>
<pdfrwt beam="1">  1        2 0.11111283E-02 0.77272830E+02</pdfrwt>
<pdfrwt beam="2">  1       -1 0.31798212E-01 0.77272830E+02</pdfrwt>
<totfact> 0.10770834E+05</totfact>
</mgrwt>
</event>
<event>
 8    1  0.1600673E-013  0.7778053E+02  0.7818608E-02  0.1335471E+00
          2   -1    0    0  501    0  0.00000000000E+00  0.00000000000E+00  0.61569108596E+02  0.61569108649E+02  0.25500000000E-02 0. -1.
         -1   -1    0    0    0  501 -0.00000000000E+00 -0.00000000000E+00 -0.24565120694E+02  0.24565121211E+02  0.50400000000E-02 0.  1.
         24    2    1    2    0    0  0.00000000000E+00  0.00000000000E+00  0.37003987902E+02  0.86134229860E+02  0.77780527338E+02 0.  0.
         66    2    3    3    0    0 -0.19216884149E+02 -0.32031353838E+02  0.30397560720E+02  0.48200704987E+02  0.19999996157E+01 0.  0.
        -13    1    3    3    0    0  0.19216884149E+02  0.32031353838E+02  0.66064271824E+01  0.37933524873E+02  0.10566000000E+00 0.  1.
         13    1    4    4    0    0 -0.10294160299E+02 -0.17362345711E+02  0.16597846872E+02  0.26132747074E+02  0.10566000000E+00 0. -1.
        -13    1    4    4    0    0 -0.43994156587E+01 -0.59779287941E+01  0.60052894040E+01  0.95480445991E+01  0.10566000000E+00 0.  1.
         14    1    4    4    0    0 -0.45233081910E+01 -0.86910793337E+01  0.77944244438E+01  0.12519913314E+02  0.00000000000E+00 0. -1.
<mgrwt>
<rscale>  0 0.77780527E+02</rscale>
<asrwt>0</asrwt>
<pdfrwt beam="1">  1        2 0.94721705E-02 0.77780527E+02</pdfrwt>
<pdfrwt beam="2">  1       -1 0.37792494E-02 0.77780527E+02</pdfrwt>
<totfact> 0.16901911E+05</totfact>
</mgrwt>
</event>
<event>
 8    1  0.1600673E-013  0.8135579E+02  0.7818608E-02  0.1325247E+00
         -1   -1    0    0    0  501 -0.00000000000E+00  0.00000000000E+00  0.28159594926E+01  0.28159640029E+01  0.50400000000E-02 0.  1.
          2   -1    0    0  501    0  0.00000000000E+00 -0.00000000000E+00 -0.58761142820E+03  0.58761142821E+03  0.25500000000E-02 0. -1.
         24    2    1    2    0    0  0.00000000000E+00  0.00000000000E+00 -0.58479546871E+03  0.59042739221E+03  0.81355794197E+02 0.  0.
         66    2    3    3    0    0 -0.33354782446E+02 -0.63864801587E+01 -0.45474893951E+03  0.45601965597E+03  0.20000007801E+01 0.  0.
        -13    1    3    3    0    0  0.33354782446E+02  0.63864801587E+01 -0.13004652920E+03  0.13440773624E+03  0.10566000000E+00 0.  1.
         13    1    4    4    0    0 -0.33881571189E+01 -0.11440257459E+01 -0.50096203793E+02  0.50223791196E+02  0.10566000000E+00 0.  1.
        -13    1    4    4    0    0 -0.17655846050E+02 -0.34727417521E+01 -0.23535647819E+03  0.23604336852E+03  0.10566000000E+00 0. -1.
         14    1    4    4    0    0 -0.12310779277E+02 -0.17697126608E+01 -0.16929625753E+03  0.16975249625E+03  0.00000000000E+00 0. -1.
<mgrwt>
<rscale>  0 0.81355794E+02</rscale>
<asrwt>0</asrwt>
<pdfrwt beam="1">  1        2 0.90401661E-01 0.81355794E+02</pdfrwt>
<pdfrwt beam="2">  1       -1 0.43322535E-03 0.81355794E+02</pdfrwt>
<totfact> 0.30605923E+05</totfact>
</mgrwt>
</event>
<event>
 8    1  0.1600673E-013  0.7757208E+02  0.7818608E-02  0.1336086E+00
         -1   -1    0    0    0  501 -0.00000000000E+00  0.00000000000E+00  0.51416460073E+02  0.51416460320E+02  0.50400000000E-02 0.  1.
          2   -1    0    0  501    0  0.00000000000E+00 -0.00000000000E+00 -0.29258272969E+02  0.29258273080E+02  0.25500000000E-02 0. -1.
         24    2    1    2    0    0  0.00000000000E+00  0.00000000000E+00  0.22158187104E+02  0.80674733400E+02  0.77572078440E+02 0.  0.
         66    2    3    3    0    0  0.13085282846E+02 -0.30238084230E+02 -0.10145441733E+02  0.34532540505E+02  0.20000001788E+01 0.  0.
        -13    1    3    3    0    0 -0.13085282846E+02  0.30238084230E+02  0.32303628837E+02  0.46142192895E+02  0.10566000000E+00 0.  1.
         13    1    4    4    0    0  0.39857101370E+01 -0.79930038381E+01 -0.28338799470E+01  0.93710210351E+01  0.10566000000E+00 0. -1.
        -13    1    4    4    0    0  0.60851538691E+01 -0.16113414608E+02 -0.47848857569E+01  0.17876731347E+02  0.10566000000E+00 0.  1.
        -14    1    4    4    0    0  0.30144188400E+01 -0.61316657846E+01 -0.25266760291E+01  0.72847881228E+01  0.00000000000E+00 0.  1.
<mgrwt>
<rscale>  0 0.77572078E+02</rscale>
<asrwt>0</asrwt>
<pdfrwt beam="1">  1        2 0.45012728E-02 0.77572078E+02</pdfrwt>
<pdfrwt beam="2">  1       -1 0.79102247E-02 0.77572078E+02</pdfrwt>
<totfact> 0.14595251E+05</totfact>
</mgrwt>
</event>
<event>
 8    1  0.1600673E-013  0.7804558E+02  0.7818608E-02  0.1334691E+00
         -1   -1    0    0    0  501 -0.00000000000E+00  0.00000000000E+00  0.50807537319E+01  0.50807562317E+01  0.50400000000E-02 0.  1.
          2   -1    0    0  501    0  0.00000000000E+00 -0.00000000000E+00 -0.29971494659E+03  0.29971494660E+03  0.25500000000E-02 0. -1.
         24    2    1    2    0    0  0.00000000000E+00 -0.71054273576E-14 -0.29463419285E+03  0.30479570283E+03  0.78045581963E+02 0.  0.
         66    2    3    3    0    0 -0.66113449590E+01 -0.37798167216E+02 -0.17457248687E+03  0.17875112447E+03  0.19999995701E+01 0.  0.
        -13    1    3    3    0    0  0.66113449590E+01  0.37798167216E+02 -0.12006170598E+03  0.12604457836E+03  0.10566000000E+00 0.  1.
         13    1    4    4    0    0 -0.27704108731E+01 -0.18915844615E+02 -0.85184322522E+02  0.87303289293E+02  0.10566000000E+00 0. -1.
        -13    1    4    4    0    0 -0.12449646439E+01 -0.54367100897E+01 -0.23735188154E+02  0.24381921054E+02  0.10566000000E+00 0.  1.
        -14    1    4    4    0    0 -0.25959694421E+01 -0.13445612512E+02 -0.65652976198E+02  0.67065914121E+02  0.00000000000E+00 0.  1.
<mgrwt>
<rscale>  0 0.78045582E+02</rscale>
<asrwt>0</asrwt>
<pdfrwt beam="1">  1        2 0.46109978E-01 0.78045582E+02</pdfrwt>
<pdfrwt beam="2">  1       -1 0.78165485E-03 0.78045582E+02</pdfrwt>
<totfact> 0.27190983E+05</totfact>
</mgrwt>
</event>
<event>
 8    1  0.1600673E-013  0.8032037E+02  0.7818608E-02  0.1328145E+00
         -1   -1    0    0    0  501 -0.00000000000E+00  0.00000000000E+00  0.29195807272E+01  0.29195850775E+01  0.50400000000E-02 0.  1.
          2   -1    0    0  501    0  0.00000000000E+00 -0.00000000000E+00 -0.55242149855E+03  0.55242149856E+03  0.25500000000E-02 0. -1.
         24    2    1    2    0    0  0.00000000000E+00  0.00000000000E+00 -0.54950191782E+03  0.55534108363E+03  0.80320367779E+02 0.  0.
         66    2    3    3    0    0  0.28787504736E+02  0.18844267730E+02 -0.41779456909E+03  0.41921370310E+03  0.20000137591E+01 0.  0.
        -13    1    3    3    0    0 -0.28787504736E+02 -0.18844267730E+02 -0.13170734874E+03  0.13612738053E+03  0.10566000000E+00 0.  1.
         13    1    4    4    0    0  0.36854769822E+01  0.25742975039E+01 -0.58850371240E+02  0.59021920566E+02  0.10566000000E+00 0. -1.
        -13    1    4    4    0    0  0.11279730909E+02  0.80140655843E+01 -0.17171679356E+03  0.17227340459E+03  0.10566000000E+00 0.  1.
         14    1    4    4    0    0  0.13822296844E+02  0.82559046414E+01 -0.18722740429E+03  0.18791837795E+03  0.00000000000E+00 0. -1.
<mgrwt>
<rscale>  0 0.80320368E+02</rscale>
<asrwt>0</asrwt>
<pdfrwt beam="1">  1        2 0.84987840E-01 0.80320368E+02</pdfrwt>
<pdfrwt beam="2">  1       -1 0.44916704E-03 0.80320368E+02</pdfrwt>
<totfact> 0.31079221E+05</totfact>
</mgrwt>
</event>
<event>
 8    1  0.1600673E-013  0.8144471E+02  0.7818608E-02  0.1325001E+00
          2   -1    0    0  501    0  0.00000000000E+00  0.00000000000E+00  0.90146633612E+02  0.90146633648E+02  0.25500000000E-02 0. -1.
         -1   -1    0    0    0  501 -0.00000000000E+00 -0.00000000000E+00 -0.18395698816E+02  0.18395699507E+02  0.50400000000E-02 0.  1.
         24    2    1    2    0    0 -0.35527136788E-14  0.00000000000E+00  0.71750934796E+02  0.10854233316E+03  0.81444714025E+02 0.  0.
         66    2    3    3    0    0 -0.20067673100E+02 -0.33560899737E+02  0.50931299214E+02  0.64242063578E+02  0.19999995596E+01 0.  0.
        -13    1    3    3    0    0  0.20067673100E+02  0.33560899737E+02  0.20819635582E+02  0.44300269577E+02  0.10566000000E+00 0.  1.
         13    1    4    4    0    0 -0.11245267915E+02 -0.19310662046E+02  0.29348252788E+02  0.36887515841E+02  0.10566000000E+00 0. -1.
        -13    1    4    4    0    0 -0.43145554991E+01 -0.69629252974E+01  0.11552090336E+02  0.14161909229E+02  0.10566000000E+00 0.  1.
         14    1    4    4    0    0 -0.45078496860E+01 -0.72873123932E+01  0.10030956090E+02  0.13192638508E+02  0.00000000000E+00 0. -1.
<mgrwt>
<rscale>  0 0.81444714E+02</rscale>
<asrwt>0</asrwt>
<pdfrwt beam="1">  1        2 0.13868713E-01 0.81444714E+02</pdfrwt>
<pdfrwt beam="2">  1       -1 0.28301075E-02 0.81444714E+02</pdfrwt>
<totfact> 0.16418687E+05</totfact>
</mgrwt>
</event>
<event>
 8    1  0.1600673E-013  0.8882734E+02  0.7818608E-02  0.1305717E+00
         -1   -1    0    0    0  501 -0.00000000000E+00  0.00000000000E+00  0.13401053849E+02  0.13401054797E+02  0.50400000000E-02 0.  1.
          2   -1    0    0  501    0  0.00000000000E+00 -0.00000000000E+00 -0.14719545324E+03  0.14719545326E+03  0.25500000000E-02 0. -1.
         24    2    1    2    0    0  0.35527136788E-14  0.00000000000E+00 -0.13379439939E+03  0.16059650806E+03  0.88827344283E+02 0.  0.
         66    2    3    3    0    0  0.19874417533E+02 -0.18199194424E+02 -0.13070793206E+03  0.13347196945E+03  0.19999940296E+01 0.  0.
        -13    1    3    3    0    0 -0.19874417533E+02  0.18199194424E+02 -0.30864673306E+01  0.27124538606E+02  0.10566000000E+00 0.  1.
         13    1    4    4    0    0  0.11832922854E+02 -0.10244681485E+02 -0.77459024270E+02  0.79024573184E+02  0.10566000000E+00 0. -1.
        -13    1    4    4    0    0  0.24271173408E+01 -0.31016260342E+01 -0.18324309357E+02  0.18743064319E+02  0.10566000000E+00 0.  1.
        -14    1    4    4    0    0  0.56143773380E+01 -0.48528869047E+01 -0.34924598436E+02  0.35704331952E+02  0.00000000000E+00 0.  1.
<mgrwt>
<rscale>  0 0.88827344E+02</rscale>
<asrwt>0</asrwt>
<pdfrwt beam="1">  1        2 0.22645453E-01 0.88827344E+02</pdfrwt>
<pdfrwt beam="2">  1       -1 0.20617008E-02 0.88827344E+02</pdfrwt>
<totfact> 0.15055203E+05</totfact>
</mgrwt>
</event>
<event>
 8    1  0.1600673E-013  0.7931631E+02  0.7818608E-02  0.1331003E+00
          2   -1    0    0  501    0  0.00000000000E+00  0.00000000000E+00  0.17281069904E+02  0.17281070092E+02  0.25500000000E-02 0. -1.
         -1   -1    0    0    0  501 -0.00000000000E+00 -0.00000000000E+00 -0.91011102668E+02  0.91011102807E+02  0.50400000000E-02 0.  1.
         24    2    1    2    0    0 -0.35527136788E-14 -0.88817841970E-15 -0.73730032764E+02  0.10829217290E+03  0.79316309672E+02 0.  0.
         66    2    3    3    0    0 -0.21594225315E+02 -0.71011039881E+01  0.74378248813E+01  0.24001197561E+02  0.20000001521E+01 0.  0.
        -13    1    3    3    0    0  0.21594225315E+02  0.71011039881E+01 -0.81167857645E+02  0.84290975339E+02  0.10566000000E+00 0.  1.
         13    1    4    4    0    0 -0.83772966969E+01 -0.23565133662E+01  0.33447239323E+01  0.93236579416E+01  0.10566000000E+00 0. -1.
        -13    1    4    4    0    0 -0.35946914007E+00 -0.28315937151E+00  0.13890909333E-01  0.46984495879E+00  0.10566000000E+00 0. -1.
        -14    1    4    4    0    0 -0.12857459478E+02 -0.44614312504E+01  0.40792100397E+01  0.14207694661E+02  0.00000000000E+00 0.  1.
<mgrwt>
<rscale>  0 0.79316310E+02</rscale>
<asrwt>0</asrwt>
<pdfrwt beam="1">  1        2 0.26586262E-02 0.79316310E+02</pdfrwt>
<pdfrwt beam="2">  1       -1 0.14001708E-01 0.79316310E+02</pdfrwt>
<totfact> 0.12351706E+05</totfact>
</mgrwt>
</event>
<event>
 8    1  0.1600673E-013  0.8080098E+02  0.7818608E-02  0.1326794E+00
         -1   -1    0    0    0  501 -0.00000000000E+00  0.00000000000E+00  0.76242456477E+02  0.76242456644E+02  0.50400000000E-02 0.  1.
          2   -1    0    0  501    0  0.00000000000E+00 -0.00000000000E+00 -0.21408014292E+02  0.21408014443E+02  0.25500000000E-02 0. -1.
         24    2    1    2    0    0 -0.44408920985E-15  0.71054273576E-14  0.54834442186E+02  0.97650471087E+02  0.80800980525E+02 0.  0.
         66    2    3    3    0    0 -0.25615016874E+01  0.34840745469E+02  0.29703784465E+01  0.35117830752E+02  0.20000132217E+01 0.  0.
        -13    1    3    3    0    0  0.25615016874E+01 -0.34840745469E+02  0.51864063739E+02  0.62532640335E+02  0.10566000000E+00 0.  1.
         13    1    4    4    0    0  0.12347628161E+00  0.67843795037E+01  0.66297709554E+00  0.68186328766E+01  0.10566000000E+00 0. -1.
        -13    1    4    4    0    0 -0.68203222121E+00  0.35379260517E+01  0.25577513171E+00  0.36136786868E+01  0.10566000000E+00 0.  1.
         14    1    4    4    0    0 -0.20029457478E+01  0.24518439914E+02  0.20516262192E+01  0.24685519189E+02  0.00000000000E+00 0. -1.
<mgrwt>
<rscale>  0 0.80800981E+02</rscale>
<asrwt>0</asrwt>
<pdfrwt beam="1">  1        2 0.32935406E-02 0.80800981E+02</pdfrwt>
<pdfrwt beam="2">  1       -1 0.11729609E-01 0.80800981E+02</pdfrwt>
<totfact> 0.12233019E+05</totfact>
</mgrwt>
</event>
<event>
 8    1  0.1600673E-013  0.7957180E+02  0.7818608E-02  0.1330271E+00
         -1   -1    0    0    0  501 -0.00000000000E+00  0.00000000000E+00  0.42124878756E+02  0.42124879057E+02  0.50400000000E-02 0.  1.
          2   -1    0    0  501    0  0.00000000000E+00 -0.00000000000E+00 -0.37576790820E+02  0.37576790906E+02  0.25500000000E-02 0. -1.
         24    2    1    2    0    0  0.00000000000E+00  0.00000000000E+00  0.45480879357E+01  0.79701669963E+02  0.79571798340E+02 0.  0.
         66    2    3    3    0    0  0.12179483253E+02 -0.30768599160E+02  0.24353827948E+02  0.41135817087E+02  0.20000012738E+01 0.  0.
        -13    1    3    3    0    0 -0.12179483253E+02  0.30768599160E+02 -0.19805740013E+02  0.38565852876E+02  0.10566000000E+00 0.  1.
         13    1    4    4    0    0  0.36863168130E+01 -0.95194205616E+01  0.69047587822E+01  0.12324575342E+02  0.10566000000E+00 0. -1.
        -13    1    4    4    0    0  0.48730718570E+01 -0.10431343045E+02  0.84664332777E+01  0.14291655031E+02  0.10566000000E+00 0. -1.
         14    1    4    4    0    0  0.36200945835E+01 -0.10817835554E+02  0.89826358885E+01  0.14519586715E+02  0.00000000000E+00 0. -1.
<mgrwt>
<rscale>  0 0.79571798E+02</rscale>
<asrwt>0</asrwt>
<pdfrwt beam="1">  1        2 0.57810448E-02 0.79571798E+02</pdfrwt>
<pdfrwt beam="2">  1       -1 0.64807506E-02 0.79571798E+02</pdfrwt>
<totfact> 0.14285276E+05</totfact>
</mgrwt>
</event>
<event>
 8    1  0.1600673E-013  0.7984242E+02  0.7818608E-02  0.1329499E+00
         -1   -1    0    0    0  501 -0.00000000000E+00  0.00000000000E+00  0.32636114891E+01  0.32636153808E+01  0.50400000000E-02 0.  1.
          2   -1    0    0  501    0  0.00000000000E+00 -0.00000000000E+00 -0.48832474332E+03  0.48832474333E+03  0.25500000000E-02 0. -1.
         24    2    1    2    0    0  0.00000000000E+00  0.88817841970E-15 -0.48506113183E+03  0.49158835871E+03  0.79842424835E+02 0.  0.
         66    2    3    3    0    0 -0.12508105289E+02  0.68834300643E+01 -0.47205480524E+03  0.47227489183E+03  0.19999992564E+01 0.  0.
        -13    1    3    3    0    0  0.12508105289E+02 -0.68834300643E+01 -0.13006326594E+02  0.19313466879E+02  0.10566000000E+00 0.  1.
         13    1    4    4    0    0 -0.68840700287E+01  0.40678220632E+01 -0.28288558594E+03  0.28299859274E+03  0.10566000000E+00 0. -1.
        -13    1    4    4    0    0 -0.47269075390E+01  0.19708299032E+01 -0.14784848533E+03  0.14793719479E+03  0.10566000000E+00 0.  1.
         14    1    4    4    0    0 -0.89712772140E+00  0.84477809783E+00 -0.41320733970E+02  0.41339104296E+02  0.00000000000E+00 0. -1.
<mgrwt>
<rscale>  0 0.79842425E+02</rscale>
<asrwt>0</asrwt>
<pdfrwt beam="1">  1        2 0.75126826E-01 0.79842425E+02</pdfrwt>
<pdfrwt beam="2">  1       -1 0.50209476E-03 0.79842425E+02</pdfrwt>
<totfact> 0.30377133E+05</totfact>
</mgrwt>
</event>
<event>
 8    1  0.1600673E-013  0.7950131E+02  0.7818608E-02  0.1330473E+00
         -1   -1    0    0    0  501 -0.00000000000E+00  0.00000000000E+00  0.12750038004E+01  0.12750137617E+01  0.50400000000E-02 0.  1.
          2   -1    0    0  501    0  0.00000000000E+00 -0.00000000000E+00 -0.12392970835E+04  0.12392970836E+04  0.25500000000E-02 0. -1.
         24    2    1    2    0    0 -0.22204460493E-15 -0.17763568394E-14 -0.12380220797E+04  0.12405720973E+04  0.79501312489E+02 0.  0.
         66    2    3    3    0    0 -0.15207935545E+01 -0.10850228150E+02 -0.12152515227E+04  0.12153025564E+04  0.19999973302E+01 0.  0.
        -13    1    3    3    0    0  0.15207935545E+01  0.10850228150E+02 -0.22770557067E+02  0.25269540896E+02  0.10566000000E+00 0.  1.
         13    1    4    4    0    0 -0.56866188253E+00 -0.32301771629E+01 -0.33868461012E+03  0.33870050741E+03  0.10566000000E+00 0. -1.
        -13    1    4    4    0    0 -0.85479782816E+00 -0.69622245125E+01 -0.83834939805E+03  0.83837874951E+03  0.10566000000E+00 0.  1.
        -14    1    4    4    0    0 -0.97333843787E-01 -0.65782647481E+00 -0.38217514506E+02  0.38223299498E+02  0.00000000000E+00 0.  1.
<mgrwt>
<rscale>  0 0.79501312E+02</rscale>
<asrwt>0</asrwt>
<pdfrwt beam="1">  1        2 0.19066013E+00 0.79501312E+02</pdfrwt>
<pdfrwt beam="2">  1       -1 0.19615619E-03 0.79501312E+02</pdfrwt>
<totfact> 0.35466844E+05</totfact>
</mgrwt>
</event>
<event>
 8    1  0.1600673E-013  0.7786147E+02  0.7818608E-02  0.1335232E+00
         -1   -1    0    0    0  501 -0.00000000000E+00  0.00000000000E+00  0.27216595003E+02  0.27216595470E+02  0.50400000000E-02 0.  1.
          2   -1    0    0  501    0  0.00000000000E+00 -0.00000000000E+00 -0.55686691590E+02  0.55686691649E+02  0.25500000000E-02 0. -1.
         24    2    1    2    0    0  0.71054273576E-14 -0.44408920985E-15 -0.28470096587E+02  0.82903287118E+02  0.77861470673E+02 0.  0.
         66    2    3    3    0    0 -0.37171950144E+02  0.29846232406E+01 -0.26050001370E+02  0.45533113473E+02  0.19999994419E+01 0.  0.
        -13    1    3    3    0    0  0.37171950144E+02 -0.29846232406E+01 -0.24200952169E+01  0.37370173645E+02  0.10566000000E+00 0.  1.
         13    1    4    4    0    0 -0.18161325655E+02  0.17487297956E+01 -0.11939874526E+02  0.21805127223E+02  0.10566000000E+00 0. -1.
        -13    1    4    4    0    0 -0.15663148075E+02  0.63958881097E+00 -0.11596739894E+02  0.19499713374E+02  0.10566000000E+00 0.  1.
        -14    1    4    4    0    0 -0.33474764130E+01  0.59630463395E+00 -0.25133869502E+01  0.42282728760E+01  0.00000000000E+00 0.  1.
<mgrwt>
<rscale>  0 0.77861471E+02</rscale>
<asrwt>0</asrwt>
<pdfrwt beam="1">  1        2 0.85671833E-02 0.77861471E+02</pdfrwt>
<pdfrwt beam="2">  1       -1 0.41871685E-02 0.77861471E+02</pdfrwt>
<totfact> 0.16475457E+05</totfact>
</mgrwt>
</event>
<event>
 8    1  0.1600673E-013  0.7972554E+02  0.7818608E-02  0.1329832E+00
          2   -1    0    0  501    0  0.00000000000E+00  0.00000000000E+00  0.55597842513E+03  0.55597842514E+03  0.25500000000E-02 0. -1.
         -1   -1    0    0    0  501 -0.00000000000E+00 -0.00000000000E+00 -0.28580950164E+01  0.28580994602E+01  0.50400000000E-02 0.  1.
         24    2    1    2    0    0  0.00000000000E+00  0.35527136788E-14  0.55312033011E+03  0.55883652460E+03  0.79725539432E+02 0.  0.
         66    2    3    3    0    0  0.11335525393E+02  0.21675620328E+02  0.49713875923E+03  0.49774418387E+03  0.19999992872E+01 0.  0.
        -13    1    3    3    0    0 -0.11335525393E+02 -0.21675620328E+02  0.55981570883E+02  0.61092340724E+02  0.10566000000E+00 0.  1.
         13    1    4    4    0    0  0.10443348208E+02  0.20016417815E+02  0.45694056701E+03  0.45749799283E+03  0.10566000000E+00 0. -1.
        -13    1    4    4    0    0  0.94239777655E+00  0.14044616715E+01  0.36131061262E+02  0.36170780723E+02  0.10566000000E+00 0.  1.
         14    1    4    4    0    0 -0.50220591843E-01  0.25474084147E+00  0.40671309616E+01  0.40754103183E+01  0.00000000000E+00 0. -1.
<mgrwt>
<rscale>  0 0.79725539E+02</rscale>
<asrwt>0</asrwt>
<pdfrwt beam="1">  1        2 0.85535133E-01 0.79725539E+02</pdfrwt>
<pdfrwt beam="2">  1       -1 0.43970732E-03 0.79725539E+02</pdfrwt>
<totfact> 0.31747399E+05</totfact>
</mgrwt>
</event>
<event>
 8    1  0.1600673E-013  0.8278010E+02  0.7818608E-02  0.1321342E+00
          2   -1    0    0  501    0  0.00000000000E+00  0.00000000000E+00  0.24727902146E+03  0.24727902147E+03  0.25500000000E-02 0. -1.
         -1   -1    0    0    0  501 -0.00000000000E+00 -0.00000000000E+00 -0.69279466669E+01  0.69279485001E+01  0.50400000000E-02 0.  1.
         24    2    1    2    0    0  0.35527136788E-14  0.17763568394E-14  0.24035107479E+03  0.25420696997E+03  0.82780096815E+02 0.  0.
         66    2    3    3    0    0  0.31361338039E+02 -0.14304790532E+02  0.19047184802E+03  0.19357604566E+03  0.20000021579E+01 0.  0.
        -13    1    3    3    0    0 -0.31361338039E+02  0.14304790532E+02  0.49879226772E+02  0.60630924314E+02  0.10566000000E+00 0.  1.
         13    1    4    4    0    0  0.66720734141E+01 -0.30888429012E+01  0.39035180592E+02  0.39721706937E+02  0.10566000000E+00 0. -1.
        -13    1    4    4    0    0  0.91808980235E+01 -0.45680265985E+01  0.53273444741E+02  0.54251514579E+02  0.10566000000E+00 0. -1.
        -14    1    4    4    0    0  0.15508366602E+02 -0.66479210325E+01  0.98163222688E+02  0.99602824143E+02  0.00000000000E+00 0.  1.
<mgrwt>
<rscale>  0 0.82780097E+02</rscale>
<asrwt>0</asrwt>
<pdfrwt beam="1">  1        2 0.38042928E-01 0.82780097E+02</pdfrwt>
<pdfrwt beam="2">  1       -1 0.10658380E-02 0.82780097E+02</pdfrwt>
<totfact> 0.21729192E+05</totfact>
</mgrwt>
</event>
<event>
 8    1  0.1600673E-013  0.8166936E+02  0.7818608E-02  0.1324380E+00
          2   -1    0    0  501    0  0.00000000000E+00  0.00000000000E+00  0.13672806194E+03  0.13672806196E+03  0.25500000000E-02 0. -1.
         -1   -1    0    0    0  501 -0.00000000000E+00 -0.00000000000E+00 -0.12195528221E+02  0.12195529262E+02  0.50400000000E-02 0.  1.
         24    2    1    2    0    0  0.35527136788E-14  0.17763568394E-14  0.12453253372E+03  0.14892359122E+03  0.81669358201E+02 0.  0.
         66    2    3    3    0    0  0.29026471183E+02 -0.13083578084E+02  0.10885620430E+03  0.11343451526E+03  0.19999980164E+01 0.  0.
        -13    1    3    3    0    0 -0.29026471183E+02  0.13083578084E+02  0.15676329414E+02  0.35489075964E+02  0.10566000000E+00 0.  1.
         13    1    4    4    0    0  0.34095467092E+01 -0.16329340950E+01  0.11768305022E+02  0.12361053744E+02  0.10566000000E+00 0. -1.
        -13    1    4    4    0    0  0.17548104321E+01 -0.12083574859E+01  0.77345121366E+01  0.80232991651E+01  0.10566000000E+00 0.  1.
        -14    1    4    4    0    0  0.23862114042E+02 -0.10242286503E+02  0.89353387144E+02  0.93050162350E+02  0.00000000000E+00 0.  1.
<mgrwt>
<rscale>  0 0.81669358E+02</rscale>
<asrwt>0</asrwt>
<pdfrwt beam="1">  1        2 0.21035086E-01 0.81669358E+02</pdfrwt>
<pdfrwt beam="2">  1       -1 0.18762353E-02 0.81669358E+02</pdfrwt>
<totfact> 0.18408749E+05</totfact>
</mgrwt>
</event>
<event>
 8    1  0.1600673E-013  0.8591998E+02  0.7818608E-02  0.1313044E+00
          2   -1    0    0  501    0  0.00000000000E+00  0.00000000000E+00  0.78915837759E+03  0.78915837760E+03  0.25500000000E-02 0. -1.
         -1   -1    0    0    0  501 -0.00000000000E+00 -0.00000000000E+00 -0.23386415421E+01  0.23386469730E+01  0.50400000000E-02 0.  1.
         24    2    1    2    0    0  0.00000000000E+00 -0.17763568394E-14  0.78681973605E+03  0.79149702457E+03  0.85919979424E+02 0.  0.
         66    2    3    3    0    0 -0.16027933812E+02 -0.10308051346E+02  0.74806462487E+03  0.74830998495E+03  0.20000005352E+01 0.  0.
        -13    1    3    3    0    0  0.16027933812E+02  0.10308051346E+02  0.38755111177E+02  0.43187039621E+02  0.10566000000E+00 0.  1.
         13    1    4    4    0    0 -0.96174680882E+01 -0.66297266126E+01  0.43787300938E+03  0.43802880325E+03  0.10566000000E+00 0. -1.
        -13    1    4    4    0    0 -0.13247895906E+01 -0.12280355946E+01  0.75898191917E+02  0.75919759214E+02  0.10566000000E+00 0. -1.
         14    1    4    4    0    0 -0.50856761333E+01 -0.24502891389E+01  0.23429342358E+03  0.23436142249E+03  0.00000000000E+00 0. -1.
<mgrwt>
<rscale>  0 0.85919979E+02</rscale>
<asrwt>0</asrwt>
<pdfrwt beam="1">  1        2 0.12140907E+00 0.85919979E+02</pdfrwt>
<pdfrwt beam="2">  1       -1 0.35979117E-03 0.85919979E+02</pdfrwt>
<totfact> 0.28461020E+05</totfact>
</mgrwt>
</event>
<event>
 8    1  0.1600673E-013  0.8138296E+02  0.7818608E-02  0.1325172E+00
         -1   -1    0    0    0  501 -0.00000000000E+00  0.00000000000E+00  0.48618465074E+02  0.48618465335E+02  0.50400000000E-02 0.  1.
          2   -1    0    0  501    0  0.00000000000E+00 -0.00000000000E+00 -0.34056945637E+02  0.34056945733E+02  0.25500000000E-02 0. -1.
         24    2    1    2    0    0  0.00000000000E+00  0.00000000000E+00  0.14561519437E+02  0.82675411068E+02  0.81382957350E+02 0.  0.
         66    2    3    3    0    0 -0.12734233175E+02 -0.17104614665E+02 -0.27892267079E+02  0.35166846673E+02  0.20000011707E+01 0.  0.
        -13    1    3    3    0    0  0.12734233175E+02  0.17104614665E+02  0.42453786516E+02  0.47508564396E+02  0.10566000000E+00 0.  1.
         13    1    4    4    0    0 -0.66401627378E+01 -0.80022317887E+01 -0.14625709560E+02  0.17945752114E+02  0.10566000000E+00 0. -1.
        -13    1    4    4    0    0 -0.10059429042E+01 -0.14264842665E+01 -0.17326787679E+01  0.24617307402E+01  0.10566000000E+00 0.  1.
         14    1    4    4    0    0 -0.50881275334E+01 -0.76758986098E+01 -0.11533878751E+02  0.14759363818E+02  0.00000000000E+00 0. -1.
<mgrwt>
<rscale>  0 0.81382957E+02</rscale>
<asrwt>0</asrwt>
<pdfrwt beam="1">  1        2 0.52395301E-02 0.81382957E+02</pdfrwt>
<pdfrwt beam="2">  1       -1 0.74797639E-02 0.81382957E+02</pdfrwt>
<totfact> 0.13154237E+05</totfact>
</mgrwt>
</event>
<event>
 8    1  0.1600673E-013  0.8011106E+02  0.7818608E-02  0.1328737E+00
         -1   -1    0    0    0  501 -0.00000000000E+00  0.00000000000E+00  0.13815271672E+03  0.13815271681E+03  0.50400000000E-02 0.  1.
          2   -1    0    0  501    0  0.00000000000E+00 -0.00000000000E+00 -0.11613564919E+02  0.11613565199E+02  0.25500000000E-02 0. -1.
         24    2    1    2    0    0 -0.44408920985E-15  0.71054273576E-14  0.12653915180E+03  0.14976628201E+03  0.80111062214E+02 0.  0.
         66    2    3    3    0    0  0.27768877555E+01 -0.32986885115E+02  0.21231202442E+02  0.39377781445E+02  0.20000047968E+01 0.  0.
        -13    1    3    3    0    0 -0.27768877555E+01  0.32986885115E+02  0.10530794936E+03  0.11038850057E+03  0.10566000000E+00 0.  1.
         13    1    4    4    0    0  0.37149320537E+00 -0.31485813854E+01  0.18652507698E+01  0.36799315770E+01  0.10566000000E+00 0. -1.
        -13    1    4    4    0    0  0.22595722107E+00 -0.42798747616E+01  0.20735395585E+01  0.47622594403E+01  0.10566000000E+00 0.  1.
        -14    1    4    4    0    0  0.21794373291E+01 -0.25558428968E+02  0.17292412114E+02  0.30935590427E+02  0.00000000000E+00 0.  1.
<mgrwt>
<rscale>  0 0.80111062E+02</rscale>
<asrwt>0</asrwt>
<pdfrwt beam="1">  1        2 0.17867023E-02 0.80111062E+02</pdfrwt>
<pdfrwt beam="2">  1       -1 0.21254265E-01 0.80111062E+02</pdfrwt>
<totfact> 0.10972665E+05</totfact>
</mgrwt>
</event>
<event>
 8    1  0.1600673E-013  0.8119907E+02  0.7818608E-02  0.1325683E+00
          2   -1    0    0  501    0  0.00000000000E+00  0.00000000000E+00  0.17943896539E+03  0.17943896540E+03  0.25500000000E-02 0. -1.
         -1   -1    0    0    0  501 -0.00000000000E+00 -0.00000000000E+00 -0.91859769850E+01  0.91859783677E+01  0.50400000000E-02 0.  1.
         24    2    1    2    0    0 -0.17763568394E-14  0.00000000000E+00  0.17025298840E+03  0.18862494377E+03  0.81199072368E+02 0.  0.
         66    2    3    3    0    0  0.11295770578E+02 -0.38952018843E+02  0.87987909853E+02  0.96905760841E+02  0.19999997373E+01 0.  0.
        -13    1    3    3    0    0 -0.11295770578E+02  0.38952018843E+02  0.82265078548E+02  0.91719182931E+02  0.10566000000E+00 0.  1.
         13    1    4    4    0    0  0.32659608846E+01 -0.10282950871E+02  0.22359126706E+02  0.24826342667E+02  0.10566000000E+00 0.  1.
        -13    1    4    4    0    0  0.63032511919E+01 -0.23335249083E+02  0.52051518109E+02  0.57390212814E+02  0.10566000000E+00 0. -1.
         14    1    4    4    0    0  0.17265585016E+01 -0.53338188894E+01  0.13577265037E+02  0.14689205359E+02  0.00000000000E+00 0. -1.
<mgrwt>
<rscale>  0 0.81199072E+02</rscale>
<asrwt>0</asrwt>
<pdfrwt beam="1">  1        2 0.27605991E-01 0.81199072E+02</pdfrwt>
<pdfrwt beam="2">  1       -1 0.14132276E-02 0.81199072E+02</pdfrwt>
<totfact> 0.20431537E+05</totfact>
</mgrwt>
</event>
<event>
 8    1  0.1600673E-013  0.8042045E+02  0.7818608E-02  0.1327862E+00
         -1   -1    0    0    0  501 -0.00000000000E+00  0.00000000000E+00  0.28654617877E+02  0.28654618320E+02  0.50400000000E-02 0.  1.
          2   -1    0    0  501    0  0.00000000000E+00 -0.00000000000E+00 -0.56425888959E+02  0.56425889017E+02  0.25500000000E-02 0. -1.
         24    2    1    2    0    0  0.00000000000E+00 -0.44408920985E-15 -0.27771271082E+02  0.85080507336E+02  0.80420452816E+02 0.  0.
         66    2    3    3    0    0 -0.15978730113E+02 -0.32019768268E+01 -0.52755325746E+02  0.55251215975E+02  0.20000001400E+01 0.  0.
        -13    1    3    3    0    0  0.15978730113E+02  0.32019768268E+01  0.24984054664E+02  0.29829291361E+02  0.10566000000E+00 0.  1.
         13    1    4    4    0    0 -0.13254136309E+01  0.40203940608E-01 -0.31102159133E+01  0.33827421884E+01  0.10566000000E+00 0. -1.
        -13    1    4    4    0    0 -0.97352806277E+01 -0.24411782371E+01 -0.32660816455E+02  0.34168335278E+02  0.10566000000E+00 0.  1.
         14    1    4    4    0    0 -0.49180358548E+01 -0.80100253032E+00 -0.16984293377E+02  0.17700138509E+02  0.00000000000E+00 0. -1.
<mgrwt>
<rscale>  0 0.80420453E+02</rscale>
<asrwt>0</asrwt>
<pdfrwt beam="1">  1        2 0.86809060E-02 0.80420453E+02</pdfrwt>
<pdfrwt beam="2">  1       -1 0.44084028E-02 0.80420453E+02</pdfrwt>
<totfact> 0.15131276E+05</totfact>
</mgrwt>
</event>
<event>
 8    1  0.1600673E-013  0.8142755E+02  0.7818608E-02  0.1325048E+00
          2   -1    0    0  501    0  0.00000000000E+00  0.00000000000E+00  0.21973367273E+03  0.21973367275E+03  0.25500000000E-02 0. -1.
         -1   -1    0    0    0  501 -0.00000000000E+00 -0.00000000000E+00 -0.75437284314E+01  0.75437301150E+01  0.50400000000E-02 0.  1.
         24    2    1    2    0    0  0.00000000000E+00  0.00000000000E+00  0.21218994430E+03  0.22727740286E+03  0.81427546871E+02 0.  0.
         66    2    3    3    0    0  0.31665803731E+02  0.18819705268E+02  0.57919173270E+02  0.68669753643E+02  0.20000001972E+01 0.  0.
        -13    1    3    3    0    0 -0.31665803731E+02 -0.18819705268E+02  0.15427077103E+03  0.15860764922E+03  0.10566000000E+00 0.  1.
         13    1    4    4    0    0  0.28220970232E+02  0.16878568521E+02  0.51159031514E+02  0.60815844199E+02  0.10566000000E+00 0. -1.
        -13    1    4    4    0    0  0.33660536484E+01  0.17657471991E+01  0.63620144942E+01  0.74117860732E+01  0.10566000000E+00 0.  1.
         14    1    4    4    0    0  0.78779850965E-01  0.17538954780E+00  0.39812726205E+00  0.44212337100E+00  0.00000000000E+00 0. -1.
<mgrwt>
<rscale>  0 0.81427547E+02</rscale>
<asrwt>0</asrwt>
<pdfrwt beam="1">  1        2 0.33805177E-01 0.81427547E+02</pdfrwt>
<pdfrwt beam="2">  1       -1 0.11605739E-02 0.81427547E+02</pdfrwt>
<totfact> 0.21758667E+05</totfact>
</mgrwt>
</event>
<event>
 8    1  0.1600673E-013  0.8050671E+02  0.7818608E-02  0.1327620E+00
          2   -1    0    0  501    0  0.00000000000E+00  0.00000000000E+00  0.18752860211E+03  0.18752860213E+03  0.25500000000E-02 0. -1.
         -1   -1    0    0    0  501 -0.00000000000E+00 -0.00000000000E+00 -0.86404546747E+01  0.86404561446E+01  0.50400000000E-02 0.  1.
         24    2    1    2    0    0  0.44408920985E-15  0.00000000000E+00  0.17888814743E+03  0.19616905827E+03  0.80506708605E+02 0.  0.
         66    2    3    3    0    0  0.35959906802E+01  0.20278784290E+02  0.17370279200E+03  0.17493090119E+03  0.19999998677E+01 0.  0.
        -13    1    3    3    0    0 -0.35959906802E+01 -0.20278784290E+02  0.51853554294E+01  0.21238157081E+02  0.10566000000E+00 0.  1.
         13    1    4    4    0    0  0.70885058403E+00  0.76366706308E+01  0.67034548881E+02  0.67471943171E+02  0.10566000000E+00 0. -1.
        -13    1    4    4    0    0  0.15506687487E+01  0.65527938920E+01  0.51006981258E+02  0.51449654833E+02  0.10566000000E+00 0.  1.
         14    1    4    4    0    0  0.13364713475E+01  0.60893197671E+01  0.55661261865E+02  0.56009303186E+02  0.00000000000E+00 0. -1.
<mgrwt>
<rscale>  0 0.80506709E+02</rscale>
<asrwt>0</asrwt>
<pdfrwt beam="1">  1        2 0.28850551E-01 0.80506709E+02</pdfrwt>
<pdfrwt beam="2">  1       -1 0.13293010E-02 0.80506709E+02</pdfrwt>
<totfact> 0.21216932E+05</totfact>
</mgrwt>
</event>
<event>
 8    1  0.1600673E-013  0.8029771E+02  0.7818608E-02  0.1328209E+00
          2   -1    0    0  501    0  0.00000000000E+00  0.00000000000E+00  0.53798781242E+03  0.53798781242E+03  0.25500000000E-02 0. -1.
         -1   -1    0    0    0  501 -0.00000000000E+00 -0.00000000000E+00 -0.29962189493E+01  0.29962231882E+01  0.50400000000E-02 0.  1.
         24    2    1    2    0    0  0.00000000000E+00  0.00000000000E+00  0.53499159347E+03  0.54098403561E+03  0.80297706724E+02 0.  0.
         66    2    3    3    0    0  0.76651570711E+01  0.37840451443E+02  0.34123942989E+03  0.34342248456E+03  0.19999979836E+01 0.  0.
        -13    1    3    3    0    0 -0.76651570711E+01 -0.37840451443E+02  0.19375216358E+03  0.19756155105E+03  0.10566000000E+00 0.  1.
         13    1    4    4    0    0  0.59004406130E+01  0.27791804487E+02  0.25410110401E+03  0.25568453575E+03  0.10566000000E+00 0. -1.
        -13    1    4    4    0    0  0.76461033099E+00  0.27129623554E+01  0.26287885787E+02  0.26438776388E+02  0.10566000000E+00 0.  1.
         14    1    4    4    0    0  0.10001061271E+01  0.73356846006E+01  0.60850440087E+02  0.61299172422E+02  0.00000000000E+00 0. -1.
<mgrwt>
<rscale>  0 0.80297707E+02</rscale>
<asrwt>0</asrwt>
<pdfrwt beam="1">  1        2 0.82767358E-01 0.80297707E+02</pdfrwt>
<pdfrwt beam="2">  1       -1 0.46095708E-03 0.80297707E+02</pdfrwt>
<totfact> 0.30854172E+05</totfact>
</mgrwt>
</event>
<event>
 8    1  0.1600673E-013  0.8113509E+02  0.7818608E-02  0.1325861E+00
          2   -1    0    0  501    0  0.00000000000E+00  0.00000000000E+00  0.33545438247E+03  0.33545438248E+03  0.25500000000E-02 0. -1.
         -1   -1    0    0    0  501 -0.00000000000E+00 -0.00000000000E+00 -0.49059590330E+01  0.49059616219E+01  0.50400000000E-02 0.  1.
         24    2    1    2    0    0  0.71054273576E-14 -0.35527136788E-14  0.33054842343E+03  0.34036034410E+03  0.81135094751E+02 0.  0.
         66    2    3    3    0    0 -0.33725204190E+02  0.18903622897E+02  0.21657799719E+03  0.22001082986E+03  0.20000076427E+01 0.  0.
        -13    1    3    3    0    0  0.33725204190E+02 -0.18903622897E+02  0.11397042624E+03  0.12034951424E+03  0.10566000000E+00 0.  1.
         13    1    4    4    0    0 -0.28172970339E+02  0.15740526691E+02  0.17783289778E+03  0.18073746467E+03  0.10566000000E+00 0. -1.
        -13    1    4    4    0    0 -0.51539948800E+01  0.30871101911E+01  0.35863235145E+02  0.36363122964E+02  0.10566000000E+00 0. -1.
         14    1    4    4    0    0 -0.39823897012E+00  0.75986015025E-01  0.28818642694E+01  0.29102422268E+01  0.00000000000E+00 0. -1.
<mgrwt>
<rscale>  0 0.81135095E+02</rscale>
<asrwt>0</asrwt>
<pdfrwt beam="1">  1        2 0.51608362E-01 0.81135095E+02</pdfrwt>
<pdfrwt beam="2">  1       -1 0.75476319E-03 0.81135095E+02</pdfrwt>
<totfact> 0.25581219E+05</totfact>
</mgrwt>
</event>
<event>
 8    1  0.1600673E-013  0.8031690E+02  0.7818608E-02  0.1328155E+00
          2   -1    0    0  501    0  0.00000000000E+00  0.00000000000E+00  0.98865193874E+01  0.98865197162E+01  0.25500000000E-02 0. -1.
         -1   -1    0    0    0  501 -0.00000000000E+00 -0.00000000000E+00 -0.16312120249E+03  0.16312120256E+03  0.50400000000E-02 0.  1.
         24    2    1    2    0    0 -0.22204460493E-15 -0.35527136788E-14 -0.15323468310E+03  0.17300772228E+03  0.80316896505E+02 0.  0.
         66    2    3    3    0    0 -0.13506965068E+01 -0.28607926597E+02 -0.16103024114E+02  0.32917248282E+02  0.20000008983E+01 0.  0.
        -13    1    3    3    0    0  0.13506965068E+01  0.28607926597E+02 -0.13713165899E+03  0.14009047400E+03  0.10566000000E+00 0.  1.
         13    1    4    4    0    0 -0.86248869788E+00 -0.12990559329E+02 -0.72501811059E+01  0.14902174624E+02  0.10566000000E+00 0. -1.
        -13    1    4    4    0    0  0.23535530890E+00 -0.41137188535E+01 -0.29210599872E+01  0.50519135396E+01  0.10566000000E+00 0.  1.
        -14    1    4    4    0    0 -0.72356311787E+00 -0.11503648415E+02 -0.59317830212E+01  0.12963160118E+02  0.00000000000E+00 0.  1.
<mgrwt>
<rscale>  0 0.80316897E+02</rscale>
<asrwt>0</asrwt>
<pdfrwt beam="1">  1        2 0.15210031E-02 0.80316897E+02</pdfrwt>
<pdfrwt beam="2">  1       -1 0.25095568E-01 0.80316897E+02</pdfrwt>
<totfact> 0.10448784E+05</totfact>
</mgrwt>
</event>
<event>
 8    1  0.1600673E-013  0.8019914E+02  0.7818608E-02  0.1328487E+00
          2   -1    0    0  501    0  0.00000000000E+00  0.00000000000E+00  0.12204003562E+02  0.12204003829E+02  0.25500000000E-02 0. -1.
         -1   -1    0    0    0  501 -0.00000000000E+00 -0.00000000000E+00 -0.13175804146E+03  0.13175804155E+03  0.50400000000E-02 0.  1.
         24    2    1    2    0    0 -0.71054273576E-14  0.00000000000E+00 -0.11955403789E+03  0.14396204538E+03  0.80199142974E+02 0.  0.
         66    2    3    3    0    0  0.25812013931E+02 -0.30652457120E+02 -0.60479670456E+02  0.72578397093E+02  0.19999988822E+01 0.  0.
        -13    1    3    3    0    0 -0.25812013931E+02  0.30652457120E+02 -0.59074367438E+02  0.71383648288E+02  0.10566000000E+00 0.  1.
         13    1    4    4    0    0  0.40589697136E+01 -0.46556081923E+01 -0.83509476777E+01  0.10387464268E+02  0.10566000000E+00 0. -1.
        -13    1    4    4    0    0  0.20627679203E+01 -0.29355385301E+01 -0.57779920354E+01  0.68021139326E+01  0.10566000000E+00 0.  1.
         14    1    4    4    0    0  0.19690276298E+02 -0.23061310397E+02 -0.46350730743E+02  0.55388818892E+02  0.00000000000E+00 0. -1.
<mgrwt>
<rscale>  0 0.80199143E+02</rscale>
<asrwt>0</asrwt>
<pdfrwt beam="1">  1        2 0.18775391E-02 0.80199143E+02</pdfrwt>
<pdfrwt beam="2">  1       -1 0.20270467E-01 0.80199143E+02</pdfrwt>
<totfact> 0.11068535E+05</totfact>
</mgrwt>
</event>
<event>
 8    1  0.1600673E-013  0.8007923E+02  0.7818608E-02  0.1328827E+00
         -1   -1    0    0    0  501 -0.00000000000E+00  0.00000000000E+00  0.10987846782E+01  0.10987962371E+01  0.50400000000E-02 0.  1.
          2   -1    0    0  501    0  0.00000000000E+00 -0.00000000000E+00 -0.14590321712E+04  0.14590321712E+04  0.25500000000E-02 0. -1.
         24    2    1    2    0    0  0.44408920985E-15  0.17763568394E-14 -0.14579333865E+04  0.14601309675E+04  0.80079226648E+02 0.  0.
         66    2    3    3    0    0 -0.21112147871E+01 -0.10787364042E+02 -0.14309608050E+04  0.14310044200E+04  0.20000014374E+01 0.  0.
        -13    1    3    3    0    0  0.21112147871E+01  0.10787364042E+02 -0.26972581499E+02  0.29126547471E+02  0.10566000000E+00 0.  1.
         13    1    4    4    0    0 -0.11603361405E+01 -0.24612025209E+01 -0.29632846614E+03  0.29634097744E+03  0.10566000000E+00 0. -1.
        -13    1    4    4    0    0 -0.56495863634E+00 -0.27497706049E+01 -0.39258488910E+03  0.39259493977E+03  0.10566000000E+00 0.  1.
         14    1    4    4    0    0 -0.38592001024E+00 -0.55763909158E+01 -0.74204744979E+03  0.74206850277E+03  0.00000000000E+00 0. -1.
<mgrwt>
<rscale>  0 0.80079227E+02</rscale>
<asrwt>0</asrwt>
<pdfrwt beam="1">  1        2 0.22446494E+00 0.80079227E+02</pdfrwt>
<pdfrwt beam="2">  1       -1 0.16904585E-03 0.80079227E+02</pdfrwt>
<totfact> 0.33495490E+05</totfact>
</mgrwt>
</event>
<event>
 8    1  0.1600673E-013  0.8044903E+02  0.7818608E-02  0.1327782E+00
         -1   -1    0    0    0  501 -0.00000000000E+00  0.00000000000E+00  0.71878770928E+01  0.71878788598E+01  0.50400000000E-02 0.  1.
          2   -1    0    0  501    0  0.00000000000E+00 -0.00000000000E+00 -0.22510281757E+03  0.22510281759E+03  0.25500000000E-02 0. -1.
         24    2    1    2    0    0  0.00000000000E+00  0.35527136788E-14 -0.21791494048E+03  0.23229069645E+03  0.80449029649E+02 0.  0.
         66    2    3    3    0    0 -0.22113943970E+02 -0.22554836252E+02 -0.18081998539E+03  0.18356909945E+03  0.20000005554E+01 0.  0.
        -13    1    3    3    0    0  0.22113943970E+02  0.22554836252E+02 -0.37094955092E+02  0.48721596993E+02  0.10566000000E+00 0.  1.
         13    1    4    4    0    0 -0.14266145435E+02 -0.15523714502E+02 -0.11844329101E+03  0.12030516600E+03  0.10566000000E+00 0. -1.
        -13    1    4    4    0    0 -0.70416252249E+01 -0.64739269619E+01 -0.57404807863E+02  0.58196386022E+02  0.10566000000E+00 0.  1.
        -14    1    4    4    0    0 -0.80617330985E+00 -0.55719478844E+00 -0.49718865125E+01  0.50675474276E+01  0.00000000000E+00 0.  1.
<mgrwt>
<rscale>  0 0.80449030E+02</rscale>
<asrwt>0</asrwt>
<pdfrwt beam="1">  1        2 0.34631197E-01 0.80449030E+02</pdfrwt>
<pdfrwt beam="2">  1       -1 0.11058276E-02 0.80449030E+02</pdfrwt>
<totfact> 0.22656300E+05</totfact>
</mgrwt>
</event>
<event>
 8    1  0.1600673E-013  0.7738968E+02  0.7818608E-02  0.1336627E+00
         -1   -1    0    0    0  501 -0.00000000000E+00  0.00000000000E+00  0.48477043250E+01  0.48477069450E+01  0.50400000000E-02 0.  1.
          2   -1    0    0  501    0  0.00000000000E+00 -0.00000000000E+00 -0.30886584244E+03  0.30886584245E+03  0.25500000000E-02 0. -1.
         24    2    1    2    0    0 -0.22204460493E-15 -0.17763568394E-14 -0.30401813812E+03  0.31371354940E+03  0.77389681298E+02 0.  0.
         66    2    3    3    0    0  0.19378473349E+01  0.15789842740E+02 -0.29498258717E+03  0.29541801084E+03  0.20000028742E+01 0.  0.
        -13    1    3    3    0    0 -0.19378473349E+01 -0.15789842740E+02 -0.90355509496E+01  0.18295538556E+02  0.10566000000E+00 0.  1.
         13    1    4    4    0    0  0.20803338507E+00  0.32182819910E+01 -0.52719364762E+02  0.52818019670E+02  0.10566000000E+00 0. -1.
        -13    1    4    4    0    0  0.12768136411E+01  0.41338791108E+01 -0.80876599952E+02  0.80992313174E+02  0.10566000000E+00 0.  1.
         14    1    4    4    0    0  0.45300030867E+00  0.84376816385E+01 -0.16138662245E+03  0.16160767800E+03  0.00000000000E+00 0. -1.
<mgrwt>
<rscale>  0 0.77389681E+02</rscale>
<asrwt>0</asrwt>
<pdfrwt beam="1">  1        2 0.47517807E-01 0.77389681E+02</pdfrwt>
<pdfrwt beam="2">  1       -1 0.74580111E-03 0.77389681E+02</pdfrwt>
<totfact> 0.28100738E+05</totfact>
</mgrwt>
</event>
<event>
 8    1  0.1600673E-013  0.7920137E+02  0.7818608E-02  0.1331333E+00
         -1   -1    0    0    0  501 -0.00000000000E+00  0.00000000000E+00  0.34361555856E+01  0.34361592819E+01  0.50400000000E-02 0.  1.
          2   -1    0    0  501    0  0.00000000000E+00 -0.00000000000E+00 -0.45638602085E+03  0.45638602085E+03  0.25500000000E-02 0. -1.
         24    2    1    2    0    0  0.00000000000E+00  0.00000000000E+00 -0.45294986526E+03  0.45982218014E+03  0.79201369336E+02 0.  0.
         66    2    3    3    0    0 -0.45576390298E+00  0.29167976951E+02 -0.38188634998E+03  0.38300412908E+03  0.19999973821E+01 0.  0.
        -13    1    3    3    0    0  0.45576390298E+00 -0.29167976951E+02 -0.71063515278E+02  0.76818051055E+02  0.10566000000E+00 0.  1.
         13    1    4    4    0    0 -0.33970606967E+00  0.14557349896E+02 -0.18497169186E+03  0.18554398343E+03  0.10566000000E+00 0. -1.
        -13    1    4    4    0    0 -0.33572670185E+00  0.38806399848E+01 -0.59007118537E+02  0.59135634614E+02  0.10566000000E+00 0.  1.
        -14    1    4    4    0    0  0.21966886855E+00  0.10729987070E+02 -0.13790753959E+03  0.13832451103E+03  0.00000000000E+00 0.  1.
<mgrwt>
<rscale>  0 0.79201369E+02</rscale>
<asrwt>0</asrwt>
<pdfrwt beam="1">  1        2 0.70213186E-01 0.79201369E+02</pdfrwt>
<pdfrwt beam="2">  1       -1 0.52863997E-03 0.79201369E+02</pdfrwt>
<totfact> 0.30340926E+05</totfact>
</mgrwt>
</event>
<event>
 8    1  0.1600673E-013  0.7234553E+02  0.7818608E-02  0.1352294E+00
         -1   -1    0    0    0  501 -0.00000000000E+00  0.00000000000E+00  0.54662236797E+02  0.54662237029E+02  0.50400000000E-02 0.  1.
          2   -1    0    0  501    0  0.00000000000E+00 -0.00000000000E+00 -0.23937346952E+02  0.23937347088E+02  0.25500000000E-02 0. -1.
         24    2    1    2    0    0  0.44408920985E-15 -0.17763568394E-14  0.30724889845E+02  0.78599584117E+02  0.72345530390E+02 0.  0.
         66    2    3    3    0    0 -0.21338872238E+01  0.10277467335E+02 -0.22203162056E+02  0.24640621455E+02  0.20000027152E+01 0.  0.
        -13    1    3    3    0    0  0.21338872238E+01 -0.10277467335E+02  0.52928051901E+02  0.53958962662E+02  0.10566000000E+00 0.  1.
         13    1    4    4    0    0 -0.55675618827E+00  0.10554973025E+01 -0.18470083381E+01  0.22015121724E+01  0.10566000000E+00 0.  1.
        -13    1    4    4    0    0 -0.56732476807E+00  0.66854098252E+01 -0.14321072649E+02  0.15815209382E+02  0.10566000000E+00 0. -1.
         14    1    4    4    0    0 -0.10098062674E+01  0.25365602078E+01 -0.60350810691E+01  0.66238999008E+01  0.00000000000E+00 0. -1.
<mgrwt>
<rscale>  0 0.72345530E+02</rscale>
<asrwt>0</asrwt>
<pdfrwt beam="1">  1        2 0.36826687E-02 0.72345530E+02</pdfrwt>
<pdfrwt beam="2">  1       -1 0.84095751E-02 0.72345530E+02</pdfrwt>
<totfact> 0.17073061E+05</totfact>
</mgrwt>
</event>
<event>
 8    1  0.1600673E-013  0.7953191E+02  0.7818608E-02  0.1330385E+00
         -1   -1    0    0    0  501 -0.00000000000E+00  0.00000000000E+00  0.83950572379E+00  0.83952085256E+00  0.50400000000E-02 0.  1.
          2   -1    0    0  501    0  0.00000000000E+00 -0.00000000000E+00 -0.18836286621E+04  0.18836286621E+04  0.25500000000E-02 0. -1.
         24    2    1    2    0    0  0.17763568394E-14 -0.88817841970E-15 -0.18827891564E+04  0.18844681830E+04  0.79531913087E+02 0.  0.
         66    2    3    3    0    0  0.13322312587E+02 -0.72534028020E+01 -0.18123312571E+04  0.18123958402E+04  0.20000037432E+01 0.  0.
        -13    1    3    3    0    0 -0.13322312587E+02  0.72534028020E+01 -0.70457899271E+02  0.72072342814E+02  0.10566000000E+00 0.  1.
         13    1    4    4    0    0  0.19361839410E+01 -0.40437236111E+00 -0.25219713438E+03  0.25220491288E+03  0.10566000000E+00 0.  1.
        -13    1    4    4    0    0  0.16666399559E+01 -0.77510544720E+00 -0.23887799114E+03  0.23888508596E+03  0.10566000000E+00 0. -1.
        -14    1    4    4    0    0  0.97194886904E+01 -0.60739249937E+01 -0.13212561316E+04  0.13213058413E+04  0.00000000000E+00 0.  1.
<mgrwt>
<rscale>  0 0.79531913E+02</rscale>
<asrwt>0</asrwt>
<pdfrwt beam="1">  1        2 0.28978564E+00 0.79531913E+02</pdfrwt>
<pdfrwt beam="2">  1       -1 0.12915740E-03 0.79531913E+02</pdfrwt>
<totfact> 0.29673264E+05</totfact>
</mgrwt>
</event>
<event>
 8    1  0.1600673E-013  0.7991081E+02  0.7818608E-02  0.1329305E+00
          2   -1    0    0  501    0  0.00000000000E+00  0.00000000000E+00  0.17080988470E+03  0.17080988472E+03  0.25500000000E-02 0. -1.
         -1   -1    0    0    0  501 -0.00000000000E+00 -0.00000000000E+00 -0.93462642138E+01  0.93462655727E+01  0.50400000000E-02 0.  1.
         24    2    1    2    0    0  0.71054273576E-14 -0.35527136788E-14  0.16146362049E+03  0.18015615029E+03  0.79910811205E+02 0.  0.
         66    2    3    3    0    0 -0.35185482578E+02  0.17020541041E+02  0.99196194567E+02  0.10663771385E+03  0.19999995024E+01 0.  0.
        -13    1    3    3    0    0  0.35185482578E+02 -0.17020541041E+02  0.62267425919E+02  0.73518436437E+02  0.10566000000E+00 0.  1.
         13    1    4    4    0    0 -0.28644255555E+01  0.17998781828E+01  0.75376891055E+01  0.82627124071E+01  0.10566000000E+00 0. -1.
        -13    1    4    4    0    0 -0.14574782597E+02  0.67958448646E+01  0.41254009611E+02  0.44277672344E+02  0.10566000000E+00 0.  1.
         14    1    4    4    0    0 -0.17746274425E+02  0.84248179933E+01  0.50404495850E+02  0.54097329103E+02  0.00000000000E+00 0. -1.
<mgrwt>
<rscale>  0 0.79910811E+02</rscale>
<asrwt>0</asrwt>
<pdfrwt beam="1">  1        2 0.26278442E-01 0.79910811E+02</pdfrwt>
<pdfrwt beam="2">  1       -1 0.14378870E-02 0.79910811E+02</pdfrwt>
<totfact> 0.20964253E+05</totfact>
</mgrwt>
</event>
<event>
 8    1  0.1600673E-013  0.8004069E+02  0.7818608E-02  0.1328936E+00
         -1   -1    0    0    0  501 -0.00000000000E+00  0.00000000000E+00  0.21597621285E+03  0.21597621291E+03  0.50400000000E-02 0.  1.
          2   -1    0    0  501    0  0.00000000000E+00 -0.00000000000E+00 -0.74157612427E+01  0.74157616812E+01  0.25500000000E-02 0. -1.
         24    2    1    2    0    0 -0.35527136788E-14  0.35527136788E-14  0.20856045160E+03  0.22339197459E+03  0.80040691754E+02 0.  0.
         66    2    3    3    0    0 -0.31611537445E+02 -0.22773612687E+02  0.79118584276E+02  0.88213814680E+02  0.19999970164E+01 0.  0.
        -13    1    3    3    0    0  0.31611537445E+02  0.22773612687E+02  0.12944186733E+03  0.13517815991E+03  0.10566000000E+00 0.  1.
         13    1    4    4    0    0 -0.76763094200E+00 -0.34761498673E+00  0.18250916481E+01  0.20130119229E+01  0.10566000000E+00 0. -1.
        -13    1    4    4    0    0 -0.22649772933E+02 -0.17219848355E+02  0.57866463676E+02  0.64483130924E+02  0.10566000000E+00 0.  1.
         14    1    4    4    0    0 -0.81941335697E+01 -0.52061493449E+01  0.19427028952E+02  0.21717671833E+02  0.00000000000E+00 0. -1.
<mgrwt>
<rscale>  0 0.80040692E+02</rscale>
<asrwt>0</asrwt>
<pdfrwt beam="1">  1        2 0.11408867E-02 0.80040692E+02</pdfrwt>
<pdfrwt beam="2">  1       -1 0.33227100E-01 0.80040692E+02</pdfrwt>
<totfact> 0.97130706E+04</totfact>
</mgrwt>
</event>
<event>
 8    1  0.1600673E-013  0.7799391E+02  0.7818608E-02  0.1334843E+00
          2   -1    0    0  501    0  0.00000000000E+00  0.00000000000E+00  0.59591607398E+02  0.59591607453E+02  0.25500000000E-02 0. -1.
         -1   -1    0    0    0  501 -0.00000000000E+00 -0.00000000000E+00 -0.25519743342E+02  0.25519743839E+02  0.50400000000E-02 0.  1.
         24    2    1    2    0    0 -0.35527136788E-14  0.00000000000E+00  0.34071864056E+02  0.85111351292E+02  0.77993911291E+02 0.  0.
         66    2    3    3    0    0 -0.26770643584E+02  0.16025509081E+02  0.42529126381E+02  0.52784570610E+02  0.20000011154E+01 0.  0.
        -13    1    3    3    0    0  0.26770643584E+02 -0.16025509081E+02 -0.84572623249E+01  0.32326780682E+02  0.10566000000E+00 0.  1.
         13    1    4    4    0    0 -0.20208589918E+02  0.11192441024E+02  0.31562532138E+02  0.39113456017E+02  0.10566000000E+00 0. -1.
        -13    1    4    4    0    0 -0.14711133526E+01  0.11672466865E+01  0.22716917093E+01  0.29493027279E+01  0.10566000000E+00 0.  1.
         14    1    4    4    0    0 -0.50909403135E+01  0.36658213705E+01  0.86949025339E+01  0.10721811865E+02  0.00000000000E+00 0. -1.
<mgrwt>
<rscale>  0 0.77993911E+02</rscale>
<asrwt>0</asrwt>
<pdfrwt beam="1">  1        2 0.91679395E-02 0.77993911E+02</pdfrwt>
<pdfrwt beam="2">  1       -1 0.39261145E-02 0.77993911E+02</pdfrwt>
<totfact> 0.16651790E+05</totfact>
</mgrwt>
</event>
<event>
 8    1  0.1600673E-013  0.7843648E+02  0.7818608E-02  0.1333548E+00
         -1   -1    0    0    0  501 -0.00000000000E+00  0.00000000000E+00  0.11071906404E+02  0.11071907551E+02  0.50400000000E-02 0.  1.
          2   -1    0    0  501    0  0.00000000000E+00 -0.00000000000E+00 -0.13891648863E+03  0.13891648865E+03  0.25500000000E-02 0. -1.
         24    2    1    2    0    0 -0.35527136788E-14  0.71054273576E-14 -0.12784458223E+03  0.14998839620E+03  0.78436482528E+02 0.  0.
         66    2    3    3    0    0  0.23251794043E+02 -0.31550176571E+02 -0.64111141217E+02  0.75168464136E+02  0.20000011177E+01 0.  0.
        -13    1    3    3    0    0 -0.23251794043E+02  0.31550176571E+02 -0.63733441009E+02  0.74819932068E+02  0.10566000000E+00 0.  1.
         13    1    4    4    0    0  0.17438704996E+02 -0.22617190239E+02 -0.45960768185E+02  0.54111450752E+02  0.10566000000E+00 0. -1.
        -13    1    4    4    0    0  0.21109098694E+00 -0.32953388306E+00 -0.79639956507E+00  0.89362648109E+00  0.10566000000E+00 0. -1.
         14    1    4    4    0    0  0.56019980600E+01 -0.86034524490E+01 -0.17353973467E+02  0.20163386903E+02  0.00000000000E+00 0. -1.
<mgrwt>
<rscale>  0 0.78436483E+02</rscale>
<asrwt>0</asrwt>
<pdfrwt beam="1">  1        2 0.21371766E-01 0.78436483E+02</pdfrwt>
<pdfrwt beam="2">  1       -1 0.17033704E-02 0.78436483E+02</pdfrwt>
<totfact> 0.20597759E+05</totfact>
</mgrwt>
</event>
<event>
 8    1  0.1600673E-013  0.7931273E+02  0.7818608E-02  0.1331013E+00
         -1   -1    0    0    0  501 -0.00000000000E+00  0.00000000000E+00  0.16645488614E+02  0.16645489377E+02  0.50400000000E-02 0.  1.
          2   -1    0    0  501    0  0.00000000000E+00 -0.00000000000E+00 -0.94477693611E+02  0.94477693646E+02  0.25500000000E-02 0. -1.
         24    2    1    2    0    0  0.17763568394E-14  0.35527136788E-14 -0.77832204997E+02  0.11112318302E+03  0.79312733343E+02 0.  0.
         66    2    3    3    0    0  0.13105426081E+02  0.29683547040E+02 -0.70821261091E+02  0.77926351003E+02  0.20000001207E+01 0.  0.
        -13    1    3    3    0    0 -0.13105426081E+02 -0.29683547040E+02 -0.70109439065E+01  0.33196832020E+02  0.10566000000E+00 0.  1.
         13    1    4    4    0    0  0.55393908894E+01  0.11285006759E+02 -0.28511407892E+02  0.31160034868E+02  0.10566000000E+00 0. -1.
        -13    1    4    4    0    0  0.64896717180E+01  0.16600938694E+02 -0.38144058208E+02  0.42103293757E+02  0.10566000000E+00 0.  1.
        -14    1    4    4    0    0  0.10763634736E+01  0.17976015868E+01 -0.41657949912E+01  0.46630223783E+01  0.00000000000E+00 0.  1.
<mgrwt>
<rscale>  0 0.79312733E+02</rscale>
<asrwt>0</asrwt>
<pdfrwt beam="1">  1        2 0.14535029E-01 0.79312733E+02</pdfrwt>
<pdfrwt beam="2">  1       -1 0.25608445E-02 0.79312733E+02</pdfrwt>
<totfact> 0.17857587E+05</totfact>
</mgrwt>
</event>
<event>
 8    1  0.1600673E-013  0.7952471E+02  0.7818608E-02  0.1330406E+00
         -1   -1    0    0    0  501 -0.00000000000E+00  0.00000000000E+00  0.12204185396E+02  0.12204186436E+02  0.50400000000E-02 0.  1.
          2   -1    0    0  501    0  0.00000000000E+00 -0.00000000000E+00 -0.12954938284E+03  0.12954938287E+03  0.25500000000E-02 0. -1.
         24    2    1    2    0    0  0.00000000000E+00 -0.35527136788E-14 -0.11734519744E+03  0.14175356930E+03  0.79524707145E+02 0.  0.
         66    2    3    3    0    0  0.34912075151E+02  0.18573336422E+02 -0.65663219173E+02  0.76677768428E+02  0.20000004424E+01 0.  0.
        -13    1    3    3    0    0 -0.34912075151E+02 -0.18573336422E+02 -0.51681978272E+02  0.65075800874E+02  0.10566000000E+00 0.  1.
         13    1    4    4    0    0  0.13427455240E+02  0.61504022963E+01 -0.24898944706E+02  0.28949829259E+02  0.10566000000E+00 0. -1.
        -13    1    4    4    0    0  0.19904293246E+02  0.11573723788E+02 -0.37559733501E+02  0.44055382380E+02  0.10566000000E+00 0.  1.
         14    1    4    4    0    0  0.15803266652E+01  0.84921033766E+00 -0.32045409662E+01  0.36725567893E+01  0.00000000000E+00 0. -1.
<mgrwt>
<rscale>  0 0.79524707E+02</rscale>
<asrwt>0</asrwt>
<pdfrwt beam="1">  1        2 0.19930673E-01 0.79524707E+02</pdfrwt>
<pdfrwt beam="2">  1       -1 0.18775672E-02 0.79524707E+02</pdfrwt>
<totfact> 0.19431762E+05</totfact>
</mgrwt>
</event>
<event>
 8    1  0.1600673E-013  0.7987009E+02  0.7818608E-02  0.1329420E+00
         -1   -1    0    0    0  501 -0.00000000000E+00  0.00000000000E+00  0.10895769583E+03  0.10895769594E+03  0.50400000000E-02 0.  1.
          2   -1    0    0  501    0  0.00000000000E+00 -0.00000000000E+00 -0.14636946513E+02  0.14636946735E+02  0.25500000000E-02 0. -1.
         24    2    1    2    0    0  0.00000000000E+00  0.00000000000E+00  0.94320749313E+02  0.12359464268E+03  0.79870094199E+02 0.  0.
         66    2    3    3    0    0  0.32258636741E+01  0.27824677113E+02  0.31981760168E+01  0.28263884886E+02  0.20000015311E+01 0.  0.
        -13    1    3    3    0    0 -0.32258636741E+01 -0.27824677113E+02  0.91122573296E+02  0.95330757791E+02  0.10566000000E+00 0.  1.
         13    1    4    4    0    0  0.19811275073E+01  0.13947136857E+02  0.14714060546E+01  0.14164169320E+02  0.10566000000E+00 0.  1.
        -13    1    4    4    0    0  0.13629464779E+01  0.13316055979E+02  0.18487361318E+01  0.13513103243E+02  0.10566000000E+00 0. -1.
        -14    1    4    4    0    0 -0.11821031114E+00  0.56148427642E+00 -0.12196616955E+00  0.58661232244E+00  0.00000000000E+00 0.  1.
<mgrwt>
<rscale>  0 0.79870094E+02</rscale>
<asrwt>0</asrwt>
<pdfrwt beam="1">  1        2 0.22518379E-02 0.79870094E+02</pdfrwt>
<pdfrwt beam="2">  1       -1 0.16762723E-01 0.79870094E+02</pdfrwt>
<totfact> 0.11681434E+05</totfact>
</mgrwt>
</event>
<event>
 8    1  0.1600673E-013  0.8217495E+02  0.7818608E-02  0.1322990E+00
         -1   -1    0    0    0  501 -0.00000000000E+00  0.00000000000E+00  0.52376492252E+02  0.52376492495E+02  0.50400000000E-02 0.  1.
          2   -1    0    0  501    0  0.00000000000E+00 -0.00000000000E+00 -0.32231646445E+02  0.32231646546E+02  0.25500000000E-02 0. -1.
         24    2    1    2    0    0  0.88817841970E-15  0.00000000000E+00  0.20144845808E+02  0.84608139041E+02  0.82174949828E+02 0.  0.
         66    2    3    3    0    0 -0.49514805567E+01  0.21795309175E+02 -0.25389003829E+02  0.33884423793E+02  0.19999996571E+01 0.  0.
        -13    1    3    3    0    0  0.49514805567E+01 -0.21795309175E+02  0.45533849636E+02  0.50723715247E+02  0.10566000000E+00 0.  1.
         13    1    4    4    0    0 -0.94577166227E-01  0.48309007581E+00 -0.71943509078E+00  0.87810691101E+00  0.10566000000E+00 0. -1.
        -13    1    4    4    0    0 -0.14043099778E+01  0.83354717617E+01 -0.10583231062E+02  0.13545040412E+02  0.10566000000E+00 0.  1.
        -14    1    4    4    0    0 -0.34525934127E+01  0.12976747338E+02 -0.14086337676E+02  0.19461276470E+02  0.00000000000E+00 0.  1.
<mgrwt>
<rscale>  0 0.82174950E+02</rscale>
<asrwt>0</asrwt>
<pdfrwt beam="1">  1        2 0.49587149E-02 0.82174950E+02</pdfrwt>
<pdfrwt beam="2">  1       -1 0.80579219E-02 0.82174950E+02</pdfrwt>
<totfact> 0.12660583E+05</totfact>
</mgrwt>
</event>
<event>
 8    1  0.1600673E-013  0.8858534E+02  0.7818608E-02  0.1306314E+00
          2   -1    0    0  501    0  0.00000000000E+00  0.00000000000E+00  0.29080196002E+03  0.29080196003E+03  0.25500000000E-02 0. -1.
         -1   -1    0    0    0  501 -0.00000000000E+00 -0.00000000000E+00 -0.67463100722E+01  0.67463119549E+01  0.50400000000E-02 0.  1.
         24    2    1    2    0    0  0.00000000000E+00  0.00000000000E+00  0.28405564995E+03  0.29754827198E+03  0.88585336792E+02 0.  0.
         66    2    3    3    0    0 -0.43355041223E+02 -0.87346562057E+01  0.14871760691E+03  0.15516726596E+03  0.20000007991E+01 0.  0.
        -13    1    3    3    0    0  0.43355041223E+02  0.87346562057E+01  0.13533804304E+03  0.14238100602E+03  0.10566000000E+00 0.  1.
         13    1    4    4    0    0 -0.12484835052E+02 -0.28933224251E+01  0.42881983439E+02  0.44756207264E+02  0.10566000000E+00 0. -1.
        -13    1    4    4    0    0 -0.25076473483E+02 -0.43574193748E+01  0.87269755994E+02  0.90905654946E+02  0.10566000000E+00 0.  1.
        -14    1    4    4    0    0 -0.57937326885E+01 -0.14839144058E+01  0.18565867473E+02  0.19505403750E+02  0.00000000000E+00 0.  1.
<mgrwt>
<rscale>  0 0.88585337E+02</rscale>
<asrwt>0</asrwt>
<pdfrwt beam="1">  1        2 0.44738759E-01 0.88585337E+02</pdfrwt>
<pdfrwt beam="2">  1       -1 0.10378941E-02 0.88585337E+02</pdfrwt>
<totfact> 0.19267826E+05</totfact>
</mgrwt>
</event>
<event>
 8    1  0.1600673E-013  0.7970259E+02  0.7818608E-02  0.1329898E+00
          2   -1    0    0  501    0  0.00000000000E+00  0.00000000000E+00  0.82366020868E+02  0.82366020907E+02  0.25500000000E-02 0. -1.
         -1   -1    0    0    0  501 -0.00000000000E+00 -0.00000000000E+00 -0.19281321587E+02  0.19281322245E+02  0.50400000000E-02 0.  1.
         24    2    1    2    0    0  0.00000000000E+00  0.88817841970E-15  0.63084699281E+02  0.10164734315E+03  0.79702591467E+02 0.  0.
         66    2    3    3    0    0  0.13769045466E+02  0.74230241516E+01  0.78271962123E+02  0.79844774100E+02  0.19999989469E+01 0.  0.
        -13    1    3    3    0    0 -0.13769045466E+02 -0.74230241516E+01 -0.15187262842E+02  0.21802569053E+02  0.10566000000E+00 0.  1.
         13    1    4    4    0    0  0.44000835456E+01  0.18980034236E+01  0.25380959526E+02  0.25829584253E+02  0.10566000000E+00 0. -1.
        -13    1    4    4    0    0  0.16567466490E+01  0.43777437372E+00  0.76114844488E+01  0.78027120548E+01  0.10566000000E+00 0.  1.
         14    1    4    4    0    0  0.77122152719E+01  0.50872463543E+01  0.45279518149E+02  0.46212477792E+02  0.00000000000E+00 0. -1.
<mgrwt>
<rscale>  0 0.79702591E+02</rscale>
<asrwt>0</asrwt>
<pdfrwt beam="1">  1        2 0.12671696E-01 0.79702591E+02</pdfrwt>
<pdfrwt beam="2">  1       -1 0.29663572E-02 0.79702591E+02</pdfrwt>
<totfact> 0.16991398E+05</totfact>
</mgrwt>
</event>
<event>
 8    1  0.1600673E-013  0.7958608E+02  0.7818608E-02  0.1330230E+00
          2   -1    0    0  501    0  0.00000000000E+00  0.00000000000E+00  0.16194206566E+02  0.16194206766E+02  0.25500000000E-02 0. -1.
         -1   -1    0    0    0  501 -0.00000000000E+00 -0.00000000000E+00 -0.97781015430E+02  0.97781015560E+02  0.50400000000E-02 0.  1.
         24    2    1    2    0    0  0.00000000000E+00  0.00000000000E+00 -0.81586808864E+02  0.11397522233E+03  0.79586078705E+02 0.  0.
         66    2    3    3    0    0 -0.33707694492E+02  0.16685898044E+02 -0.22320421761E+02  0.43781606763E+02  0.20000004366E+01 0.  0.
        -13    1    3    3    0    0  0.33707694492E+02 -0.16685898044E+02 -0.59266387104E+02  0.70193615563E+02  0.10566000000E+00 0.  1.
         13    1    4    4    0    0 -0.12871952179E+02  0.54178402346E+01 -0.85737619810E+01  0.16387821827E+02  0.10566000000E+00 0. -1.
        -13    1    4    4    0    0 -0.46480650278E+01  0.27321837838E+01 -0.29821448243E+01  0.61622794906E+01  0.10566000000E+00 0.  1.
         14    1    4    4    0    0 -0.16187677285E+02  0.85358740251E+01 -0.10764514955E+02  0.21231505445E+02  0.00000000000E+00 0. -1.
<mgrwt>
<rscale>  0 0.79586079E+02</rscale>
<asrwt>0</asrwt>
<pdfrwt beam="1">  1        2 0.24914165E-02 0.79586079E+02</pdfrwt>
<pdfrwt beam="2">  1       -1 0.15043233E-01 0.79586079E+02</pdfrwt>
<totfact> 0.12064786E+05</totfact>
</mgrwt>
</event>
<event>
 8    1  0.1600673E-013  0.8340738E+02  0.7818608E-02  0.1319651E+00
         -1   -1    0    0    0  501 -0.00000000000E+00  0.00000000000E+00  0.22556532525E+01  0.22556588831E+01  0.50400000000E-02 0.  1.
          2   -1    0    0  501    0  0.00000000000E+00 -0.00000000000E+00 -0.77103845152E+03  0.77103845153E+03  0.25500000000E-02 0. -1.
         24    2    1    2    0    0  0.00000000000E+00  0.00000000000E+00 -0.76878279827E+03  0.77329411041E+03  0.83407375445E+02 0.  0.
         66    2    3    3    0    0 -0.59359843396E+01  0.31157595837E+02 -0.63530740235E+03  0.63610182138E+03  0.19999993691E+01 0.  0.
        -13    1    3    3    0    0  0.59359843396E+01 -0.31157595837E+02 -0.13347539592E+03  0.13719228903E+03  0.10566000000E+00 0.  1.
         13    1    4    4    0    0 -0.61843551692E+00  0.51074886635E+01 -0.11178001934E+03  0.11189840388E+03  0.10566000000E+00 0.  1.
        -13    1    4    4    0    0 -0.33159824706E+01  0.17788470172E+02 -0.36508168772E+03  0.36552985553E+03  0.10566000000E+00 0. -1.
         14    1    4    4    0    0 -0.20015663521E+01  0.82616370014E+01 -0.15844569529E+03  0.15867356197E+03  0.00000000000E+00 0. -1.
<mgrwt>
<rscale>  0 0.83407375E+02</rscale>
<asrwt>0</asrwt>
<pdfrwt beam="1">  1        2 0.11862109E+00 0.83407375E+02</pdfrwt>
<pdfrwt beam="2">  1       -1 0.34702463E-03 0.83407375E+02</pdfrwt>
<totfact> 0.30624017E+05</totfact>
</mgrwt>
</event>
<event>
 8    1  0.1600673E-013  0.7996416E+02  0.7818608E-02  0.1329153E+00
         -1   -1    0    0    0  501 -0.00000000000E+00  0.00000000000E+00  0.51934645981E+02  0.51934646226E+02  0.50400000000E-02 0.  1.
          2   -1    0    0  501    0  0.00000000000E+00 -0.00000000000E+00 -0.30780352431E+02  0.30780352537E+02  0.25500000000E-02 0. -1.
         24    2    1    2    0    0  0.00000000000E+00 -0.71054273576E-14  0.21154293550E+02  0.82714998763E+02  0.79964160001E+02 0.  0.
         66    2    3    3    0    0  0.36617158389E+01 -0.37778210046E+02 -0.23342801053E+01  0.38079524377E+02  0.19999990032E+01 0.  0.
        -13    1    3    3    0    0 -0.36617158389E+01  0.37778210046E+02  0.23488573655E+02  0.44635474385E+02  0.10566000000E+00 0.  1.
         13    1    4    4    0    0  0.20684772039E+01 -0.22895556074E+02 -0.20761107237E+01  0.23082601363E+02  0.10566000000E+00 0. -1.
        -13    1    4    4    0    0  0.16033532437E+01 -0.13666782076E+02 -0.36483963365E-01  0.13760965412E+02  0.10566000000E+00 0.  1.
         14    1    4    4    0    0 -0.10114608641E-01 -0.12158718956E+01 -0.22168541826E+00  0.12359576031E+01  0.00000000000E+00 0. -1.
<mgrwt>
<rscale>  0 0.79964160E+02</rscale>
<asrwt>0</asrwt>
<pdfrwt beam="1">  1        2 0.47354388E-02 0.79964160E+02</pdfrwt>
<pdfrwt beam="2">  1       -1 0.79899456E-02 0.79964160E+02</pdfrwt>
<totfact> 0.13540634E+05</totfact>
</mgrwt>
</event>
<event>
 8    1  0.1600673E-013  0.7756978E+02  0.7818608E-02  0.1336093E+00
         -1   -1    0    0    0  501 -0.00000000000E+00  0.00000000000E+00  0.15144025923E+01  0.15144109789E+01  0.50400000000E-02 0.  1.
          2   -1    0    0  501    0  0.00000000000E+00 -0.00000000000E+00 -0.99330493484E+03  0.99330493484E+03  0.25500000000E-02 0. -1.
         24    2    1    2    0    0 -0.35527136788E-14  0.00000000000E+00 -0.99179053224E+03  0.99481934582E+03  0.77569781268E+02 0.  0.
         66    2    3    3    0    0 -0.16318573516E+02 -0.17332830618E+02 -0.88849195600E+03  0.88881307300E+03  0.20000000501E+01 0.  0.
        -13    1    3    3    0    0  0.16318573516E+02  0.17332830618E+02 -0.10329857625E+03  0.10600627282E+03  0.10566000000E+00 0.  1.
         13    1    4    4    0    0 -0.31399458742E+01 -0.38588516629E+01 -0.19639498392E+03  0.19645801299E+03  0.10566000000E+00 0. -1.
        -13    1    4    4    0    0 -0.54920943776E+01 -0.61360546073E+01 -0.27996167775E+03  0.28008278497E+03  0.10566000000E+00 0.  1.
        -14    1    4    4    0    0 -0.76865332639E+01 -0.73379243475E+01 -0.41213529433E+03  0.41227227503E+03  0.00000000000E+00 0.  1.
<mgrwt>
<rscale>  0 0.77569781E+02</rscale>
<asrwt>0</asrwt>
<pdfrwt beam="1">  1        2 0.15281562E+00 0.77569781E+02</pdfrwt>
<pdfrwt beam="2">  1       -1 0.23298645E-03 0.77569781E+02</pdfrwt>
<totfact> 0.38152695E+05</totfact>
</mgrwt>
</event>
<event>
 8    1  0.1600673E-013  0.8081414E+02  0.7818608E-02  0.1326757E+00
          2   -1    0    0  501    0  0.00000000000E+00  0.00000000000E+00  0.23679973292E+03  0.23679973293E+03  0.25500000000E-02 0. -1.
         -1   -1    0    0    0  501 -0.00000000000E+00 -0.00000000000E+00 -0.68949862672E+01  0.68949881092E+01  0.50400000000E-02 0.  1.
         24    2    1    2    0    0  0.00000000000E+00 -0.17763568394E-14  0.22990474665E+03  0.24369472104E+03  0.80814135710E+02 0.  0.
         66    2    3    3    0    0  0.17779502074E+02  0.12737672146E+02  0.21738822702E+03  0.21849485173E+03  0.19999998476E+01 0.  0.
        -13    1    3    3    0    0 -0.17779502074E+02 -0.12737672146E+02  0.12516519633E+02  0.25199869314E+02  0.10566000000E+00 0.  1.
         13    1    4    4    0    0  0.91270025513E+01  0.59391722245E+01  0.10544520727E+03  0.10600603210E+03  0.10566000000E+00 0. -1.
        -13    1    4    4    0    0  0.52184295855E+01  0.34525660761E+01  0.66272033499E+02  0.66566852171E+02  0.10566000000E+00 0.  1.
        -14    1    4    4    0    0  0.34340699373E+01  0.33459338452E+01  0.45670986248E+02  0.45921967450E+02  0.00000000000E+00 0.  1.
<mgrwt>
<rscale>  0 0.80814136E+02</rscale>
<asrwt>0</asrwt>
<pdfrwt beam="1">  1        2 0.36430735E-01 0.80814136E+02</pdfrwt>
<pdfrwt beam="2">  1       -1 0.10607671E-02 0.80814136E+02</pdfrwt>
<totfact> 0.22794479E+05</totfact>
</mgrwt>
</event>
<event>
 8    1  0.1600673E-013  0.7770070E+02  0.7818608E-02  0.1335706E+00
          2   -1    0    0  501    0  0.00000000000E+00  0.00000000000E+00  0.47011418867E+02  0.47011418937E+02  0.25500000000E-02 0. -1.
         -1   -1    0    0    0  501 -0.00000000000E+00 -0.00000000000E+00 -0.32106018789E+02  0.32106019184E+02  0.50400000000E-02 0.  1.
         24    2    1    2    0    0  0.00000000000E+00 -0.71054273576E-14  0.14905400079E+02  0.79117438121E+02  0.77700695385E+02 0.  0.
         66    2    3    3    0    0  0.11532080763E+02  0.36567747745E+02  0.12509487674E+01  0.38415543000E+02  0.20000023231E+01 0.  0.
        -13    1    3    3    0    0 -0.11532080763E+02 -0.36567747745E+02  0.13654451311E+02  0.40701895122E+02  0.10566000000E+00 0.  1.
         13    1    4    4    0    0  0.84658093986E+01  0.24676894311E+02  0.25837176671E+00  0.26090169827E+02  0.10566000000E+00 0. -1.
        -13    1    4    4    0    0  0.11660512367E+01  0.39220272328E+01  0.34303313625E+00  0.41074090214E+01  0.10566000000E+00 0.  1.
         14    1    4    4    0    0  0.19002201278E+01  0.79688262005E+01  0.64954386443E+00  0.82179641506E+01  0.00000000000E+00 0. -1.
<mgrwt>
<rscale>  0 0.77700695E+02</rscale>
<asrwt>0</asrwt>
<pdfrwt beam="1">  1        2 0.72325260E-02 0.77700695E+02</pdfrwt>
<pdfrwt beam="2">  1       -1 0.49393876E-02 0.77700695E+02</pdfrwt>
<totfact> 0.15972267E+05</totfact>
</mgrwt>
</event>
<event>
 8    1  0.1600673E-013  0.7789561E+02  0.7818608E-02  0.1335132E+00
         -1   -1    0    0    0  501 -0.00000000000E+00  0.00000000000E+00  0.22543868633E+01  0.22543924971E+01  0.50400000000E-02 0.  1.
          2   -1    0    0  501    0  0.00000000000E+00 -0.00000000000E+00 -0.67287899366E+03  0.67287899367E+03  0.25500000000E-02 0. -1.
         24    2    1    2    0    0  0.00000000000E+00  0.00000000000E+00 -0.67062460680E+03  0.67513338617E+03  0.77895608793E+02 0.  0.
         66    2    3    3    0    0  0.18601641288E+02  0.22836420335E+02 -0.55606091270E+03  0.55684401927E+03  0.20000008390E+01 0.  0.
        -13    1    3    3    0    0 -0.18601641288E+02 -0.22836420335E+02 -0.11456369410E+03  0.11828936690E+03  0.10566000000E+00 0.  1.
         13    1    4    4    0    0  0.88019045920E+01  0.11840017238E+02 -0.26570626746E+03  0.26611555998E+03  0.10566000000E+00 0. -1.
        -13    1    4    4    0    0  0.80045772991E+01  0.86838718104E+01 -0.23268998225E+03  0.23298953172E+03  0.10566000000E+00 0.  1.
         14    1    4    4    0    0  0.17951593973E+01  0.23125312867E+01 -0.57664662990E+02  0.57738927562E+02  0.00000000000E+00 0. -1.
<mgrwt>
<rscale>  0 0.77895609E+02</rscale>
<asrwt>0</asrwt>
<pdfrwt beam="1">  1        2 0.10351968E+00 0.77895609E+02</pdfrwt>
<pdfrwt beam="2">  1       -1 0.34682972E-03 0.77895609E+02</pdfrwt>
<totfact> 0.35516517E+05</totfact>
</mgrwt>
</event>
<event>
 8    1  0.1600673E-013  0.8014371E+02  0.7818608E-02  0.1328644E+00
         -1   -1    0    0    0  501 -0.00000000000E+00  0.00000000000E+00  0.12822876338E+02  0.12822877329E+02  0.50400000000E-02 0.  1.
          2   -1    0    0  501    0  0.00000000000E+00 -0.00000000000E+00 -0.12522568811E+03  0.12522568814E+03  0.25500000000E-02 0. -1.
         24    2    1    2    0    0  0.00000000000E+00  0.00000000000E+00 -0.11240281177E+03  0.13804856547E+03  0.80143710500E+02 0.  0.
         66    2    3    3    0    0 -0.39344544942E+02 -0.73498663796E+01 -0.53967509981E+02  0.67219832511E+02  0.19999991744E+01 0.  0.
        -13    1    3    3    0    0  0.39344544942E+02  0.73498663796E+01 -0.58435301793E+02  0.70828732957E+02  0.10566000000E+00 0.  1.
         13    1    4    4    0    0 -0.11029474728E+01  0.70526465757E-01 -0.13548056181E+01  0.17516076640E+01  0.10566000000E+00 0. -1.
        -13    1    4    4    0    0 -0.19979165828E+02 -0.40900300629E+01 -0.28011268484E+02  0.34648776879E+02  0.10566000000E+00 0.  1.
         14    1    4    4    0    0 -0.18262431641E+02 -0.33303627825E+01 -0.24601435879E+02  0.30819447968E+02  0.00000000000E+00 0. -1.
<mgrwt>
<rscale>  0 0.80143710E+02</rscale>
<asrwt>0</asrwt>
<pdfrwt beam="1">  1        2 0.19265490E-01 0.80143710E+02</pdfrwt>
<pdfrwt beam="2">  1       -1 0.19727504E-02 0.80143710E+02</pdfrwt>
<totfact> 0.18838180E+05</totfact>
</mgrwt>
</event>
<event>
 8    1  0.1600673E-013  0.8224248E+02  0.7818608E-02  0.1322805E+00
         -1   -1    0    0    0  501 -0.00000000000E+00  0.00000000000E+00  0.33086441671E+01  0.33086480057E+01  0.50400000000E-02 0.  1.
          2   -1    0    0  501    0  0.00000000000E+00 -0.00000000000E+00 -0.51107200871E+03  0.51107200872E+03  0.25500000000E-02 0. -1.
         24    2    1    2    0    0  0.00000000000E+00  0.35527136788E-14 -0.50776336455E+03  0.51438065673E+03  0.82242480738E+02 0.  0.
         66    2    3    3    0    0  0.25505770525E+02  0.27537335953E+02 -0.35870730248E+03  0.36067128810E+03  0.20000008655E+01 0.  0.
        -13    1    3    3    0    0 -0.25505770525E+02 -0.27537335953E+02 -0.14905606207E+03  0.15370936863E+03  0.10566000000E+00 0.  1.
         13    1    4    4    0    0  0.11812009416E+02  0.12538546286E+02 -0.17094987601E+03  0.17181562787E+03  0.10566000000E+00 0. -1.
        -13    1    4    4    0    0  0.18227687754E+01  0.20112236402E+01 -0.22051632577E+02  0.22218307088E+02  0.10566000000E+00 0.  1.
        -14    1    4    4    0    0  0.11870992333E+02  0.12987566027E+02 -0.16570579389E+03  0.16663735314E+03  0.00000000000E+00 0.  1.
<mgrwt>
<rscale>  0 0.82242481E+02</rscale>
<asrwt>0</asrwt>
<pdfrwt beam="1">  1        2 0.78626400E-01 0.82242481E+02</pdfrwt>
<pdfrwt beam="2">  1       -1 0.50902288E-03 0.82242481E+02</pdfrwt>
<totfact> 0.28529289E+05</totfact>
</mgrwt>
</event>
<event>
 8    1  0.1600673E-013  0.8365689E+02  0.7818608E-02  0.1318983E+00
          2   -1    0    0  501    0  0.00000000000E+00  0.00000000000E+00  0.13298322815E+03  0.13298322818E+03  0.25500000000E-02 0. -1.
         -1   -1    0    0    0  501 -0.00000000000E+00 -0.00000000000E+00 -0.13156688627E+02  0.13156689592E+02  0.50400000000E-02 0.  1.
         24    2    1    2    0    0  0.00000000000E+00 -0.35527136788E-14  0.11982653953E+03  0.14613991777E+03  0.83656894461E+02 0.  0.
         66    2    3    3    0    0  0.31378707978E+02  0.20091574755E+02  0.93061093236E+02  0.10026296310E+03  0.20000012669E+01 0.  0.
        -13    1    3    3    0    0 -0.31378707978E+02 -0.20091574755E+02  0.26765446291E+02  0.45876954669E+02  0.10566000000E+00 0.  1.
         13    1    4    4    0    0  0.19347020331E+02  0.12781979772E+02  0.57627723564E+02  0.62118048020E+02  0.10566000000E+00 0. -1.
        -13    1    4    4    0    0  0.12479589106E+01  0.11581198051E+01  0.39876689577E+01  0.43372007882E+01  0.10566000000E+00 0.  1.
        -14    1    4    4    0    0  0.10783728737E+02  0.61514751773E+01  0.31445700715E+02  0.33807714294E+02  0.00000000000E+00 0.  1.
<mgrwt>
<rscale>  0 0.83656894E+02</rscale>
<asrwt>0</asrwt>
<pdfrwt beam="1">  1        2 0.20458959E-01 0.83656894E+02</pdfrwt>
<pdfrwt beam="2">  1       -1 0.20241060E-02 0.83656894E+02</pdfrwt>
<totfact> 0.17114614E+05</totfact>
</mgrwt>
</event>
<event>
 8    1  0.1600673E-013  0.7987814E+02  0.7818608E-02  0.1329398E+00
         -1   -1    0    0    0  501 -0.00000000000E+00  0.00000000000E+00  0.47700105562E+01  0.47700132189E+01  0.50400000000E-02 0.  1.
          2   -1    0    0  501    0  0.00000000000E+00 -0.00000000000E+00 -0.33440781848E+03  0.33440781849E+03  0.25500000000E-02 0. -1.
         24    2    1    2    0    0  0.00000000000E+00  0.17763568394E-14 -0.32963780793E+03  0.33917783171E+03  0.79878139124E+02 0.  0.
         66    2    3    3    0    0 -0.23251022043E+02  0.92422132467E+01 -0.29697068343E+03  0.29802955448E+03  0.19999996777E+01 0.  0.
        -13    1    3    3    0    0  0.23251022043E+02 -0.92422132467E+01 -0.32667124501E+02  0.41148277230E+02  0.10566000000E+00 0.  1.
         13    1    4    4    0    0 -0.48280166936E+01  0.14658566827E+01 -0.59214878102E+02  0.59429550172E+02  0.10566000000E+00 0. -1.
        -13    1    4    4    0    0 -0.16489324698E+02  0.73707705889E+01 -0.21135422837E+03  0.21212460277E+03  0.10566000000E+00 0.  1.
        -14    1    4    4    0    0 -0.19336806513E+01  0.40558597501E+00 -0.26401576958E+02  0.26475401540E+02  0.00000000000E+00 0.  1.
<mgrwt>
<rscale>  0 0.79878139E+02</rscale>
<asrwt>0</asrwt>
<pdfrwt beam="1">  1        2 0.51447338E-01 0.79878139E+02</pdfrwt>
<pdfrwt beam="2">  1       -1 0.73384825E-03 0.79878139E+02</pdfrwt>
<totfact> 0.26619289E+05</totfact>
</mgrwt>
</event>
<event>
 8    1  0.1600673E-013  0.8855093E+02  0.7818608E-02  0.1306399E+00
         -1   -1    0    0    0  501 -0.00000000000E+00  0.00000000000E+00  0.12351544244E+02  0.12351545272E+02  0.50400000000E-02 0.  1.
          2   -1    0    0  501    0  0.00000000000E+00 -0.00000000000E+00 -0.15871026063E+03  0.15871026065E+03  0.25500000000E-02 0. -1.
         24    2    1    2    0    0  0.00000000000E+00  0.00000000000E+00 -0.14635871638E+03  0.17106180592E+03  0.88550932141E+02 0.  0.
         66    2    3    3    0    0  0.38036900252E+02  0.21707499472E+02 -0.85478584844E+02  0.96065653389E+02  0.19999949965E+01 0.  0.
        -13    1    3    3    0    0 -0.38036900252E+02 -0.21707499472E+02 -0.60880131539E+02  0.74996152530E+02  0.10566000000E+00 0.  1.
         13    1    4    4    0    0  0.19489465627E+02  0.11111755558E+02 -0.44056881747E+02  0.49440169653E+02  0.10566000000E+00 0. -1.
        -13    1    4    4    0    0  0.59177245313E+01  0.28874633888E+01 -0.11767265380E+02  0.13484680457E+02  0.10566000000E+00 0. -1.
        -14    1    4    4    0    0  0.12629710094E+02  0.77082805252E+01 -0.29654437717E+02  0.33140803280E+02  0.00000000000E+00 0.  1.
<mgrwt>
<rscale>  0 0.88550932E+02</rscale>
<asrwt>0</asrwt>
<pdfrwt beam="1">  1        2 0.24416962E-01 0.88550932E+02</pdfrwt>
<pdfrwt beam="2">  1       -1 0.19002378E-02 0.88550932E+02</pdfrwt>
<totfact> 0.15563585E+05</totfact>
</mgrwt>
</event>
<event>
 8    1  0.1600673E-013  0.8004681E+02  0.7818608E-02  0.1328919E+00
          2   -1    0    0  501    0  0.00000000000E+00  0.00000000000E+00  0.12039830903E+03  0.12039830906E+03  0.25500000000E-02 0. -1.
         -1   -1    0    0    0  501 -0.00000000000E+00 -0.00000000000E+00 -0.13304779433E+02  0.13304780388E+02  0.50400000000E-02 0.  1.
         24    2    1    2    0    0 -0.17763568394E-14  0.71054273576E-14  0.10709352960E+03  0.13370308944E+03  0.80046811588E+02 0.  0.
         66    2    3    3    0    0 -0.66548272232E+01  0.33276837348E+02  0.88943133390E+02  0.95218252486E+02  0.19999999938E+01 0.  0.
        -13    1    3    3    0    0  0.66548272232E+01 -0.33276837348E+02  0.18150396207E+02  0.38484836959E+02  0.10566000000E+00 0.  1.
         13    1    4    4    0    0 -0.24988010047E+01  0.11446571695E+02  0.28308114932E+02  0.30637045306E+02  0.10566000000E+00 0. -1.
        -13    1    4    4    0    0 -0.18562718081E+01  0.10907885315E+02  0.29764852227E+02  0.31755083045E+02  0.10566000000E+00 0.  1.
         14    1    4    4    0    0 -0.22997544104E+01  0.10922380338E+02  0.30870166231E+02  0.32826124135E+02  0.00000000000E+00 0. -1.
<mgrwt>
<rscale>  0 0.80046812E+02</rscale>
<asrwt>0</asrwt>
<pdfrwt beam="1">  1        2 0.18522816E-01 0.80046812E+02</pdfrwt>
<pdfrwt beam="2">  1       -1 0.20468893E-02 0.80046812E+02</pdfrwt>
<totfact> 0.18675935E+05</totfact>
</mgrwt>
</event>
<event>
 8    1  0.1600673E-013  0.7901261E+02  0.7818608E-02  0.1331877E+00
         -1   -1    0    0    0  501 -0.00000000000E+00  0.00000000000E+00  0.35110426525E+02  0.35110426886E+02  0.50400000000E-02 0.  1.
          2   -1    0    0  501    0  0.00000000000E+00 -0.00000000000E+00 -0.44452557574E+02  0.44452557647E+02  0.25500000000E-02 0. -1.
         24    2    1    2    0    0  0.35527136788E-14 -0.17763568394E-14 -0.93421310495E+01  0.79562984534E+02  0.79012613521E+02 0.  0.
         66    2    3    3    0    0  0.11275984903E+02  0.15740454248E+02 -0.39320597831E+02  0.43875040210E+02  0.20000010431E+01 0.  0.
        -13    1    3    3    0    0 -0.11275984903E+02 -0.15740454248E+02  0.29978466781E+02  0.35687944324E+02  0.10566000000E+00 0.  1.
         13    1    4    4    0    0  0.74157898985E+01  0.96900851823E+01 -0.24187965573E+02  0.27091705986E+02  0.10566000000E+00 0. -1.
        -13    1    4    4    0    0  0.27297998964E+01  0.33013671735E+01 -0.90665046260E+01  0.10028135562E+02  0.10566000000E+00 0.  1.
        -14    1    4    4    0    0  0.11303951080E+01  0.27490018923E+01 -0.60661276318E+01  0.67551986610E+01  0.00000000000E+00 0.  1.
<mgrwt>
<rscale>  0 0.79012614E+02</rscale>
<asrwt>0</asrwt>
<pdfrwt beam="1">  1        2 0.68388550E-02 0.79012614E+02</pdfrwt>
<pdfrwt beam="2">  1       -1 0.54016041E-02 0.79012614E+02</pdfrwt>
<totfact> 0.15077718E+05</totfact>
</mgrwt>
</event>
<event>
 8    1  0.1600673E-013  0.7523142E+02  0.7818608E-02  0.1343156E+00
          2   -1    0    0  501    0  0.00000000000E+00  0.00000000000E+00  0.77871419790E+02  0.77871419832E+02  0.25500000000E-02 0. -1.
         -1   -1    0    0    0  501 -0.00000000000E+00 -0.00000000000E+00 -0.18170227732E+02  0.18170228431E+02  0.50400000000E-02 0.  1.
         24    2    1    2    0    0 -0.44408920985E-15  0.00000000000E+00  0.59701192058E+02  0.96041648263E+02  0.75231415433E+02 0.  0.
         66    2    3    3    0    0 -0.37118730691E+01 -0.24494656675E+02  0.65961067062E+02  0.70488499604E+02  0.20000002909E+01 0.  0.
        -13    1    3    3    0    0  0.37118730691E+01  0.24494656675E+02 -0.62598750045E+01  0.25553148659E+02  0.10566000000E+00 0.  1.
         13    1    4    4    0    0 -0.20283141151E+01 -0.10678687330E+02  0.28619199458E+02  0.30614019058E+02  0.10566000000E+00 0.  1.
        -13    1    4    4    0    0 -0.62285375935E+00 -0.24088030030E+01  0.78533313638E+01  0.82387047682E+01  0.10566000000E+00 0. -1.
        -14    1    4    4    0    0 -0.10607051947E+01 -0.11407166342E+02  0.29488536241E+02  0.31635775778E+02  0.00000000000E+00 0.  1.
<mgrwt>
<rscale>  0 0.75231415E+02</rscale>
<asrwt>0</asrwt>
<pdfrwt beam="1">  1        2 0.11980219E-01 0.75231415E+02</pdfrwt>
<pdfrwt beam="2">  1       -1 0.27954197E-02 0.75231415E+02</pdfrwt>
<totfact> 0.19558476E+05</totfact>
</mgrwt>
</event>
<event>
 8    1  0.1600673E-013  0.7968317E+02  0.7818608E-02  0.1329953E+00
          2   -1    0    0  501    0  0.00000000000E+00  0.00000000000E+00  0.14804280164E+02  0.14804280384E+02  0.25500000000E-02 0. -1.
         -1   -1    0    0    0  501 -0.00000000000E+00 -0.00000000000E+00 -0.10722250242E+03  0.10722250254E+03  0.50400000000E-02 0.  1.
         24    2    1    2    0    0  0.35527136788E-14  0.35527136788E-14 -0.92418222261E+02  0.12202678293E+03  0.79683172287E+02 0.  0.
         66    2    3    3    0    0 -0.29134386094E+02 -0.25028729489E+02 -0.30169585417E+02  0.48882038031E+02  0.20000012436E+01 0.  0.
        -13    1    3    3    0    0  0.29134386094E+02  0.25028729489E+02 -0.62248636844E+02  0.73144744896E+02  0.10566000000E+00 0.  1.
         13    1    4    4    0    0 -0.24433315544E+02 -0.20618577264E+02 -0.25165270513E+02  0.40686787055E+02  0.10566000000E+00 0. -1.
        -13    1    4    4    0    0 -0.28851204064E+01 -0.23369659218E+01 -0.31845022508E+01  0.48926013633E+01  0.10566000000E+00 0.  1.
         14    1    4    4    0    0 -0.18159501434E+01 -0.20731863035E+01 -0.18198126525E+01  0.33026496124E+01  0.00000000000E+00 0. -1.
<mgrwt>
<rscale>  0 0.79683172E+02</rscale>
<asrwt>0</asrwt>
<pdfrwt beam="1">  1        2 0.22775817E-02 0.79683172E+02</pdfrwt>
<pdfrwt beam="2">  1       -1 0.16495769E-01 0.79683172E+02</pdfrwt>
<totfact> 0.11791579E+05</totfact>
</mgrwt>
</event>
<event>
 8    1  0.1600673E-013  0.8703782E+02  0.7818608E-02  0.1310188E+00
         -1   -1    0    0    0  501 -0.00000000000E+00  0.00000000000E+00  0.18304026590E+02  0.18304027284E+02  0.50400000000E-02 0.  1.
          2   -1    0    0  501    0  0.00000000000E+00 -0.00000000000E+00 -0.10346878806E+03  0.10346878809E+03  0.25500000000E-02 0. -1.
         24    2    1    2    0    0  0.00000000000E+00  0.71054273576E-14 -0.85164761469E+02  0.12177281538E+03  0.87037819184E+02 0.  0.
         66    2    3    3    0    0  0.10562765928E+02 -0.42159863043E+02 -0.40236942390E+02  0.59262446899E+02  0.20000009237E+01 0.  0.
        -13    1    3    3    0    0 -0.10562765928E+02  0.42159863043E+02 -0.44927819079E+02  0.62510368477E+02  0.10566000000E+00 0.  1.
         13    1    4    4    0    0  0.39202039125E+00 -0.15269145471E+01 -0.11387936234E+01  0.19476044192E+01  0.10566000000E+00 0.  1.
        -13    1    4    4    0    0  0.82651204309E+00 -0.40767171733E+01 -0.34220428647E+01  0.53874192776E+01  0.10566000000E+00 0. -1.
        -14    1    4    4    0    0  0.93442334941E+01 -0.36556231322E+02 -0.35676105902E+02  0.51927423202E+02  0.00000000000E+00 0.  1.
<mgrwt>
<rscale>  0 0.87037819E+02</rscale>
<asrwt>0</asrwt>
<pdfrwt beam="1">  1        2 0.15918275E-01 0.87037819E+02</pdfrwt>
<pdfrwt beam="2">  1       -1 0.28160042E-02 0.87037819E+02</pdfrwt>
<totfact> 0.14265262E+05</totfact>
</mgrwt>
</event>
<event>
 8    1  0.1600673E-013  0.7966247E+02  0.7818608E-02  0.1330012E+00
         -1   -1    0    0    0  501 -0.00000000000E+00  0.00000000000E+00  0.83016795989E+00  0.83018325883E+00  0.50400000000E-02 0.  1.
          2   -1    0    0  501    0  0.00000000000E+00 -0.00000000000E+00 -0.19110742849E+04  0.19110742849E+04  0.25500000000E-02 0. -1.
         24    2    1    2    0    0  0.00000000000E+00  0.00000000000E+00 -0.19102441170E+04  0.19119044682E+04  0.79662469633E+02 0.  0.
         66    2    3    3    0    0 -0.11021374323E+02 -0.10646600375E+02 -0.18374436145E+04  0.18375086006E+04  0.19999998929E+01 0.  0.
        -13    1    3    3    0    0  0.11021374323E+02  0.10646600375E+02 -0.72800502489E+02  0.74395867615E+02  0.10566000000E+00 0.  1.
         13    1    4    4    0    0 -0.95002355829E+00 -0.65586500031E+00 -0.17045333516E+03  0.17045727715E+03  0.10566000000E+00 0. -1.
        -13    1    4    4    0    0 -0.23510786185E+01 -0.22373174557E+01 -0.45940418198E+03  0.45941565792E+03  0.10566000000E+00 0.  1.
         14    1    4    4    0    0 -0.77202721466E+01 -0.77534179191E+01 -0.12075860974E+04  0.12076356655E+04  0.00000000000E+00 0. -1.
<mgrwt>
<rscale>  0 0.79662470E+02</rscale>
<asrwt>0</asrwt>
<pdfrwt beam="1">  1        2 0.29400791E+00 0.79662470E+02</pdfrwt>
<pdfrwt beam="2">  1       -1 0.12772085E-03 0.79662470E+02</pdfrwt>
<totfact> 0.29205663E+05</totfact>
</mgrwt>
</event>
<event>
 8    1  0.1600673E-013  0.8519078E+02  0.7818608E-02  0.1314934E+00
          2   -1    0    0  501    0  0.00000000000E+00  0.00000000000E+00  0.26171990338E+02  0.26171990462E+02  0.25500000000E-02 0. -1.
         -1   -1    0    0    0  501 -0.00000000000E+00 -0.00000000000E+00 -0.69324771319E+02  0.69324771502E+02  0.50400000000E-02 0.  1.
         24    2    1    2    0    0  0.00000000000E+00  0.00000000000E+00 -0.43152780982E+02  0.95496761964E+02  0.85190780248E+02 0.  0.
         66    2    3    3    0    0 -0.22752433891E+02  0.25488301594E+02  0.68817756801E+01  0.34909677611E+02  0.19999970674E+01 0.  0.
        -13    1    3    3    0    0  0.22752433891E+02 -0.25488301594E+02 -0.50034556662E+02  0.60587084354E+02  0.10566000000E+00 0.  1.
         13    1    4    4    0    0 -0.12908576276E+02  0.13383110904E+02  0.43939353570E+01  0.19106460449E+02  0.10566000000E+00 0. -1.
        -13    1    4    4    0    0 -0.17271051738E+01  0.21471962977E+01  0.35304204024E+00  0.27801343385E+01  0.10566000000E+00 0.  1.
         14    1    4    4    0    0 -0.81167524415E+01  0.99579943920E+01  0.21347982829E+01  0.13023082823E+02  0.00000000000E+00 0. -1.
<mgrwt>
<rscale>  0 0.85190780E+02</rscale>
<asrwt>0</asrwt>
<pdfrwt beam="1">  1        2 0.40264601E-02 0.85190780E+02</pdfrwt>
<pdfrwt beam="2">  1       -1 0.10665349E-01 0.85190780E+02</pdfrwt>
<totfact> 0.10956129E+05</totfact>
</mgrwt>
</event>
<event>
 8    1  0.1600673E-013  0.8118714E+02  0.7818608E-02  0.1325716E+00
          2   -1    0    0  501    0  0.00000000000E+00  0.00000000000E+00  0.70596782343E+02  0.70596782389E+02  0.25500000000E-02 0. -1.
         -1   -1    0    0    0  501 -0.00000000000E+00 -0.00000000000E+00 -0.23341542580E+02  0.23341543125E+02  0.50400000000E-02 0.  1.
         24    2    1    2    0    0  0.17763568394E-14  0.35527136788E-14  0.47255239762E+02  0.93938325513E+02  0.81187137622E+02 0.  0.
         66    2    3    3    0    0  0.10226178780E+02  0.23709481189E+02  0.59847309181E+02  0.65210540932E+02  0.20000004655E+01 0.  0.
        -13    1    3    3    0    0 -0.10226178780E+02 -0.23709481189E+02 -0.12592069418E+02  0.28727784581E+02  0.10566000000E+00 0.  1.
         13    1    4    4    0    0  0.54004355385E+01  0.14448568002E+02  0.34903237046E+02  0.38159834141E+02  0.10566000000E+00 0. -1.
        -13    1    4    4    0    0  0.86909691617E+00  0.21466018709E+01  0.51264688404E+01  0.56262843733E+01  0.10566000000E+00 0. -1.
         14    1    4    4    0    0  0.39566463254E+01  0.71143113162E+01  0.19817603294E+02  0.21424422418E+02  0.00000000000E+00 0. -1.
<mgrwt>
<rscale>  0 0.81187138E+02</rscale>
<asrwt>0</asrwt>
<pdfrwt beam="1">  1        2 0.10861043E-01 0.81187138E+02</pdfrwt>
<pdfrwt beam="2">  1       -1 0.35910066E-02 0.81187138E+02</pdfrwt>
<totfact> 0.15547189E+05</totfact>
</mgrwt>
</event>
<event>
 8    1  0.1600673E-013  0.7995064E+02  0.7818608E-02  0.1329192E+00
         -1   -1    0    0    0  501 -0.00000000000E+00  0.00000000000E+00  0.64167628097E+01  0.64167647891E+01  0.50400000000E-02 0.  1.
          2   -1    0    0  501    0  0.00000000000E+00 -0.00000000000E+00 -0.24903928956E+03  0.24903928957E+03  0.25500000000E-02 0. -1.
         24    2    1    2    0    0  0.00000000000E+00  0.00000000000E+00 -0.24262252675E+03  0.25545605436E+03  0.79950642421E+02 0.  0.
         66    2    3    3    0    0 -0.38925750746E+02 -0.18951145752E+01 -0.14946374938E+03  0.15447400400E+03  0.20000005774E+01 0.  0.
        -13    1    3    3    0    0  0.38925750746E+02  0.18951145752E+01 -0.93158777372E+02  0.10098205037E+03  0.10566000000E+00 0.  1.
         13    1    4    4    0    0 -0.16645645414E+02 -0.74830802829E+00 -0.64945311466E+02  0.67048804028E+02  0.10566000000E+00 0. -1.
        -13    1    4    4    0    0 -0.98069001330E+01 -0.26360861357E+00 -0.39795884965E+02  0.40987417629E+02  0.10566000000E+00 0.  1.
        -14    1    4    4    0    0 -0.12473205199E+02 -0.88319793337E+00 -0.44722552948E+02  0.46437782340E+02  0.00000000000E+00 0.  1.
<mgrwt>
<rscale>  0 0.79950642E+02</rscale>
<asrwt>0</asrwt>
<pdfrwt beam="1">  1        2 0.38313729E-01 0.79950642E+02</pdfrwt>
<pdfrwt beam="2">  1       -1 0.98719463E-03 0.79950642E+02</pdfrwt>
<totfact> 0.23874183E+05</totfact>
</mgrwt>
</event>
<event>
 8    1  0.1600673E-013  0.7998622E+02  0.7818608E-02  0.1329091E+00
          2   -1    0    0  501    0  0.00000000000E+00  0.00000000000E+00  0.23755046785E+03  0.23755046786E+03  0.25500000000E-02 0. -1.
         -1   -1    0    0    0  501 -0.00000000000E+00 -0.00000000000E+00 -0.67330900561E+01  0.67330919424E+01  0.50400000000E-02 0.  1.
         24    2    1    2    0    0  0.00000000000E+00  0.00000000000E+00  0.23081737779E+03  0.24428355980E+03  0.79986221937E+02 0.  0.
         66    2    3    3    0    0 -0.28100162562E+02  0.15471658363E+02  0.18829653791E+03  0.19101983541E+03  0.19999951168E+01 0.  0.
        -13    1    3    3    0    0  0.28100162562E+02 -0.15471658363E+02  0.42520839877E+02  0.53263724395E+02  0.10566000000E+00 0.  1.
         13    1    4    4    0    0 -0.28959816042E+01  0.16598398843E+01  0.21359334385E+02  0.21618836862E+02  0.10566000000E+00 0. -1.
        -13    1    4    4    0    0 -0.10736320388E+02  0.63787047289E+01  0.68553578143E+02  0.69681853375E+02  0.10566000000E+00 0.  1.
        -14    1    4    4    0    0 -0.14467860570E+02  0.74331137497E+01  0.98383625386E+02  0.99719145171E+02  0.00000000000E+00 0.  1.
<mgrwt>
<rscale>  0 0.79986222E+02</rscale>
<asrwt>0</asrwt>
<pdfrwt beam="1">  1        2 0.36546227E-01 0.79986222E+02</pdfrwt>
<pdfrwt beam="2">  1       -1 0.10358601E-02 0.79986222E+02</pdfrwt>
<totfact> 0.23447291E+05</totfact>
</mgrwt>
</event>
<event>
 8    1  0.1600673E-013  0.8028316E+02  0.7818608E-02  0.1328250E+00
          2   -1    0    0  501    0  0.00000000000E+00  0.00000000000E+00  0.29825359435E+03  0.29825359436E+03  0.25500000000E-02 0. -1.
         -1   -1    0    0    0  501 -0.00000000000E+00 -0.00000000000E+00 -0.54026047175E+01  0.54026070683E+01  0.50400000000E-02 0.  1.
         24    2    1    2    0    0  0.00000000000E+00 -0.17763568394E-14  0.29285098963E+03  0.30365620143E+03  0.80283164722E+02 0.  0.
         66    2    3    3    0    0 -0.36818916398E+02 -0.12651062913E+02  0.10991165360E+03  0.11662012516E+03  0.19999989037E+01 0.  0.
        -13    1    3    3    0    0  0.36818916398E+02  0.12651062913E+02  0.18293933603E+03  0.18703607627E+03  0.10566000000E+00 0.  1.
         13    1    4    4    0    0 -0.78346513911E+01 -0.25085147155E+01  0.22359597770E+02  0.23825137670E+02  0.10566000000E+00 0. -1.
        -13    1    4    4    0    0 -0.62407950951E+01 -0.21010637324E+01  0.16882714114E+02  0.18121787774E+02  0.10566000000E+00 0.  1.
         14    1    4    4    0    0 -0.22743469912E+02 -0.80414844651E+01  0.70669341720E+02  0.74673199712E+02  0.00000000000E+00 0. -1.
<mgrwt>
<rscale>  0 0.80283165E+02</rscale>
<asrwt>0</asrwt>
<pdfrwt beam="1">  1        2 0.45885178E-01 0.80283165E+02</pdfrwt>
<pdfrwt beam="2">  1       -1 0.83116996E-03 0.80283165E+02</pdfrwt>
<totfact> 0.25206010E+05</totfact>
</mgrwt>
</event>
<event>
 8    1  0.1600673E-013  0.8068449E+02  0.7818608E-02  0.1327120E+00
         -1   -1    0    0    0  501 -0.00000000000E+00  0.00000000000E+00  0.53233566544E+02  0.53233566782E+02  0.50400000000E-02 0.  1.
          2   -1    0    0  501    0  0.00000000000E+00 -0.00000000000E+00 -0.30572754950E+02  0.30572755056E+02  0.25500000000E-02 0. -1.
         24    2    1    2    0    0 -0.17763568394E-14  0.17763568394E-14  0.22660811594E+02  0.83806321839E+02  0.80684491682E+02 0.  0.
         66    2    3    3    0    0 -0.89519244328E+01  0.10712040517E+02 -0.27949473458E+02  0.31305875363E+02  0.20000006505E+01 0.  0.
        -13    1    3    3    0    0  0.89519244328E+01 -0.10712040517E+02  0.50610285052E+02  0.52500446475E+02  0.10566000000E+00 0.  1.
         13    1    4    4    0    0 -0.30552253670E+01  0.46179085992E+01 -0.11516584699E+02  0.12778981534E+02  0.10566000000E+00 0. -1.
        -13    1    4    4    0    0 -0.25678278247E+01  0.24792647415E+01 -0.81132054468E+01  0.88642969294E+01  0.10566000000E+00 0.  1.
        -14    1    4    4    0    0 -0.33288712410E+01  0.36148671762E+01 -0.83196833121E+01  0.96625969002E+01  0.00000000000E+00 0.  1.
<mgrwt>
<rscale>  0 0.80684492E+02</rscale>
<asrwt>0</asrwt>
<pdfrwt beam="1">  1        2 0.47035008E-02 0.80684492E+02</pdfrwt>
<pdfrwt beam="2">  1       -1 0.81897795E-02 0.80684492E+02</pdfrwt>
<totfact> 0.13186973E+05</totfact>
</mgrwt>
</event>
<event>
 8    1  0.1600673E-013  0.8014186E+02  0.7818608E-02  0.1328649E+00
         -1   -1    0    0    0  501 -0.00000000000E+00  0.00000000000E+00  0.91071722590E+02  0.91071722729E+02  0.50400000000E-02 0.  1.
          2   -1    0    0  501    0  0.00000000000E+00 -0.00000000000E+00 -0.17630933652E+02  0.17630933837E+02  0.25500000000E-02 0. -1.
         24    2    1    2    0    0  0.00000000000E+00  0.00000000000E+00  0.73440788938E+02  0.10870265657E+03  0.80141862124E+02 0.  0.
         66    2    3    3    0    0 -0.39359813442E+02 -0.44868891789E+01  0.28793914465E+02  0.49014452933E+02  0.19999993455E+01 0.  0.
        -13    1    3    3    0    0  0.39359813442E+02  0.44868891789E+01  0.44646874473E+02  0.59688203633E+02  0.10566000000E+00 0.  1.
         13    1    4    4    0    0 -0.14425276806E+02 -0.14716282664E+01  0.10500673785E+02  0.17903340880E+02  0.10566000000E+00 0. -1.
        -13    1    4    4    0    0 -0.12910456690E+02 -0.23139447567E+01  0.92767480425E+01  0.16065598356E+02  0.10566000000E+00 0.  1.
        -14    1    4    4    0    0 -0.12024079946E+02 -0.70131615581E+00  0.90164926372E+01  0.15045513696E+02  0.00000000000E+00 0.  1.
<mgrwt>
<rscale>  0 0.80141862E+02</rscale>
<asrwt>0</asrwt>
<pdfrwt beam="1">  1        2 0.27124513E-02 0.80141862E+02</pdfrwt>
<pdfrwt beam="2">  1       -1 0.14011035E-01 0.80141862E+02</pdfrwt>
<totfact> 0.12036572E+05</totfact>
</mgrwt>
</event>
<event>
 8    1  0.1600673E-013  0.7973749E+02  0.7818608E-02  0.1329798E+00
         -1   -1    0    0    0  501 -0.00000000000E+00  0.00000000000E+00  0.89447289516E+00  0.89448709425E+00  0.50400000000E-02 0.  1.
          2   -1    0    0  501    0  0.00000000000E+00 -0.00000000000E+00 -0.17770288609E+04  0.17770288609E+04  0.25500000000E-02 0. -1.
         24    2    1    2    0    0  0.17763568394E-14  0.88817841970E-15 -0.17761343880E+04  0.17779233480E+04  0.79737488651E+02 0.  0.
         66    2    3    3    0    0 -0.99643669173E+01 -0.67391786729E+01 -0.17355680573E+04  0.17356108973E+04  0.19999999881E+01 0.  0.
        -13    1    3    3    0    0  0.99643669173E+01  0.67391786729E+01 -0.40566330735E+02  0.42312450775E+02  0.10566000000E+00 0.  1.
         13    1    4    4    0    0 -0.98865908736E+00 -0.27581446207E+00 -0.12836679313E+03  0.12837094010E+03  0.10566000000E+00 0. -1.
        -13    1    4    4    0    0 -0.87233279543E+01 -0.60670719409E+01 -0.15650615696E+04  0.15650976435E+04  0.10566000000E+00 0.  1.
        -14    1    4    4    0    0 -0.25237987558E+00 -0.39629226991E+00 -0.42139694531E+02  0.42142313633E+02  0.00000000000E+00 0.  1.
<mgrwt>
<rscale>  0 0.79737489E+02</rscale>
<asrwt>0</asrwt>
<pdfrwt beam="1">  1        2 0.27338623E+00 0.79737489E+02</pdfrwt>
<pdfrwt beam="2">  1       -1 0.13761373E-03 0.79737489E+02</pdfrwt>
<totfact> 0.30744982E+05</totfact>
</mgrwt>
</event>
<event>
 8    1  0.1600673E-013  0.8111490E+02  0.7818608E-02  0.1325917E+00
          2   -1    0    0  501    0  0.00000000000E+00  0.00000000000E+00  0.26570307345E+03  0.26570307346E+03  0.25500000000E-02 0. -1.
         -1   -1    0    0    0  501 -0.00000000000E+00 -0.00000000000E+00 -0.61907688758E+01  0.61907709274E+01  0.50400000000E-02 0.  1.
         24    2    1    2    0    0  0.88817841970E-15  0.00000000000E+00  0.25951230457E+03  0.27189384438E+03  0.81114896236E+02 0.  0.
         66    2    3    3    0    0 -0.52723490692E+01 -0.33558745300E+02  0.20395137469E+03  0.20677076749E+03  0.20000001825E+01 0.  0.
        -13    1    3    3    0    0  0.52723490692E+01  0.33558745300E+02  0.55560929880E+02  0.65123076893E+02  0.10566000000E+00 0.  1.
         13    1    4    4    0    0 -0.71380690332E+00 -0.71913647058E+01  0.45657305944E+02  0.46225815263E+02  0.10566000000E+00 0. -1.
        -13    1    4    4    0    0 -0.26549388933E+01 -0.12073158814E+02  0.71256950213E+02  0.72321324531E+02  0.10566000000E+00 0.  1.
        -14    1    4    4    0    0 -0.19036032726E+01 -0.14294221780E+02  0.87037118532E+02  0.88223627698E+02  0.00000000000E+00 0.  1.
<mgrwt>
<rscale>  0 0.81114896E+02</rscale>
<asrwt>0</asrwt>
<pdfrwt beam="1">  1        2 0.40877390E-01 0.81114896E+02</pdfrwt>
<pdfrwt beam="2">  1       -1 0.95242629E-03 0.81114896E+02</pdfrwt>
<totfact> 0.23526343E+05</totfact>
</mgrwt>
</event>
<event>
 8    1  0.1600673E-013  0.7973007E+02  0.7818608E-02  0.1329819E+00
          2   -1    0    0  501    0  0.00000000000E+00  0.00000000000E+00  0.25115494710E+02  0.25115494839E+02  0.25500000000E-02 0. -1.
         -1   -1    0    0    0  501 -0.00000000000E+00 -0.00000000000E+00 -0.63276519154E+02  0.63276519355E+02  0.50400000000E-02 0.  1.
         24    2    1    2    0    0  0.00000000000E+00  0.35527136788E-14 -0.38161024445E+02  0.88392014194E+02  0.79730072035E+02 0.  0.
         66    2    3    3    0    0  0.10694817770E+02  0.19583248832E+02  0.17498262364E+02  0.28426606383E+02  0.20000006921E+01 0.  0.
        -13    1    3    3    0    0 -0.10694817770E+02 -0.19583248832E+02 -0.55659286808E+02  0.59965407811E+02  0.10566000000E+00 0.  1.
         13    1    4    4    0    0  0.24519364995E+01  0.47994469148E+01  0.47145002047E+01  0.71613099012E+01  0.10566000000E+00 0. -1.
        -13    1    4    4    0    0  0.14157064673E+01  0.37836478528E+01  0.32838976245E+01  0.52072414501E+01  0.10566000000E+00 0.  1.
        -14    1    4    4    0    0  0.68271748036E+01  0.11000154064E+02  0.94998645343E+01  0.16058055032E+02  0.00000000000E+00 0.  1.
<mgrwt>
<rscale>  0 0.79730072E+02</rscale>
<asrwt>0</asrwt>
<pdfrwt beam="1">  1        2 0.38639223E-02 0.79730072E+02</pdfrwt>
<pdfrwt beam="2">  1       -1 0.97348491E-02 0.79730072E+02</pdfrwt>
<totfact> 0.13117059E+05</totfact>
</mgrwt>
</event>
<event>
 8    1  0.1600673E-013  0.7945414E+02  0.7818608E-02  0.1330608E+00
         -1   -1    0    0    0  501 -0.00000000000E+00  0.00000000000E+00  0.42341166810E+01  0.42341196807E+01  0.50400000000E-02 0.  1.
          2   -1    0    0  501    0  0.00000000000E+00 -0.00000000000E+00 -0.37274353121E+03  0.37274353121E+03  0.25500000000E-02 0. -1.
         24    2    1    2    0    0  0.00000000000E+00  0.35527136788E-14 -0.36850941452E+03  0.37697765089E+03  0.79454142001E+02 0.  0.
         66    2    3    3    0    0  0.10676099241E+02  0.28183276562E+02 -0.30699470519E+03  0.30847694432E+03  0.19999973315E+01 0.  0.
        -13    1    3    3    0    0 -0.10676099241E+02 -0.28183276562E+02 -0.61514709335E+02  0.68500706575E+02  0.10566000000E+00 0.  1.
         13    1    4    4    0    0  0.72946819287E+01  0.19201585593E+02 -0.20764815504E+03  0.20866164173E+03  0.10566000000E+00 0. -1.
        -13    1    4    4    0    0  0.23949725536E+01  0.67975178376E+01 -0.69536957459E+02  0.69909525524E+02  0.10566000000E+00 0.  1.
        -14    1    4    4    0    0  0.98644475843E+00  0.21841731311E+01 -0.29809592691E+02  0.29905777066E+02  0.00000000000E+00 0.  1.
<mgrwt>
<rscale>  0 0.79454142E+02</rscale>
<asrwt>0</asrwt>
<pdfrwt beam="1">  1        2 0.57345133E-01 0.79454142E+02</pdfrwt>
<pdfrwt beam="2">  1       -1 0.65140310E-03 0.79454142E+02</pdfrwt>
<totfact> 0.28056769E+05</totfact>
</mgrwt>
</event>
<event>
 8    1  0.1600673E-013  0.7861589E+02  0.7818608E-02  0.1333026E+00
          2   -1    0    0  501    0  0.00000000000E+00  0.00000000000E+00  0.23489238791E+02  0.23489238929E+02  0.25500000000E-02 0. -1.
         -1   -1    0    0    0  501 -0.00000000000E+00 -0.00000000000E+00 -0.65779679133E+02  0.65779679326E+02  0.50400000000E-02 0.  1.
         24    2    1    2    0    0  0.00000000000E+00  0.00000000000E+00 -0.42290440343E+02  0.89268918255E+02  0.78615891664E+02 0.  0.
         66    2    3    3    0    0 -0.12460030985E+02 -0.36161903439E+02 -0.10991540029E+02  0.39846575561E+02  0.19999998187E+01 0.  0.
        -13    1    3    3    0    0  0.12460030985E+02  0.36161903439E+02 -0.31298900314E+02  0.49422342694E+02  0.10566000000E+00 0.  1.
         13    1    4    4    0    0 -0.70328109280E+01 -0.21596799743E+02 -0.62536663986E+01  0.23558473978E+02  0.10566000000E+00 0. -1.
        -13    1    4    4    0    0 -0.16420095901E+01 -0.46129056278E+01 -0.20287202946E+01  0.53011285491E+01  0.10566000000E+00 0.  1.
        -14    1    4    4    0    0 -0.37852104674E+01 -0.99521980677E+01 -0.27091533356E+01  0.10986973034E+02  0.00000000000E+00 0.  1.
<mgrwt>
<rscale>  0 0.78615892E+02</rscale>
<asrwt>0</asrwt>
<pdfrwt beam="1">  1        2 0.36137291E-02 0.78615892E+02</pdfrwt>
<pdfrwt beam="2">  1       -1 0.10119951E-01 0.78615892E+02</pdfrwt>
<totfact> 0.13472375E+05</totfact>
</mgrwt>
</event>
<event>
 8    1  0.1600673E-013  0.7186264E+02  0.7818608E-02  0.1353871E+00
         -1   -1    0    0    0  501 -0.00000000000E+00  0.00000000000E+00  0.63606179214E+01  0.63606199182E+01  0.50400000000E-02 0.  1.
          2   -1    0    0  501    0  0.00000000000E+00 -0.00000000000E+00 -0.20297704676E+03  0.20297704678E+03  0.25500000000E-02 0. -1.
         24    2    1    2    0    0 -0.17763568394E-14  0.00000000000E+00 -0.19661642884E+03  0.20933766670E+03  0.71862637078E+02 0.  0.
         66    2    3    3    0    0 -0.92420742472E+01 -0.16420722406E+02 -0.18741025453E+03  0.18836576001E+03  0.19999951464E+01 0.  0.
        -13    1    3    3    0    0  0.92420742472E+01  0.16420722406E+02 -0.92061743178E+01  0.20971906693E+02  0.10566000000E+00 0.  1.
         13    1    4    4    0    0 -0.35975448148E+01 -0.71948373962E+01 -0.81011264087E+02  0.81409729682E+02  0.10566000000E+00 0. -1.
        -13    1    4    4    0    0 -0.21038582823E+01 -0.28774664036E+01 -0.29690133736E+02  0.29903532197E+02  0.10566000000E+00 0.  1.
        -14    1    4    4    0    0 -0.35406711501E+01 -0.63484186064E+01 -0.76708856703E+02  0.77052498127E+02  0.00000000000E+00 0.  1.
<mgrwt>
<rscale>  0 0.71862637E+02</rscale>
<asrwt>0</asrwt>
<pdfrwt beam="1">  1        2 0.31227233E-01 0.71862637E+02</pdfrwt>
<pdfrwt beam="2">  1       -1 0.97855692E-03 0.71862637E+02</pdfrwt>
<totfact> 0.29372083E+05</totfact>
</mgrwt>
</event>
<event>
 8    1  0.1600673E-013  0.7964390E+02  0.7818608E-02  0.1330065E+00
          2   -1    0    0  501    0  0.00000000000E+00  0.00000000000E+00  0.28782470921E+02  0.28782471034E+02  0.25500000000E-02 0. -1.
         -1   -1    0    0    0  501 -0.00000000000E+00 -0.00000000000E+00 -0.55095603529E+02  0.55095603759E+02  0.50400000000E-02 0.  1.
         24    2    1    2    0    0 -0.35527136788E-14  0.00000000000E+00 -0.26313132608E+02  0.83878074793E+02  0.79643897967E+02 0.  0.
         66    2    3    3    0    0  0.17957710814E+02  0.40587864194E+01  0.23993036943E+02  0.30308727366E+02  0.20000019774E+01 0.  0.
        -13    1    3    3    0    0 -0.17957710814E+02 -0.40587864194E+01 -0.50306169551E+02  0.53569347427E+02  0.10566000000E+00 0.  1.
         13    1    4    4    0    0  0.11626534371E+02  0.24061421344E+01  0.14508853598E+02  0.18747901702E+02  0.10566000000E+00 0. -1.
        -13    1    4    4    0    0  0.12753670891E+01  0.63435743316E+00  0.24933335457E+01  0.28734729459E+01  0.10566000000E+00 0.  1.
        -14    1    4    4    0    0  0.50558093540E+01  0.10182868519E+01  0.69908497989E+01  0.86873527180E+01  0.00000000000E+00 0.  1.
<mgrwt>
<rscale>  0 0.79643898E+02</rscale>
<asrwt>0</asrwt>
<pdfrwt beam="1">  1        2 0.44280725E-02 0.79643898E+02</pdfrwt>
<pdfrwt beam="2">  1       -1 0.84762467E-02 0.79643898E+02</pdfrwt>
<totfact> 0.13513988E+05</totfact>
</mgrwt>
</event>
<event>
 8    1  0.1600673E-013  0.8128973E+02  0.7818608E-02  0.1325431E+00
         -1   -1    0    0    0  501 -0.00000000000E+00  0.00000000000E+00  0.32826382179E+01  0.32826420870E+01  0.50400000000E-02 0.  1.
          2   -1    0    0  501    0  0.00000000000E+00 -0.00000000000E+00 -0.50325502328E+03  0.50325502329E+03  0.25500000000E-02 0. -1.
         24    2    1    2    0    0  0.00000000000E+00 -0.35527136788E-14 -0.49997238507E+03  0.50653766538E+03  0.81289732545E+02 0.  0.
         66    2    3    3    0    0 -0.15178647829E+02  0.23365717163E+02 -0.43431829754E+03  0.43521573003E+03  0.20000003239E+01 0.  0.
        -13    1    3    3    0    0  0.15178647829E+02 -0.23365717163E+02 -0.65654087530E+02  0.71321935349E+02  0.10566000000E+00 0.  1.
         13    1    4    4    0    0 -0.50816942930E+01  0.86688069165E+01 -0.16372702260E+03  0.16403512101E+03  0.10566000000E+00 0. -1.
        -13    1    4    4    0    0 -0.48399634469E+01  0.64189698834E+01 -0.12871236316E+03  0.12896321962E+03  0.10566000000E+00 0.  1.
         14    1    4    4    0    0 -0.52569900888E+01  0.82779403633E+01 -0.14187891177E+03  0.14221738940E+03  0.00000000000E+00 0. -1.
<mgrwt>
<rscale>  0 0.81289733E+02</rscale>
<asrwt>0</asrwt>
<pdfrwt beam="1">  1        2 0.77423789E-01 0.81289733E+02</pdfrwt>
<pdfrwt beam="2">  1       -1 0.50502196E-03 0.81289733E+02</pdfrwt>
<totfact> 0.29267620E+05</totfact>
</mgrwt>
</event>
<event>
 8    1  0.1600673E-013  0.8538160E+02  0.7818608E-02  0.1314438E+00
         -1   -1    0    0    0  501 -0.00000000000E+00  0.00000000000E+00  0.14503954302E+02  0.14503955177E+02  0.50400000000E-02 0.  1.
          2   -1    0    0  501    0  0.00000000000E+00 -0.00000000000E+00 -0.12565567753E+03  0.12565567756E+03  0.25500000000E-02 0. -1.
         24    2    1    2    0    0  0.00000000000E+00  0.00000000000E+00 -0.11115172323E+03  0.14015963273E+03  0.85381596796E+02 0.  0.
         66    2    3    3    0    0  0.29189610105E+01  0.11636407618E+02 -0.12282184303E+03  0.12342257278E+03  0.20000078993E+01 0.  0.
        -13    1    3    3    0    0 -0.29189610105E+01 -0.11636407618E+02  0.11670119800E+02  0.16737059951E+02  0.10566000000E+00 0.  1.
         13    1    4    4    0    0  0.96600177250E+00  0.18425721321E+01 -0.17461716746E+02  0.17585532328E+02  0.10566000000E+00 0. -1.
        -13    1    4    4    0    0  0.58615502495E+00  0.13454391773E+01 -0.16848749348E+02  0.16912873881E+02  0.10566000000E+00 0.  1.
         14    1    4    4    0    0  0.13668042130E+01  0.84483963087E+01 -0.88511376936E+02  0.88924166575E+02  0.00000000000E+00 0. -1.
<mgrwt>
<rscale>  0 0.85381597E+02</rscale>
<asrwt>0</asrwt>
<pdfrwt beam="1">  1        2 0.19331642E-01 0.85381597E+02</pdfrwt>
<pdfrwt beam="2">  1       -1 0.22313777E-02 0.85381597E+02</pdfrwt>
<totfact> 0.15920962E+05</totfact>
</mgrwt>
</event>
<event>
 8    1  0.1600673E-013  0.7293547E+02  0.7818608E-02  0.1350386E+00
          2   -1    0    0  501    0  0.00000000000E+00  0.00000000000E+00  0.68328795276E+03  0.68328795277E+03  0.25500000000E-02 0. -1.
         -1   -1    0    0    0  501 -0.00000000000E+00 -0.00000000000E+00 -0.19463147493E+01  0.19463212748E+01  0.50400000000E-02 0.  1.
         24    2    1    2    0    0 -0.35527136788E-14  0.00000000000E+00  0.68134163802E+03  0.68523427404E+03  0.72935468954E+02 0.  0.
         66    2    3    3    0    0 -0.23421200300E+02  0.13084823296E+02  0.57261074666E+03  0.57324238540E+03  0.19999997320E+01 0.  0.
        -13    1    3    3    0    0  0.23421200300E+02 -0.13084823296E+02  0.10873089135E+03  0.11199188865E+03  0.10566000000E+00 0.  1.
         13    1    4    4    0    0 -0.12161842878E+02  0.66319133853E+01  0.30595524985E+03  0.30626870355E+03  0.10566000000E+00 0. -1.
        -13    1    4    4    0    0 -0.85396873130E+01  0.54180431486E+01  0.20347101405E+03  0.20372222798E+03  0.10566000000E+00 0.  1.
         14    1    4    4    0    0 -0.27196701089E+01  0.10348667620E+01  0.63184482761E+02  0.63251453869E+02  0.00000000000E+00 0. -1.
<mgrwt>
<rscale>  0 0.72935469E+02</rscale>
<asrwt>0</asrwt>
<pdfrwt beam="1">  1        2 0.10512142E+00 0.72935469E+02</pdfrwt>
<pdfrwt beam="2">  1       -1 0.29943298E-03 0.72935469E+02</pdfrwt>
<totfact> 0.42252984E+05</totfact>
</mgrwt>
</event>
<event>
 8    1  0.1600673E-013  0.7860588E+02  0.7818608E-02  0.1333055E+00
         -1   -1    0    0    0  501 -0.00000000000E+00  0.00000000000E+00  0.19907939486E+01  0.19908003283E+01  0.50400000000E-02 0.  1.
          2   -1    0    0  501    0  0.00000000000E+00 -0.00000000000E+00 -0.77593097905E+03  0.77593097905E+03  0.25500000000E-02 0. -1.
         24    2    1    2    0    0  0.35527136788E-14  0.00000000000E+00 -0.77394018510E+03  0.77792177938E+03  0.78605882241E+02 0.  0.
         66    2    3    3    0    0 -0.28621299268E+02  0.27782677864E+01 -0.65199821349E+03  0.65263509554E+03  0.19999982473E+01 0.  0.
        -13    1    3    3    0    0  0.28621299268E+02 -0.27782677864E+01 -0.12194197161E+03  0.12528668384E+03  0.10566000000E+00 0.  1.
         13    1    4    4    0    0 -0.69069660401E+01  0.78922594609E+00 -0.17446971741E+03  0.17460819716E+03  0.10566000000E+00 0.  1.
        -13    1    4    4    0    0 -0.21680662598E+02  0.19462520633E+01 -0.47614212120E+03  0.47663945469E+03  0.10566000000E+00 0. -1.
         14    1    4    4    0    0 -0.33670629156E-01  0.42789776966E-01 -0.13863748806E+01  0.13874436874E+01  0.00000000000E+00 0. -1.
<mgrwt>
<rscale>  0 0.78605882E+02</rscale>
<asrwt>0</asrwt>
<pdfrwt beam="1">  1        2 0.11937376E+00 0.78605882E+02</pdfrwt>
<pdfrwt beam="2">  1       -1 0.30627710E-03 0.78605882E+02</pdfrwt>
<totfact> 0.35773389E+05</totfact>
</mgrwt>
</event>
<event>
 8    1  0.1600673E-013  0.8113622E+02  0.7818608E-02  0.1325858E+00
         -1   -1    0    0    0  501 -0.00000000000E+00  0.00000000000E+00  0.15365008460E+02  0.15365009286E+02  0.50400000000E-02 0.  1.
          2   -1    0    0  501    0  0.00000000000E+00 -0.00000000000E+00 -0.10711164616E+03  0.10711164619E+03  0.25500000000E-02 0. -1.
         24    2    1    2    0    0 -0.17763568394E-14  0.00000000000E+00 -0.91746637704E+02  0.12247665548E+03  0.81136216375E+02 0.  0.
         66    2    3    3    0    0  0.93883128683E+01  0.33502488469E+02 -0.77319757843E+02  0.84810979080E+02  0.20000168549E+01 0.  0.
        -13    1    3    3    0    0 -0.93883128683E+01 -0.33502488469E+02 -0.14426879861E+02  0.37665676401E+02  0.10566000000E+00 0.  1.
         13    1    4    4    0    0  0.37594102928E+01  0.12076561440E+02 -0.28869414427E+02  0.31518736577E+02  0.10566000000E+00 0. -1.
        -13    1    4    4    0    0  0.29668833051E+01  0.11014584906E+02 -0.26569344038E+02  0.28914783136E+02  0.10566000000E+00 0.  1.
        -14    1    4    4    0    0  0.26620192704E+01  0.10411342123E+02 -0.21880999377E+02  0.24377459366E+02  0.00000000000E+00 0.  1.
<mgrwt>
<rscale>  0 0.81136216E+02</rscale>
<asrwt>0</asrwt>
<pdfrwt beam="1">  1        2 0.16478714E-01 0.81136216E+02</pdfrwt>
<pdfrwt beam="2">  1       -1 0.23638476E-02 0.81136216E+02</pdfrwt>
<totfact> 0.17404981E+05</totfact>
</mgrwt>
</event>
<event>
 8    1  0.1600673E-013  0.7849968E+02  0.7818608E-02  0.1333364E+00
          2   -1    0    0  501    0  0.00000000000E+00  0.00000000000E+00  0.68482256212E+02  0.68482256259E+02  0.25500000000E-02 0. -1.
         -1   -1    0    0    0  501 -0.00000000000E+00 -0.00000000000E+00 -0.22495609605E+02  0.22495610170E+02  0.50400000000E-02 0.  1.
         24    2    1    2    0    0  0.00000000000E+00  0.00000000000E+00  0.45986646606E+02  0.90977866429E+02  0.78499684801E+02 0.  0.
         66    2    3    3    0    0 -0.37920119269E+02  0.90372005984E+01  0.17964572950E+02  0.42968969170E+02  0.19999975616E+01 0.  0.
        -13    1    3    3    0    0  0.37920119269E+02 -0.90372005984E+01  0.28022073656E+02  0.48008897259E+02  0.10566000000E+00 0.  1.
         13    1    4    4    0    0 -0.26755095947E+02  0.69680561851E+01  0.12170645803E+02  0.30208024587E+02  0.10566000000E+00 0. -1.
        -13    1    4    4    0    0 -0.49525837174E+01  0.69247521796E+00  0.23668498683E+01  0.55336018777E+01  0.10566000000E+00 0. -1.
         14    1    4    4    0    0 -0.62124396041E+01  0.13766691953E+01  0.34270772793E+01  0.72273427057E+01  0.00000000000E+00 0. -1.
<mgrwt>
<rscale>  0 0.78499685E+02</rscale>
<asrwt>0</asrwt>
<pdfrwt beam="1">  1        2 0.10535732E-01 0.78499685E+02</pdfrwt>
<pdfrwt beam="2">  1       -1 0.34608631E-02 0.78499685E+02</pdfrwt>
<totfact> 0.16904695E+05</totfact>
</mgrwt>
</event>
<event>
 8    1  0.1600673E-013  0.7980444E+02  0.7818608E-02  0.1329607E+00
         -1   -1    0    0    0  501 -0.00000000000E+00  0.00000000000E+00  0.74942664234E+02  0.74942664404E+02  0.50400000000E-02 0.  1.
          2   -1    0    0  501    0  0.00000000000E+00 -0.00000000000E+00 -0.21245403448E+02  0.21245403601E+02  0.25500000000E-02 0. -1.
         24    2    1    2    0    0 -0.17763568394E-14  0.00000000000E+00  0.53697260786E+02  0.96188068005E+02  0.79804439793E+02 0.  0.
         66    2    3    3    0    0 -0.13720720787E+02 -0.23330639820E+02 -0.84315597917E+01  0.28419502699E+02  0.19999999560E+01 0.  0.
        -13    1    3    3    0    0  0.13720720787E+02  0.23330639820E+02  0.62128820578E+02  0.67768565307E+02  0.10566000000E+00 0.  1.
         13    1    4    4    0    0 -0.93714870672E+01 -0.16129106329E+02 -0.53445846815E+01  0.19404859965E+02  0.10566000000E+00 0. -1.
        -13    1    4    4    0    0 -0.38494435223E+01 -0.59299447797E+01 -0.28715737701E+01  0.76314848145E+01  0.10566000000E+00 0.  1.
        -14    1    4    4    0    0 -0.49979019711E+00 -0.12715887114E+01 -0.21540134006E+00  0.13831579192E+01  0.00000000000E+00 0.  1.
<mgrwt>
<rscale>  0 0.79804440E+02</rscale>
<asrwt>0</asrwt>
<pdfrwt beam="1">  1        2 0.32685236E-02 0.79804440E+02</pdfrwt>
<pdfrwt beam="2">  1       -1 0.11529641E-01 0.79804440E+02</pdfrwt>
<totfact> 0.12655897E+05</totfact>
</mgrwt>
</event>
<event>
 8    1  0.1600673E-013  0.8166885E+02  0.7818608E-02  0.1324381E+00
          2   -1    0    0  501    0  0.00000000000E+00  0.00000000000E+00  0.13568974894E+04  0.13568974894E+04  0.25500000000E-02 0. -1.
         -1   -1    0    0    0  501 -0.00000000000E+00 -0.00000000000E+00 -0.12288644734E+01  0.12288748087E+01  0.50400000000E-02 0.  1.
         24    2    1    2    0    0 -0.35527136788E-14 -0.17763568394E-14  0.13556686249E+04  0.13581263642E+04  0.81668846904E+02 0.  0.
         66    2    3    3    0    0  0.19904103733E+02 -0.11008048475E+02  0.12417120345E+04  0.12419219489E+04  0.20000025463E+01 0.  0.
        -13    1    3    3    0    0 -0.19904103733E+02  0.11008048475E+02  0.11395659038E+03  0.11620441528E+03  0.10566000000E+00 0.  1.
         13    1    4    4    0    0  0.23015714691E+01 -0.97387601623E+00  0.14334683836E+03  0.14336866080E+03  0.10566000000E+00 0. -1.
        -13    1    4    4    0    0  0.67691655486E+01 -0.40632319117E+01  0.47058284807E+03  0.47064908320E+03  0.10566000000E+00 0.  1.
        -14    1    4    4    0    0  0.10833366715E+02 -0.59709405468E+01  0.62778234807E+03  0.62790420489E+03  0.00000000000E+00 0.  1.
<mgrwt>
<rscale>  0 0.81668847E+02</rscale>
<asrwt>0</asrwt>
<pdfrwt beam="1">  1        2 0.20875392E+00 0.81668847E+02</pdfrwt>
<pdfrwt beam="2">  1       -1 0.18905645E-03 0.81668847E+02</pdfrwt>
<totfact> 0.32501908E+05</totfact>
</mgrwt>
</event>
<event>
 8    1  0.1600673E-013  0.7991134E+02  0.7818608E-02  0.1329303E+00
          2   -1    0    0  501    0  0.00000000000E+00  0.00000000000E+00  0.88524407627E+01  0.88524411300E+01  0.25500000000E-02 0. -1.
         -1   -1    0    0    0  501 -0.00000000000E+00 -0.00000000000E+00 -0.18034069666E+03  0.18034069673E+03  0.50400000000E-02 0.  1.
         24    2    1    2    0    0  0.00000000000E+00 -0.22204460493E-15 -0.17148825590E+03  0.18919313786E+03  0.79911335258E+02 0.  0.
         66    2    3    3    0    0  0.37465541296E+02  0.18900101727E+01 -0.53403786273E+02  0.65293210283E+02  0.19999994544E+01 0.  0.
        -13    1    3    3    0    0 -0.37465541296E+02 -0.18900101727E+01 -0.11808446962E+03  0.12389992758E+03  0.10566000000E+00 0.  1.
         13    1    4    4    0    0  0.24445362614E+02  0.11049331915E+01 -0.34178030160E+02  0.42035051331E+02  0.10566000000E+00 0. -1.
        -13    1    4    4    0    0  0.11418525844E+02  0.34150817720E+00 -0.16934766876E+02  0.20427845052E+02  0.10566000000E+00 0.  1.
        -14    1    4    4    0    0  0.16016528378E+01  0.44356880407E+00 -0.22909892367E+01  0.28303139012E+01  0.00000000000E+00 0.  1.
<mgrwt>
<rscale>  0 0.79911335E+02</rscale>
<asrwt>0</asrwt>
<pdfrwt beam="1">  1        2 0.13619141E-02 0.79911335E+02</pdfrwt>
<pdfrwt beam="2">  1       -1 0.27744720E-01 0.79911335E+02</pdfrwt>
<totfact> 0.10295836E+05</totfact>
</mgrwt>
</event>
<event>
 8    1  0.1600673E-013  0.7726730E+02  0.7818608E-02  0.1336990E+00
          2   -1    0    0  501    0  0.00000000000E+00  0.00000000000E+00  0.35398160056E+02  0.35398160148E+02  0.25500000000E-02 0. -1.
         -1   -1    0    0    0  501 -0.00000000000E+00 -0.00000000000E+00 -0.42164869945E+02  0.42164870246E+02  0.50400000000E-02 0.  1.
         24    2    1    2    0    0 -0.35527136788E-14 -0.35527136788E-14 -0.67667098887E+01  0.77563030394E+02  0.77267297876E+02 0.  0.
         66    2    3    3    0    0 -0.22004826565E+02 -0.11581601985E+02  0.26260587851E+02  0.36221048623E+02  0.19999980893E+01 0.  0.
        -13    1    3    3    0    0  0.22004826565E+02  0.11581601985E+02 -0.33027297740E+02  0.41341981771E+02  0.10566000000E+00 0.  1.
         13    1    4    4    0    0 -0.13684029654E+02 -0.69965662501E+01  0.15678919150E+02  0.21955506749E+02  0.10566000000E+00 0. -1.
        -13    1    4    4    0    0 -0.24111406440E+01 -0.11345244892E+01  0.36961739453E+01  0.45578076848E+01  0.10566000000E+00 0.  1.
        -14    1    4    4    0    0 -0.59096562668E+01 -0.34505112457E+01  0.68854947559E+01  0.97077341889E+01  0.00000000000E+00 0.  1.
<mgrwt>
<rscale>  0 0.77267298E+02</rscale>
<asrwt>0</asrwt>
<pdfrwt beam="1">  1        2 0.54458708E-02 0.77267298E+02</pdfrwt>
<pdfrwt beam="2">  1       -1 0.64869031E-02 0.77267298E+02</pdfrwt>
<totfact> 0.15312113E+05</totfact>
</mgrwt>
</event>
<event>
 8    1  0.1600673E-013  0.7705937E+02  0.7818608E-02  0.1337610E+00
          2   -1    0    0  501    0  0.00000000000E+00  0.00000000000E+00  0.10511728994E+03  0.10511728997E+03  0.25500000000E-02 0. -1.
         -1   -1    0    0    0  501 -0.00000000000E+00 -0.00000000000E+00 -0.14122669116E+02  0.14122670015E+02  0.50400000000E-02 0.  1.
         24    2    1    2    0    0 -0.17763568394E-14  0.00000000000E+00  0.90994620826E+02  0.11923995999E+03  0.77059373465E+02 0.  0.
         66    2    3    3    0    0  0.11020172385E+02 -0.21808423895E+02  0.91573224624E+02  0.94798243630E+02  0.19999938112E+01 0.  0.
        -13    1    3    3    0    0 -0.11020172385E+02  0.21808423895E+02 -0.57860379776E+00  0.24441716358E+02  0.10566000000E+00 0.  1.
         13    1    4    4    0    0  0.21547396181E+01 -0.52173738127E+01  0.20523590282E+02  0.21285976943E+02  0.10566000000E+00 0.  1.
        -13    1    4    4    0    0  0.62719155175E+01 -0.11886470607E+02  0.48115886703E+02  0.49957730383E+02  0.10566000000E+00 0. -1.
        -14    1    4    4    0    0  0.25935172490E+01 -0.47045794746E+01  0.22933747638E+02  0.23554536304E+02  0.00000000000E+00 0.  1.
<mgrwt>
<rscale>  0 0.77059373E+02</rscale>
<asrwt>0</asrwt>
<pdfrwt beam="1">  1        2 0.16171891E-01 0.77059373E+02</pdfrwt>
<pdfrwt beam="2">  1       -1 0.21727184E-02 0.77059373E+02</pdfrwt>
<totfact> 0.19867838E+05</totfact>
</mgrwt>
</event>
<event>
 8    1  0.1600673E-013  0.8139693E+02  0.7818608E-02  0.1325133E+00
         -1   -1    0    0    0  501 -0.00000000000E+00  0.00000000000E+00  0.71213633462E+02  0.71213633640E+02  0.50400000000E-02 0.  1.
          2   -1    0    0  501    0  0.00000000000E+00 -0.00000000000E+00 -0.23259102300E+02  0.23259102440E+02  0.25500000000E-02 0. -1.
         24    2    1    2    0    0 -0.71054273576E-14  0.00000000000E+00  0.47954531162E+02  0.94472736080E+02  0.81396933625E+02 0.  0.
         66    2    3    3    0    0  0.35790726285E+02 -0.32681914856E+01  0.18875390434E+01  0.36044694092E+02  0.20000012382E+01 0.  0.
        -13    1    3    3    0    0 -0.35790726285E+02  0.32681914856E+01  0.46066992118E+02  0.58428041988E+02  0.10566000000E+00 0.  1.
         13    1    4    4    0    0  0.33619850724E+01 -0.43588363477E+00  0.38558101869E+00  0.34136161072E+01  0.10566000000E+00 0. -1.
        -13    1    4    4    0    0  0.21566718923E+02 -0.20140731464E+01  0.17883464326E+01  0.21734516391E+02  0.10566000000E+00 0.  1.
         14    1    4    4    0    0  0.10862022290E+02 -0.81823470437E+00 -0.28638840792E+00  0.10896561595E+02  0.00000000000E+00 0. -1.
<mgrwt>
<rscale>  0 0.81396934E+02</rscale>
<asrwt>0</asrwt>
<pdfrwt beam="1">  1        2 0.35783234E-02 0.81396934E+02</pdfrwt>
<pdfrwt beam="2">  1       -1 0.10955944E-01 0.81396934E+02</pdfrwt>
<totfact> 0.12180669E+05</totfact>
</mgrwt>
</event>
<event>
 8    1  0.1600673E-013  0.8110678E+02  0.7818608E-02  0.1325940E+00
         -1   -1    0    0    0  501 -0.00000000000E+00  0.00000000000E+00  0.29749441945E+02  0.29749442372E+02  0.50400000000E-02 0.  1.
          2   -1    0    0  501    0  0.00000000000E+00 -0.00000000000E+00 -0.55280945740E+02  0.55280945799E+02  0.25500000000E-02 0. -1.
         24    2    1    2    0    0  0.00000000000E+00 -0.17763568394E-14 -0.25531503795E+02  0.85030388171E+02  0.81106776699E+02 0.  0.
         66    2    3    3    0    0 -0.37136106450E+02  0.15597713952E+02 -0.80624163384E+01  0.41126410408E+02  0.19999982475E+01 0.  0.
        -13    1    3    3    0    0  0.37136106450E+02 -0.15597713952E+02 -0.17469087456E+02  0.43903977763E+02  0.10566000000E+00 0.  1.
         13    1    4    4    0    0 -0.24002875022E+02  0.97168201112E+01 -0.47693800085E+01  0.26330832727E+02  0.10566000000E+00 0. -1.
        -13    1    4    4    0    0 -0.62334020479E+00  0.11557176050E+00 -0.51137904093E-01  0.64473945402E+00  0.10566000000E+00 0. -1.
         14    1    4    4    0    0 -0.12509891223E+02  0.57653220807E+01 -0.32418984258E+01  0.14150838227E+02  0.00000000000E+00 0. -1.
<mgrwt>
<rscale>  0 0.81106777E+02</rscale>
<asrwt>0</asrwt>
<pdfrwt beam="1">  1        2 0.85047609E-02 0.81106777E+02</pdfrwt>
<pdfrwt beam="2">  1       -1 0.45768373E-02 0.81106777E+02</pdfrwt>
<totfact> 0.14715624E+05</totfact>
</mgrwt>
</event>
<event>
 8    1  0.1600673E-013  0.8218973E+02  0.7818608E-02  0.1322950E+00
         -1   -1    0    0    0  501 -0.00000000000E+00  0.00000000000E+00  0.15406922584E+02  0.15406923409E+02  0.50400000000E-02 0.  1.
          2   -1    0    0  501    0  0.00000000000E+00 -0.00000000000E+00 -0.10961226459E+03  0.10961226462E+03  0.25500000000E-02 0. -1.
         24    2    1    2    0    0  0.00000000000E+00  0.00000000000E+00 -0.94205342003E+02  0.12501918803E+03  0.82189725104E+02 0.  0.
         66    2    3    3    0    0 -0.23504891138E+02 -0.15033308894E+02 -0.92973627987E+02  0.97090554562E+02  0.20000001470E+01 0.  0.
        -13    1    3    3    0    0  0.23504891138E+02  0.15033308894E+02 -0.12317140168E+01  0.27928633463E+02  0.10566000000E+00 0.  1.
         13    1    4    4    0    0 -0.11795068646E+02 -0.71240028507E+01 -0.43892692548E+02  0.46004941954E+02  0.10566000000E+00 0. -1.
        -13    1    4    4    0    0 -0.11214266448E+02 -0.73613776134E+01 -0.47021618863E+02  0.48897785807E+02  0.10566000000E+00 0.  1.
        -14    1    4    4    0    0 -0.49555604425E+00 -0.54792842943E+00 -0.20593165757E+01  0.21878268020E+01  0.00000000000E+00 0.  1.
<mgrwt>
<rscale>  0 0.82189725E+02</rscale>
<asrwt>0</asrwt>
<pdfrwt beam="1">  1        2 0.16863425E-01 0.82189725E+02</pdfrwt>
<pdfrwt beam="2">  1       -1 0.23702959E-02 0.82189725E+02</pdfrwt>
<totfact> 0.16926321E+05</totfact>
</mgrwt>
</event>
<event>
 8    1  0.1600673E-013  0.7922881E+02  0.7818608E-02  0.1331254E+00
          2   -1    0    0  501    0  0.00000000000E+00  0.00000000000E+00  0.31623069487E+03  0.31623069488E+03  0.25500000000E-02 0. -1.
         -1   -1    0    0    0  501 -0.00000000000E+00 -0.00000000000E+00 -0.49625182370E+01  0.49625207963E+01  0.50400000000E-02 0.  1.
         24    2    1    2    0    0 -0.17763568394E-14  0.00000000000E+00  0.31126817663E+03  0.32119321567E+03  0.79228807969E+02 0.  0.
         66    2    3    3    0    0 -0.13674877187E+02  0.27016595468E+02  0.25912157883E+03  0.26089248995E+03  0.19999998173E+01 0.  0.
        -13    1    3    3    0    0  0.13674877187E+02 -0.27016595468E+02  0.52146597795E+02  0.60300725720E+02  0.10566000000E+00 0.  1.
         13    1    4    4    0    0 -0.82404530535E+00  0.17575846321E+01  0.17348898973E+02  0.17457480174E+02  0.10566000000E+00 0.  1.
        -13    1    4    4    0    0 -0.12687486392E+01  0.29546369238E+01  0.23144718844E+02  0.23367258651E+02  0.10566000000E+00 0. -1.
         14    1    4    4    0    0 -0.11582083242E+02  0.22304373912E+02  0.21862796102E+03  0.22006775113E+03  0.00000000000E+00 0. -1.
<mgrwt>
<rscale>  0 0.79228808E+02</rscale>
<asrwt>0</asrwt>
<pdfrwt beam="1">  1        2 0.48650881E-01 0.79228808E+02</pdfrwt>
<pdfrwt beam="2">  1       -1 0.76346447E-03 0.79228808E+02</pdfrwt>
<totfact> 0.26652458E+05</totfact>
</mgrwt>
</event>
<event>
 8    1  0.1600673E-013  0.7461788E+02  0.7818608E-02  0.1345058E+00
         -1   -1    0    0    0  501 -0.00000000000E+00  0.00000000000E+00  0.16609214024E+01  0.16609290492E+01  0.50400000000E-02 0.  1.
          2   -1    0    0  501    0  0.00000000000E+00 -0.00000000000E+00 -0.83806112028E+03  0.83806112028E+03  0.25500000000E-02 0. -1.
         24    2    1    2    0    0  0.00000000000E+00  0.00000000000E+00 -0.83640019887E+03  0.83972204933E+03  0.74617876233E+02 0.  0.
         66    2    3    3    0    0 -0.87130154835E+01 -0.18987036775E+02 -0.76600333539E+03  0.76629076338E+03  0.20000007157E+01 0.  0.
        -13    1    3    3    0    0  0.87130154835E+01  0.18987036775E+02 -0.70396863483E+02  0.73431285953E+02  0.10566000000E+00 0.  1.
         13    1    4    4    0    0 -0.17320173096E+01 -0.45612148092E+01 -0.18135741705E+03  0.18142306481E+03  0.10566000000E+00 0. -1.
        -13    1    4    4    0    0 -0.52896897524E+01 -0.93912475981E+01 -0.40335652625E+03  0.40350052637E+03  0.10566000000E+00 0.  1.
        -14    1    4    4    0    0 -0.16913084215E+01 -0.50345743676E+01 -0.18128939210E+03  0.18136717219E+03  0.00000000000E+00 0.  1.
<mgrwt>
<rscale>  0 0.74617876E+02</rscale>
<asrwt>0</asrwt>
<pdfrwt beam="1">  1        2 0.12893214E+00 0.74617876E+02</pdfrwt>
<pdfrwt beam="2">  1       -1 0.25552763E-03 0.74617876E+02</pdfrwt>
<totfact> 0.41462249E+05</totfact>
</mgrwt>
</event>
<event>
 8    1  0.1600673E-013  0.7753050E+02  0.7818608E-02  0.1336209E+00
          2   -1    0    0  501    0  0.00000000000E+00  0.00000000000E+00  0.17995377250E+03  0.17995377252E+03  0.25500000000E-02 0. -1.
         -1   -1    0    0    0  501 -0.00000000000E+00 -0.00000000000E+00 -0.83507257039E+01  0.83507272248E+01  0.50400000000E-02 0.  1.
         24    2    1    2    0    0  0.00000000000E+00 -0.71054273576E-14  0.17160304680E+03  0.18830449974E+03  0.77530503376E+02 0.  0.
         66    2    3    3    0    0  0.93011933759E+01 -0.37599379820E+02  0.84116738974E+02  0.92627486926E+02  0.19999994222E+01 0.  0.
        -13    1    3    3    0    0 -0.93011933759E+01  0.37599379820E+02  0.87486307823E+02  0.95677012817E+02  0.10566000000E+00 0.  1.
         13    1    4    4    0    0  0.23391038344E+01 -0.78227184655E+01  0.18506363329E+02  0.20227777402E+02  0.10566000000E+00 0. -1.
        -13    1    4    4    0    0  0.19074949248E+00 -0.17437378170E+01  0.32855894276E+01  0.37260258809E+01  0.10566000000E+00 0.  1.
        -14    1    4    4    0    0  0.67713400491E+01 -0.28032923537E+02  0.62324786217E+02  0.68673683643E+02  0.00000000000E+00 0.  1.
<mgrwt>
<rscale>  0 0.77530503E+02</rscale>
<asrwt>0</asrwt>
<pdfrwt beam="1">  1        2 0.27685193E-01 0.77530503E+02</pdfrwt>
<pdfrwt beam="2">  1       -1 0.12847273E-02 0.77530503E+02</pdfrwt>
<totfact> 0.23107937E+05</totfact>
</mgrwt>
</event>
<event>
 8    1  0.1600673E-013  0.7883601E+02  0.7818608E-02  0.1332387E+00
          2   -1    0    0  501    0  0.00000000000E+00  0.00000000000E+00  0.69058387242E+03  0.69058387243E+03  0.25500000000E-02 0. -1.
         -1   -1    0    0    0  501 -0.00000000000E+00 -0.00000000000E+00 -0.22499471179E+01  0.22499527629E+01  0.50400000000E-02 0.  1.
         24    2    1    2    0    0  0.35527136788E-14  0.00000000000E+00  0.68833392531E+03  0.69283382519E+03  0.78836010822E+02 0.  0.
         66    2    3    3    0    0 -0.17465395647E+02  0.17449497478E+02  0.61415392123E+03  0.61465320626E+03  0.19999999538E+01 0.  0.
        -13    1    3    3    0    0  0.17465395647E+02 -0.17449497478E+02  0.74180004079E+02  0.78180618932E+02  0.10566000000E+00 0.  1.
         13    1    4    4    0    0 -0.14111092498E+01  0.15641961939E+01  0.64039935415E+02  0.64074662941E+02  0.10566000000E+00 0. -1.
        -13    1    4    4    0    0 -0.30730321241E+00  0.40968221670E+00  0.10364351366E+02  0.10377534296E+02  0.10566000000E+00 0.  1.
         14    1    4    4    0    0 -0.15746983185E+02  0.15475619067E+02  0.53974963445E+03  0.54020100902E+03  0.00000000000E+00 0. -1.
<mgrwt>
<rscale>  0 0.78836011E+02</rscale>
<asrwt>0</asrwt>
<pdfrwt beam="1">  1        2 0.10624396E+00 0.78836011E+02</pdfrwt>
<pdfrwt beam="2">  1       -1 0.34614521E-03 0.78836011E+02</pdfrwt>
<totfact> 0.34641286E+05</totfact>
</mgrwt>
</event>
<event>
 8    1  0.1600673E-013  0.8059874E+02  0.7818608E-02  0.1327361E+00
         -1   -1    0    0    0  501 -0.00000000000E+00  0.00000000000E+00  0.27666491119E+01  0.27666537025E+01  0.50400000000E-02 0.  1.
          2   -1    0    0  501    0  0.00000000000E+00 -0.00000000000E+00 -0.58700540373E+03  0.58700540374E+03  0.25500000000E-02 0. -1.
         24    2    1    2    0    0  0.00000000000E+00  0.00000000000E+00 -0.58423875462E+03  0.58977205744E+03  0.80598742776E+02 0.  0.
         66    2    3    3    0    0  0.13036616979E+02  0.36811452778E+02 -0.36436586437E+03  0.36645807340E+03  0.20000005818E+01 0.  0.
        -13    1    3    3    0    0 -0.13036616979E+02 -0.36811452778E+02 -0.21987289025E+03  0.22331398404E+03  0.10566000000E+00 0.  1.
         13    1    4    4    0    0  0.40128510852E+00  0.12852098027E+01 -0.11062875652E+02  0.11145006761E+02  0.10566000000E+00 0. -1.
        -13    1    4    4    0    0  0.67939985580E+01  0.21061104067E+02 -0.21138628983E+03  0.21254153292E+03  0.10566000000E+00 0.  1.
         14    1    4    4    0    0  0.58413333123E+01  0.14465138908E+02 -0.14191669889E+03  0.14277153372E+03  0.00000000000E+00 0. -1.
<mgrwt>
<rscale>  0 0.80598743E+02</rscale>
<asrwt>0</asrwt>
<pdfrwt beam="1">  1        2 0.90308424E-01 0.80598743E+02</pdfrwt>
<pdfrwt beam="2">  1       -1 0.42563915E-03 0.80598743E+02</pdfrwt>
<totfact> 0.31351458E+05</totfact>
</mgrwt>
</event>
<event>
 8    1  0.1600673E-013  0.8293865E+02  0.7818608E-02  0.1320913E+00
          2   -1    0    0  501    0  0.00000000000E+00  0.00000000000E+00  0.65137386153E+03  0.65137386154E+03  0.25500000000E-02 0. -1.
         -1   -1    0    0    0  501 -0.00000000000E+00 -0.00000000000E+00 -0.26401174849E+01  0.26401222956E+01  0.50400000000E-02 0.  1.
         24    2    1    2    0    0  0.35527136788E-14  0.00000000000E+00  0.64873374405E+03  0.65401398384E+03  0.82938654337E+02 0.  0.
         66    2    3    3    0    0  0.20109581092E+02  0.27573960844E+02  0.50998725117E+03  0.51113179803E+03  0.20000097991E+01 0.  0.
        -13    1    3    3    0    0 -0.20109581092E+02 -0.27573960844E+02  0.13874649288E+03  0.14288218580E+03  0.10566000000E+00 0.  1.
         13    1    4    4    0    0  0.14354331789E+02  0.19762227778E+02  0.37478997353E+03  0.37558504750E+03  0.10566000000E+00 0. -1.
        -13    1    4    4    0    0  0.53158026178E+01  0.68796992504E+01  0.12001620664E+03  0.12033074853E+03  0.10566000000E+00 0.  1.
        -14    1    4    4    0    0  0.43944668526E+00  0.93203381579E+00  0.15181070998E+02  0.15216002007E+02  0.00000000000E+00 0.  1.
<mgrwt>
<rscale>  0 0.82938654E+02</rscale>
<asrwt>0</asrwt>
<pdfrwt beam="1">  1        2 0.10021142E+00 0.82938654E+02</pdfrwt>
<pdfrwt beam="2">  1       -1 0.40617205E-03 0.82938654E+02</pdfrwt>
<totfact> 0.29925952E+05</totfact>
</mgrwt>
</event>
<event>
 8    1  0.1600673E-013  0.8038467E+02  0.7818608E-02  0.1327963E+00
         -1   -1    0    0    0  501 -0.00000000000E+00  0.00000000000E+00  0.53496728636E+01  0.53496752377E+01  0.50400000000E-02 0.  1.
          2   -1    0    0  501    0  0.00000000000E+00 -0.00000000000E+00 -0.30196676365E+03  0.30196676366E+03  0.25500000000E-02 0. -1.
         24    2    1    2    0    0  0.00000000000E+00  0.00000000000E+00 -0.29661709079E+03  0.30731643890E+03  0.80384669376E+02 0.  0.
         66    2    3    3    0    0 -0.66622950817E+00  0.23003726440E+02 -0.27426012922E+03  0.27523123692E+03  0.20000001823E+01 0.  0.
        -13    1    3    3    0    0  0.66622950817E+00 -0.23003726440E+02 -0.22356961561E+02  0.32085201981E+02  0.10566000000E+00 0.  1.
         13    1    4    4    0    0 -0.40522956084E+00  0.11827030881E+02 -0.13971081092E+03  0.14021114336E+03  0.10566000000E+00 0.  1.
        -13    1    4    4    0    0 -0.64322471773E+00  0.53447651691E+01 -0.69959607081E+02  0.70166502262E+02  0.10566000000E+00 0. -1.
        -14    1    4    4    0    0  0.38222477041E+00  0.58319303900E+01 -0.64589711221E+02  0.64853591292E+02  0.00000000000E+00 0.  1.
<mgrwt>
<rscale>  0 0.80384669E+02</rscale>
<asrwt>0</asrwt>
<pdfrwt beam="1">  1        2 0.46456412E-01 0.80384669E+02</pdfrwt>
<pdfrwt beam="2">  1       -1 0.82302701E-03 0.80384669E+02</pdfrwt>
<totfact> 0.25235445E+05</totfact>
</mgrwt>
</event>
<event>
 8    1  0.1600673E-013  0.7998951E+02  0.7818608E-02  0.1329081E+00
          2   -1    0    0  501    0  0.00000000000E+00  0.00000000000E+00  0.10781291692E+04  0.10781291692E+04  0.25500000000E-02 0. -1.
         -1   -1    0    0    0  501 -0.00000000000E+00 -0.00000000000E+00 -0.14836586646E+01  0.14836672250E+01  0.50400000000E-02 0.  1.
         24    2    1    2    0    0 -0.35527136788E-14  0.00000000000E+00  0.10766455106E+04  0.10796128365E+04  0.79989506963E+02 0.  0.
         66    2    3    3    0    0 -0.21725544722E+02  0.84355092191E+01  0.97692808366E+03  0.97720808314E+03  0.20000006934E+01 0.  0.
        -13    1    3    3    0    0  0.21725544722E+02 -0.84355092191E+01  0.99717426898E+02  0.10240475331E+03  0.10566000000E+00 0.  1.
         13    1    4    4    0    0 -0.77123692583E+01  0.29955964446E+01  0.34279722036E+03  0.34289706865E+03  0.10566000000E+00 0. -1.
        -13    1    4    4    0    0 -0.81632178558E+01  0.32043071031E+01  0.40225407977E+03  0.40234967574E+03  0.10566000000E+00 0.  1.
        -14    1    4    4    0    0 -0.58499576079E+01  0.22356056714E+01  0.23187678353E+03  0.23196133876E+03  0.00000000000E+00 0.  1.
<mgrwt>
<rscale>  0 0.79989507E+02</rscale>
<asrwt>0</asrwt>
<pdfrwt beam="1">  1        2 0.16586576E+00 0.79989507E+02</pdfrwt>
<pdfrwt beam="2">  1       -1 0.22825621E-03 0.79989507E+02</pdfrwt>
<totfact> 0.35280414E+05</totfact>
</mgrwt>
</event>
<event>
 8    1  0.1600673E-013  0.8075770E+02  0.7818608E-02  0.1326915E+00
         -1   -1    0    0    0  501 -0.00000000000E+00  0.00000000000E+00  0.21876275711E+01  0.21876333769E+01  0.50400000000E-02 0.  1.
          2   -1    0    0  501    0  0.00000000000E+00 -0.00000000000E+00 -0.74530485052E+03  0.74530485052E+03  0.25500000000E-02 0. -1.
         24    2    1    2    0    0  0.00000000000E+00  0.00000000000E+00 -0.74311722295E+03  0.74749248390E+03  0.80757702082E+02 0.  0.
         66    2    3    3    0    0  0.31821338323E+02 -0.82409079754E+01 -0.58845047928E+03  0.58937125542E+03  0.20000017491E+01 0.  0.
        -13    1    3    3    0    0 -0.31821338323E+02  0.82409079754E+01 -0.15466674366E+03  0.15812122848E+03  0.10566000000E+00 0.  1.
         13    1    4    4    0    0  0.11525000558E+02 -0.26520506725E+01 -0.21317447271E+03  0.21350228568E+03  0.10566000000E+00 0. -1.
        -13    1    4    4    0    0  0.76810023927E+01 -0.17563683903E+01 -0.15174879513E+03  0.15195325142E+03  0.10566000000E+00 0.  1.
         14    1    4    4    0    0  0.12615335373E+02 -0.38324889127E+01 -0.22352721144E+03  0.22391571832E+03  0.00000000000E+00 0. -1.
<mgrwt>
<rscale>  0 0.80757702E+02</rscale>
<asrwt>0</asrwt>
<pdfrwt beam="1">  1        2 0.11466208E+00 0.80757702E+02</pdfrwt>
<pdfrwt beam="2">  1       -1 0.33655913E-03 0.80757702E+02</pdfrwt>
<totfact> 0.33088567E+05</totfact>
</mgrwt>
</event>
<event>
 8    1  0.1600673E-013  0.8430956E+02  0.7818608E-02  0.1317248E+00
         -1   -1    0    0    0  501 -0.00000000000E+00  0.00000000000E+00  0.18288464630E+02  0.18288465324E+02  0.50400000000E-02 0.  1.
          2   -1    0    0  501    0  0.00000000000E+00 -0.00000000000E+00 -0.97166471306E+02  0.97166471340E+02  0.25500000000E-02 0. -1.
         24    2    1    2    0    0  0.00000000000E+00  0.00000000000E+00 -0.78878006676E+02  0.11545493666E+03  0.84309563294E+02 0.  0.
         66    2    3    3    0    0 -0.31414679380E+02 -0.27550039434E+02 -0.32069601997E+02  0.52710019212E+02  0.19999999161E+01 0.  0.
        -13    1    3    3    0    0  0.31414679380E+02  0.27550039434E+02 -0.46808404680E+02  0.62744917452E+02  0.10566000000E+00 0.  1.
         13    1    4    4    0    0 -0.12389977128E+02 -0.10369378032E+02 -0.11464097921E+02  0.19810912124E+02  0.10566000000E+00 0. -1.
        -13    1    4    4    0    0 -0.18812420080E+01 -0.14256050477E+01 -0.18286023699E+01  0.29877034504E+01  0.10566000000E+00 0.  1.
        -14    1    4    4    0    0 -0.17143460244E+02 -0.15755056354E+02 -0.18776901706E+02  0.29911403637E+02  0.00000000000E+00 0.  1.
<mgrwt>
<rscale>  0 0.84309563E+02</rscale>
<asrwt>0</asrwt>
<pdfrwt beam="1">  1        2 0.14948688E-01 0.84309563E+02</pdfrwt>
<pdfrwt beam="2">  1       -1 0.28136101E-02 0.84309563E+02</pdfrwt>
<totfact> 0.15270423E+05</totfact>
</mgrwt>
</event>
<event>
 8    1  0.1600673E-013  0.7958742E+02  0.7818608E-02  0.1330226E+00
          2   -1    0    0  501    0  0.00000000000E+00  0.00000000000E+00  0.44442186233E+03  0.44442186234E+03  0.25500000000E-02 0. -1.
         -1   -1    0    0    0  501 -0.00000000000E+00 -0.00000000000E+00 -0.35631430950E+01  0.35631466595E+01  0.50400000000E-02 0.  1.
         24    2    1    2    0    0  0.00000000000E+00  0.00000000000E+00  0.44085871923E+03  0.44798500900E+03  0.79587423381E+02 0.  0.
         66    2    3    3    0    0  0.35161610481E+02  0.14298819488E+02  0.28734517926E+03  0.28984831746E+03  0.20000001003E+01 0.  0.
        -13    1    3    3    0    0 -0.35161610481E+02 -0.14298819488E+02  0.15351353998E+03  0.15813669154E+03  0.10566000000E+00 0.  1.
         13    1    4    4    0    0  0.27608228726E+02  0.10541006600E+02  0.22244984255E+03  0.22440425737E+03  0.10566000000E+00 0. -1.
        -13    1    4    4    0    0  0.11141408792E+01  0.59765914021E+00  0.84250202253E+01  0.85200138603E+01  0.10566000000E+00 0.  1.
         14    1    4    4    0    0  0.64392408754E+01  0.31601537479E+01  0.56470316480E+02  0.56924046221E+02  0.00000000000E+00 0. -1.
<mgrwt>
<rscale>  0 0.79587423E+02</rscale>
<asrwt>0</asrwt>
<pdfrwt beam="1">  1        2 0.68372560E-01 0.79587423E+02</pdfrwt>
<pdfrwt beam="2">  1       -1 0.54817641E-03 0.79587423E+02</pdfrwt>
<totfact> 0.29693079E+05</totfact>
</mgrwt>
</event>
<event>
 8    1  0.1600673E-013  0.7949828E+02  0.7818608E-02  0.1330481E+00
         -1   -1    0    0    0  501 -0.00000000000E+00  0.00000000000E+00  0.32277896442E+01  0.32277935791E+01  0.50400000000E-02 0.  1.
          2   -1    0    0  501    0  0.00000000000E+00 -0.00000000000E+00 -0.48949688212E+03  0.48949688213E+03  0.25500000000E-02 0. -1.
         24    2    1    2    0    0  0.71054273576E-14 -0.17763568394E-14 -0.48626909248E+03  0.49272467571E+03  0.79498275152E+02 0.  0.
         66    2    3    3    0    0 -0.35876433940E+02  0.15223383284E+02 -0.29094321216E+03  0.29354867164E+03  0.20000020111E+01 0.  0.
        -13    1    3    3    0    0  0.35876433940E+02 -0.15223383284E+02 -0.19532588032E+03  0.19917600407E+03  0.10566000000E+00 0.  1.
         13    1    4    4    0    0 -0.49763306086E+01  0.19392254248E+01 -0.37357199134E+02  0.37737195878E+02  0.10566000000E+00 0. -1.
        -13    1    4    4    0    0 -0.19078796062E+02  0.89700842523E+01 -0.15708939698E+03  0.15849780024E+03  0.10566000000E+00 0.  1.
        -14    1    4    4    0    0 -0.11821307269E+02  0.43140736074E+01 -0.96496616041E+02  0.97313675524E+02  0.00000000000E+00 0.  1.
<mgrwt>
<rscale>  0 0.79498275E+02</rscale>
<asrwt>0</asrwt>
<pdfrwt beam="1">  1        2 0.75307154E-01 0.79498275E+02</pdfrwt>
<pdfrwt beam="2">  1       -1 0.49658371E-03 0.79498275E+02</pdfrwt>
<totfact> 0.30744749E+05</totfact>
</mgrwt>
</event>
<event>
 8    1  0.1600673E-013  0.7741546E+02  0.7818608E-02  0.1336550E+00
          2   -1    0    0  501    0  0.00000000000E+00  0.00000000000E+00  0.15919995648E+03  0.15919995650E+03  0.25500000000E-02 0. -1.
         -1   -1    0    0    0  501 -0.00000000000E+00 -0.00000000000E+00 -0.94113600059E+01  0.94113613554E+01  0.50400000000E-02 0.  1.
         24    2    1    2    0    0 -0.88817841970E-15  0.00000000000E+00  0.14978859647E+03  0.16861131786E+03  0.77415456308E+02 0.  0.
         66    2    3    3    0    0 -0.61211867444E+01 -0.38123424731E+02  0.80014219684E+02  0.88865852400E+02  0.19999826625E+01 0.  0.
        -13    1    3    3    0    0  0.61211867444E+01  0.38123424731E+02  0.69774376789E+02  0.79745465456E+02  0.10566000000E+00 0.  1.
         13    1    4    4    0    0 -0.22919559068E+00 -0.27221825746E+01  0.64650393751E+01  0.70193095633E+01  0.10566000000E+00 0. -1.
        -13    1    4    4    0    0 -0.27824346040E+01 -0.14334214462E+02  0.28952836382E+02  0.32426679527E+02  0.10566000000E+00 0.  1.
         14    1    4    4    0    0 -0.31095565497E+01 -0.21067027695E+02  0.44596343927E+02  0.49419863309E+02  0.00000000000E+00 0. -1.
<mgrwt>
<rscale>  0 0.77415456E+02</rscale>
<asrwt>0</asrwt>
<pdfrwt beam="1">  1        2 0.24492300E-01 0.77415456E+02</pdfrwt>
<pdfrwt beam="2">  1       -1 0.14479017E-02 0.77415456E+02</pdfrwt>
<totfact> 0.22274871E+05</totfact>
</mgrwt>
</event>
<event>
 8    1  0.1600673E-013  0.8249186E+02  0.7818608E-02  0.1322125E+00
          2   -1    0    0  501    0  0.00000000000E+00  0.00000000000E+00  0.71090491712E+02  0.71090491758E+02  0.25500000000E-02 0. -1.
         -1   -1    0    0    0  501 -0.00000000000E+00 -0.00000000000E+00 -0.23930440747E+02  0.23930441278E+02  0.50400000000E-02 0.  1.
         24    2    1    2    0    0 -0.35527136788E-14  0.00000000000E+00  0.47160050965E+02  0.95020933035E+02  0.82491862071E+02 0.  0.
         66    2    3    3    0    0  0.15799445633E+02  0.37731984980E+02  0.29455634272E+02  0.50447592267E+02  0.20000005934E+01 0.  0.
        -13    1    3    3    0    0 -0.15799445633E+02 -0.37731984980E+02  0.17704416693E+02  0.44573340769E+02  0.10566000000E+00 0.  1.
         13    1    4    4    0    0  0.32284370654E+01  0.96450695354E+01  0.70901076736E+01  0.12398829101E+02  0.10566000000E+00 0. -1.
        -13    1    4    4    0    0  0.66459660584E+01  0.14058351441E+02  0.11536888112E+02  0.19362775148E+02  0.10566000000E+00 0.  1.
         14    1    4    4    0    0  0.59250425087E+01  0.14028564003E+02  0.10828638487E+02  0.18685988018E+02  0.00000000000E+00 0. -1.
<mgrwt>
<rscale>  0 0.82491862E+02</rscale>
<asrwt>0</asrwt>
<pdfrwt beam="1">  1        2 0.10936999E-01 0.82491862E+02</pdfrwt>
<pdfrwt beam="2">  1       -1 0.36816064E-02 0.82491862E+02</pdfrwt>
<totfact> 0.14914545E+05</totfact>
</mgrwt>
</event>
<event>
 8    1  0.1600673E-013  0.7929874E+02  0.7818608E-02  0.1331053E+00
         -1   -1    0    0    0  501 -0.00000000000E+00  0.00000000000E+00  0.19919073013E+02  0.19919073651E+02  0.50400000000E-02 0.  1.
          2   -1    0    0  501    0  0.00000000000E+00 -0.00000000000E+00 -0.78922965696E+02  0.78922965738E+02  0.25500000000E-02 0. -1.
         24    2    1    2    0    0  0.00000000000E+00  0.17763568394E-14 -0.59003892683E+02  0.98842039388E+02  0.79298735165E+02 0.  0.
         66    2    3    3    0    0 -0.16298247507E+02  0.13082713701E+02 -0.71481435088E+02  0.74500911681E+02  0.20000023595E+01 0.  0.
        -13    1    3    3    0    0  0.16298247507E+02 -0.13082713701E+02  0.12477542405E+02  0.24341127708E+02  0.10566000000E+00 0.  1.
         13    1    4    4    0    0 -0.97130388354E+01  0.82744474686E+01 -0.43597035225E+02  0.45426008506E+02  0.10566000000E+00 0.  1.
        -13    1    4    4    0    0 -0.37990672987E+01  0.32781967355E+01 -0.18386573936E+02  0.19059295667E+02  0.10566000000E+00 0. -1.
         14    1    4    4    0    0 -0.27861413730E+01  0.15300694972E+01 -0.94978259265E+01  0.10015607508E+02  0.00000000000E+00 0. -1.
<mgrwt>
<rscale>  0 0.79298735E+02</rscale>
<asrwt>0</asrwt>
<pdfrwt beam="1">  1        2 0.12141995E-01 0.79298735E+02</pdfrwt>
<pdfrwt beam="2">  1       -1 0.30644729E-02 0.79298735E+02</pdfrwt>
<totfact> 0.17037343E+05</totfact>
</mgrwt>
</event>
<event>
 8    1  0.1600673E-013  0.7957148E+02  0.7818608E-02  0.1330272E+00
          2   -1    0    0  501    0  0.00000000000E+00  0.00000000000E+00  0.54499193280E+02  0.54499193340E+02  0.25500000000E-02 0. -1.
         -1   -1    0    0    0  501 -0.00000000000E+00 -0.00000000000E+00 -0.29044556962E+02  0.29044557400E+02  0.50400000000E-02 0.  1.
         24    2    1    2    0    0  0.00000000000E+00  0.00000000000E+00  0.25454636318E+02  0.83543750740E+02  0.79571475904E+02 0.  0.
         66    2    3    3    0    0  0.89673556685E+01 -0.58297190369E+01  0.52941970406E+02  0.54048602137E+02  0.20000176919E+01 0.  0.
        -13    1    3    3    0    0 -0.89673556685E+01  0.58297190369E+01 -0.27487334088E+02  0.29495148602E+02  0.10566000000E+00 0.  1.
         13    1    4    4    0    0  0.15926468665E+01 -0.14688665817E+01  0.13650939038E+02  0.13822206544E+02  0.10566000000E+00 0.  1.
        -13    1    4    4    0    0  0.52850771582E+01 -0.27788980721E+01  0.25674255391E+02  0.26359682642E+02  0.10566000000E+00 0. -1.
         14    1    4    4    0    0  0.20896316438E+01 -0.15819543831E+01  0.13616775977E+02  0.13866712952E+02  0.00000000000E+00 0. -1.
<mgrwt>
<rscale>  0 0.79571476E+02</rscale>
<asrwt>0</asrwt>
<pdfrwt beam="1">  1        2 0.83844912E-02 0.79571476E+02</pdfrwt>
<pdfrwt beam="2">  1       -1 0.44683935E-02 0.79571476E+02</pdfrwt>
<totfact> 0.15454648E+05</totfact>
</mgrwt>
</event>
<event>
 8    1  0.1600673E-013  0.8034873E+02  0.7818608E-02  0.1328065E+00
         -1   -1    0    0    0  501 -0.00000000000E+00  0.00000000000E+00  0.43539546984E+02  0.43539547275E+02  0.50400000000E-02 0.  1.
          2   -1    0    0  501    0  0.00000000000E+00 -0.00000000000E+00 -0.37069281909E+02  0.37069281997E+02  0.25500000000E-02 0. -1.
         24    2    1    2    0    0  0.00000000000E+00  0.00000000000E+00  0.64702650741E+01  0.80608829272E+02  0.80348733820E+02 0.  0.
         66    2    3    3    0    0  0.26878610627E+02 -0.16522350012E+02 -0.21673207697E+02  0.38329827596E+02  0.19999981218E+01 0.  0.
        -13    1    3    3    0    0 -0.26878610627E+02  0.16522350012E+02  0.28143472771E+02  0.42279001677E+02  0.10566000000E+00 0.  1.
         13    1    4    4    0    0  0.52153425592E+01 -0.27299951475E+01 -0.38642043597E+01  0.70424364310E+01  0.10566000000E+00 0. -1.
        -13    1    4    4    0    0  0.16912154723E+02 -0.11002147105E+02 -0.14674459999E+02  0.24948329775E+02  0.10566000000E+00 0.  1.
        -14    1    4    4    0    0  0.47511133451E+01 -0.27902077593E+01 -0.31345433386E+01  0.63390613895E+01  0.00000000000E+00 0.  1.
<mgrwt>
<rscale>  0 0.80348734E+02</rscale>
<asrwt>0</asrwt>
<pdfrwt beam="1">  1        2 0.57029665E-02 0.80348734E+02</pdfrwt>
<pdfrwt beam="2">  1       -1 0.66983919E-02 0.80348734E+02</pdfrwt>
<totfact> 0.13867218E+05</totfact>
</mgrwt>
</event>
<event>
 8    1  0.1600673E-013  0.7809152E+02  0.7818608E-02  0.1334556E+00
         -1   -1    0    0    0  501 -0.00000000000E+00  0.00000000000E+00  0.14434260217E+02  0.14434261097E+02  0.50400000000E-02 0.  1.
          2   -1    0    0  501    0  0.00000000000E+00 -0.00000000000E+00 -0.10562171058E+03  0.10562171061E+03  0.25500000000E-02 0. -1.
         24    2    1    2    0    0 -0.17763568394E-14  0.71054273576E-14 -0.91187450360E+02  0.12005597170E+03  0.78091518353E+02 0.  0.
         66    2    3    3    0    0  0.13495866863E+02 -0.33923926129E+02 -0.66792217155E+02  0.76145725138E+02  0.19999994609E+01 0.  0.
        -13    1    3    3    0    0 -0.13495866863E+02  0.33923926129E+02 -0.24395233205E+02  0.43910246567E+02  0.10566000000E+00 0.  1.
         13    1    4    4    0    0  0.27188205239E+01 -0.63953997913E+01 -0.11850308656E+02  0.13738053094E+02  0.10566000000E+00 0. -1.
        -13    1    4    4    0    0  0.17191447733E+01 -0.41347618586E+01 -0.94370812714E+01  0.10446118003E+02  0.10566000000E+00 0.  1.
         14    1    4    4    0    0  0.90579015663E+01 -0.23393764479E+02 -0.45504827228E+02  0.51961554040E+02  0.00000000000E+00 0. -1.
<mgrwt>
<rscale>  0 0.78091518E+02</rscale>
<asrwt>0</asrwt>
<pdfrwt beam="1">  1        2 0.16249493E-01 0.78091518E+02</pdfrwt>
<pdfrwt beam="2">  1       -1 0.22206556E-02 0.78091518E+02</pdfrwt>
<totfact> 0.19201543E+05</totfact>
</mgrwt>
</event>
<event>
 8    1  0.1600673E-013  0.8061974E+02  0.7818608E-02  0.1327302E+00
         -1   -1    0    0    0  501 -0.00000000000E+00  0.00000000000E+00  0.33075568056E+01  0.33075606456E+01  0.50400000000E-02 0.  1.
          2   -1    0    0  501    0  0.00000000000E+00 -0.00000000000E+00 -0.49126429190E+03  0.49126429191E+03  0.25500000000E-02 0. -1.
         24    2    1    2    0    0  0.00000000000E+00  0.00000000000E+00 -0.48795673510E+03  0.49457185255E+03  0.80619737118E+02 0.  0.
         66    2    3    3    0    0 -0.10032951440E+02 -0.38957035665E+02 -0.25724213089E+03  0.26037631353E+03  0.19999995935E+01 0.  0.
        -13    1    3    3    0    0  0.10032951440E+02  0.38957035665E+02 -0.23071460421E+03  0.23419553903E+03  0.10566000000E+00 0.  1.
         13    1    4    4    0    0 -0.67066087922E+01 -0.23042727786E+02 -0.15483060517E+03  0.15667952440E+03  0.10566000000E+00 0. -1.
        -13    1    4    4    0    0 -0.64782660603E-01 -0.49793342564E+00 -0.28045044488E+01  0.28510601061E+01  0.10566000000E+00 0. -1.
         14    1    4    4    0    0 -0.32615599873E+01 -0.15416374453E+02 -0.99607021269E+02  0.10084572902E+03  0.00000000000E+00 0. -1.
<mgrwt>
<rscale>  0 0.80619737E+02</rscale>
<asrwt>0</asrwt>
<pdfrwt beam="1">  1        2 0.75579064E-01 0.80619737E+02</pdfrwt>
<pdfrwt beam="2">  1       -1 0.50885558E-03 0.80619737E+02</pdfrwt>
<totfact> 0.29676711E+05</totfact>
</mgrwt>
</event>
<event>
 8    1  0.1600673E-013  0.7999677E+02  0.7818608E-02  0.1329061E+00
          2   -1    0    0  501    0  0.00000000000E+00  0.00000000000E+00  0.83216634813E+03  0.83216634813E+03  0.25500000000E-02 0. -1.
         -1   -1    0    0    0  501 -0.00000000000E+00 -0.00000000000E+00 -0.19225339401E+01  0.19225405464E+01  0.50400000000E-02 0.  1.
         24    2    1    2    0    0  0.35527136788E-14  0.00000000000E+00  0.83024381419E+03  0.83408888868E+03  0.79996770056E+02 0.  0.
         66    2    3    3    0    0 -0.26398915914E+02  0.84278167610E+01  0.71575436619E+03  0.71629340606E+03  0.19999995338E+01 0.  0.
        -13    1    3    3    0    0  0.26398915914E+02 -0.84278167610E+01  0.11448944800E+03  0.11779548262E+03  0.10566000000E+00 0.  1.
         13    1    4    4    0    0 -0.14062981464E+02  0.50175225179E+01  0.39309837199E+03  0.39338185546E+03  0.10566000000E+00 0. -1.
        -13    1    4    4    0    0 -0.97139371931E+01  0.26979481435E+01  0.24242584833E+03  0.24263541086E+03  0.10566000000E+00 0.  1.
        -14    1    4    4    0    0 -0.26219972568E+01  0.71234609961E+00  0.80230145862E+02  0.80276139740E+02  0.00000000000E+00 0.  1.
<mgrwt>
<rscale>  0 0.79996770E+02</rscale>
<asrwt>0</asrwt>
<pdfrwt beam="1">  1        2 0.12802578E+00 0.79996770E+02</pdfrwt>
<pdfrwt beam="2">  1       -1 0.29577453E-03 0.79996770E+02</pdfrwt>
<totfact> 0.34590582E+05</totfact>
</mgrwt>
</event>
<event>
 8    1  0.1600673E-013  0.7466456E+02  0.7818608E-02  0.1344913E+00
          2   -1    0    0  501    0  0.00000000000E+00  0.00000000000E+00  0.45251958828E+02  0.45251958900E+02  0.25500000000E-02 0. -1.
         -1   -1    0    0    0  501 -0.00000000000E+00 -0.00000000000E+00 -0.30798643003E+02  0.30798643416E+02  0.50400000000E-02 0.  1.
         24    2    1    2    0    0 -0.35527136788E-14  0.00000000000E+00  0.14453315825E+02  0.76050602316E+02  0.74664555006E+02 0.  0.
         66    2    3    3    0    0  0.23656311501E+02  0.90383818576E+01  0.35133421353E+02  0.43355169162E+02  0.19999941637E+01 0.  0.
        -13    1    3    3    0    0 -0.23656311501E+02 -0.90383818576E+01 -0.20680105528E+02  0.32695433154E+02  0.10566000000E+00 0.  1.
         13    1    4    4    0    0  0.24638423685E+01  0.99188855209E+00  0.45149960726E+01  0.52393430588E+01  0.10566000000E+00 0. -1.
        -13    1    4    4    0    0  0.91367974407E+01  0.40263198426E+01  0.12991137384E+02  0.16385149786E+02  0.10566000000E+00 0.  1.
        -14    1    4    4    0    0  0.12055671692E+02  0.40201734628E+01  0.17627287896E+02  0.21730676317E+02  0.00000000000E+00 0.  1.
<mgrwt>
<rscale>  0 0.74664555E+02</rscale>
<asrwt>0</asrwt>
<pdfrwt beam="1">  1        2 0.69618398E-02 0.74664555E+02</pdfrwt>
<pdfrwt beam="2">  1       -1 0.47382528E-02 0.74664555E+02</pdfrwt>
<totfact> 0.17665773E+05</totfact>
</mgrwt>
</event>
<event>
 8    1  0.1600673E-013  0.7671929E+02  0.7818608E-02  0.1338628E+00
          2   -1    0    0  501    0  0.00000000000E+00  0.00000000000E+00  0.14311347524E+03  0.14311347526E+03  0.25500000000E-02 0. -1.
         -1   -1    0    0    0  501 -0.00000000000E+00 -0.00000000000E+00 -0.10281785779E+02  0.10281787015E+02  0.50400000000E-02 0.  1.
         24    2    1    2    0    0 -0.35527136788E-14 -0.35527136788E-14  0.13283168946E+03  0.15339526227E+03  0.76719285476E+02 0.  0.
         66    2    3    3    0    0  0.20571552076E+02  0.23136949791E+02  0.11165650441E+03  0.11588650561E+03  0.20000015050E+01 0.  0.
        -13    1    3    3    0    0 -0.20571552076E+02 -0.23136949791E+02  0.21175185051E+02  0.37508756663E+02  0.10566000000E+00 0.  1.
         13    1    4    4    0    0  0.24380924542E+01  0.29111229360E+01  0.13145809077E+02  0.13683654186E+02  0.10566000000E+00 0. -1.
        -13    1    4    4    0    0  0.43621884654E+00  0.63563457373E+00  0.39550945159E+01  0.40309124102E+01  0.10566000000E+00 0.  1.
         14    1    4    4    0    0  0.17697240776E+02  0.19590192281E+02  0.94555600813E+02  0.98171939014E+02  0.00000000000E+00 0. -1.
<mgrwt>
<rscale>  0 0.76719285E+02</rscale>
<asrwt>0</asrwt>
<pdfrwt beam="1">  1        2 0.22017459E-01 0.76719285E+02</pdfrwt>
<pdfrwt beam="2">  1       -1 0.15818132E-02 0.76719285E+02</pdfrwt>
<totfact> 0.22046626E+05</totfact>
</mgrwt>
</event>
<event>
 8    1  0.1600673E-013  0.8053157E+02  0.7818608E-02  0.1327550E+00
          2   -1    0    0  501    0  0.00000000000E+00  0.00000000000E+00  0.83577075387E+03  0.83577075387E+03  0.25500000000E-02 0. -1.
         -1   -1    0    0    0  501 -0.00000000000E+00 -0.00000000000E+00 -0.19399227546E+01  0.19399293017E+01  0.50400000000E-02 0.  1.
         24    2    1    2    0    0  0.00000000000E+00 -0.88817841970E-15  0.83383083111E+03  0.83771068317E+03  0.80531570132E+02 0.  0.
         66    2    3    3    0    0 -0.95749543112E+01 -0.52044838153E+01  0.82012528399E+03  0.82020012671E+03  0.20000010179E+01 0.  0.
        -13    1    3    3    0    0  0.95749543112E+01  0.52044838153E+01  0.13705547119E+02  0.17510556465E+02  0.10566000000E+00 0.  1.
         13    1    4    4    0    0 -0.40400473439E+01 -0.31314095544E+01  0.36574783496E+03  0.36578356668E+03  0.10566000000E+00 0. -1.
        -13    1    4    4    0    0 -0.40011065396E+01 -0.13186390321E+01  0.29864851633E+03  0.29867824683E+03  0.10566000000E+00 0.  1.
        -14    1    4    4    0    0 -0.15338004276E+01 -0.75443522876E+00  0.15572893270E+03  0.15573831320E+03  0.00000000000E+00 0.  1.
<mgrwt>
<rscale>  0 0.80531570E+02</rscale>
<asrwt>0</asrwt>
<pdfrwt beam="1">  1        2 0.12858014E+00 0.80531570E+02</pdfrwt>
<pdfrwt beam="2">  1       -1 0.29845011E-03 0.80531570E+02</pdfrwt>
<totfact> 0.34019255E+05</totfact>
</mgrwt>
</event>
<event>
 8    1  0.1600673E-013  0.7872771E+02  0.7818608E-02  0.1332701E+00
         -1   -1    0    0    0  501 -0.00000000000E+00  0.00000000000E+00  0.19519003430E+03  0.19519003436E+03  0.50400000000E-02 0.  1.
          2   -1    0    0  501    0  0.00000000000E+00 -0.00000000000E+00 -0.79384838414E+01  0.79384842509E+01  0.25500000000E-02 0. -1.
         24    2    1    2    0    0  0.00000000000E+00 -0.71054273576E-14  0.18725155046E+03  0.20312851862E+03  0.78727707486E+02 0.  0.
         66    2    3    3    0    0 -0.16407716645E+02 -0.32965362024E+02  0.57973703989E+02  0.68708650253E+02  0.20000016140E+01 0.  0.
        -13    1    3    3    0    0  0.16407716645E+02  0.32965362024E+02  0.12927784647E+03  0.13441986836E+03  0.10566000000E+00 0.  1.
         13    1    4    4    0    0 -0.10228083343E+02 -0.19286043884E+02  0.34908579304E+02  0.41172627444E+02  0.10566000000E+00 0. -1.
        -13    1    4    4    0    0 -0.15036658188E+00 -0.73223079282E+00  0.13016253305E+01  0.15047141188E+01  0.10566000000E+00 0.  1.
         14    1    4    4    0    0 -0.60292667200E+01 -0.12947087348E+02  0.21763499355E+02  0.26031308690E+02  0.00000000000E+00 0. -1.
<mgrwt>
<rscale>  0 0.78727707E+02</rscale>
<asrwt>0</asrwt>
<pdfrwt beam="1">  1        2 0.12213052E-02 0.78727707E+02</pdfrwt>
<pdfrwt beam="2">  1       -1 0.30029237E-01 0.78727707E+02</pdfrwt>
<totfact> 0.10450994E+05</totfact>
</mgrwt>
</event>
<event>
 8    1  0.1600673E-013  0.7882622E+02  0.7818608E-02  0.1332416E+00
         -1   -1    0    0    0  501 -0.00000000000E+00  0.00000000000E+00  0.59776347145E+01  0.59776368392E+01  0.50400000000E-02 0.  1.
          2   -1    0    0  501    0  0.00000000000E+00 -0.00000000000E+00 -0.25986751781E+03  0.25986751782E+03  0.25500000000E-02 0. -1.
         24    2    1    2    0    0  0.00000000000E+00  0.00000000000E+00 -0.25388988310E+03  0.26584515466E+03  0.78826223548E+02 0.  0.
         66    2    3    3    0    0  0.26937064799E+02 -0.99712028756E+01 -0.21792005816E+03  0.21981397157E+03  0.20000008021E+01 0.  0.
        -13    1    3    3    0    0 -0.26937064799E+02  0.99712028756E+01 -0.35969824939E+02  0.46031183093E+02  0.10566000000E+00 0.  1.
         13    1    4    4    0    0  0.11019225536E+02 -0.36662854187E+01 -0.88702467320E+02  0.89459509572E+02  0.10566000000E+00 0. -1.
        -13    1    4    4    0    0  0.14770445553E+02 -0.55204281755E+01 -0.12033803222E+03  0.12136677614E+03  0.10566000000E+00 0.  1.
        -14    1    4    4    0    0  0.11473937099E+01 -0.78448928142E+00 -0.88795586179E+01  0.89876858538E+01  0.00000000000E+00 0.  1.
<mgrwt>
<rscale>  0 0.78826224E+02</rscale>
<asrwt>0</asrwt>
<pdfrwt beam="1">  1        2 0.39979609E-01 0.78826224E+02</pdfrwt>
<pdfrwt beam="2">  1       -1 0.91963648E-03 0.78826224E+02</pdfrwt>
<totfact> 0.25160416E+05</totfact>
</mgrwt>
</event>
<event>
 8    1  0.1600673E-013  0.7611502E+02  0.7818608E-02  0.1340453E+00
         -1   -1    0    0    0  501 -0.00000000000E+00  0.00000000000E+00  0.12438696291E+02  0.12438697312E+02  0.50400000000E-02 0.  1.
          2   -1    0    0  501    0  0.00000000000E+00 -0.00000000000E+00 -0.11644098993E+03  0.11644098996E+03  0.25500000000E-02 0. -1.
         24    2    1    2    0    0  0.00000000000E+00 -0.35527136788E-14 -0.10400229364E+03  0.12887968727E+03  0.76115022887E+02 0.  0.
         66    2    3    3    0    0 -0.29586089129E+02  0.20849771669E+02 -0.71806340950E+02  0.80437554968E+02  0.19999999946E+01 0.  0.
        -13    1    3    3    0    0  0.29586089129E+02 -0.20849771669E+02 -0.32195952693E+02  0.48442132307E+02  0.10566000000E+00 0.  1.
         13    1    4    4    0    0 -0.20753734197E+02  0.14956349254E+02 -0.51270538621E+02  0.57298247448E+02  0.10566000000E+00 0. -1.
        -13    1    4    4    0    0 -0.41602101878E+01  0.22805984930E+01 -0.96942666489E+01  0.10793444686E+02  0.10566000000E+00 0.  1.
        -14    1    4    4    0    0 -0.46721447447E+01  0.36128239221E+01 -0.10841535680E+02  0.12345862834E+02  0.00000000000E+00 0.  1.
<mgrwt>
<rscale>  0 0.76115023E+02</rscale>
<asrwt>0</asrwt>
<pdfrwt beam="1">  1        2 0.17913998E-01 0.76115023E+02</pdfrwt>
<pdfrwt beam="2">  1       -1 0.19136457E-02 0.76115023E+02</pdfrwt>
<totfact> 0.21143138E+05</totfact>
</mgrwt>
</event>
<event>
 8    1  0.1600673E-013  0.7990322E+02  0.7818608E-02  0.1329326E+00
         -1   -1    0    0    0  501 -0.00000000000E+00  0.00000000000E+00  0.17672525902E+02  0.17672526621E+02  0.50400000000E-02 0.  1.
          2   -1    0    0  501    0  0.00000000000E+00 -0.00000000000E+00 -0.90317092163E+02  0.90317092199E+02  0.25500000000E-02 0. -1.
         24    2    1    2    0    0  0.00000000000E+00  0.88817841970E-15 -0.72644566260E+02  0.10798961882E+03  0.79903221248E+02 0.  0.
         66    2    3    3    0    0 -0.36340805469E+02  0.39837848871E+01 -0.58036595033E+02  0.68620485333E+02  0.19999900186E+01 0.  0.
        -13    1    3    3    0    0  0.36340805469E+02 -0.39837848871E+01 -0.14607971227E+02  0.39369133487E+02  0.10566000000E+00 0.  1.
         13    1    4    4    0    0 -0.87675267909E+01  0.60142731294E+00 -0.12905000980E+02  0.15613502335E+02  0.10566000000E+00 0. -1.
        -13    1    4    4    0    0 -0.10931377686E+02  0.82241194305E+00 -0.17679355053E+02  0.20802455111E+02  0.10566000000E+00 0.  1.
         14    1    4    4    0    0 -0.16641900992E+02  0.25599456311E+01 -0.27452239001E+02  0.32204527887E+02  0.00000000000E+00 0. -1.
<mgrwt>
<rscale>  0 0.79903221E+02</rscale>
<asrwt>0</asrwt>
<pdfrwt beam="1">  1        2 0.13894937E-01 0.79903221E+02</pdfrwt>
<pdfrwt beam="2">  1       -1 0.27188503E-02 0.79903221E+02</pdfrwt>
<totfact> 0.17293151E+05</totfact>
</mgrwt>
</event>
<event>
 8    1  0.1600673E-013  0.7763652E+02  0.7818608E-02  0.1335896E+00
         -1   -1    0    0    0  501 -0.00000000000E+00  0.00000000000E+00  0.46913986620E+01  0.46914013692E+01  0.50400000000E-02 0.  1.
          2   -1    0    0  501    0  0.00000000000E+00 -0.00000000000E+00 -0.32119562191E+03  0.32119562192E+03  0.25500000000E-02 0. -1.
         24    2    1    2    0    0  0.00000000000E+00  0.00000000000E+00 -0.31650422325E+03  0.32588702329E+03  0.77636515987E+02 0.  0.
         66    2    3    3    0    0 -0.86721551438E+01 -0.37802102397E+02 -0.15498041879E+03  0.15977213597E+03  0.20000004352E+01 0.  0.
        -13    1    3    3    0    0  0.86721551438E+01  0.37802102397E+02 -0.16152380446E+03  0.16611488733E+03  0.10566000000E+00 0.  1.
         13    1    4    4    0    0 -0.17475029961E+01 -0.65683937814E+01 -0.29159898328E+02  0.29941750085E+02  0.10566000000E+00 0. -1.
        -13    1    4    4    0    0 -0.35893134703E+01 -0.17075800396E+02 -0.71052759753E+02  0.73164007292E+02  0.10566000000E+00 0.  1.
         14    1    4    4    0    0 -0.33353386774E+01 -0.14157908219E+02 -0.54767760712E+02  0.56666378591E+02  0.00000000000E+00 0. -1.
<mgrwt>
<rscale>  0 0.77636516E+02</rscale>
<asrwt>0</asrwt>
<pdfrwt beam="1">  1        2 0.49414694E-01 0.77636516E+02</pdfrwt>
<pdfrwt beam="2">  1       -1 0.72175410E-03 0.77636516E+02</pdfrwt>
<totfact> 0.28263507E+05</totfact>
</mgrwt>
</event>
<event>
 8    1  0.1600673E-013  0.8283454E+02  0.7818608E-02  0.1321195E+00
          2   -1    0    0  501    0  0.00000000000E+00  0.00000000000E+00  0.12191484283E+04  0.12191484283E+04  0.25500000000E-02 0. -1.
         -1   -1    0    0    0  501 -0.00000000000E+00 -0.00000000000E+00 -0.14070351815E+01  0.14070442081E+01  0.50400000000E-02 0.  1.
         24    2    1    2    0    0  0.00000000000E+00  0.00000000000E+00  0.12177413931E+04  0.12205554725E+04  0.82834539666E+02 0.  0.
         66    2    3    3    0    0  0.74154556943E+01 -0.83679010795E+01  0.11964739554E+04  0.11965278671E+04  0.19999986835E+01 0.  0.
        -13    1    3    3    0    0 -0.74154556943E+01  0.83679010795E+01  0.21267437718E+02  0.24027605431E+02  0.10566000000E+00 0.  1.
         13    1    4    4    0    0  0.23458885648E+01 -0.23467902202E+01  0.42808505618E+03  0.42809792935E+03  0.10566000000E+00 0. -1.
        -13    1    4    4    0    0  0.36225216027E+01 -0.43793673745E+01  0.50657205559E+03  0.50660394806E+03  0.10566000000E+00 0.  1.
        -14    1    4    4    0    0  0.14470455269E+01 -0.16417434848E+01  0.26181684360E+03  0.26182598965E+03  0.00000000000E+00 0.  1.
<mgrwt>
<rscale>  0 0.82834540E+02</rscale>
<asrwt>0</asrwt>
<pdfrwt beam="1">  1        2 0.18756117E+00 0.82834540E+02</pdfrwt>
<pdfrwt beam="2">  1       -1 0.21646780E-03 0.82834540E+02</pdfrwt>
<totfact> 0.31944514E+05</totfact>
</mgrwt>
</event>
<event>
 8    1  0.1600673E-013  0.8038053E+02  0.7818608E-02  0.1327975E+00
          2   -1    0    0  501    0  0.00000000000E+00  0.00000000000E+00  0.39269186362E+03  0.39269186362E+03  0.25500000000E-02 0. -1.
         -1   -1    0    0    0  501 -0.00000000000E+00 -0.00000000000E+00 -0.41132936406E+01  0.41132967283E+01  0.50400000000E-02 0.  1.
         24    2    1    2    0    0  0.00000000000E+00  0.00000000000E+00  0.38857856998E+03  0.39680516035E+03  0.80380533952E+02 0.  0.
         66    2    3    3    0    0 -0.25004979557E+02  0.83416326620E+01  0.34401463298E+03  0.34502883871E+03  0.20000000052E+01 0.  0.
        -13    1    3    3    0    0  0.25004979557E+02 -0.83416326620E+01  0.44563936995E+02  0.51776321641E+02  0.10566000000E+00 0.  1.
         13    1    4    4    0    0 -0.15570726330E+02  0.59399202606E+01  0.21720167649E+03  0.21784010101E+03  0.10566000000E+00 0. -1.
        -13    1    4    4    0    0 -0.55362986058E+01  0.12261511066E+01  0.78423457356E+02  0.78628263853E+02  0.10566000000E+00 0.  1.
        -14    1    4    4    0    0 -0.38979546218E+01  0.11755612947E+01  0.48389499130E+02  0.48560473851E+02  0.00000000000E+00 0.  1.
<mgrwt>
<rscale>  0 0.80380534E+02</rscale>
<asrwt>0</asrwt>
<pdfrwt beam="1">  1        2 0.60414140E-01 0.80380534E+02</pdfrwt>
<pdfrwt beam="2">  1       -1 0.63281457E-03 0.80380534E+02</pdfrwt>
<totfact> 0.27725678E+05</totfact>
</mgrwt>
</event>
<event>
 8    1  0.1600673E-013  0.7995507E+02  0.7818608E-02  0.1329179E+00
         -1   -1    0    0    0  501 -0.00000000000E+00  0.00000000000E+00  0.59856302060E+03  0.59856302062E+03  0.50400000000E-02 0.  1.
          2   -1    0    0  501    0  0.00000000000E+00 -0.00000000000E+00 -0.26700662312E+01  0.26700674488E+01  0.25500000000E-02 0. -1.
         24    2    1    2    0    0  0.00000000000E+00  0.00000000000E+00  0.59589295437E+03  0.60123308807E+03  0.79955069407E+02 0.  0.
         66    2    3    3    0    0 -0.19800919811E+02 -0.22490099450E+02  0.49684400918E+03  0.49775079149E+03  0.19999928593E+01 0.  0.
        -13    1    3    3    0    0  0.19800919811E+02  0.22490099450E+02  0.99048945193E+02  0.10348229658E+03  0.10566000000E+00 0.  1.
         13    1    4    4    0    0 -0.14328833538E+02 -0.15572460593E+02  0.35579954664E+03  0.35642831755E+03  0.10566000000E+00 0. -1.
        -13    1    4    4    0    0 -0.18331516343E+01 -0.17262800574E+01  0.39785067764E+02  0.39864812414E+02  0.10566000000E+00 0.  1.
         14    1    4    4    0    0 -0.36389346380E+01 -0.51913587993E+01  0.10125939477E+03  0.10145766152E+03  0.00000000000E+00 0. -1.
<mgrwt>
<rscale>  0 0.79955069E+02</rscale>
<asrwt>0</asrwt>
<pdfrwt beam="1">  1        2 0.41077924E-03 0.79955069E+02</pdfrwt>
<pdfrwt beam="2">  1       -1 0.92086679E-01 0.79955069E+02</pdfrwt>
<totfact> 0.59204301E+04</totfact>
</mgrwt>
</event>
<event>
 8    1  0.1600673E-013  0.7994798E+02  0.7818608E-02  0.1329199E+00
          2   -1    0    0  501    0  0.00000000000E+00  0.00000000000E+00  0.18996429283E+02  0.18996429454E+02  0.25500000000E-02 0. -1.
         -1   -1    0    0    0  501 -0.00000000000E+00 -0.00000000000E+00 -0.84116862654E+02  0.84116862805E+02  0.50400000000E-02 0.  1.
         24    2    1    2    0    0  0.88817841970E-15  0.00000000000E+00 -0.65120433371E+02  0.10311329226E+03  0.79947984328E+02 0.  0.
         66    2    3    3    0    0 -0.61318248208E+01 -0.17399686613E+02  0.13120603428E+02  0.22726605717E+02  0.20000008197E+01 0.  0.
        -13    1    3    3    0    0  0.61318248208E+01  0.17399686613E+02 -0.78241036798E+02  0.80386686542E+02  0.10566000000E+00 0.  1.
         13    1    4    4    0    0 -0.33645751385E+01 -0.10007183350E+02  0.73331728988E+01  0.12854986319E+02  0.10566000000E+00 0. -1.
        -13    1    4    4    0    0 -0.28087560086E+01 -0.70635047826E+01  0.57619258281E+01  0.95390336730E+01  0.10566000000E+00 0.  1.
        -14    1    4    4    0    0  0.41506326290E-01 -0.32899848035E+00  0.25504700810E-01  0.33258572573E+00  0.00000000000E+00 0.  1.
<mgrwt>
<rscale>  0 0.79947984E+02</rscale>
<asrwt>0</asrwt>
<pdfrwt beam="1">  1        2 0.29225277E-02 0.79947984E+02</pdfrwt>
<pdfrwt beam="2">  1       -1 0.12941056E-01 0.79947984E+02</pdfrwt>
<totfact> 0.12309491E+05</totfact>
</mgrwt>
</event>
<event>
 8    1  0.1600673E-013  0.7786215E+02  0.7818608E-02  0.1335230E+00
          2   -1    0    0  501    0  0.00000000000E+00  0.00000000000E+00  0.21807049336E+02  0.21807049485E+02  0.25500000000E-02 0. -1.
         -1   -1    0    0    0  501 -0.00000000000E+00 -0.00000000000E+00 -0.69501764486E+02  0.69501764669E+02  0.50400000000E-02 0.  1.
         24    2    1    2    0    0  0.00000000000E+00  0.35527136788E-14 -0.47694715150E+02  0.91308814154E+02  0.77862145418E+02 0.  0.
         66    2    3    3    0    0 -0.28539016997E+02 -0.18711484522E+02 -0.19543437700E+01  0.34240540287E+02  0.19999988449E+01 0.  0.
        -13    1    3    3    0    0  0.28539016997E+02  0.18711484522E+02 -0.45740371380E+02  0.57068273867E+02  0.10566000000E+00 0.  1.
         13    1    4    4    0    0 -0.50261293521E+01 -0.41039539970E+01 -0.25153865661E+00  0.64945246481E+01  0.10566000000E+00 0. -1.
        -13    1    4    4    0    0 -0.15016002185E+02 -0.97164463789E+01 -0.87787322236E+00  0.17907302345E+02  0.10566000000E+00 0.  1.
        -14    1    4    4    0    0 -0.84968854602E+01 -0.48910841460E+01 -0.82493189106E+00  0.98387132935E+01  0.00000000000E+00 0.  1.
<mgrwt>
<rscale>  0 0.77862145E+02</rscale>
<asrwt>0</asrwt>
<pdfrwt beam="1">  1        2 0.33549307E-02 0.77862145E+02</pdfrwt>
<pdfrwt beam="2">  1       -1 0.10692579E-01 0.77862145E+02</pdfrwt>
<totfact> 0.13646589E+05</totfact>
</mgrwt>
</event>
<event>
 8    1  0.1600673E-013  0.7963719E+02  0.7818608E-02  0.1330084E+00
          2   -1    0    0  501    0  0.00000000000E+00  0.00000000000E+00  0.15685173210E+04  0.15685173210E+04  0.25500000000E-02 0. -1.
         -1   -1    0    0    0  501 -0.00000000000E+00 -0.00000000000E+00 -0.10108341160E+01  0.10108466806E+01  0.50400000000E-02 0.  1.
         24    2    1    2    0    0  0.17763568394E-14  0.00000000000E+00  0.15675064868E+04  0.15695281676E+04  0.79637194360E+02 0.  0.
         66    2    3    3    0    0  0.12556753152E+02 -0.73522353599E+01  0.15142022322E+04  0.15142734652E+04  0.20000006320E+01 0.  0.
        -13    1    3    3    0    0 -0.12556753152E+02  0.73522353599E+01  0.53304254633E+02  0.55254702429E+02  0.10566000000E+00 0.  1.
         13    1    4    4    0    0  0.71844813735E+01 -0.50721534789E+01  0.90009340189E+03  0.90013637122E+03  0.10566000000E+00 0. -1.
        -13    1    4    4    0    0  0.24246192732E+01 -0.62581415389E+00  0.24845798073E+03  0.24847062155E+03  0.10566000000E+00 0.  1.
        -14    1    4    4    0    0  0.29476525054E+01 -0.16542677271E+01  0.36565084959E+03  0.36566647244E+03  0.00000000000E+00 0.  1.
<mgrwt>
<rscale>  0 0.79637194E+02</rscale>
<asrwt>0</asrwt>
<pdfrwt beam="1">  1        2 0.24131214E+00 0.79637194E+02</pdfrwt>
<pdfrwt beam="2">  1       -1 0.15551276E-03 0.79637194E+02</pdfrwt>
<totfact> 0.33036752E+05</totfact>
</mgrwt>
</event>
<event>
 8    1  0.1600673E-013  0.7682488E+02  0.7818608E-02  0.1338311E+00
         -1   -1    0    0    0  501 -0.00000000000E+00  0.00000000000E+00  0.39843087106E+01  0.39843118983E+01  0.50400000000E-02 0.  1.
          2   -1    0    0  501    0  0.00000000000E+00 -0.00000000000E+00 -0.37033152562E+03  0.37033152563E+03  0.25500000000E-02 0. -1.
         24    2    1    2    0    0  0.17763568394E-14  0.35527136788E-14 -0.36634721691E+03  0.37431583753E+03  0.76824884552E+02 0.  0.
         66    2    3    3    0    0 -0.12986438211E+02 -0.31667804441E+02 -0.26797127076E+03  0.27015569467E+03  0.19999983671E+01 0.  0.
        -13    1    3    3    0    0  0.12986438211E+02  0.31667804441E+02 -0.98375946146E+02  0.10416014286E+03  0.10566000000E+00 0.  1.
         13    1    4    4    0    0 -0.10637162434E+02 -0.24753824763E+02 -0.20891262918E+03  0.21064282295E+03  0.10566000000E+00 0. -1.
        -13    1    4    4    0    0 -0.47077026172E+00 -0.85796379203E+00 -0.92672016378E+01  0.93193302731E+01  0.10566000000E+00 0.  1.
         14    1    4    4    0    0 -0.18785055151E+01 -0.60560158856E+01 -0.49791439944E+02  0.50193541448E+02  0.00000000000E+00 0. -1.
<mgrwt>
<rscale>  0 0.76824885E+02</rscale>
<asrwt>0</asrwt>
<pdfrwt beam="1">  1        2 0.56974054E-01 0.76824885E+02</pdfrwt>
<pdfrwt beam="2">  1       -1 0.61297111E-03 0.76824885E+02</pdfrwt>
<totfact> 0.30560544E+05</totfact>
</mgrwt>
</event>
<event>
 8    1  0.1600673E-013  0.8054797E+02  0.7818608E-02  0.1327504E+00
          2   -1    0    0  501    0  0.00000000000E+00  0.00000000000E+00  0.15539347794E+03  0.15539347796E+03  0.25500000000E-02 0. -1.
         -1   -1    0    0    0  501 -0.00000000000E+00 -0.00000000000E+00 -0.10437978666E+02  0.10437979883E+02  0.50400000000E-02 0.  1.
         24    2    1    2    0    0  0.17763568394E-14  0.00000000000E+00  0.14495549927E+03  0.16583145784E+03  0.80547971053E+02 0.  0.
         66    2    3    3    0    0  0.92567065456E+01 -0.34264895685E+02  0.11159701994E+03  0.11712243404E+03  0.20000008519E+01 0.  0.
        -13    1    3    3    0    0 -0.92567065456E+01  0.34264895685E+02  0.33358479331E+02  0.48709023802E+02  0.10566000000E+00 0.  1.
         13    1    4    4    0    0  0.60119240644E+01 -0.24162230583E+02  0.76516241629E+02  0.80465539299E+02  0.10566000000E+00 0. -1.
        -13    1    4    4    0    0  0.45050682934E+00 -0.11825569924E+01  0.35840905995E+01  0.38024027804E+01  0.10566000000E+00 0. -1.
         14    1    4    4    0    0  0.27942756518E+01 -0.89201081104E+01  0.31496687714E+02  0.32854491962E+02  0.00000000000E+00 0. -1.
<mgrwt>
<rscale>  0 0.80547971E+02</rscale>
<asrwt>0</asrwt>
<pdfrwt beam="1">  1        2 0.23906688E-01 0.80547971E+02</pdfrwt>
<pdfrwt beam="2">  1       -1 0.16058430E-02 0.80547971E+02</pdfrwt>
<totfact> 0.19896931E+05</totfact>
</mgrwt>
</event>
<event>
 8    1  0.1600673E-013  0.7788470E+02  0.7818608E-02  0.1335164E+00
          2   -1    0    0  501    0  0.00000000000E+00  0.00000000000E+00  0.46663115240E+03  0.46663115240E+03  0.25500000000E-02 0. -1.
         -1   -1    0    0    0  501 -0.00000000000E+00 -0.00000000000E+00 -0.32499024973E+01  0.32499064053E+01  0.50400000000E-02 0.  1.
         24    2    1    2    0    0  0.00000000000E+00  0.00000000000E+00  0.46338124990E+03  0.46988105881E+03  0.77884701124E+02 0.  0.
         66    2    3    3    0    0  0.24835968989E+02 -0.61967419322E+01  0.40869185947E+03  0.40949757137E+03  0.19999978243E+01 0.  0.
        -13    1    3    3    0    0 -0.24835968989E+02  0.61967419322E+01  0.54689390425E+02  0.60383487439E+02  0.10566000000E+00 0.  1.
         13    1    4    4    0    0  0.63328789359E+01 -0.18491818198E+01  0.10679157844E+03  0.10699522054E+03  0.10566000000E+00 0. -1.
        -13    1    4    4    0    0  0.66993586004E+01 -0.22949274331E+01  0.11756170037E+03  0.11777483881E+03  0.10566000000E+00 0.  1.
        -14    1    4    4    0    0  0.11803731452E+02 -0.20526326794E+01  0.18433858066E+03  0.18472751202E+03  0.00000000000E+00 0.  1.
<mgrwt>
<rscale>  0 0.77884701E+02</rscale>
<asrwt>0</asrwt>
<pdfrwt beam="1">  1        2 0.71789414E-01 0.77884701E+02</pdfrwt>
<pdfrwt beam="2">  1       -1 0.49998526E-03 0.77884701E+02</pdfrwt>
<totfact> 0.31928597E+05</totfact>
</mgrwt>
</event>
<event>
 8    1  0.1600673E-013  0.8011955E+02  0.7818608E-02  0.1328713E+00
          2   -1    0    0  501    0  0.00000000000E+00  0.00000000000E+00  0.11282940841E+03  0.11282940844E+03  0.25500000000E-02 0. -1.
         -1   -1    0    0    0  501 -0.00000000000E+00 -0.00000000000E+00 -0.14223112225E+02  0.14223113118E+02  0.50400000000E-02 0.  1.
         24    2    1    2    0    0 -0.35527136788E-14  0.00000000000E+00  0.98606296189E+02  0.12705252156E+03  0.80119545598E+02 0.  0.
         66    2    3    3    0    0 -0.28176960457E+02  0.22908690894E+02  0.76059408535E+02  0.84307667765E+02  0.19999995671E+01 0.  0.
        -13    1    3    3    0    0  0.28176960457E+02 -0.22908690894E+02  0.22546887654E+02  0.42744853795E+02  0.10566000000E+00 0.  1.
         13    1    4    4    0    0 -0.10573472790E+02  0.93041901060E+01  0.31012670359E+02  0.34061168025E+02  0.10566000000E+00 0. -1.
        -13    1    4    4    0    0 -0.59436273216E+01  0.43394311318E+01  0.14302433500E+02  0.16085028329E+02  0.10566000000E+00 0.  1.
         14    1    4    4    0    0 -0.11659860345E+02  0.92650696557E+01  0.30744304676E+02  0.34161471411E+02  0.00000000000E+00 0. -1.
<mgrwt>
<rscale>  0 0.80119546E+02</rscale>
<asrwt>0</asrwt>
<pdfrwt beam="1">  1        2 0.17358371E-01 0.80119546E+02</pdfrwt>
<pdfrwt beam="2">  1       -1 0.21881711E-02 0.80119546E+02</pdfrwt>
<totfact> 0.18275970E+05</totfact>
</mgrwt>
</event>
<event>
 8    1  0.1600673E-013  0.7993847E+02  0.7818608E-02  0.1329226E+00
          2   -1    0    0  501    0  0.00000000000E+00  0.00000000000E+00  0.61955060884E+02  0.61955060936E+02  0.25500000000E-02 0. -1.
         -1   -1    0    0    0  501 -0.00000000000E+00 -0.00000000000E+00 -0.25785460058E+02  0.25785460551E+02  0.50400000000E-02 0.  1.
         24    2    1    2    0    0  0.35527136788E-14 -0.71054273576E-14  0.36169600825E+02  0.87740521487E+02  0.79938470632E+02 0.  0.
         66    2    3    3    0    0  0.21144546455E+02  0.33884147472E+02  0.18704757919E+02  0.44148558966E+02  0.19999988171E+01 0.  0.
        -13    1    3    3    0    0 -0.21144546455E+02 -0.33884147472E+02  0.17464842907E+02  0.43591962521E+02  0.10566000000E+00 0.  1.
         13    1    4    4    0    0  0.85276914554E+00  0.93512377423E+00  0.78347828001E+00  0.14922043893E+01  0.10566000000E+00 0. -1.
        -13    1    4    4    0    0  0.61211319851E+01  0.10780363647E+02  0.58753949099E+01  0.13719180972E+02  0.10566000000E+00 0.  1.
         14    1    4    4    0    0  0.14170645325E+02  0.22168660050E+02  0.12045884729E+02  0.28937173605E+02  0.00000000000E+00 0. -1.
<mgrwt>
<rscale>  0 0.79938471E+02</rscale>
<asrwt>0</asrwt>
<pdfrwt beam="1">  1        2 0.95315479E-02 0.79938471E+02</pdfrwt>
<pdfrwt beam="2">  1       -1 0.39669939E-02 0.79938471E+02</pdfrwt>
<totfact> 0.15715376E+05</totfact>
</mgrwt>
</event>
<event>
 8    1  0.1600673E-013  0.7941384E+02  0.7818608E-02  0.1330723E+00
         -1   -1    0    0    0  501 -0.00000000000E+00  0.00000000000E+00  0.16538341277E+01  0.16538418073E+01  0.50400000000E-02 0.  1.
          2   -1    0    0  501    0  0.00000000000E+00 -0.00000000000E+00 -0.95332161387E+03  0.95332161387E+03  0.25500000000E-02 0. -1.
         24    2    1    2    0    0  0.00000000000E+00  0.17763568394E-14 -0.95166777974E+03  0.95497545568E+03  0.79413839806E+02 0.  0.
         66    2    3    3    0    0  0.37115102346E+01 -0.12149674739E+02 -0.92820380811E+03  0.92829289521E+03  0.20000007214E+01 0.  0.
        -13    1    3    3    0    0 -0.37115102346E+01  0.12149674739E+02 -0.23463971633E+02  0.26682560472E+02  0.10566000000E+00 0.  1.
         13    1    4    4    0    0 -0.12899047903E+00 -0.54993439333E+00 -0.32430780026E+02  0.32435870938E+02  0.10566000000E+00 0.  1.
        -13    1    4    4    0    0  0.31629623628E+00 -0.38582456091E+00 -0.41271789871E+02  0.41274940425E+02  0.10566000000E+00 0. -1.
         14    1    4    4    0    0  0.35242044773E+01 -0.11213915785E+02 -0.85450123821E+03  0.85458208384E+03  0.00000000000E+00 0. -1.
<mgrwt>
<rscale>  0 0.79413840E+02</rscale>
<asrwt>0</asrwt>
<pdfrwt beam="1">  1        2 0.14666442E+00 0.79413840E+02</pdfrwt>
<pdfrwt beam="2">  1       -1 0.25443737E-03 0.79413840E+02</pdfrwt>
<totfact> 0.35810073E+05</totfact>
</mgrwt>
</event>
<event>
 8    1  0.1600673E-013  0.8074776E+02  0.7818608E-02  0.1326943E+00
         -1   -1    0    0    0  501 -0.00000000000E+00  0.00000000000E+00  0.10910159819E+03  0.10910159831E+03  0.50400000000E-02 0.  1.
          2   -1    0    0  501    0  0.00000000000E+00 -0.00000000000E+00 -0.14940662438E+02  0.14940662656E+02  0.25500000000E-02 0. -1.
         24    2    1    2    0    0  0.00000000000E+00  0.00000000000E+00  0.94160935754E+02  0.12404226096E+03  0.80747759616E+02 0.  0.
         66    2    3    3    0    0  0.83133118416E+01  0.21633949619E+02 -0.36286789071E+01  0.23543709584E+02  0.20000051105E+01 0.  0.
        -13    1    3    3    0    0 -0.83133118416E+01 -0.21633949619E+02  0.97789614661E+02  0.10049855138E+03  0.10566000000E+00 0.  1.
         13    1    4    4    0    0  0.33278293772E+01  0.97156277624E+01 -0.68836354345E+00  0.10293341517E+02  0.10566000000E+00 0. -1.
        -13    1    4    4    0    0  0.34025900963E+01  0.81720336920E+01 -0.20575531576E+01  0.90886986449E+01  0.10566000000E+00 0.  1.
         14    1    4    4    0    0  0.15828923681E+01  0.37462881651E+01 -0.88276220604E+00  0.41616694219E+01  0.00000000000E+00 0. -1.
<mgrwt>
<rscale>  0 0.80747760E+02</rscale>
<asrwt>0</asrwt>
<pdfrwt beam="1">  1        2 0.22985635E-02 0.80747760E+02</pdfrwt>
<pdfrwt beam="2">  1       -1 0.16784861E-01 0.80747760E+02</pdfrwt>
<totfact> 0.11363134E+05</totfact>
</mgrwt>
</event>
<event>
 8    1  0.1600673E-013  0.7873353E+02  0.7818608E-02  0.1332684E+00
          2   -1    0    0  501    0  0.00000000000E+00  0.00000000000E+00  0.38803908442E+02  0.38803908526E+02  0.25500000000E-02 0. -1.
         -1   -1    0    0    0  501 -0.00000000000E+00 -0.00000000000E+00 -0.39937782876E+02  0.39937783194E+02  0.50400000000E-02 0.  1.
         24    2    1    2    0    0  0.00000000000E+00  0.00000000000E+00 -0.11338744339E+01  0.78741691721E+02  0.78733527444E+02 0.  0.
         66    2    3    3    0    0 -0.10801817901E+02 -0.74762023230E+01  0.36519750758E+02  0.38862128969E+02  0.20000003716E+01 0.  0.
        -13    1    3    3    0    0  0.10801817901E+02  0.74762023230E+01 -0.37653625192E+02  0.39879562751E+02  0.10566000000E+00 0.  1.
         13    1    4    4    0    0 -0.45233138590E+01 -0.29677215712E+01  0.14134239871E+02  0.15134584248E+02  0.10566000000E+00 0. -1.
        -13    1    4    4    0    0 -0.46896994054E+01 -0.39979600001E+01  0.16649389829E+02  0.17753599927E+02  0.10566000000E+00 0.  1.
         14    1    4    4    0    0 -0.15888046363E+01 -0.51052075164E+00  0.57361210576E+01  0.59739447936E+01  0.00000000000E+00 0. -1.
<mgrwt>
<rscale>  0 0.78733527E+02</rscale>
<asrwt>0</asrwt>
<pdfrwt beam="1">  1        2 0.59698321E-02 0.78733527E+02</pdfrwt>
<pdfrwt beam="2">  1       -1 0.61442743E-02 0.78733527E+02</pdfrwt>
<totfact> 0.14805883E+05</totfact>
</mgrwt>
</event>
<event>
 8    1  0.1600673E-013  0.7985377E+02  0.7818608E-02  0.1329467E+00
         -1   -1    0    0    0  501 -0.00000000000E+00  0.00000000000E+00  0.18021863442E+02  0.18021864147E+02  0.50400000000E-02 0.  1.
          2   -1    0    0  501    0  0.00000000000E+00 -0.00000000000E+00 -0.88456776291E+02  0.88456776328E+02  0.25500000000E-02 0. -1.
         24    2    1    2    0    0  0.00000000000E+00  0.00000000000E+00 -0.70434912849E+02  0.10647864047E+03  0.79853765906E+02 0.  0.
         66    2    3    3    0    0 -0.34440804574E+02  0.87304011528E+01 -0.59453538036E+02  0.69290057807E+02  0.20000005005E+01 0.  0.
        -13    1    3    3    0    0  0.34440804574E+02 -0.87304011528E+01 -0.10981374813E+02  0.37188582667E+02  0.10566000000E+00 0.  1.
         13    1    4    4    0    0 -0.13608789162E+02  0.40918811060E+01 -0.22422686717E+02  0.26546763966E+02  0.10566000000E+00 0. -1.
        -13    1    4    4    0    0 -0.10974109893E+02  0.22349230706E+01 -0.19258697743E+02  0.22278567546E+02  0.10566000000E+00 0.  1.
         14    1    4    4    0    0 -0.98579055183E+01  0.24035969762E+01 -0.17772153575E+02  0.20464726295E+02  0.00000000000E+00 0. -1.
<mgrwt>
<rscale>  0 0.79853766E+02</rscale>
<asrwt>0</asrwt>
<pdfrwt beam="1">  1        2 0.13608735E-01 0.79853766E+02</pdfrwt>
<pdfrwt beam="2">  1       -1 0.27725945E-02 0.79853766E+02</pdfrwt>
<totfact> 0.17225543E+05</totfact>
</mgrwt>
</event>
<event>
 8    1  0.1600673E-013  0.7859014E+02  0.7818608E-02  0.1333101E+00
          2   -1    0    0  501    0  0.00000000000E+00  0.00000000000E+00  0.16557253798E+03  0.16557253800E+03  0.25500000000E-02 0. -1.
         -1   -1    0    0    0  501 -0.00000000000E+00 -0.00000000000E+00 -0.93258358467E+01  0.93258372086E+01  0.50400000000E-02 0.  1.
         24    2    1    2    0    0  0.35527136788E-14 -0.88817841970E-15  0.15624670213E+03  0.17489837521E+03  0.78590137568E+02 0.  0.
         66    2    3    3    0    0 -0.16569306789E+02  0.60904568319E+01  0.15623798620E+03  0.15724485341E+03  0.19999997401E+01 0.  0.
        -13    1    3    3    0    0  0.16569306789E+02 -0.60904568319E+01  0.87159291904E-02  0.17653521798E+02  0.10566000000E+00 0.  1.
         13    1    4    4    0    0 -0.45598796905E+01  0.98883299714E+00  0.40495774918E+02  0.40763822732E+02  0.10566000000E+00 0. -1.
        -13    1    4    4    0    0 -0.86173986389E+00  0.47013504686E+00  0.11461476133E+02  0.11503922016E+02  0.10566000000E+00 0.  1.
         14    1    4    4    0    0 -0.11147687234E+02  0.46314887879E+01  0.10428073515E+03  0.10497710866E+03  0.00000000000E+00 0. -1.
<mgrwt>
<rscale>  0 0.78590138E+02</rscale>
<asrwt>0</asrwt>
<pdfrwt beam="1">  1        2 0.25472700E-01 0.78590138E+02</pdfrwt>
<pdfrwt beam="2">  1       -1 0.14347440E-02 0.78590138E+02</pdfrwt>
<totfact> 0.21683484E+05</totfact>
</mgrwt>
</event>
<event>
 8    1  0.1600673E-013  0.8284820E+02  0.7818608E-02  0.1321158E+00
         -1   -1    0    0    0  501 -0.00000000000E+00  0.00000000000E+00  0.19381088514E+01  0.19381154046E+01  0.50400000000E-02 0.  1.
          2   -1    0    0  501    0  0.00000000000E+00 -0.00000000000E+00 -0.88537494006E+03  0.88537494007E+03  0.25500000000E-02 0. -1.
         24    2    1    2    0    0  0.17763568394E-14  0.00000000000E+00 -0.88343683121E+03  0.88731305547E+03  0.82848196532E+02 0.  0.
         66    2    3    3    0    0 -0.11279321602E+02  0.29725546812E+02 -0.72596864183E+03  0.72666725546E+03  0.20000031937E+01 0.  0.
        -13    1    3    3    0    0  0.11279321602E+02 -0.29725546812E+02 -0.15746818938E+03  0.16064580001E+03  0.10566000000E+00 0.  1.
         13    1    4    4    0    0 -0.28095115141E+01  0.58078767511E+01 -0.14043597385E+03  0.14058413390E+03  0.10566000000E+00 0. -1.
        -13    1    4    4    0    0 -0.18547176177E+01  0.56473657254E+01 -0.12775614351E+03  0.12789439427E+03  0.10566000000E+00 0.  1.
         14    1    4    4    0    0 -0.66150924707E+01  0.18270304335E+02 -0.45777652446E+03  0.45818872729E+03  0.00000000000E+00 0. -1.
<mgrwt>
<rscale>  0 0.82848197E+02</rscale>
<asrwt>0</asrwt>
<pdfrwt beam="1">  1        2 0.13621121E+00 0.82848197E+02</pdfrwt>
<pdfrwt beam="2">  1       -1 0.29817180E-03 0.82848197E+02</pdfrwt>
<totfact> 0.31846782E+05</totfact>
</mgrwt>
</event>
<event>
 8    1  0.1600673E-013  0.8039884E+02  0.7818608E-02  0.1327923E+00
         -1   -1    0    0    0  501 -0.00000000000E+00  0.00000000000E+00  0.12825892226E+02  0.12825893216E+02  0.50400000000E-02 0.  1.
          2   -1    0    0  501    0  0.00000000000E+00 -0.00000000000E+00 -0.12599459721E+03  0.12599459724E+03  0.25500000000E-02 0. -1.
         24    2    1    2    0    0  0.00000000000E+00  0.00000000000E+00 -0.11316870499E+03  0.13882049045E+03  0.80398835698E+02 0.  0.
         66    2    3    3    0    0  0.42637583624E+01  0.14926571737E+02 -0.12059865190E+03  0.12161010247E+03  0.20000010434E+01 0.  0.
        -13    1    3    3    0    0 -0.42637583624E+01 -0.14926571737E+02  0.74299469153E+01  0.17210387979E+02  0.10566000000E+00 0.  1.
         13    1    4    4    0    0  0.73562219742E+00  0.26289262335E+01 -0.23999021683E+02  0.24154018277E+02  0.10566000000E+00 0. -1.
        -13    1    4    4    0    0  0.13580704418E+01  0.70420493961E+01 -0.50379599466E+02  0.50887621495E+02  0.10566000000E+00 0.  1.
        -14    1    4    4    0    0  0.21700657232E+01  0.52555961077E+01 -0.46220030753E+02  0.46568462703E+02  0.00000000000E+00 0.  1.
<mgrwt>
<rscale>  0 0.80398836E+02</rscale>
<asrwt>0</asrwt>
<pdfrwt beam="1">  1        2 0.19383783E-01 0.80398836E+02</pdfrwt>
<pdfrwt beam="2">  1       -1 0.19732144E-02 0.80398836E+02</pdfrwt>
<totfact> 0.18714185E+05</totfact>
</mgrwt>
</event>
<event>
 8    1  0.1600673E-013  0.7999518E+02  0.7818608E-02  0.1329065E+00
          2   -1    0    0  501    0  0.00000000000E+00  0.00000000000E+00  0.35335109390E+03  0.35335109391E+03  0.25500000000E-02 0. -1.
         -1   -1    0    0    0  501 -0.00000000000E+00 -0.00000000000E+00 -0.45275274478E+01  0.45275302531E+01  0.50400000000E-02 0.  1.
         24    2    1    2    0    0 -0.17763568394E-14  0.00000000000E+00  0.34882356645E+03  0.35787862416E+03  0.79995181854E+02 0.  0.
         66    2    3    3    0    0  0.11452867558E+02  0.35872557588E+02  0.23450778803E+03  0.23752033851E+03  0.19999998110E+01 0.  0.
        -13    1    3    3    0    0 -0.11452867558E+02 -0.35872557588E+02  0.11431577842E+03  0.12035828565E+03  0.10566000000E+00 0.  1.
         13    1    4    4    0    0  0.34060436354E+01  0.95630944107E+01  0.60438906919E+02  0.61285614474E+02  0.10566000000E+00 0. -1.
        -13    1    4    4    0    0  0.29022671223E+01  0.91374224390E+01  0.64674202998E+02  0.65381031964E+02  0.10566000000E+00 0.  1.
        -14    1    4    4    0    0  0.51445568007E+01  0.17172040738E+02  0.10939467811E+03  0.11085369207E+03  0.00000000000E+00 0.  1.
<mgrwt>
<rscale>  0 0.79995182E+02</rscale>
<asrwt>0</asrwt>
<pdfrwt beam="1">  1        2 0.54361718E-01 0.79995182E+02</pdfrwt>
<pdfrwt beam="2">  1       -1 0.69654276E-03 0.79995182E+02</pdfrwt>
<totfact> 0.27045635E+05</totfact>
</mgrwt>
</event>
<event>
 8    1  0.1600673E-013  0.7892670E+02  0.7818608E-02  0.1332125E+00
         -1   -1    0    0    0  501 -0.00000000000E+00  0.00000000000E+00  0.44342887244E+01  0.44342915886E+01  0.50400000000E-02 0.  1.
          2   -1    0    0  501    0  0.00000000000E+00 -0.00000000000E+00 -0.35120749553E+03  0.35120749554E+03  0.25500000000E-02 0. -1.
         24    2    1    2    0    0  0.00000000000E+00  0.00000000000E+00 -0.34677320680E+03  0.35564178713E+03  0.78926698862E+02 0.  0.
         66    2    3    3    0    0 -0.21200697271E+02  0.16551216000E+02 -0.30346504926E+03  0.30466120269E+03  0.19999960188E+01 0.  0.
        -13    1    3    3    0    0  0.21200697271E+02 -0.16551216000E+02 -0.43308157538E+02  0.50980584434E+02  0.10566000000E+00 0.  1.
         13    1    4    4    0    0 -0.14045937201E+02  0.10775939564E+02 -0.19327404185E+03  0.19408316682E+03  0.10566000000E+00 0. -1.
        -13    1    4    4    0    0 -0.16577636120E+00  0.28538241680E+00 -0.32734728995E+01  0.32917645397E+01  0.10566000000E+00 0. -1.
        -14    1    4    4    0    0 -0.69889837084E+01  0.54898940190E+01 -0.10691753451E+03  0.10728627133E+03  0.00000000000E+00 0.  1.
<mgrwt>
<rscale>  0 0.78926699E+02</rscale>
<asrwt>0</asrwt>
<pdfrwt beam="1">  1        2 0.54031901E-01 0.78926699E+02</pdfrwt>
<pdfrwt beam="2">  1       -1 0.68219876E-03 0.78926699E+02</pdfrwt>
<totfact> 0.27952688E+05</totfact>
</mgrwt>
</event>
<event>
 8    1  0.1600673E-013  0.8846771E+02  0.7818608E-02  0.1306605E+00
          2   -1    0    0  501    0  0.00000000000E+00  0.00000000000E+00  0.19865799885E+02  0.19865800049E+02  0.25500000000E-02 0. -1.
         -1   -1    0    0    0  501 -0.00000000000E+00 -0.00000000000E+00 -0.98492574345E+02  0.98492574474E+02  0.50400000000E-02 0.  1.
         24    2    1    2    0    0  0.00000000000E+00  0.35527136788E-14 -0.78626774459E+02  0.11835837452E+03  0.88467706864E+02 0.  0.
         66    2    3    3    0    0  0.23777006177E+02 -0.25029278224E+02 -0.23825539402E+01  0.34662477862E+02  0.20000042834E+01 0.  0.
        -13    1    3    3    0    0 -0.23777006177E+02  0.25029278224E+02 -0.76244220519E+02  0.83695896660E+02  0.10566000000E+00 0.  1.
         13    1    4    4    0    0  0.13518176475E+02 -0.13919337398E+02 -0.89930005571E+00  0.19424442165E+02  0.10566000000E+00 0. -1.
        -13    1    4    4    0    0  0.70137341185E+01 -0.73747348578E+01 -0.15142983225E+01  0.10289968122E+02  0.10566000000E+00 0.  1.
        -14    1    4    4    0    0  0.32450955840E+01 -0.37352059675E+01  0.31044437985E-01  0.49480675750E+01  0.00000000000E+00 0.  1.
<mgrwt>
<rscale>  0 0.88467707E+02</rscale>
<asrwt>0</asrwt>
<pdfrwt beam="1">  1        2 0.30562770E-02 0.88467707E+02</pdfrwt>
<pdfrwt beam="2">  1       -1 0.15152704E-01 0.88467707E+02</pdfrwt>
<totfact> 0.92568005E+04</totfact>
</mgrwt>
</event>
<event>
 8    1  0.1600673E-013  0.7983820E+02  0.7818608E-02  0.1329511E+00
          2   -1    0    0  501    0  0.00000000000E+00  0.00000000000E+00  0.14965888031E+02  0.14965888249E+02  0.25500000000E-02 0. -1.
         -1   -1    0    0    0  501 -0.00000000000E+00 -0.00000000000E+00 -0.10647777313E+03  0.10647777325E+03  0.50400000000E-02 0.  1.
         24    2    1    2    0    0  0.88817841970E-15  0.00000000000E+00 -0.91511885097E+02  0.12144366150E+03  0.79838197647E+02 0.  0.
         66    2    3    3    0    0 -0.69107090428E+01  0.17866911811E+02  0.74448170754E+01  0.20649690913E+02  0.19999990963E+01 0.  0.
        -13    1    3    3    0    0  0.69107090428E+01 -0.17866911811E+02 -0.98956702172E+02  0.10079397058E+03  0.10566000000E+00 0.  1.
         13    1    4    4    0    0 -0.64043567613E+01  0.14902319018E+02  0.61742889852E+01  0.17355918476E+02  0.10566000000E+00 0. -1.
        -13    1    4    4    0    0 -0.45849331256E+00  0.16290889286E+01  0.60063752740E+00  0.17989097615E+01  0.10566000000E+00 0.  1.
        -14    1    4    4    0    0 -0.47858968920E-01  0.13355038639E+01  0.66989056280E+00  0.14948626751E+01  0.00000000000E+00 0.  1.
<mgrwt>
<rscale>  0 0.79838198E+02</rscale>
<asrwt>0</asrwt>
<pdfrwt beam="1">  1        2 0.23024444E-02 0.79838198E+02</pdfrwt>
<pdfrwt beam="2">  1       -1 0.16381195E-01 0.79838198E+02</pdfrwt>
<totfact> 0.11752343E+05</totfact>
</mgrwt>
</event>
<event>
 8    1  0.1600673E-013  0.8014762E+02  0.7818608E-02  0.1328633E+00
          2   -1    0    0  501    0  0.00000000000E+00  0.00000000000E+00  0.40796914269E+01  0.40796922238E+01  0.25500000000E-02 0. -1.
         -1   -1    0    0    0  501 -0.00000000000E+00 -0.00000000000E+00 -0.39363516327E+03  0.39363516331E+03  0.50400000000E-02 0.  1.
         24    2    1    2    0    0  0.00000000000E+00  0.00000000000E+00 -0.38955547185E+03  0.39771485553E+03  0.80147617952E+02 0.  0.
         66    2    3    3    0    0 -0.39562318939E+02 -0.45593847685E+01 -0.21591681501E+03  0.21956783933E+03  0.19999985252E+01 0.  0.
        -13    1    3    3    0    0  0.39562318939E+02  0.45593847685E+01 -0.17363865683E+03  0.17814701620E+03  0.10566000000E+00 0.  1.
         13    1    4    4    0    0 -0.46569782766E+01 -0.72885066201E+00 -0.23705484357E+02  0.24169812217E+02  0.10566000000E+00 0. -1.
        -13    1    4    4    0    0 -0.86574006260E+01 -0.13876648294E+01 -0.45515150712E+02  0.46352090651E+02  0.10566000000E+00 0.  1.
        -14    1    4    4    0    0 -0.26247940036E+02 -0.24428692771E+01 -0.14669617994E+03  0.14904593647E+03  0.00000000000E+00 0.  1.
<mgrwt>
<rscale>  0 0.80147618E+02</rscale>
<asrwt>0</asrwt>
<pdfrwt beam="1">  1        2 0.62764521E-03 0.80147618E+02</pdfrwt>
<pdfrwt beam="2">  1       -1 0.60559226E-01 0.80147618E+02</pdfrwt>
<totfact> 0.76060284E+04</totfact>
</mgrwt>
</event>
<event>
 8    1  0.1600673E-013  0.8020156E+02  0.7818608E-02  0.1328480E+00
          2   -1    0    0  501    0  0.00000000000E+00  0.00000000000E+00  0.20449840123E+03  0.20449840124E+03  0.25500000000E-02 0. -1.
         -1   -1    0    0    0  501 -0.00000000000E+00 -0.00000000000E+00 -0.78634965169E+01  0.78634981321E+01  0.50400000000E-02 0.  1.
         24    2    1    2    0    0  0.00000000000E+00  0.35527136788E-14  0.19663490471E+03  0.21236189937E+03  0.80201562053E+02 0.  0.
         66    2    3    3    0    0  0.26561692620E+01 -0.17028109564E+02  0.19418004635E+03  0.19495358975E+03  0.20000009617E+01 0.  0.
        -13    1    3    3    0    0 -0.26561692620E+01  0.17028109564E+02  0.24548583573E+01  0.17408309626E+02  0.10566000000E+00 0.  1.
         13    1    4    4    0    0  0.21412525240E+01 -0.12545479235E+02  0.14024998633E+03  0.14082628959E+03  0.10566000000E+00 0. -1.
        -13    1    4    4    0    0  0.12621927867E+00 -0.34796062812E+01  0.44484373646E+02  0.44620558646E+02  0.10566000000E+00 0.  1.
         14    1    4    4    0    0  0.38869745940E+00 -0.10030240472E+01  0.94456863783E+01  0.95067415086E+01  0.00000000000E+00 0. -1.
<mgrwt>
<rscale>  0 0.80201562E+02</rscale>
<asrwt>0</asrwt>
<pdfrwt beam="1">  1        2 0.31461292E-01 0.80201562E+02</pdfrwt>
<pdfrwt beam="2">  1       -1 0.12097688E-02 0.80201562E+02</pdfrwt>
<totfact> 0.22082885E+05</totfact>
</mgrwt>
</event>
<event>
 8    1  0.1600673E-013  0.7858570E+02  0.7818608E-02  0.1333114E+00
          2   -1    0    0  501    0  0.00000000000E+00  0.00000000000E+00  0.79625360916E+01  0.79625365000E+01  0.25500000000E-02 0. -1.
         -1   -1    0    0    0  501 -0.00000000000E+00 -0.00000000000E+00 -0.19389904760E+03  0.19389904766E+03  0.50400000000E-02 0.  1.
         24    2    1    2    0    0  0.00000000000E+00  0.35527136788E-14 -0.18593651151E+03  0.20186158416E+03  0.78585703851E+02 0.  0.
         66    2    3    3    0    0 -0.16655956183E+02 -0.28070449156E+02 -0.36953801731E+02  0.49345257273E+02  0.19999901985E+01 0.  0.
        -13    1    3    3    0    0  0.16655956183E+02  0.28070449156E+02 -0.14898270977E+03  0.15251632689E+03  0.10566000000E+00 0.  1.
         13    1    4    4    0    0 -0.85193913037E+00 -0.15377825102E+01 -0.23022243402E+01  0.28986162697E+01  0.10566000000E+00 0. -1.
        -13    1    4    4    0    0 -0.23700532426E+01 -0.31272324954E+01 -0.39125480443E+01  0.55421955657E+01  0.10566000000E+00 0.  1.
         14    1    4    4    0    0 -0.13433963810E+02 -0.23405434150E+02 -0.30739029347E+02  0.40904445438E+02  0.00000000000E+00 0. -1.
<mgrwt>
<rscale>  0 0.78585704E+02</rscale>
<asrwt>0</asrwt>
<pdfrwt beam="1">  1        2 0.12250057E-02 0.78585704E+02</pdfrwt>
<pdfrwt beam="2">  1       -1 0.29830619E-01 0.78585704E+02</pdfrwt>
<totfact> 0.10519739E+05</totfact>
</mgrwt>
</event>
<event>
 8    1  0.1600673E-013  0.7893981E+02  0.7818608E-02  0.1332087E+00
          2   -1    0    0  501    0  0.00000000000E+00  0.00000000000E+00  0.35847993842E+03  0.35847993843E+03  0.25500000000E-02 0. -1.
         -1   -1    0    0    0  501 -0.00000000000E+00 -0.00000000000E+00 -0.43457747294E+01  0.43457776520E+01  0.50400000000E-02 0.  1.
         24    2    1    2    0    0 -0.17763568394E-14 -0.35527136788E-14  0.35413416369E+03  0.36282571608E+03  0.78939814777E+02 0.  0.
         66    2    3    3    0    0 -0.10994369240E+02  0.22733850292E+02  0.31645191227E+03  0.31746419781E+03  0.20000012236E+01 0.  0.
        -13    1    3    3    0    0  0.10994369240E+02 -0.22733850292E+02  0.37682251419E+02  0.45361518274E+02  0.10566000000E+00 0.  1.
         13    1    4    4    0    0 -0.80702598046E+01  0.16708919550E+02  0.22880112625E+03  0.22955235487E+03  0.10566000000E+00 0. -1.
        -13    1    4    4    0    0 -0.76646592599E+00  0.26450524128E+01  0.37228114402E+02  0.37329980422E+02  0.10566000000E+00 0.  1.
        -14    1    4    4    0    0 -0.21576435092E+01  0.33798783295E+01  0.50422671619E+02  0.50581862523E+02  0.00000000000E+00 0.  1.
<mgrwt>
<rscale>  0 0.78939815E+02</rscale>
<asrwt>0</asrwt>
<pdfrwt beam="1">  1        2 0.55150763E-01 0.78939815E+02</pdfrwt>
<pdfrwt beam="2">  1       -1 0.66858091E-03 0.78939815E+02</pdfrwt>
<totfact> 0.28145097E+05</totfact>
</mgrwt>
</event>
<event>
 8    1  0.1600673E-013  0.7895296E+02  0.7818608E-02  0.1332049E+00
         -1   -1    0    0    0  501 -0.00000000000E+00  0.00000000000E+00  0.18761821936E+01  0.18761889631E+01  0.50400000000E-02 0.  1.
          2   -1    0    0  501    0  0.00000000000E+00 -0.00000000000E+00 -0.83061749890E+03  0.83061749890E+03  0.25500000000E-02 0. -1.
         24    2    1    2    0    0  0.00000000000E+00  0.35527136788E-14 -0.82874131670E+03  0.83249368786E+03  0.78952962719E+02 0.  0.
         66    2    3    3    0    0 -0.10838065414E+02 -0.30815282666E+02 -0.64788433964E+03  0.64871038442E+03  0.19999994781E+01 0.  0.
        -13    1    3    3    0    0  0.10838065414E+02  0.30815282666E+02 -0.18085697707E+03  0.18378330345E+03  0.10566000000E+00 0.  1.
         13    1    4    4    0    0 -0.50967179477E+01 -0.15896508782E+02 -0.33124510859E+03  0.33166550718E+03  0.10566000000E+00 0. -1.
        -13    1    4    4    0    0 -0.48611406414E+01 -0.12499198767E+02 -0.25613038517E+03  0.25648127813E+03  0.10566000000E+00 0.  1.
         14    1    4    4    0    0 -0.88020682479E+00 -0.24195751176E+01 -0.60508845870E+02  0.60563599103E+02  0.00000000000E+00 0. -1.
<mgrwt>
<rscale>  0 0.78952963E+02</rscale>
<asrwt>0</asrwt>
<pdfrwt beam="1">  1        2 0.12778701E+00 0.78952963E+02</pdfrwt>
<pdfrwt beam="2">  1       -1 0.28864460E-03 0.78952963E+02</pdfrwt>
<totfact> 0.35779841E+05</totfact>
</mgrwt>
</event>
<event>
 8    1  0.1600673E-013  0.7991198E+02  0.7818608E-02  0.1329301E+00
         -1   -1    0    0    0  501 -0.00000000000E+00  0.00000000000E+00  0.11842492885E+02  0.11842493957E+02  0.50400000000E-02 0.  1.
          2   -1    0    0  501    0  0.00000000000E+00 -0.00000000000E+00 -0.13480955636E+03  0.13480955638E+03  0.25500000000E-02 0. -1.
         24    2    1    2    0    0  0.00000000000E+00  0.00000000000E+00 -0.12296706348E+03  0.14665205034E+03  0.79911983892E+02 0.  0.
         66    2    3    3    0    0 -0.13165852648E+02  0.33361385869E+02 -0.29306757264E+02  0.46359548793E+02  0.19999999860E+01 0.  0.
        -13    1    3    3    0    0  0.13165852648E+02 -0.33361385869E+02 -0.93660306212E+02  0.10029250155E+03  0.10566000000E+00 0.  1.
         13    1    4    4    0    0 -0.60452858993E+00  0.25026281775E+01 -0.22245388185E+01  0.34041650373E+01  0.10566000000E+00 0. -1.
        -13    1    4    4    0    0 -0.98782744563E+00  0.27216529001E+01 -0.19410470212E+01  0.34874095178E+01  0.10566000000E+00 0.  1.
         14    1    4    4    0    0 -0.11573496612E+02  0.28137104792E+02 -0.25141171424E+02  0.39467974238E+02  0.00000000000E+00 0. -1.
<mgrwt>
<rscale>  0 0.79911984E+02</rscale>
<asrwt>0</asrwt>
<pdfrwt beam="1">  1        2 0.20739931E-01 0.79911984E+02</pdfrwt>
<pdfrwt beam="2">  1       -1 0.18219222E-02 0.79911984E+02</pdfrwt>
<totfact> 0.19420090E+05</totfact>
</mgrwt>
</event>
<event>
 8    1  0.1600673E-013  0.7908734E+02  0.7818608E-02  0.1331662E+00
          2   -1    0    0  501    0  0.00000000000E+00  0.00000000000E+00  0.14427672879E+04  0.14427672879E+04  0.25500000000E-02 0. -1.
         -1   -1    0    0    0  501 -0.00000000000E+00 -0.00000000000E+00 -0.10838155154E+01  0.10838272339E+01  0.50400000000E-02 0.  1.
         24    2    1    2    0    0 -0.17763568394E-14 -0.17763568394E-14  0.14416834724E+04  0.14438511151E+04  0.79087344961E+02 0.  0.
         66    2    3    3    0    0 -0.13461368640E+02 -0.10114414360E+02  0.13740000009E+04  0.13741046220E+04  0.20000010065E+01 0.  0.
        -13    1    3    3    0    0  0.13461368640E+02  0.10114414360E+02  0.67683471482E+02  0.69746493098E+02  0.10566000000E+00 0.  1.
         13    1    4    4    0    0 -0.54795936283E+01 -0.37094280133E+01  0.49828900514E+03  0.49833295055E+03  0.10566000000E+00 0. -1.
        -13    1    4    4    0    0 -0.11063124379E+01 -0.14794936894E+01  0.16133230809E+03  0.16134291935E+03  0.10566000000E+00 0.  1.
        -14    1    4    4    0    0 -0.68754625737E+01 -0.49254926577E+01  0.71437868768E+03  0.71442875214E+03  0.00000000000E+00 0.  1.
<mgrwt>
<rscale>  0 0.79087345E+02</rscale>
<asrwt>0</asrwt>
<pdfrwt beam="1">  1        2 0.22196543E+00 0.79087345E+02</pdfrwt>
<pdfrwt beam="2">  1       -1 0.16674082E-03 0.79087345E+02</pdfrwt>
<totfact> 0.34725423E+05</totfact>
</mgrwt>
</event>
<event>
 8    1  0.1600673E-013  0.8068116E+02  0.7818608E-02  0.1327129E+00
          2   -1    0    0  501    0  0.00000000000E+00  0.00000000000E+00  0.63457932803E+01  0.63457937926E+01  0.25500000000E-02 0. -1.
         -1   -1    0    0    0  501 -0.00000000000E+00 -0.00000000000E+00 -0.25644743846E+03  0.25644743851E+03  0.50400000000E-02 0.  1.
         24    2    1    2    0    0 -0.35527136788E-14  0.71054273576E-14 -0.25010164518E+03  0.26279323230E+03  0.80681162747E+02 0.  0.
         66    2    3    3    0    0  0.18034921003E+02 -0.35721859647E+02 -0.14110023526E+03  0.14667851247E+03  0.19999997212E+01 0.  0.
        -13    1    3    3    0    0 -0.18034921003E+02  0.35721859647E+02 -0.10900140992E+03  0.11611471983E+03  0.10566000000E+00 0.  1.
         13    1    4    4    0    0  0.11858505138E+02 -0.23318047270E+02 -0.93267838360E+02  0.96867209668E+02  0.10566000000E+00 0. -1.
        -13    1    4    4    0    0  0.16848147783E+01 -0.44103153512E+01 -0.17133151337E+02  0.17772043245E+02  0.10566000000E+00 0.  1.
         14    1    4    4    0    0  0.44916010866E+01 -0.79934970267E+01 -0.30699245560E+02  0.32039259558E+02  0.00000000000E+00 0. -1.
<mgrwt>
<rscale>  0 0.80681163E+02</rscale>
<asrwt>0</asrwt>
<pdfrwt beam="1">  1        2 0.97627613E-03 0.80681163E+02</pdfrwt>
<pdfrwt beam="2">  1       -1 0.39453444E-01 0.80681163E+02</pdfrwt>
<totfact> 0.89803415E+04</totfact>
</mgrwt>
</event>
<event>
 8    1  0.1600673E-013  0.7954959E+02  0.7818608E-02  0.1330335E+00
         -1   -1    0    0    0  501 -0.00000000000E+00  0.00000000000E+00  0.34278223160E+02  0.34278223531E+02  0.50400000000E-02 0.  1.
          2   -1    0    0  501    0  0.00000000000E+00 -0.00000000000E+00 -0.46152751285E+02  0.46152751356E+02  0.25500000000E-02 0. -1.
         24    2    1    2    0    0 -0.35527136788E-14  0.55511151231E-16 -0.11874528125E+02  0.80430974887E+02  0.79549590213E+02 0.  0.
         66    2    3    3    0    0  0.27922168983E+02  0.38146356191E+00 -0.34542882540E+02  0.44463510546E+02  0.20000001931E+01 0.  0.
        -13    1    3    3    0    0 -0.27922168983E+02 -0.38146356191E+00  0.22668354415E+02  0.35967464340E+02  0.10566000000E+00 0.  1.
         13    1    4    4    0    0  0.17416698321E+01 -0.37120341035E+00 -0.18591519202E+01  0.25765899313E+01  0.10566000000E+00 0. -1.
        -13    1    4    4    0    0  0.10956555091E+02  0.55707371226E+00 -0.13837122884E+02  0.17658809822E+02  0.10566000000E+00 0.  1.
         14    1    4    4    0    0  0.15223944060E+02  0.19559326001E+00 -0.18846607735E+02  0.24228110793E+02  0.00000000000E+00 0. -1.
<mgrwt>
<rscale>  0 0.79549590E+02</rscale>
<asrwt>0</asrwt>
<pdfrwt beam="1">  1        2 0.71004233E-02 0.79549590E+02</pdfrwt>
<pdfrwt beam="2">  1       -1 0.52735729E-02 0.79549590E+02</pdfrwt>
<totfact> 0.14917341E+05</totfact>
</mgrwt>
</event>
<event>
 8    1  0.1600673E-013  0.7956793E+02  0.7818608E-02  0.1330282E+00
          2   -1    0    0  501    0  0.00000000000E+00  0.00000000000E+00  0.89009559204E+03  0.89009559204E+03  0.25500000000E-02 0. -1.
         -1   -1    0    0    0  501 -0.00000000000E+00 -0.00000000000E+00 -0.17781917409E+01  0.17781988835E+01  0.50400000000E-02 0.  1.
         24    2    1    2    0    0 -0.35527136788E-14 -0.17763568394E-14  0.88831740030E+03  0.89187379092E+03  0.79567928643E+02 0.  0.
         66    2    3    3    0    0 -0.18133699008E+02 -0.73891260928E+01  0.83229589684E+03  0.83252861220E+03  0.20000032247E+01 0.  0.
        -13    1    3    3    0    0  0.18133699008E+02  0.73891260928E+01  0.56021503456E+02  0.59345178723E+02  0.10566000000E+00 0.  1.
         13    1    4    4    0    0 -0.28631259702E+01 -0.50362691417E+00  0.11258292512E+03  0.11262050134E+03  0.10566000000E+00 0. -1.
        -13    1    4    4    0    0 -0.17387434816E+01 -0.80232564877E+00  0.76109615224E+02  0.76133774692E+02  0.10566000000E+00 0.  1.
         14    1    4    4    0    0 -0.13531829556E+02 -0.60831735299E+01  0.64360335650E+03  0.64377433617E+03  0.00000000000E+00 0. -1.
<mgrwt>
<rscale>  0 0.79567929E+02</rscale>
<asrwt>0</asrwt>
<pdfrwt beam="1">  1        2 0.13693764E+00 0.79567929E+02</pdfrwt>
<pdfrwt beam="2">  1       -1 0.27356881E-03 0.79567929E+02</pdfrwt>
<totfact> 0.35396950E+05</totfact>
</mgrwt>
</event>
<event>
 8    1  0.1600673E-013  0.7975009E+02  0.7818608E-02  0.1329762E+00
          2   -1    0    0  501    0  0.00000000000E+00  0.00000000000E+00  0.28446112916E+02  0.28446113030E+02  0.25500000000E-02 0. -1.
         -1   -1    0    0    0  501 -0.00000000000E+00 -0.00000000000E+00 -0.55895838292E+02  0.55895838520E+02  0.50400000000E-02 0.  1.
         24    2    1    2    0    0 -0.44408920985E-15 -0.71054273576E-14 -0.27449725377E+02  0.84341951550E+02  0.79750093216E+02 0.  0.
         66    2    3    3    0    0  0.29206344566E+01  0.31446783945E+02 -0.39434665219E+02  0.50562071841E+02  0.19999904493E+01 0.  0.
        -13    1    3    3    0    0 -0.29206344566E+01 -0.31446783945E+02  0.11984939842E+02  0.33779879709E+02  0.10566000000E+00 0.  1.
         13    1    4    4    0    0  0.22766934523E+01  0.22013742976E+02 -0.28220551728E+02  0.35863615500E+02  0.10566000000E+00 0. -1.
        -13    1    4    4    0    0  0.16601035726E+00  0.77343942370E+01 -0.90715109662E+01  0.11922746701E+02  0.10566000000E+00 0.  1.
        -14    1    4    4    0    0  0.47793064697E+00  0.16986467320E+01 -0.21426025248E+01  0.27757096395E+01  0.00000000000E+00 0.  1.
<mgrwt>
<rscale>  0 0.79750093E+02</rscale>
<asrwt>0</asrwt>
<pdfrwt beam="1">  1        2 0.43763251E-02 0.79750093E+02</pdfrwt>
<pdfrwt beam="2">  1       -1 0.85993598E-02 0.79750093E+02</pdfrwt>
<totfact> 0.13432478E+05</totfact>
</mgrwt>
</event>
<event>
 8    1  0.1600673E-013  0.8020855E+02  0.7818608E-02  0.1328461E+00
         -1   -1    0    0    0  501 -0.00000000000E+00  0.00000000000E+00  0.48548854945E+02  0.48548855207E+02  0.50400000000E-02 0.  1.
          2   -1    0    0  501    0  0.00000000000E+00 -0.00000000000E+00 -0.33128544455E+02  0.33128544554E+02  0.25500000000E-02 0. -1.
         24    2    1    2    0    0  0.00000000000E+00  0.00000000000E+00  0.15420310489E+02  0.81677399760E+02  0.80208551015E+02 0.  0.
         66    2    3    3    0    0 -0.20267744734E+02 -0.13002985018E+02 -0.24910652545E+02  0.34704462453E+02  0.20000019897E+01 0.  0.
        -13    1    3    3    0    0  0.20267744734E+02  0.13002985018E+02  0.40330963034E+02  0.46972937307E+02  0.10566000000E+00 0.  1.
         13    1    4    4    0    0 -0.10412638565E+02 -0.59164408008E+01 -0.12368128686E+02  0.17216535217E+02  0.10566000000E+00 0. -1.
        -13    1    4    4    0    0 -0.56972411340E+01 -0.41544636298E+01 -0.65213297396E+01  0.96050523267E+01  0.10566000000E+00 0.  1.
         14    1    4    4    0    0 -0.41578650346E+01 -0.29320805878E+01 -0.60211941188E+01  0.78828749093E+01  0.00000000000E+00 0. -1.
<mgrwt>
<rscale>  0 0.80208551E+02</rscale>
<asrwt>0</asrwt>
<pdfrwt beam="1">  1        2 0.50966992E-02 0.80208551E+02</pdfrwt>
<pdfrwt beam="2">  1       -1 0.74690547E-02 0.80208551E+02</pdfrwt>
<totfact> 0.13623110E+05</totfact>
</mgrwt>
</event>
<event>
 8    1  0.1600673E-013  0.7929601E+02  0.7818608E-02  0.1331061E+00
         -1   -1    0    0    0  501 -0.00000000000E+00  0.00000000000E+00  0.57871503465E+02  0.57871503684E+02  0.50400000000E-02 0.  1.
          2   -1    0    0  501    0  0.00000000000E+00 -0.00000000000E+00 -0.27163011269E+02  0.27163011389E+02  0.25500000000E-02 0. -1.
         24    2    1    2    0    0  0.71054273576E-14  0.00000000000E+00  0.30708492196E+02  0.85034515073E+02  0.79296010371E+02 0.  0.
         66    2    3    3    0    0  0.37564402209E+02 -0.89396882456E+01  0.58351626017E+01  0.39103087614E+02  0.19999997775E+01 0.  0.
        -13    1    3    3    0    0 -0.37564402209E+02  0.89396882456E+01  0.24873329594E+02  0.45931427459E+02  0.10566000000E+00 0.  1.
         13    1    4    4    0    0  0.25192530321E+02 -0.63113410010E+01  0.37014934837E+01  0.26233734528E+02  0.10566000000E+00 0. -1.
        -13    1    4    4    0    0  0.10565876788E+02 -0.24950554785E+01  0.15522165520E+01  0.10967387766E+02  0.10566000000E+00 0.  1.
        -14    1    4    4    0    0  0.18059950994E+01 -0.13329176614E+00  0.58145256597E+00  0.19019653205E+01  0.00000000000E+00 0.  1.
<mgrwt>
<rscale>  0 0.79296010E+02</rscale>
<asrwt>0</asrwt>
<pdfrwt beam="1">  1        2 0.41789249E-02 0.79296010E+02</pdfrwt>
<pdfrwt beam="2">  1       -1 0.89033081E-02 0.79296010E+02</pdfrwt>
<totfact> 0.13526990E+05</totfact>
</mgrwt>
</event>
<event>
 8    1  0.1600673E-013  0.8214265E+02  0.7818608E-02  0.1323079E+00
          2   -1    0    0  501    0  0.00000000000E+00  0.00000000000E+00  0.10824721424E+03  0.10824721427E+03  0.25500000000E-02 0. -1.
         -1   -1    0    0    0  501 -0.00000000000E+00 -0.00000000000E+00 -0.15583344579E+02  0.15583345394E+02  0.50400000000E-02 0.  1.
         24    2    1    2    0    0  0.00000000000E+00  0.00000000000E+00  0.92663869657E+02  0.12383055966E+03  0.82142648886E+02 0.  0.
         66    2    3    3    0    0 -0.33375402524E+02 -0.88702049414E+01  0.79805948697E+02  0.86980385648E+02  0.20000026426E+01 0.  0.
        -13    1    3    3    0    0  0.33375402524E+02  0.88702049414E+01  0.12857920960E+02  0.36850174013E+02  0.10566000000E+00 0.  1.
         13    1    4    4    0    0 -0.59327809052E+01 -0.13243990996E+01  0.14702029195E+02  0.15909517552E+02  0.10566000000E+00 0. -1.
        -13    1    4    4    0    0 -0.27369895326E+02 -0.74797285357E+01  0.64586538723E+02  0.70544239009E+02  0.10566000000E+00 0.  1.
        -14    1    4    4    0    0 -0.72726292805E-01 -0.66077306109E-01  0.51738077942E+00  0.52662908670E+00  0.00000000000E+00 0.  1.
<mgrwt>
<rscale>  0 0.82142649E+02</rscale>
<asrwt>0</asrwt>
<pdfrwt beam="1">  1        2 0.16653418E-01 0.82142649E+02</pdfrwt>
<pdfrwt beam="2">  1       -1 0.23974377E-02 0.82142649E+02</pdfrwt>
<totfact> 0.16890706E+05</totfact>
</mgrwt>
</event>
<event>
 8    1  0.1600673E-013  0.8024553E+02  0.7818608E-02  0.1328356E+00
         -1   -1    0    0    0  501 -0.00000000000E+00  0.00000000000E+00  0.14719483813E+03  0.14719483822E+03  0.50400000000E-02 0.  1.
          2   -1    0    0  501    0  0.00000000000E+00 -0.00000000000E+00 -0.10936770446E+02  0.10936770743E+02  0.25500000000E-02 0. -1.
         24    2    1    2    0    0  0.22204460493E-15 -0.71054273576E-14  0.13625806769E+03  0.15813160896E+03  0.80245527871E+02 0.  0.
         66    2    3    3    0    0  0.11869263484E+01 -0.34205511484E+02  0.27004834273E+02  0.43642718735E+02  0.20000036108E+01 0.  0.
        -13    1    3    3    0    0 -0.11869263484E+01  0.34205511484E+02  0.10925323341E+03  0.11448889023E+03  0.10566000000E+00 0.  1.
         13    1    4    4    0    0  0.10092008529E+01 -0.14686463465E+02  0.11185911749E+02  0.18489090869E+02  0.10566000000E+00 0. -1.
        -13    1    4    4    0    0 -0.93694855762E-01 -0.11275347992E+02  0.84176529513E+01  0.14071613138E+02  0.10566000000E+00 0.  1.
        -14    1    4    4    0    0  0.27142035128E+00 -0.82437000267E+01  0.74012695726E+01  0.11082014728E+02  0.00000000000E+00 0.  1.
<mgrwt>
<rscale>  0 0.80245528E+02</rscale>
<asrwt>0</asrwt>
<pdfrwt beam="1">  1        2 0.16825802E-02 0.80245528E+02</pdfrwt>
<pdfrwt beam="2">  1       -1 0.22645358E-01 0.80245528E+02</pdfrwt>
<totfact> 0.10755459E+05</totfact>
</mgrwt>
</event>
<event>
 8    1  0.1600673E-013  0.8057977E+02  0.7818608E-02  0.1327414E+00
          2   -1    0    0  501    0  0.00000000000E+00  0.00000000000E+00  0.80880174846E+03  0.80880174846E+03  0.25500000000E-02 0. -1.
         -1   -1    0    0    0  501 -0.00000000000E+00 -0.00000000000E+00 -0.20070088881E+01  0.20070152163E+01  0.50400000000E-02 0.  1.
         24    2    1    2    0    0  0.00000000000E+00  0.00000000000E+00  0.80679473957E+03  0.81080876368E+03  0.80579770786E+02 0.  0.
         66    2    3    3    0    0  0.15483943301E+02  0.15134905778E+02  0.74523415043E+03  0.74555131068E+03  0.20000025480E+01 0.  0.
        -13    1    3    3    0    0 -0.15483943301E+02 -0.15134905778E+02  0.61560589135E+02  0.65257452997E+02  0.10566000000E+00 0.  1.
         13    1    4    4    0    0  0.74390518858E+01  0.72353967001E+01  0.36136074315E+03  0.36150973474E+03  0.10566000000E+00 0. -1.
        -13    1    4    4    0    0  0.16198241188E+00  0.30192229457E-01  0.38548120171E+01  0.38597784386E+01  0.10566000000E+00 0. -1.
        -14    1    4    4    0    0  0.78829090036E+01  0.78693168479E+01  0.38001859527E+03  0.38018179750E+03  0.00000000000E+00 0.  1.
<mgrwt>
<rscale>  0 0.80579771E+02</rscale>
<asrwt>0</asrwt>
<pdfrwt beam="1">  1        2 0.12443115E+00 0.80579771E+02</pdfrwt>
<pdfrwt beam="2">  1       -1 0.30877081E-03 0.80579771E+02</pdfrwt>
<totfact> 0.33789571E+05</totfact>
</mgrwt>
</event>
<event>
 8    1  0.1600673E-013  0.8801395E+02  0.7818608E-02  0.1307734E+00
         -1   -1    0    0    0  501 -0.00000000000E+00  0.00000000000E+00  0.12385265801E+03  0.12385265812E+03  0.50400000000E-02 0.  1.
          2   -1    0    0  501    0  0.00000000000E+00 -0.00000000000E+00 -0.15636431734E+02  0.15636431942E+02  0.25500000000E-02 0. -1.
         24    2    1    2    0    0  0.00000000000E+00  0.00000000000E+00  0.10821622628E+03  0.13948909006E+03  0.88013945571E+02 0.  0.
         66    2    3    3    0    0 -0.33137537508E+02  0.92477736067E+01  0.10704349794E+02  0.36086019850E+02  0.20000038320E+01 0.  0.
        -13    1    3    3    0    0  0.33137537508E+02 -0.92477736067E+01  0.97511876487E+02  0.10340307021E+03  0.10566000000E+00 0.  1.
         13    1    4    4    0    0 -0.13360796361E+02  0.37050241697E+01  0.35932959677E+01  0.14323443143E+02  0.10566000000E+00 0. -1.
        -13    1    4    4    0    0 -0.72459095372E+01  0.15301443395E+01  0.27656283527E+01  0.79059731179E+01  0.10566000000E+00 0.  1.
         14    1    4    4    0    0 -0.12530831609E+02  0.40126050975E+01  0.43454254739E+01  0.13856603589E+02  0.00000000000E+00 0. -1.
<mgrwt>
<rscale>  0 0.88013946E+02</rscale>
<asrwt>0</asrwt>
<pdfrwt beam="1">  1        2 0.24056049E-02 0.88013946E+02</pdfrwt>
<pdfrwt beam="2">  1       -1 0.19054255E-01 0.88013946E+02</pdfrwt>
<totfact> 0.88907948E+04</totfact>
</mgrwt>
</event>
<event>
 8    1  0.1600673E-013  0.7974599E+02  0.7818608E-02  0.1329774E+00
         -1   -1    0    0    0  501 -0.00000000000E+00  0.00000000000E+00  0.13653255431E+02  0.13653256361E+02  0.50400000000E-02 0.  1.
          2   -1    0    0  501    0  0.00000000000E+00 -0.00000000000E+00 -0.11644516328E+03  0.11644516331E+03  0.25500000000E-02 0. -1.
         24    2    1    2    0    0 -0.17763568394E-14 -0.71054273576E-14 -0.10279190785E+03  0.13009841967E+03  0.79745987240E+02 0.  0.
         66    2    3    3    0    0 -0.13958593451E+02 -0.36746011613E+02 -0.40762839470E+02  0.56663222463E+02  0.19999993968E+01 0.  0.
        -13    1    3    3    0    0  0.13958593451E+02  0.36746011613E+02 -0.62029068377E+02  0.73435197204E+02  0.10566000000E+00 0.  1.
         13    1    4    4    0    0 -0.64893155716E+01 -0.17300365429E+02 -0.17905913654E+02  0.25730269497E+02  0.10566000000E+00 0. -1.
        -13    1    4    4    0    0 -0.64986646220E+01 -0.17489470707E+02 -0.20388903428E+02  0.27637524753E+02  0.10566000000E+00 0.  1.
         14    1    4    4    0    0 -0.97061325775E+00 -0.19561754779E+01 -0.24680223879E+01  0.32954282125E+01  0.00000000000E+00 0. -1.
<mgrwt>
<rscale>  0 0.79745987E+02</rscale>
<asrwt>0</asrwt>
<pdfrwt beam="1">  1        2 0.17914640E-01 0.79745987E+02</pdfrwt>
<pdfrwt beam="2">  1       -1 0.21005010E-02 0.79745987E+02</pdfrwt>
<totfact> 0.18677942E+05</totfact>
</mgrwt>
</event>
<event>
 8    1  0.1600673E-013  0.8256239E+02  0.7818608E-02  0.1321933E+00
         -1   -1    0    0    0  501 -0.00000000000E+00  0.00000000000E+00  0.14241321240E+01  0.14241410423E+01  0.50400000000E-02 0.  1.
          2   -1    0    0  501    0  0.00000000000E+00 -0.00000000000E+00 -0.11966105604E+04  0.11966105604E+04  0.25500000000E-02 0. -1.
         24    2    1    2    0    0  0.35527136788E-14  0.00000000000E+00 -0.11951864282E+04  0.11980347014E+04  0.82562385692E+02 0.  0.
         66    2    3    3    0    0 -0.23715754702E+02 -0.20638735380E+01 -0.10868973068E+04  0.10871598098E+04  0.19999995095E+01 0.  0.
        -13    1    3    3    0    0  0.23715754702E+02  0.20638735380E+01 -0.10828912144E+03  0.11087489157E+03  0.10566000000E+00 0.  1.
         13    1    4    4    0    0 -0.19666868906E+02 -0.10389754089E+01 -0.90208305744E+03  0.90229802111E+03  0.10566000000E+00 0. -1.
        -13    1    4    4    0    0 -0.38092023150E+01 -0.93955954141E+00 -0.17656955907E+03  0.17661317377E+03  0.10566000000E+00 0.  1.
         14    1    4    4    0    0 -0.23968348163E+00 -0.85338587698E-01 -0.82446902836E+01  0.82486149576E+01  0.00000000000E+00 0. -1.
<mgrwt>
<rscale>  0 0.82562386E+02</rscale>
<asrwt>0</asrwt>
<pdfrwt beam="1">  1        2 0.18409313E+00 0.82562386E+02</pdfrwt>
<pdfrwt beam="2">  1       -1 0.21909889E-03 0.82562386E+02</pdfrwt>
<totfact> 0.32289893E+05</totfact>
</mgrwt>
</event>
<event>
 8    1  0.1600673E-013  0.8457305E+02  0.7818608E-02  0.1316553E+00
         -1   -1    0    0    0  501 -0.00000000000E+00  0.00000000000E+00  0.16430348479E+02  0.16430349252E+02  0.50400000000E-02 0.  1.
          2   -1    0    0  501    0  0.00000000000E+00 -0.00000000000E+00 -0.10883215652E+03  0.10883215655E+03  0.25500000000E-02 0. -1.
         24    2    1    2    0    0  0.71054273576E-14  0.44408920985E-15 -0.92401808044E+02  0.12526250580E+03  0.84573052626E+02 0.  0.
         66    2    3    3    0    0  0.33462375573E+02 -0.27697901009E+01 -0.84240976801E+02  0.90708017719E+02  0.19999974987E+01 0.  0.
        -13    1    3    3    0    0 -0.33462375573E+02  0.27697901009E+01 -0.81608312433E+01  0.34554488085E+02  0.10566000000E+00 0.  1.
         13    1    4    4    0    0  0.91831440749E+01 -0.11045888259E+01 -0.22550546133E+02  0.24373931700E+02  0.10566000000E+00 0. -1.
        -13    1    4    4    0    0  0.49920358895E+01 -0.88751971962E+00 -0.13542582738E+02  0.14461010505E+02  0.10566000000E+00 0.  1.
         14    1    4    4    0    0  0.19287195609E+02 -0.77768155540E+00 -0.48147847929E+02  0.51873075514E+02  0.00000000000E+00 0. -1.
<mgrwt>
<rscale>  0 0.84573053E+02</rscale>
<asrwt>0</asrwt>
<pdfrwt beam="1">  1        2 0.16743408E-01 0.84573053E+02</pdfrwt>
<pdfrwt beam="2">  1       -1 0.25277461E-02 0.84573053E+02</pdfrwt>
<totfact> 0.15642787E+05</totfact>
</mgrwt>
</event>
<event>
 8    1  0.1600673E-013  0.7998897E+02  0.7818608E-02  0.1329083E+00
         -1   -1    0    0    0  501 -0.00000000000E+00  0.00000000000E+00  0.74722941877E+01  0.74722958874E+01  0.50400000000E-02 0.  1.
          2   -1    0    0  501    0  0.00000000000E+00 -0.00000000000E+00 -0.21406524853E+03  0.21406524854E+03  0.25500000000E-02 0. -1.
         24    2    1    2    0    0  0.00000000000E+00 -0.71054273576E-14 -0.20659295434E+03  0.22153754443E+03  0.79988966797E+02 0.  0.
         66    2    3    3    0    0 -0.22260986863E+02  0.32378320225E+02 -0.12364649425E+03  0.12975501035E+03  0.20000034890E+01 0.  0.
        -13    1    3    3    0    0  0.22260986863E+02 -0.32378320225E+02 -0.82946460091E+02  0.91782534082E+02  0.10566000000E+00 0.  1.
         13    1    4    4    0    0 -0.18210315212E+02  0.26154585122E+02 -0.97802546192E+02  0.10286411964E+03  0.10566000000E+00 0. -1.
        -13    1    4    4    0    0 -0.21782634028E+01  0.31761090415E+01 -0.13593616234E+02  0.14129050444E+02  0.10566000000E+00 0.  1.
         14    1    4    4    0    0 -0.18724082477E+01  0.30476260612E+01 -0.12250331821E+02  0.12761840267E+02  0.00000000000E+00 0. -1.
<mgrwt>
<rscale>  0 0.79988967E+02</rscale>
<asrwt>0</asrwt>
<pdfrwt beam="1">  1        2 0.32933111E-01 0.79988967E+02</pdfrwt>
<pdfrwt beam="2">  1       -1 0.11495840E-02 0.79988967E+02</pdfrwt>
<totfact> 0.22596848E+05</totfact>
</mgrwt>
</event>
<event>
 8    1  0.1600673E-013  0.8022226E+02  0.7818608E-02  0.1328422E+00
         -1   -1    0    0    0  501 -0.00000000000E+00  0.00000000000E+00  0.13219508877E+01  0.13219604953E+01  0.50400000000E-02 0.  1.
          2   -1    0    0  501    0  0.00000000000E+00 -0.00000000000E+00 -0.12170625384E+04  0.12170625384E+04  0.25500000000E-02 0. -1.
         24    2    1    2    0    0  0.00000000000E+00  0.00000000000E+00 -0.12157405875E+04  0.12183844989E+04  0.80222260190E+02 0.  0.
         66    2    3    3    0    0 -0.12419709609E+02  0.11787594505E+02 -0.11587222754E+04  0.11588505115E+04  0.20000018012E+01 0.  0.
        -13    1    3    3    0    0  0.12419709609E+02 -0.11787594505E+02 -0.57018312095E+02  0.59533987345E+02  0.10566000000E+00 0.  1.
         13    1    4    4    0    0 -0.91220540407E+01  0.85447625536E+01 -0.80156203806E+03  0.80165948934E+03  0.10566000000E+00 0. -1.
        -13    1    4    4    0    0 -0.27515071792E+00  0.91144398956E-01 -0.17547025658E+02  0.17549737568E+02  0.10566000000E+00 0. -1.
         14    1    4    4    0    0 -0.30225048507E+01  0.31516875527E+01 -0.33961321168E+03  0.33964128462E+03  0.00000000000E+00 0. -1.
<mgrwt>
<rscale>  0 0.80222260E+02</rscale>
<asrwt>0</asrwt>
<pdfrwt beam="1">  1        2 0.18723949E+00 0.80222260E+02</pdfrwt>
<pdfrwt beam="2">  1       -1 0.20337877E-03 0.80222260E+02</pdfrwt>
<totfact> 0.34729054E+05</totfact>
</mgrwt>
</event>
<event>
 8    1  0.1600673E-013  0.8098238E+02  0.7818608E-02  0.1326286E+00
         -1   -1    0    0    0  501 -0.00000000000E+00  0.00000000000E+00  0.39460904995E+01  0.39460937181E+01  0.50400000000E-02 0.  1.
          2   -1    0    0  501    0  0.00000000000E+00 -0.00000000000E+00 -0.41548352678E+03  0.41548352679E+03  0.25500000000E-02 0. -1.
         24    2    1    2    0    0  0.35527136788E-14  0.00000000000E+00 -0.41153743628E+03  0.41942962051E+03  0.80982375227E+02 0.  0.
         66    2    3    3    0    0  0.21617120265E+02 -0.22279509449E+01 -0.38269353434E+03  0.38331528129E+03  0.19999975051E+01 0.  0.
        -13    1    3    3    0    0 -0.21617120265E+02  0.22279509449E+01 -0.28843901945E+02  0.36114339221E+02  0.10566000000E+00 0.  1.
         13    1    4    4    0    0  0.11731294958E+02 -0.91523004799E+00 -0.20424473995E+03  0.20458344480E+03  0.10566000000E+00 0. -1.
        -13    1    4    4    0    0  0.50476659760E+01 -0.10358343373E+01 -0.10124584235E+03  0.10137693841E+03  0.10566000000E+00 0.  1.
        -14    1    4    4    0    0  0.48381593305E+01 -0.27688655955E+00 -0.77202952037E+02  0.77354898068E+02  0.00000000000E+00 0.  1.
<mgrwt>
<rscale>  0 0.80982375E+02</rscale>
<asrwt>0</asrwt>
<pdfrwt beam="1">  1        2 0.63920508E-01 0.80982375E+02</pdfrwt>
<pdfrwt beam="2">  1       -1 0.60709142E-03 0.80982375E+02</pdfrwt>
<totfact> 0.27730587E+05</totfact>
</mgrwt>
</event>
<event>
 8    1  0.1600673E-013  0.7890492E+02  0.7818608E-02  0.1332188E+00
         -1   -1    0    0    0  501 -0.00000000000E+00  0.00000000000E+00  0.58720938452E+00  0.58723101320E+00  0.50400000000E-02 0.  1.
          2   -1    0    0  501    0  0.00000000000E+00 -0.00000000000E+00 -0.26506185118E+04  0.26506185118E+04  0.25500000000E-02 0. -1.
         24    2    1    2    0    0  0.00000000000E+00  0.00000000000E+00 -0.26500313025E+04  0.26512057429E+04  0.78904923487E+02 0.  0.
         66    2    3    3    0    0 -0.30520062309E+01 -0.11183847670E+02 -0.25920536816E+04  0.25920803771E+04  0.19999735344E+01 0.  0.
        -13    1    3    3    0    0  0.30520062309E+01  0.11183847670E+02 -0.57977620867E+02  0.59125365759E+02  0.10566000000E+00 0.  1.
         13    1    4    4    0    0 -0.19740687326E+01 -0.72177221104E+01 -0.15175470644E+04  0.15175655163E+04  0.10566000000E+00 0. -1.
        -13    1    4    4    0    0 -0.43494233602E-02 -0.62891258028E+00 -0.24604822896E+03  0.24604905545E+03  0.10566000000E+00 0.  1.
        -14    1    4    4    0    0 -0.10735880750E+01 -0.33372129796E+01 -0.82845838827E+03  0.82846580538E+03  0.00000000000E+00 0.  1.
<mgrwt>
<rscale>  0 0.78904923E+02</rscale>
<asrwt>0</asrwt>
<pdfrwt beam="1">  1        2 0.40777788E+00 0.78904923E+02</pdfrwt>
<pdfrwt beam="2">  1       -1 0.90343692E-04 0.78904923E+02</pdfrwt>
<totfact> 0.19636285E+05</totfact>
</mgrwt>
</event>
<event>
 8    1  0.1600673E-013  0.7995587E+02  0.7818608E-02  0.1329177E+00
         -1   -1    0    0    0  501 -0.00000000000E+00  0.00000000000E+00  0.18824544716E+01  0.18824612186E+01  0.50400000000E-02 0.  1.
          2   -1    0    0  501    0  0.00000000000E+00 -0.00000000000E+00 -0.84901514245E+03  0.84901514246E+03  0.25500000000E-02 0. -1.
         24    2    1    2    0    0  0.00000000000E+00  0.00000000000E+00 -0.84713268798E+03  0.85089760368E+03  0.79955868415E+02 0.  0.
         66    2    3    3    0    0  0.55372534382E+01 -0.10955072838E+02 -0.82844782176E+03  0.82854116867E+03  0.20000004926E+01 0.  0.
        -13    1    3    3    0    0 -0.55372534382E+01  0.10955072838E+02 -0.18684866223E+02  0.22356435009E+02  0.10566000000E+00 0.  1.
         13    1    4    4    0    0  0.51449772052E+00 -0.32212155764E+00 -0.56358455650E+02  0.56361823582E+02  0.10566000000E+00 0. -1.
        -13    1    4    4    0    0  0.17860177676E+01 -0.29410285685E+01 -0.22700574317E+03  0.22703184381E+03  0.10566000000E+00 0.  1.
         14    1    4    4    0    0  0.32367379501E+01 -0.76919227114E+01 -0.54508362294E+03  0.54514750128E+03  0.00000000000E+00 0. -1.
<mgrwt>
<rscale>  0 0.79955868E+02</rscale>
<asrwt>0</asrwt>
<pdfrwt beam="1">  1        2 0.13061741E+00 0.79955868E+02</pdfrwt>
<pdfrwt beam="2">  1       -1 0.28960958E-03 0.79955868E+02</pdfrwt>
<totfact> 0.34739308E+05</totfact>
</mgrwt>
</event>
<event>
 8    1  0.1600673E-013  0.8070565E+02  0.7818608E-02  0.1327061E+00
         -1   -1    0    0    0  501 -0.00000000000E+00  0.00000000000E+00  0.17476235420E+01  0.17476308095E+01  0.50400000000E-02 0.  1.
          2   -1    0    0  501    0  0.00000000000E+00 -0.00000000000E+00 -0.93174944008E+03  0.93174944009E+03  0.25500000000E-02 0. -1.
         24    2    1    2    0    0  0.00000000000E+00  0.00000000000E+00 -0.93000181654E+03  0.93349707090E+03  0.80705654089E+02 0.  0.
         66    2    3    3    0    0 -0.11486706702E+02  0.10649055602E+02 -0.89512451973E+03  0.89526378941E+03  0.19999992530E+01 0.  0.
        -13    1    3    3    0    0  0.11486706702E+02 -0.10649055602E+02 -0.34877296814E+02  0.38233281486E+02  0.10566000000E+00 0.  1.
         13    1    4    4    0    0 -0.55166910003E+01  0.52276453199E+01 -0.41495709677E+03  0.41502670454E+03  0.10566000000E+00 0. -1.
        -13    1    4    4    0    0 -0.48978995347E+01  0.38289210871E+01 -0.38624495287E+03  0.38629499717E+03  0.10566000000E+00 0.  1.
        -14    1    4    4    0    0 -0.10721161669E+01  0.15924891950E+01 -0.93922470084E+02  0.93942087701E+02  0.00000000000E+00 0.  1.
<mgrwt>
<rscale>  0 0.80705654E+02</rscale>
<asrwt>0</asrwt>
<pdfrwt beam="1">  1        2 0.14334567E+00 0.80705654E+02</pdfrwt>
<pdfrwt beam="2">  1       -1 0.26886646E-03 0.80705654E+02</pdfrwt>
<totfact> 0.34276526E+05</totfact>
</mgrwt>
</event>
<event>
 8    1  0.1600673E-013  0.7953353E+02  0.7818608E-02  0.1330380E+00
          2   -1    0    0  501    0  0.00000000000E+00  0.00000000000E+00  0.40602756025E+02  0.40602756105E+02  0.25500000000E-02 0. -1.
         -1   -1    0    0    0  501 -0.00000000000E+00 -0.00000000000E+00 -0.38947981716E+02  0.38947982042E+02  0.50400000000E-02 0.  1.
         24    2    1    2    0    0 -0.88817841970E-15 -0.35527136788E-14  0.16547743089E+01  0.79550738148E+02  0.79533525395E+02 0.  0.
         66    2    3    3    0    0  0.60476119883E+01  0.26159874650E+02  0.30134041978E+02  0.40410062330E+02  0.19999997818E+01 0.  0.
        -13    1    3    3    0    0 -0.60476119883E+01 -0.26159874650E+02 -0.28479267669E+02  0.39140675818E+02  0.10566000000E+00 0.  1.
         13    1    4    4    0    0  0.40044089557E+01  0.16525852010E+02  0.20289422704E+02  0.26472833499E+02  0.10566000000E+00 0. -1.
        -13    1    4    4    0    0  0.17579598340E+00  0.17552830525E+01  0.16764393522E+01  0.24358850053E+01  0.10566000000E+00 0.  1.
         14    1    4    4    0    0  0.18674070492E+01  0.78787395873E+01  0.81681799213E+01  0.11501343826E+02  0.00000000000E+00 0. -1.
<mgrwt>
<rscale>  0 0.79533525E+02</rscale>
<asrwt>0</asrwt>
<pdfrwt beam="1">  1        2 0.62465778E-02 0.79533525E+02</pdfrwt>
<pdfrwt beam="2">  1       -1 0.59919973E-02 0.79533525E+02</pdfrwt>
<totfact> 0.14531975E+05</totfact>
</mgrwt>
</event>
<event>
 8    1  0.1600673E-013  0.8057207E+02  0.7818608E-02  0.1327436E+00
         -1   -1    0    0    0  501 -0.00000000000E+00  0.00000000000E+00  0.13853941154E+01  0.13854032830E+01  0.50400000000E-02 0.  1.
          2   -1    0    0  501    0  0.00000000000E+00 -0.00000000000E+00 -0.11714784086E+04  0.11714784086E+04  0.25500000000E-02 0. -1.
         24    2    1    2    0    0  0.00000000000E+00  0.00000000000E+00 -0.11700930144E+04  0.11728638118E+04  0.80572071372E+02 0.  0.
         66    2    3    3    0    0  0.81108635333E+01 -0.19340571877E+02 -0.10856815691E+04  0.10858859578E+04  0.20000003406E+01 0.  0.
        -13    1    3    3    0    0 -0.81108635333E+01  0.19340571877E+02 -0.84411445309E+02  0.86977854026E+02  0.10566000000E+00 0.  1.
         13    1    4    4    0    0  0.61820134046E+01 -0.14483481124E+02 -0.77226982950E+03  0.77243037824E+03  0.10566000000E+00 0. -1.
        -13    1    4    4    0    0  0.16124870398E+01 -0.37234664466E+01 -0.24920523227E+03  0.24923828612E+03  0.10566000000E+00 0.  1.
         14    1    4    4    0    0  0.31636308879E+00 -0.11336243070E+01 -0.64206507372E+02  0.64217293454E+02  0.00000000000E+00 0. -1.
<mgrwt>
<rscale>  0 0.80572071E+02</rscale>
<asrwt>0</asrwt>
<pdfrwt beam="1">  1        2 0.18022666E+00 0.80572071E+02</pdfrwt>
<pdfrwt beam="2">  1       -1 0.21313920E-03 0.80572071E+02</pdfrwt>
<totfact> 0.34477425E+05</totfact>
</mgrwt>
</event>
<event>
 8    1  0.1600673E-013  0.7798353E+02  0.7818608E-02  0.1334873E+00
         -1   -1    0    0    0  501 -0.00000000000E+00  0.00000000000E+00  0.41094215692E+01  0.41094246599E+01  0.50400000000E-02 0.  1.
          2   -1    0    0  501    0  0.00000000000E+00 -0.00000000000E+00 -0.36996861628E+03  0.36996861629E+03  0.25500000000E-02 0. -1.
         24    2    1    2    0    0  0.00000000000E+00  0.00000000000E+00 -0.36585919471E+03  0.37407804095E+03  0.77983526245E+02 0.  0.
         66    2    3    3    0    0  0.36761931627E+02  0.88986088781E+01 -0.13812045474E+03  0.14321970841E+03  0.20000003589E+01 0.  0.
        -13    1    3    3    0    0 -0.36761931627E+02 -0.88986088781E+01 -0.22773873997E+03  0.23085833254E+03  0.10566000000E+00 0.  1.
         13    1    4    4    0    0  0.35242637717E+01  0.42431370164E+00 -0.14090641511E+02  0.14531270401E+02  0.10566000000E+00 0. -1.
        -13    1    4    4    0    0  0.15605794629E+02  0.43263324620E+01 -0.57548823411E+02  0.59784079976E+02  0.10566000000E+00 0.  1.
         14    1    4    4    0    0  0.17631873226E+02  0.41479627145E+01 -0.66480989822E+02  0.68904358032E+02  0.00000000000E+00 0. -1.
<mgrwt>
<rscale>  0 0.77983526E+02</rscale>
<asrwt>0</asrwt>
<pdfrwt beam="1">  1        2 0.56918222E-01 0.77983526E+02</pdfrwt>
<pdfrwt beam="2">  1       -1 0.63221924E-03 0.77983526E+02</pdfrwt>
<totfact> 0.29381186E+05</totfact>
</mgrwt>
</event>
<event>
 8    1  0.1600673E-013  0.8013350E+02  0.7818608E-02  0.1328673E+00
          2   -1    0    0  501    0  0.00000000000E+00  0.00000000000E+00  0.12095492472E+03  0.12095492475E+03  0.25500000000E-02 0. -1.
         -1   -1    0    0    0  501 -0.00000000000E+00 -0.00000000000E+00 -0.13272252743E+02  0.13272253700E+02  0.50400000000E-02 0.  1.
         24    2    1    2    0    0 -0.35527136788E-14  0.27755575616E-16  0.10768267198E+03  0.13422717845E+03  0.80133498549E+02 0.  0.
         66    2    3    3    0    0  0.18375864647E+02 -0.14756406072E+00  0.11346601196E+03  0.11496186344E+03  0.19999996629E+01 0.  0.
        -13    1    3    3    0    0 -0.18375864647E+02  0.14756406072E+00 -0.57833399885E+01  0.19265315002E+02  0.10566000000E+00 0.  1.
         13    1    4    4    0    0  0.12077089008E+02 -0.32079196081E+00  0.77026235940E+02  0.77968013785E+02  0.10566000000E+00 0. -1.
        -13    1    4    4    0    0  0.29003423448E+01 -0.32451643485E+00  0.15170282507E+02  0.15448816524E+02  0.10566000000E+00 0.  1.
        -14    1    4    4    0    0  0.33984332941E+01  0.49774433494E+00  0.21269493518E+02  0.21545033135E+02  0.00000000000E+00 0.  1.
<mgrwt>
<rscale>  0 0.80133499E+02</rscale>
<asrwt>0</asrwt>
<pdfrwt beam="1">  1        2 0.18608450E-01 0.80133499E+02</pdfrwt>
<pdfrwt beam="2">  1       -1 0.20418851E-02 0.80133499E+02</pdfrwt>
<totfact> 0.18647869E+05</totfact>
</mgrwt>
</event>
<event>
 8    1  0.1600673E-013  0.7901459E+02  0.7818608E-02  0.1331871E+00
          2   -1    0    0  501    0  0.00000000000E+00  0.00000000000E+00  0.37429915477E+03  0.37429915478E+03  0.25500000000E-02 0. -1.
         -1   -1    0    0    0  501 -0.00000000000E+00 -0.00000000000E+00 -0.41699958867E+01  0.41699989325E+01  0.50400000000E-02 0.  1.
         24    2    1    2    0    0  0.44408920985E-15 -0.71054273576E-14  0.37012915888E+03  0.37846915371E+03  0.79014593938E+02 0.  0.
         66    2    3    3    0    0 -0.35507461270E+01 -0.30914448550E+02  0.30157854479E+03  0.30318629521E+03  0.19999999267E+01 0.  0.
        -13    1    3    3    0    0  0.35507461270E+01  0.30914448550E+02  0.68550614095E+02  0.75282858500E+02  0.10566000000E+00 0.  1.
         13    1    4    4    0    0 -0.20054300576E+01 -0.17705266936E+02  0.17602602495E+03  0.17692560824E+03  0.10566000000E+00 0. -1.
        -13    1    4    4    0    0 -0.70448465339E+00 -0.95580622233E+01  0.86870935051E+02  0.87398074194E+02  0.10566000000E+00 0.  1.
         14    1    4    4    0    0 -0.84083141593E+00 -0.36511193899E+01  0.38681584790E+02  0.38862612780E+02  0.00000000000E+00 0. -1.
<mgrwt>
<rscale>  0 0.79014594E+02</rscale>
<asrwt>0</asrwt>
<pdfrwt beam="1">  1        2 0.57584503E-01 0.79014594E+02</pdfrwt>
<pdfrwt beam="2">  1       -1 0.64153787E-03 0.79014594E+02</pdfrwt>
<totfact> 0.28508354E+05</totfact>
</mgrwt>
</event>
<event>
 8    1  0.1600673E-013  0.8066448E+02  0.7818608E-02  0.1327176E+00
         -1   -1    0    0    0  501 -0.00000000000E+00  0.00000000000E+00  0.42699676208E+02  0.42699676506E+02  0.50400000000E-02 0.  1.
          2   -1    0    0  501    0  0.00000000000E+00 -0.00000000000E+00 -0.38096066150E+02  0.38096066235E+02  0.25500000000E-02 0. -1.
         24    2    1    2    0    0  0.88817841970E-15 -0.71054273576E-14  0.46036100586E+01  0.80795742740E+02  0.80664483011E+02 0.  0.
         66    2    3    3    0    0  0.62626514801E+01 -0.36235328050E+02 -0.14230155667E+02  0.39480591792E+02  0.19999988780E+01 0.  0.
        -13    1    3    3    0    0 -0.62626514801E+01  0.36235328050E+02  0.18833765726E+02  0.41315150948E+02  0.10566000000E+00 0.  1.
         13    1    4    4    0    0  0.12772612540E+01 -0.10277363284E+02 -0.40570745256E+01  0.11123246384E+02  0.10566000000E+00 0. -1.
        -13    1    4    4    0    0  0.29274992039E+01 -0.11785065520E+02 -0.44065468690E+01  0.12918468959E+02  0.10566000000E+00 0.  1.
        -14    1    4    4    0    0  0.20578910222E+01 -0.14172899246E+02 -0.57665342724E+01  0.15438876449E+02  0.00000000000E+00 0.  1.
<mgrwt>
<rscale>  0 0.80664483E+02</rscale>
<asrwt>0</asrwt>
<pdfrwt beam="1">  1        2 0.58609333E-02 0.80664483E+02</pdfrwt>
<pdfrwt beam="2">  1       -1 0.65691810E-02 0.80664483E+02</pdfrwt>
<totfact> 0.13793733E+05</totfact>
</mgrwt>
</event>
<event>
 8    1  0.1600673E-013  0.7805786E+02  0.7818608E-02  0.1334655E+00
         -1   -1    0    0    0  501 -0.00000000000E+00  0.00000000000E+00  0.35890836927E+01  0.35890872314E+01  0.50400000000E-02 0.  1.
          2   -1    0    0  501    0  0.00000000000E+00 -0.00000000000E+00 -0.42441375787E+03  0.42441375788E+03  0.25500000000E-02 0. -1.
         24    2    1    2    0    0  0.00000000000E+00  0.00000000000E+00 -0.42082467418E+03  0.42800284511E+03  0.78057856907E+02 0.  0.
         66    2    3    3    0    0 -0.97714450280E+01  0.25140497758E+02 -0.36502767609E+03  0.36602831869E+03  0.20000011677E+01 0.  0.
        -13    1    3    3    0    0  0.97714450280E+01 -0.25140497758E+02 -0.55796998086E+02  0.61974526420E+02  0.10566000000E+00 0.  1.
         13    1    4    4    0    0 -0.50975199840E+01  0.13112548968E+02 -0.17947266277E+03  0.18002325266E+03  0.10566000000E+00 0. -1.
        -13    1    4    4    0    0 -0.42170275686E+01  0.11257016055E+02 -0.17031934797E+03  0.17074306776E+03  0.10566000000E+00 0.  1.
        -14    1    4    4    0    0 -0.45689747538E+00  0.77093273486E+00 -0.15235665350E+02  0.15261998272E+02  0.00000000000E+00 0.  1.
<mgrwt>
<rscale>  0 0.78057857E+02</rscale>
<asrwt>0</asrwt>
<pdfrwt beam="1">  1        2 0.65294384E-01 0.78057857E+02</pdfrwt>
<pdfrwt beam="2">  1       -1 0.55216733E-03 0.78057857E+02</pdfrwt>
<totfact> 0.30748063E+05</totfact>
</mgrwt>
</event>
<event>
 8    1  0.1600673E-013  0.8060432E+02  0.7818608E-02  0.1327345E+00
         -1   -1    0    0    0  501 -0.00000000000E+00  0.00000000000E+00  0.30396130594E+01  0.30396172378E+01  0.50400000000E-02 0.  1.
          2   -1    0    0  501    0  0.00000000000E+00 -0.00000000000E+00 -0.53436503676E+03  0.53436503677E+03  0.25500000000E-02 0. -1.
         24    2    1    2    0    0  0.00000000000E+00  0.00000000000E+00 -0.53132542370E+03  0.53740465401E+03  0.80604319204E+02 0.  0.
         66    2    3    3    0    0 -0.11807800464E+02  0.32302034301E+02 -0.40558482548E+03  0.40704532455E+03  0.20000008200E+01 0.  0.
        -13    1    3    3    0    0  0.11807800464E+02 -0.32302034301E+02 -0.12574059822E+03  0.13035932946E+03  0.10566000000E+00 0.  1.
         13    1    4    4    0    0 -0.10734201951E+02  0.29301776273E+02 -0.36220520214E+03  0.36354702146E+03  0.10566000000E+00 0. -1.
        -13    1    4    4    0    0 -0.46811369723E+00  0.11088040802E+01 -0.18620357105E+02  0.18659513382E+02  0.10566000000E+00 0.  1.
        -14    1    4    4    0    0 -0.60548481543E+00  0.18914539475E+01 -0.24759266235E+02  0.24838789713E+02  0.00000000000E+00 0.  1.
<mgrwt>
<rscale>  0 0.80604319E+02</rscale>
<asrwt>0</asrwt>
<pdfrwt beam="1">  1        2 0.82209931E-01 0.80604319E+02</pdfrwt>
<pdfrwt beam="2">  1       -1 0.46763352E-03 0.80604319E+02</pdfrwt>
<totfact> 0.30486338E+05</totfact>
</mgrwt>
</event>
<event>
 8    1  0.1600673E-013  0.8207645E+02  0.7818608E-02  0.1323260E+00
         -1   -1    0    0    0  501 -0.00000000000E+00  0.00000000000E+00  0.87488492490E+02  0.87488492635E+02  0.50400000000E-02 0.  1.
          2   -1    0    0  501    0  0.00000000000E+00 -0.00000000000E+00 -0.19249796892E+02  0.19249797061E+02  0.25500000000E-02 0. -1.
         24    2    1    2    0    0  0.00000000000E+00  0.00000000000E+00  0.68238695597E+02  0.10673828970E+03  0.82076445528E+02 0.  0.
         66    2    3    3    0    0 -0.19761845178E+02  0.19440628567E+02 -0.51696779864E+01  0.28270021969E+02  0.20000019195E+01 0.  0.
        -13    1    3    3    0    0  0.19761845178E+02 -0.19440628567E+02  0.73408373584E+02  0.78468267728E+02  0.10566000000E+00 0.  1.
         13    1    4    4    0    0 -0.47906639336E+01  0.56241923513E+01 -0.12857619841E+01  0.74997565591E+01  0.10566000000E+00 0. -1.
        -13    1    4    4    0    0 -0.21864022391E+01  0.18142696523E+01 -0.18818089314E+00  0.28492990728E+01  0.10566000000E+00 0.  1.
         14    1    4    4    0    0 -0.12784779005E+02  0.12002166564E+02 -0.36957351092E+01  0.17920966337E+02  0.00000000000E+00 0. -1.
<mgrwt>
<rscale>  0 0.82076446E+02</rscale>
<asrwt>0</asrwt>
<pdfrwt beam="1">  1        2 0.29615072E-02 0.82076446E+02</pdfrwt>
<pdfrwt beam="2">  1       -1 0.13459768E-01 0.82076446E+02</pdfrwt>
<totfact> 0.11440921E+05</totfact>
</mgrwt>
</event>
<event>
 8    1  0.1600673E-013  0.7920169E+02  0.7818608E-02  0.1331332E+00
         -1   -1    0    0    0  501 -0.00000000000E+00  0.00000000000E+00  0.27424990605E+01  0.27425036916E+01  0.50400000000E-02 0.  1.
          2   -1    0    0  501    0  0.00000000000E+00 -0.00000000000E+00 -0.57182354952E+03  0.57182354953E+03  0.25500000000E-02 0. -1.
         24    2    1    2    0    0  0.44408920985E-15  0.00000000000E+00 -0.56908105046E+03  0.57456605322E+03  0.79201688856E+02 0.  0.
         66    2    3    3    0    0  0.24916586302E+01 -0.35989261562E+02 -0.40276807495E+03  0.40438540715E+03  0.20000007071E+01 0.  0.
        -13    1    3    3    0    0 -0.24916586302E+01  0.35989261562E+02 -0.16631297551E+03  0.17018064607E+03  0.10566000000E+00 0.  1.
         13    1    4    4    0    0  0.15637342223E+01 -0.10996554327E+02 -0.12067555786E+03  0.12118568769E+03  0.10566000000E+00 0.  1.
        -13    1    4    4    0    0  0.22952541760E+00 -0.24807794987E+01 -0.29054633670E+02  0.29161444590E+02  0.10566000000E+00 0. -1.
         14    1    4    4    0    0  0.69839899021E+00 -0.22511927737E+02 -0.25303788343E+03  0.25403827487E+03  0.00000000000E+00 0. -1.
<mgrwt>
<rscale>  0 0.79201689E+02</rscale>
<asrwt>0</asrwt>
<pdfrwt beam="1">  1        2 0.87972759E-01 0.79201689E+02</pdfrwt>
<pdfrwt beam="2">  1       -1 0.42192374E-03 0.79201689E+02</pdfrwt>
<totfact> 0.32564764E+05</totfact>
</mgrwt>
</event>
<event>
 8    1  0.1600673E-013  0.7941520E+02  0.7818608E-02  0.1330719E+00
         -1   -1    0    0    0  501 -0.00000000000E+00  0.00000000000E+00  0.63944446860E+01  0.63944466723E+01  0.50400000000E-02 0.  1.
          2   -1    0    0  501    0  0.00000000000E+00 -0.00000000000E+00 -0.24657233332E+03  0.24657233333E+03  0.25500000000E-02 0. -1.
         24    2    1    2    0    0  0.00000000000E+00  0.35527136788E-14 -0.24017788863E+03  0.25296678000E+03  0.79415197522E+02 0.  0.
         66    2    3    3    0    0  0.35824152945E+02 -0.16971639034E+02 -0.12593559026E+03  0.13204233927E+03  0.19999998752E+01 0.  0.
        -13    1    3    3    0    0 -0.35824152945E+02  0.16971639034E+02 -0.11424229837E+03  0.12092444073E+03  0.10566000000E+00 0.  1.
         13    1    4    4    0    0  0.54029084177E+01 -0.21981016480E+01 -0.18156586807E+02  0.19070812221E+02  0.10566000000E+00 0. -1.
        -13    1    4    4    0    0  0.15728310081E+02 -0.82282031029E+01 -0.54573646680E+02  0.57387952920E+02  0.10566000000E+00 0.  1.
        -14    1    4    4    0    0  0.14692934447E+02 -0.65453342832E+01 -0.53205356774E+02  0.55583574129E+02  0.00000000000E+00 0.  1.
<mgrwt>
<rscale>  0 0.79415198E+02</rscale>
<asrwt>0</asrwt>
<pdfrwt beam="1">  1        2 0.37934198E-01 0.79415198E+02</pdfrwt>
<pdfrwt beam="2">  1       -1 0.98376107E-03 0.79415198E+02</pdfrwt>
<totfact> 0.24213191E+05</totfact>
</mgrwt>
</event>
<event>
 8    1  0.1600673E-013  0.8028118E+02  0.7818608E-02  0.1328255E+00
          2   -1    0    0  501    0  0.00000000000E+00  0.00000000000E+00  0.55278042578E+01  0.55278048460E+01  0.25500000000E-02 0. -1.
         -1   -1    0    0    0  501 -0.00000000000E+00 -0.00000000000E+00 -0.29148405457E+03  0.29148405461E+03  0.50400000000E-02 0.  1.
         24    2    1    2    0    0  0.00000000000E+00  0.00000000000E+00 -0.28595625031E+03  0.29701185946E+03  0.80281178162E+02 0.  0.
         66    2    3    3    0    0  0.23688199221E+02 -0.30865757918E+02 -0.10692425666E+03  0.11380080164E+03  0.19999990613E+01 0.  0.
        -13    1    3    3    0    0 -0.23688199221E+02  0.30865757918E+02 -0.17903199365E+03  0.18321105782E+03  0.10566000000E+00 0.  1.
         13    1    4    4    0    0  0.47919456847E+01 -0.58095117046E+01 -0.21052910246E+02  0.22359547481E+02  0.10566000000E+00 0. -1.
        -13    1    4    4    0    0  0.46187381881E+01 -0.53696684506E+01 -0.17916866502E+02  0.19266326868E+02  0.10566000000E+00 0.  1.
        -14    1    4    4    0    0  0.14277515349E+02 -0.19686577763E+02 -0.67954479916E+02  0.72174927289E+02  0.00000000000E+00 0.  1.
<mgrwt>
<rscale>  0 0.80281178E+02</rscale>
<asrwt>0</asrwt>
<pdfrwt beam="1">  1        2 0.85043170E-03 0.80281178E+02</pdfrwt>
<pdfrwt beam="2">  1       -1 0.44843689E-01 0.80281178E+02</pdfrwt>
<totfact> 0.86653569E+04</totfact>
</mgrwt>
</event>
<event>
 8    1  0.1600673E-013  0.7928365E+02  0.7818608E-02  0.1331097E+00
          2   -1    0    0  501    0  0.00000000000E+00  0.00000000000E+00  0.26010709429E+03  0.26010709431E+03  0.25500000000E-02 0. -1.
         -1   -1    0    0    0  501 -0.00000000000E+00 -0.00000000000E+00 -0.60416427138E+01  0.60416448160E+01  0.50400000000E-02 0.  1.
         24    2    1    2    0    0 -0.22204460493E-15 -0.35527136788E-14  0.25406545158E+03  0.26614873912E+03  0.79283653106E+02 0.  0.
         66    2    3    3    0    0  0.12704449811E+01  0.31063158332E+02  0.20954161629E+03  0.21184480824E+03  0.19999965416E+01 0.  0.
        -13    1    3    3    0    0 -0.12704449811E+01 -0.31063158332E+02  0.44523835291E+02  0.54303930881E+02  0.10566000000E+00 0.  1.
         13    1    4    4    0    0  0.10438099916E+01  0.27323040063E+02  0.18357655476E+03  0.18560172596E+03  0.10566000000E+00 0. -1.
        -13    1    4    4    0    0 -0.23237413845E+00  0.10320697394E+01  0.72259246129E+01  0.73037193425E+01  0.10566000000E+00 0.  1.
         14    1    4    4    0    0  0.45900912797E+00  0.27080485295E+01  0.18739136910E+02  0.18939362934E+02  0.00000000000E+00 0. -1.
<mgrwt>
<rscale>  0 0.79283653E+02</rscale>
<asrwt>0</asrwt>
<pdfrwt beam="1">  1        2 0.40016466E-01 0.79283653E+02</pdfrwt>
<pdfrwt beam="2">  1       -1 0.92948390E-03 0.79283653E+02</pdfrwt>
<totfact> 0.24789519E+05</totfact>
</mgrwt>
</event>
<event>
 8    1  0.1600673E-013  0.7629257E+02  0.7818608E-02  0.1339914E+00
         -1   -1    0    0    0  501 -0.00000000000E+00  0.00000000000E+00  0.72001704429E+02  0.72001704605E+02  0.50400000000E-02 0.  1.
          2   -1    0    0  501    0  0.00000000000E+00 -0.00000000000E+00 -0.20209783663E+02  0.20209783823E+02  0.25500000000E-02 0. -1.
         24    2    1    2    0    0  0.00000000000E+00  0.00000000000E+00  0.51791920766E+02  0.92211488428E+02  0.76292565441E+02 0.  0.
         66    2    3    3    0    0  0.20101391353E+02  0.11790745244E+02 -0.10547796839E+02  0.25658207796E+02  0.20000003544E+01 0.  0.
        -13    1    3    3    0    0 -0.20101391353E+02 -0.11790745244E+02  0.62339717605E+02  0.66553280632E+02  0.10566000000E+00 0.  1.
         13    1    4    4    0    0  0.60280532216E+01  0.29556765228E+01 -0.31474326115E+01  0.74155880030E+01  0.10566000000E+00 0. -1.
        -13    1    4    4    0    0  0.81402630597E+01  0.54373999384E+01 -0.36779727448E+01  0.10457908410E+02  0.10566000000E+00 0.  1.
        -14    1    4    4    0    0  0.59330750720E+01  0.33976687825E+01 -0.37223914830E+01  0.77847113831E+01  0.00000000000E+00 0.  1.
<mgrwt>
<rscale>  0 0.76292565E+02</rscale>
<asrwt>0</asrwt>
<pdfrwt beam="1">  1        2 0.31091975E-02 0.76292565E+02</pdfrwt>
<pdfrwt beam="2">  1       -1 0.11077185E-01 0.76292565E+02</pdfrwt>
<totfact> 0.14248043E+05</totfact>
</mgrwt>
</event>
<event>
 8    1  0.1600673E-013  0.7903482E+02  0.7818608E-02  0.1331813E+00
         -1   -1    0    0    0  501 -0.00000000000E+00  0.00000000000E+00  0.59015578490E+01  0.59015600011E+01  0.50400000000E-02 0.  1.
          2   -1    0    0  501    0  0.00000000000E+00 -0.00000000000E+00 -0.26461238576E+03  0.26461238577E+03  0.25500000000E-02 0. -1.
         24    2    1    2    0    0  0.00000000000E+00  0.00000000000E+00 -0.25871082791E+03  0.27051394577E+03  0.79034817514E+02 0.  0.
         66    2    3    3    0    0  0.17160445769E+02 -0.17327568320E+02 -0.23575710899E+03  0.23702350088E+03  0.20000017072E+01 0.  0.
        -13    1    3    3    0    0 -0.17160445769E+02  0.17327568320E+02 -0.22953718920E+02  0.33490444893E+02  0.10566000000E+00 0.  1.
         13    1    4    4    0    0  0.81847313786E+01 -0.84715742212E+01 -0.10598461135E+03  0.10663726555E+03  0.10566000000E+00 0. -1.
        -13    1    4    4    0    0  0.61314930591E+01 -0.55110882550E+01 -0.85202482692E+02  0.85600476177E+02  0.10566000000E+00 0.  1.
         14    1    4    4    0    0  0.28442213308E+01 -0.33449058433E+01 -0.44570014948E+02  0.44785759149E+02  0.00000000000E+00 0. -1.
<mgrwt>
<rscale>  0 0.79034818E+02</rscale>
<asrwt>0</asrwt>
<pdfrwt beam="1">  1        2 0.40709589E-01 0.79034818E+02</pdfrwt>
<pdfrwt beam="2">  1       -1 0.90793235E-03 0.79034818E+02</pdfrwt>
<totfact> 0.25150268E+05</totfact>
</mgrwt>
</event>
<event>
 8    1  0.1600673E-013  0.8005607E+02  0.7818608E-02  0.1328892E+00
         -1   -1    0    0    0  501 -0.00000000000E+00  0.00000000000E+00  0.19593523820E+01  0.19593588641E+01  0.50400000000E-02 0.  1.
          2   -1    0    0  501    0  0.00000000000E+00 -0.00000000000E+00 -0.81773997758E+03  0.81773997759E+03  0.25500000000E-02 0. -1.
         24    2    1    2    0    0  0.35527136788E-14  0.00000000000E+00 -0.81578062520E+03  0.81969933645E+03  0.80056066135E+02 0.  0.
         66    2    3    3    0    0 -0.24396076499E+02  0.18293859651E+02 -0.67325584185E+03  0.67394900581E+03  0.19999985483E+01 0.  0.
        -13    1    3    3    0    0  0.24396076499E+02 -0.18293859651E+02 -0.14252478335E+03  0.14575033064E+03  0.10566000000E+00 0.  1.
         13    1    4    4    0    0 -0.10251064482E+02  0.67142824177E+01 -0.26860062143E+03  0.26888003070E+03  0.10566000000E+00 0. -1.
        -13    1    4    4    0    0 -0.13470000962E+02  0.11260205391E+02 -0.38841916583E+03  0.38881575675E+03  0.10566000000E+00 0.  1.
        -14    1    4    4    0    0 -0.67501105469E+00  0.31937184189E+00 -0.16236054593E+02  0.16253218359E+02  0.00000000000E+00 0.  1.
<mgrwt>
<rscale>  0 0.80056066E+02</rscale>
<asrwt>0</asrwt>
<pdfrwt beam="1">  1        2 0.12580588E+00 0.80056066E+02</pdfrwt>
<pdfrwt beam="2">  1       -1 0.30143998E-03 0.80056066E+02</pdfrwt>
<totfact> 0.34429143E+05</totfact>
</mgrwt>
</event>
<event>
 8    1  0.1600673E-013  0.7998737E+02  0.7818608E-02  0.1329087E+00
         -1   -1    0    0    0  501 -0.00000000000E+00  0.00000000000E+00  0.25921633613E+01  0.25921682610E+01  0.50400000000E-02 0.  1.
          2   -1    0    0  501    0  0.00000000000E+00 -0.00000000000E+00 -0.61704955553E+03  0.61704955554E+03  0.25500000000E-02 0. -1.
         24    2    1    2    0    0  0.00000000000E+00  0.00000000000E+00 -0.61445739217E+03  0.61964172380E+03  0.79987368243E+02 0.  0.
         66    2    3    3    0    0  0.11837657164E+02  0.47134391656E+01 -0.60089236605E+03  0.60103076645E+03  0.19999999458E+01 0.  0.
        -13    1    3    3    0    0 -0.11837657164E+02 -0.47134391656E+01 -0.13565026119E+02  0.18610957352E+02  0.10566000000E+00 0.  1.
         13    1    4    4    0    0  0.66263887957E+01  0.28761159083E+01 -0.31419689557E+03  0.31427994116E+03  0.10566000000E+00 0. -1.
        -13    1    4    4    0    0  0.85738311102E+00  0.72211654276E+00 -0.65867381799E+02  0.65877004388E+02  0.10566000000E+00 0.  1.
         14    1    4    4    0    0  0.43538852577E+01  0.11152067146E+01 -0.22082808869E+03  0.22087382089E+03  0.00000000000E+00 0. -1.
<mgrwt>
<rscale>  0 0.79987368E+02</rscale>
<asrwt>0</asrwt>
<pdfrwt beam="1">  1        2 0.94930584E-01 0.79987368E+02</pdfrwt>
<pdfrwt beam="2">  1       -1 0.39879523E-03 0.79987368E+02</pdfrwt>
<totfact> 0.32425038E+05</totfact>
</mgrwt>
</event>
<event>
 8    1  0.1600673E-013  0.8075523E+02  0.7818608E-02  0.1326922E+00
         -1   -1    0    0    0  501 -0.00000000000E+00  0.00000000000E+00  0.16020803547E+02  0.16020804340E+02  0.50400000000E-02 0.  1.
          2   -1    0    0  501    0  0.00000000000E+00 -0.00000000000E+00 -0.10176466112E+03  0.10176466115E+03  0.25500000000E-02 0. -1.
         24    2    1    2    0    0 -0.88817841970E-15  0.00000000000E+00 -0.85743857574E+02  0.11778546549E+03  0.80755227506E+02 0.  0.
         66    2    3    3    0    0 -0.64457955509E+01 -0.13974087302E+02 -0.97306595115E+02  0.98536271751E+02  0.20000003670E+01 0.  0.
        -13    1    3    3    0    0  0.64457955509E+01  0.13974087302E+02  0.11562737541E+02  0.19249193741E+02  0.10566000000E+00 0.  1.
         13    1    4    4    0    0 -0.10497114649E+01 -0.11771747814E+01 -0.99829770873E+01  0.10107355252E+02  0.10566000000E+00 0. -1.
        -13    1    4    4    0    0 -0.34922102508E+01 -0.96086205442E+01 -0.64204359094E+02  0.65013321803E+02  0.10566000000E+00 0.  1.
        -14    1    4    4    0    0 -0.19038738352E+01 -0.31882919764E+01 -0.23119258934E+02  0.23415594696E+02  0.00000000000E+00 0.  1.
<mgrwt>
<rscale>  0 0.80755228E+02</rscale>
<asrwt>0</asrwt>
<pdfrwt beam="1">  1        2 0.15656101E-01 0.80755228E+02</pdfrwt>
<pdfrwt beam="2">  1       -1 0.24647391E-02 0.80755228E+02</pdfrwt>
<totfact> 0.17370317E+05</totfact>
</mgrwt>
</event>
<event>
 8    1  0.1600673E-013  0.7882389E+02  0.7818608E-02  0.1332423E+00
          2   -1    0    0  501    0  0.00000000000E+00  0.00000000000E+00  0.18621227186E+02  0.18621227360E+02  0.25500000000E-02 0. -1.
         -1   -1    0    0    0  501 -0.00000000000E+00 -0.00000000000E+00 -0.83415620894E+02  0.83415621046E+02  0.50400000000E-02 0.  1.
         24    2    1    2    0    0  0.00000000000E+00 -0.88817841970E-15 -0.64794393708E+02  0.10203684841E+03  0.78823885826E+02 0.  0.
         66    2    3    3    0    0  0.32377456048E+02  0.72194093738E+01 -0.49309460669E+01  0.33596633187E+02  0.20000001303E+01 0.  0.
        -13    1    3    3    0    0 -0.32377456048E+02 -0.72194093738E+01 -0.59863447641E+02  0.68440215220E+02  0.10566000000E+00 0.  1.
         13    1    4    4    0    0  0.83406139270E+00  0.11876698844E+00 -0.93281115022E-01  0.85418347347E+00  0.10566000000E+00 0.  1.
        -13    1    4    4    0    0  0.48620239113E+00  0.32136752785E+00 -0.14117016673E+00  0.60890303389E+00  0.10566000000E+00 0.  1.
         14    1    4    4    0    0  0.31057192264E+02  0.67792748575E+01 -0.46964947852E+01  0.32133546679E+02  0.00000000000E+00 0. -1.
<mgrwt>
<rscale>  0 0.78823886E+02</rscale>
<asrwt>0</asrwt>
<pdfrwt beam="1">  1        2 0.28648042E-02 0.78823886E+02</pdfrwt>
<pdfrwt beam="2">  1       -1 0.12833172E-01 0.78823886E+02</pdfrwt>
<totfact> 0.12769951E+05</totfact>
</mgrwt>
</event>
<event>
 8    1  0.1600673E-013  0.8056069E+02  0.7818608E-02  0.1327468E+00
         -1   -1    0    0    0  501 -0.00000000000E+00  0.00000000000E+00  0.29481442898E+01  0.29481485979E+01  0.50400000000E-02 0.  1.
          2   -1    0    0  501    0  0.00000000000E+00 -0.00000000000E+00 -0.55034795966E+03  0.55034795967E+03  0.25500000000E-02 0. -1.
         24    2    1    2    0    0  0.00000000000E+00  0.00000000000E+00 -0.54739981537E+03  0.55329610827E+03  0.80560694837E+02 0.  0.
         66    2    3    3    0    0 -0.12075711291E+02  0.29004130754E+02 -0.44672506625E+03  0.44783294560E+03  0.19999868657E+01 0.  0.
        -13    1    3    3    0    0  0.12075711291E+02 -0.29004130754E+02 -0.10067474912E+03  0.10546316266E+03  0.10566000000E+00 0.  1.
         13    1    4    4    0    0 -0.33661353381E+01  0.83414537758E+01 -0.13469218753E+03  0.13499224890E+03  0.10566000000E+00 0. -1.
        -13    1    4    4    0    0 -0.67744881511E+01  0.16893794373E+02 -0.24664551946E+03  0.24731622958E+03  0.10566000000E+00 0.  1.
        -14    1    4    4    0    0 -0.19350878014E+01  0.37688826057E+01 -0.65387359257E+02  0.65524467121E+02  0.00000000000E+00 0.  1.
<mgrwt>
<rscale>  0 0.80560695E+02</rscale>
<asrwt>0</asrwt>
<pdfrwt beam="1">  1        2 0.84668835E-01 0.80560695E+02</pdfrwt>
<pdfrwt beam="2">  1       -1 0.45356143E-03 0.80560695E+02</pdfrwt>
<totfact> 0.30803497E+05</totfact>
</mgrwt>
</event>
<event>
 8    1  0.1600673E-013  0.8010879E+02  0.7818608E-02  0.1328743E+00
          2   -1    0    0  501    0  0.00000000000E+00  0.00000000000E+00  0.43905770617E+03  0.43905770617E+03  0.25500000000E-02 0. -1.
         -1   -1    0    0    0  501 -0.00000000000E+00 -0.00000000000E+00 -0.36540844991E+01  0.36540879749E+01  0.50400000000E-02 0.  1.
         24    2    1    2    0    0  0.00000000000E+00  0.88817841970E-15  0.43540362167E+03  0.44271179415E+03  0.80108794258E+02 0.  0.
         66    2    3    3    0    0 -0.16478700344E+02  0.67669893421E+01  0.41594154412E+03  0.41632764481E+03  0.19999997879E+01 0.  0.
        -13    1    3    3    0    0  0.16478700344E+02 -0.67669893421E+01  0.19462077547E+02  0.26384149338E+02  0.10566000000E+00 0.  1.
         13    1    4    4    0    0 -0.52198965472E+01  0.17787787070E+01  0.13152534506E+03  0.13164094702E+03  0.10566000000E+00 0. -1.
        -13    1    4    4    0    0 -0.12683236202E+01  0.77950458999E-01  0.28667530584E+02  0.28695874179E+02  0.10566000000E+00 0.  1.
         14    1    4    4    0    0 -0.99904801766E+01  0.49102601761E+01  0.25574866847E+03  0.25599082361E+03  0.00000000000E+00 0. -1.
<mgrwt>
<rscale>  0 0.80108794E+02</rscale>
<asrwt>0</asrwt>
<pdfrwt beam="1">  1        2 0.67547327E-01 0.80108794E+02</pdfrwt>
<pdfrwt beam="2">  1       -1 0.56216722E-03 0.80108794E+02</pdfrwt>
<totfact> 0.29071930E+05</totfact>
</mgrwt>
</event>
<event>
 8    1  0.1600673E-013  0.7979003E+02  0.7818608E-02  0.1329648E+00
         -1   -1    0    0    0  501 -0.00000000000E+00  0.00000000000E+00  0.50391782149E+01  0.50391807353E+01  0.50400000000E-02 0.  1.
          2   -1    0    0  501    0  0.00000000000E+00 -0.00000000000E+00 -0.31584747105E+03  0.31584747106E+03  0.25500000000E-02 0. -1.
         24    2    1    2    0    0  0.27755575616E-16  0.00000000000E+00 -0.31080829283E+03  0.32088665179E+03  0.79790026980E+02 0.  0.
         66    2    3    3    0    0  0.10236410864E+00  0.24892960886E+02 -0.28075067851E+03  0.28185920859E+03  0.20000009387E+01 0.  0.
        -13    1    3    3    0    0 -0.10236410864E+00 -0.24892960886E+02 -0.30057614324E+02  0.39027443203E+02  0.10566000000E+00 0.  1.
         13    1    4    4    0    0 -0.61864609752E-01  0.18952801960E+02 -0.20639499441E+03  0.20726340104E+03  0.10566000000E+00 0.  1.
        -13    1    4    4    0    0 -0.12492109535E+00  0.29646310215E+01 -0.33866566615E+02  0.33996472474E+02  0.10566000000E+00 0. -1.
        -14    1    4    4    0    0  0.28914981374E+00  0.29755279050E+01 -0.40489117486E+02  0.40599335077E+02  0.00000000000E+00 0.  1.
<mgrwt>
<rscale>  0 0.79790027E+02</rscale>
<asrwt>0</asrwt>
<pdfrwt beam="1">  1        2 0.48591903E-01 0.79790027E+02</pdfrwt>
<pdfrwt beam="2">  1       -1 0.77525863E-03 0.79790027E+02</pdfrwt>
<totfact> 0.26152948E+05</totfact>
</mgrwt>
</event>
<event>
 8    1  0.1600673E-013  0.7975034E+02  0.7818608E-02  0.1329761E+00
         -1   -1    0    0    0  501 -0.00000000000E+00  0.00000000000E+00  0.34604553996E+01  0.34604590699E+01  0.50400000000E-02 0.  1.
          2   -1    0    0  501    0  0.00000000000E+00 -0.00000000000E+00 -0.45948525788E+03  0.45948525789E+03  0.25500000000E-02 0. -1.
         24    2    1    2    0    0  0.00000000000E+00  0.00000000000E+00 -0.45602480248E+03  0.46294571696E+03  0.79750337752E+02 0.  0.
         66    2    3    3    0    0  0.17430628826E+02  0.33873959463E+02 -0.29603897333E+03  0.29848675963E+03  0.19999988378E+01 0.  0.
        -13    1    3    3    0    0 -0.17430628826E+02 -0.33873959463E+02 -0.15998582916E+03  0.16445895733E+03  0.10566000000E+00 0.  1.
         13    1    4    4    0    0  0.67803892726E+01  0.12962660664E+02 -0.11599220699E+03  0.11691110938E+03  0.10566000000E+00 0. -1.
        -13    1    4    4    0    0  0.48134263959E+01  0.11044034387E+02 -0.91354342655E+02  0.92145357209E+02  0.10566000000E+00 0.  1.
        -14    1    4    4    0    0  0.58368131574E+01  0.98672644122E+01 -0.88692423683E+02  0.89430293042E+02  0.00000000000E+00 0.  1.
<mgrwt>
<rscale>  0 0.79750338E+02</rscale>
<asrwt>0</asrwt>
<pdfrwt beam="1">  1        2 0.70689991E-01 0.79750338E+02</pdfrwt>
<pdfrwt beam="2">  1       -1 0.53237840E-03 0.79750338E+02</pdfrwt>
<totfact> 0.29866724E+05</totfact>
</mgrwt>
</event>
<event>
 8    1  0.1600673E-013  0.8067809E+02  0.7818608E-02  0.1327138E+00
          2   -1    0    0  501    0  0.00000000000E+00  0.00000000000E+00  0.61547633528E+01  0.61547638811E+01  0.25500000000E-02 0. -1.
         -1   -1    0    0    0  501 -0.00000000000E+00 -0.00000000000E+00 -0.26438684436E+03  0.26438684441E+03  0.50400000000E-02 0.  1.
         24    2    1    2    0    0  0.00000000000E+00  0.00000000000E+00 -0.25823208101E+03  0.27054160829E+03  0.80678089680E+02 0.  0.
         66    2    3    3    0    0 -0.13463265851E+01  0.37769922694E+02 -0.82146155706E+02  0.90445400920E+02  0.19999986844E+01 0.  0.
        -13    1    3    3    0    0  0.13463265851E+01 -0.37769922694E+02 -0.17608592531E+03  0.18009620737E+03  0.10566000000E+00 0.  1.
         13    1    4    4    0    0 -0.76568596023E-01  0.24500573439E+01 -0.50152820531E+01  0.55832662346E+01  0.10566000000E+00 0. -1.
        -13    1    4    4    0    0  0.60210419512E-01  0.10197910559E+02 -0.20603739715E+02  0.22989698983E+02  0.10566000000E+00 0.  1.
        -14    1    4    4    0    0 -0.13299684086E+01  0.25121954791E+02 -0.56527133937E+02  0.61872435702E+02  0.00000000000E+00 0.  1.
<mgrwt>
<rscale>  0 0.80678090E+02</rscale>
<asrwt>0</asrwt>
<pdfrwt beam="1">  1        2 0.94688692E-03 0.80678090E+02</pdfrwt>
<pdfrwt beam="2">  1       -1 0.40674890E-01 0.80678090E+02</pdfrwt>
<totfact> 0.88819366E+04</totfact>
</mgrwt>
</event>
<event>
 8    1  0.2000190E-013  0.7700421E+02  0.7818608E-02  0.1337775E+00
          2   -1    0    0  501    0  0.00000000000E+00  0.00000000000E+00  0.17111750574E+04  0.17111750574E+04  0.25500000000E-02 0. -1.
         -1   -1    0    0    0  501 -0.00000000000E+00 -0.00000000000E+00 -0.86630504477E+00  0.86631970553E+00  0.50400000000E-02 0.  1.
         24    2    1    2    0    0  0.00000000000E+00  0.00000000000E+00  0.17103087524E+04  0.17120413771E+04  0.77004211217E+02 0.  0.
         66    2    3    3    0    0 -0.11527122695E+02  0.10530327247E+02  0.16375775459E+04  0.16376531932E+04  0.19999984987E+01 0.  0.
        -13    1    3    3    0    0  0.11527122695E+02 -0.10530327247E+02  0.72731206490E+02  0.74388183948E+02  0.10566000000E+00 0.  1.
         13    1    4    4    0    0 -0.34921752013E+01  0.26090058586E+01  0.42119675771E+03  0.42121932775E+03  0.10566000000E+00 0. -1.
        -13    1    4    4    0    0 -0.38443289637E-03  0.14119506053E+00  0.15754164506E+02  0.15755151523E+02  0.10566000000E+00 0.  1.
         14    1    4    4    0    0 -0.80345630607E+01  0.77801263276E+01  0.12006266237E+04  0.12006787139E+04  0.00000000000E+00 0. -1.
<mgrwt>
<rscale>  0 0.77004211E+02</rscale>
<asrwt>0</asrwt>
<pdfrwt beam="1">  1        2 0.26325791E+00 0.77004211E+02</pdfrwt>
<pdfrwt beam="2">  1       -1 0.13327872E-03 0.77004211E+02</pdfrwt>
<totfact> 0.34466857E+05</totfact>
</mgrwt>
</event>
<event>
 8    1  0.1600673E-013  0.8082840E+02  0.7818608E-02  0.1326717E+00
         -1   -1    0    0    0  501 -0.00000000000E+00  0.00000000000E+00  0.45892226367E+01  0.45892254042E+01  0.50400000000E-02 0.  1.
          2   -1    0    0  501    0  0.00000000000E+00 -0.00000000000E+00 -0.35590058003E+03  0.35590058004E+03  0.25500000000E-02 0. -1.
         24    2    1    2    0    0  0.00000000000E+00  0.35527136788E-14 -0.35131135740E+03  0.36048980545E+03  0.80828398445E+02 0.  0.
         66    2    3    3    0    0 -0.73780907733E+01  0.27036461603E+02 -0.30547712150E+03  0.30676648813E+03  0.19999997005E+01 0.  0.
        -13    1    3    3    0    0  0.73780907733E+01 -0.27036461603E+02 -0.45834235895E+02  0.53723317317E+02  0.10566000000E+00 0.  1.
         13    1    4    4    0    0 -0.51561421804E+01  0.18380255931E+02 -0.20888247260E+03  0.20975299315E+03  0.10566000000E+00 0. -1.
        -13    1    4    4    0    0 -0.10799172091E+01  0.33806892233E+01 -0.43778745935E+02  0.43922489006E+02  0.10566000000E+00 0.  1.
         14    1    4    4    0    0 -0.11420313837E+01  0.52755164487E+01 -0.52815902968E+02  0.53091005978E+02  0.00000000000E+00 0. -1.
<mgrwt>
<rscale>  0 0.80828398E+02</rscale>
<asrwt>0</asrwt>
<pdfrwt beam="1">  1        2 0.54753914E-01 0.80828398E+02</pdfrwt>
<pdfrwt beam="2">  1       -1 0.70603474E-03 0.80828398E+02</pdfrwt>
<totfact> 0.26389525E+05</totfact>
</mgrwt>
</event>
<event>
 8    1  0.1600673E-013  0.7922223E+02  0.7818608E-02  0.1331273E+00
          2   -1    0    0  501    0  0.00000000000E+00  0.00000000000E+00  0.64292328465E+03  0.64292328465E+03  0.25500000000E-02 0. -1.
         -1   -1    0    0    0  501 -0.00000000000E+00 -0.00000000000E+00 -0.24404756468E+01  0.24404808510E+01  0.50400000000E-02 0.  1.
         24    2    1    2    0    0 -0.17763568394E-14  0.00000000000E+00  0.64048280900E+03  0.64536376550E+03  0.79222226675E+02 0.  0.
         66    2    3    3    0    0  0.10286735163E+02  0.27935586997E+02  0.53300131044E+03  0.53383575271E+03  0.19999993721E+01 0.  0.
        -13    1    3    3    0    0 -0.10286735163E+02 -0.27935586997E+02  0.10748149855E+03  0.11152801279E+03  0.10566000000E+00 0.  1.
         13    1    4    4    0    0  0.16035503753E+01  0.46279524785E+01  0.79674390696E+02  0.79824864640E+02  0.10566000000E+00 0. -1.
        -13    1    4    4    0    0  0.14812162070E+01  0.55780327207E+01  0.10795063601E+03  0.10810485387E+03  0.10566000000E+00 0.  1.
         14    1    4    4    0    0  0.72019685804E+01  0.17729601797E+02  0.34537628374E+03  0.34590603421E+03  0.00000000000E+00 0. -1.
<mgrwt>
<rscale>  0 0.79222227E+02</rscale>
<asrwt>0</asrwt>
<pdfrwt beam="1">  1        2 0.98911304E-01 0.79222227E+02</pdfrwt>
<pdfrwt beam="2">  1       -1 0.37545808E-03 0.79222227E+02</pdfrwt>
<totfact> 0.33608169E+05</totfact>
</mgrwt>
</event>
<event>
 8    1  0.1600673E-013  0.7687681E+02  0.7818608E-02  0.1338156E+00
         -1   -1    0    0    0  501 -0.00000000000E+00  0.00000000000E+00  0.37843442981E+02  0.37843443316E+02  0.50400000000E-02 0.  1.
          2   -1    0    0  501    0  0.00000000000E+00 -0.00000000000E+00 -0.39042722981E+02  0.39042723064E+02  0.25500000000E-02 0. -1.
         24    2    1    2    0    0 -0.71054273576E-14  0.00000000000E+00 -0.11992799999E+01  0.76886166380E+02  0.76876812552E+02 0.  0.
         66    2    3    3    0    0  0.36716451272E+02 -0.56846599813E+01 -0.10352795897E+02  0.38621154027E+02  0.20000006037E+01 0.  0.
        -13    1    3    3    0    0 -0.36716451272E+02  0.56846599813E+01  0.91535158970E+01  0.38265012353E+02  0.10566000000E+00 0.  1.
         13    1    4    4    0    0  0.48973014632E+01 -0.11375920435E+01 -0.14906947405E+01  0.52450941005E+01  0.10566000000E+00 0. -1.
        -13    1    4    4    0    0  0.71219487088E+00 -0.16611477497E+00 -0.40961400006E+00  0.84484514393E+00  0.10566000000E+00 0.  1.
         14    1    4    4    0    0  0.31106954938E+02 -0.43809531628E+01 -0.84524871564E+01  0.32531214783E+02  0.00000000000E+00 0. -1.
<mgrwt>
<rscale>  0 0.76876813E+02</rscale>
<asrwt>0</asrwt>
<pdfrwt beam="1">  1        2 0.60065728E-02 0.76876813E+02</pdfrwt>
<pdfrwt beam="2">  1       -1 0.58220682E-02 0.76876813E+02</pdfrwt>
<totfact> 0.15831846E+05</totfact>
</mgrwt>
</event>
<event>
 8    1  0.1600673E-013  0.8119366E+02  0.7818608E-02  0.1325698E+00
         -1   -1    0    0    0  501 -0.00000000000E+00  0.00000000000E+00  0.23036059277E+02  0.23036059828E+02  0.50400000000E-02 0.  1.
          2   -1    0    0  501    0  0.00000000000E+00 -0.00000000000E+00 -0.71544470338E+02  0.71544470384E+02  0.25500000000E-02 0. -1.
         24    2    1    2    0    0 -0.88817841970E-15  0.00000000000E+00 -0.48508411061E+02  0.94580530212E+02  0.81193662016E+02 0.  0.
         66    2    3    3    0    0  0.69972618930E+01 -0.35342866586E+02 -0.45999912915E+02  0.58464278752E+02  0.20000023249E+01 0.  0.
        -13    1    3    3    0    0 -0.69972618930E+01  0.35342866586E+02 -0.25084981463E+01  0.36116251460E+02  0.10566000000E+00 0.  1.
         13    1    4    4    0    0  0.28747361106E+01 -0.11561424202E+02 -0.15372923708E+02  0.19449128120E+02  0.10566000000E+00 0. -1.
        -13    1    4    4    0    0  0.35448455651E+00 -0.15383739487E+01 -0.24986801628E+01  0.29575023750E+01  0.10566000000E+00 0. -1.
        -14    1    4    4    0    0  0.37680412258E+01 -0.22243068436E+02 -0.28128309044E+02  0.36057648257E+02  0.00000000000E+00 0.  1.
<mgrwt>
<rscale>  0 0.81193662E+02</rscale>
<asrwt>0</asrwt>
<pdfrwt beam="1">  1        2 0.11006842E-01 0.81193662E+02</pdfrwt>
<pdfrwt beam="2">  1       -1 0.35440092E-02 0.81193662E+02</pdfrwt>
<totfact> 0.15595054E+05</totfact>
</mgrwt>
</event>
<event>
 8    1  0.1600673E-013  0.8066261E+02  0.7818608E-02  0.1327181E+00
         -1   -1    0    0    0  501 -0.00000000000E+00  0.00000000000E+00  0.32620966415E+01  0.32621005350E+01  0.50400000000E-02 0.  1.
          2   -1    0    0  501    0  0.00000000000E+00 -0.00000000000E+00 -0.49864041272E+03  0.49864041273E+03  0.25500000000E-02 0. -1.
         24    2    1    2    0    0  0.00000000000E+00  0.35527136788E-14 -0.49537831608E+03  0.50190251326E+03  0.80662610778E+02 0.  0.
         66    2    3    3    0    0 -0.50920442024E+01  0.20974250672E+02 -0.45964983187E+03  0.46016064156E+03  0.19999989384E+01 0.  0.
        -13    1    3    3    0    0  0.50920442024E+01 -0.20974250672E+02 -0.35728484206E+02  0.41741871700E+02  0.10566000000E+00 0.  1.
         13    1    4    4    0    0 -0.77090243959E+00  0.19892918921E+01 -0.37790872984E+02  0.37851193082E+02  0.10566000000E+00 0. -1.
        -13    1    4    4    0    0 -0.15872213438E+01  0.68328203481E+01 -0.14100944097E+03  0.14118385287E+03  0.10566000000E+00 0.  1.
         14    1    4    4    0    0 -0.27339204190E+01  0.12152138431E+02 -0.28084951792E+03  0.28112559561E+03  0.00000000000E+00 0. -1.
<mgrwt>
<rscale>  0 0.80662611E+02</rscale>
<asrwt>0</asrwt>
<pdfrwt beam="1">  1        2 0.76713849E-01 0.80662611E+02</pdfrwt>
<pdfrwt beam="2">  1       -1 0.50186172E-03 0.80662611E+02</pdfrwt>
<totfact> 0.29777548E+05</totfact>
</mgrwt>
</event>
<event>
 8    1  0.1600673E-013  0.7316832E+02  0.7818608E-02  0.1349639E+00
          2   -1    0    0  501    0  0.00000000000E+00  0.00000000000E+00  0.40843424843E+03  0.40843424844E+03  0.25500000000E-02 0. -1.
         -1   -1    0    0    0  501 -0.00000000000E+00 -0.00000000000E+00 -0.32769044902E+01  0.32769083660E+01  0.50400000000E-02 0.  1.
         24    2    1    2    0    0  0.00000000000E+00  0.88817841970E-15  0.40515734394E+03  0.41171115681E+03  0.73168321619E+02 0.  0.
         66    2    3    3    0    0 -0.22350057994E+02  0.30272932772E+01  0.36461501320E+03  0.36531739276E+03  0.20000000607E+01 0.  0.
        -13    1    3    3    0    0  0.22350057994E+02 -0.30272932772E+01  0.40542330738E+02  0.46393764049E+02  0.10566000000E+00 0.  1.
         13    1    4    4    0    0 -0.53908973248E+01  0.55229214712E+00  0.75079651817E+02  0.75275042887E+02  0.10566000000E+00 0. -1.
        -13    1    4    4    0    0 -0.10943795398E+02  0.14942505175E+01  0.18815538884E+03  0.18847933827E+03  0.10566000000E+00 0.  1.
         14    1    4    4    0    0 -0.60153652711E+01  0.98075061259E+00  0.10137997255E+03  0.10156301160E+03  0.00000000000E+00 0. -1.
<mgrwt>
<rscale>  0 0.73168322E+02</rscale>
<asrwt>0</asrwt>
<pdfrwt beam="1">  1        2 0.62836034E-01 0.73168322E+02</pdfrwt>
<pdfrwt beam="2">  1       -1 0.50413948E-03 0.73168322E+02</pdfrwt>
<totfact> 0.35891708E+05</totfact>
</mgrwt>
</event>
<event>
 8    1  0.1600673E-013  0.7945168E+02  0.7818608E-02  0.1330615E+00
         -1   -1    0    0    0  501 -0.00000000000E+00  0.00000000000E+00  0.29164802529E+01  0.29164846078E+01  0.50400000000E-02 0.  1.
          2   -1    0    0  501    0  0.00000000000E+00 -0.00000000000E+00 -0.54111154777E+03  0.54111154778E+03  0.25500000000E-02 0. -1.
         24    2    1    2    0    0  0.71054273576E-14  0.00000000000E+00 -0.53819506752E+03  0.54402803238E+03  0.79451679150E+02 0.  0.
         66    2    3    3    0    0  0.36711956252E+02  0.93450327436E+01 -0.35058607525E+03  0.35263251908E+03  0.19999964130E+01 0.  0.
        -13    1    3    3    0    0 -0.36711956252E+02 -0.93450327436E+01 -0.18760899227E+03  0.19139551330E+03  0.10566000000E+00 0.  1.
         13    1    4    4    0    0  0.50017382243E+01  0.16802546263E+01 -0.49149142598E+02  0.49431670243E+02  0.10566000000E+00 0. -1.
        -13    1    4    4    0    0  0.84347177632E+01  0.16137241009E+01 -0.84108333756E+02  0.84545677243E+02  0.10566000000E+00 0.  1.
         14    1    4    4    0    0  0.23275500264E+02  0.60510540164E+01 -0.21732859890E+03  0.21865517160E+03  0.00000000000E+00 0. -1.
<mgrwt>
<rscale>  0 0.79451679E+02</rscale>
<asrwt>0</asrwt>
<pdfrwt beam="1">  1        2 0.83247851E-01 0.79451679E+02</pdfrwt>
<pdfrwt beam="2">  1       -1 0.44869004E-03 0.79451679E+02</pdfrwt>
<totfact> 0.31772892E+05</totfact>
</mgrwt>
</event>
<event>
 8    1  0.1600673E-013  0.7981036E+02  0.7818608E-02  0.1329590E+00
          2   -1    0    0  501    0  0.00000000000E+00  0.00000000000E+00  0.30896338674E+03  0.30896338675E+03  0.25500000000E-02 0. -1.
         -1   -1    0    0    0  501 -0.00000000000E+00 -0.00000000000E+00 -0.51540837098E+01  0.51540861740E+01  0.50400000000E-02 0.  1.
         24    2    1    2    0    0 -0.35527136788E-14  0.35527136788E-14  0.30380930303E+03  0.31411747292E+03  0.79810363918E+02 0.  0.
         66    2    3    3    0    0  0.13831788788E+02 -0.21405333350E+02  0.27272757764E+03  0.27392305174E+03  0.19999985060E+01 0.  0.
        -13    1    3    3    0    0 -0.13831788788E+02  0.21405333350E+02  0.31081725392E+02  0.40194421184E+02  0.10566000000E+00 0.  1.
         13    1    4    4    0    0  0.29696492570E+01 -0.41810552820E+01  0.52892762079E+02  0.53140902179E+02  0.10566000000E+00 0. -1.
        -13    1    4    4    0    0  0.20153813054E+01 -0.37728014884E+01  0.40056915509E+02  0.40284779223E+02  0.10566000000E+00 0.  1.
         14    1    4    4    0    0  0.88467582252E+01 -0.13451476579E+02  0.17977790005E+03  0.18049737034E+03  0.00000000000E+00 0. -1.
<mgrwt>
<rscale>  0 0.79810364E+02</rscale>
<asrwt>0</asrwt>
<pdfrwt beam="1">  1        2 0.47532842E-01 0.79810364E+02</pdfrwt>
<pdfrwt beam="2">  1       -1 0.79293593E-03 0.79810364E+02</pdfrwt>
<totfact> 0.25928268E+05</totfact>
</mgrwt>
</event>
<event>
 8    1  0.1600673E-013  0.8035828E+02  0.7818608E-02  0.1328038E+00
         -1   -1    0    0    0  501 -0.00000000000E+00  0.00000000000E+00  0.91797727994E+01  0.91797741830E+01  0.50400000000E-02 0.  1.
          2   -1    0    0  501    0  0.00000000000E+00 -0.00000000000E+00 -0.17586089360E+03  0.17586089362E+03  0.25500000000E-02 0. -1.
         24    2    1    2    0    0  0.00000000000E+00  0.00000000000E+00 -0.16668112080E+03  0.18504066780E+03  0.80358277166E+02 0.  0.
         66    2    3    3    0    0 -0.15016026963E+02 -0.15387472492E+02 -0.16148374586E+03  0.16292101035E+03  0.20000153511E+01 0.  0.
        -13    1    3    3    0    0  0.15016026963E+02  0.15387472492E+02 -0.51973749421E+01  0.22119657452E+02  0.10566000000E+00 0.  1.
         13    1    4    4    0    0 -0.54080066751E+01 -0.58878490487E+01 -0.58846747513E+02  0.59387407415E+02  0.10566000000E+00 0. -1.
        -13    1    4    4    0    0 -0.79329935226E+01 -0.72641191342E+01 -0.77836002864E+02  0.78575787104E+02  0.10566000000E+00 0.  1.
        -14    1    4    4    0    0 -0.16750267655E+01 -0.22355043094E+01 -0.24800995484E+02  0.24957815833E+02  0.00000000000E+00 0.  1.
<mgrwt>
<rscale>  0 0.80358277E+02</rscale>
<asrwt>0</asrwt>
<pdfrwt beam="1">  1        2 0.27055520E-01 0.80358277E+02</pdfrwt>
<pdfrwt beam="2">  1       -1 0.14122730E-02 0.80358277E+02</pdfrwt>
<totfact> 0.20859551E+05</totfact>
</mgrwt>
</event>
<event>
 8    1  0.1600673E-013  0.7967055E+02  0.7818608E-02  0.1329989E+00
          2   -1    0    0  501    0  0.00000000000E+00  0.00000000000E+00  0.21992903081E+02  0.21992903228E+02  0.25500000000E-02 0. -1.
         -1   -1    0    0    0  501 -0.00000000000E+00 -0.00000000000E+00 -0.72152781265E+02  0.72152781441E+02  0.50400000000E-02 0.  1.
         24    2    1    2    0    0  0.00000000000E+00  0.00000000000E+00 -0.50159878185E+02  0.94145684670E+02  0.79670550158E+02 0.  0.
         66    2    3    3    0    0  0.96953324910E+01 -0.29274252788E+02  0.46552096347E+01  0.31251437198E+02  0.20000004466E+01 0.  0.
        -13    1    3    3    0    0 -0.96953324910E+01  0.29274252788E+02 -0.54815087819E+02  0.62894247472E+02  0.10566000000E+00 0.  1.
         13    1    4    4    0    0  0.83147920949E+01 -0.24838864462E+02  0.35939557955E+01  0.26439225360E+02  0.10566000000E+00 0. -1.
        -13    1    4    4    0    0  0.33749395843E+00 -0.45482127671E+00  0.18383752505E+00  0.60475188048E+00  0.10566000000E+00 0.  1.
        -14    1    4    4    0    0  0.10430464377E+01 -0.39805670489E+01  0.87741631411E+00  0.42074599571E+01  0.00000000000E+00 0.  1.
<mgrwt>
<rscale>  0 0.79670550E+02</rscale>
<asrwt>0</asrwt>
<pdfrwt beam="1">  1        2 0.33835236E-02 0.79670550E+02</pdfrwt>
<pdfrwt beam="2">  1       -1 0.11100428E-01 0.79670550E+02</pdfrwt>
<totfact> 0.12804653E+05</totfact>
</mgrwt>
</event>
<event>
 8    1  0.1600673E-013  0.7922980E+02  0.7818608E-02  0.1331251E+00
         -1   -1    0    0    0  501 -0.00000000000E+00  0.00000000000E+00  0.38125916428E+02  0.38125916761E+02  0.50400000000E-02 0.  1.
          2   -1    0    0  501    0  0.00000000000E+00 -0.00000000000E+00 -0.41162037206E+02  0.41162037285E+02  0.25500000000E-02 0. -1.
         24    2    1    2    0    0  0.35527136788E-14 -0.35527136788E-14 -0.30361207785E+01  0.79287954046E+02  0.79229802647E+02 0.  0.
         66    2    3    3    0    0 -0.24945031733E+02  0.16571158260E+02 -0.27431611298E+02  0.40661421507E+02  0.20000015941E+01 0.  0.
        -13    1    3    3    0    0  0.24945031733E+02 -0.16571158260E+02  0.24395490519E+02  0.38626532539E+02  0.10566000000E+00 0.  1.
         13    1    4    4    0    0 -0.15458015217E+02  0.10536056438E+02 -0.17375694716E+02  0.25532031855E+02  0.10566000000E+00 0. -1.
        -13    1    4    4    0    0 -0.83604691067E+01  0.48707876270E+01 -0.84181611478E+01  0.12825701421E+02  0.10566000000E+00 0.  1.
        -14    1    4    4    0    0 -0.11265474094E+01  0.11643141944E+01 -0.16377554336E+01  0.23036882318E+01  0.00000000000E+00 0.  1.
<mgrwt>
<rscale>  0 0.79229803E+02</rscale>
<asrwt>0</asrwt>
<pdfrwt beam="1">  1        2 0.63326211E-02 0.79229803E+02</pdfrwt>
<pdfrwt beam="2">  1       -1 0.58655257E-02 0.79229803E+02</pdfrwt>
<totfact> 0.14727504E+05</totfact>
</mgrwt>
</event>
<event>
 8    1  0.1600673E-013  0.7810004E+02  0.7818608E-02  0.1334531E+00
          2   -1    0    0  501    0  0.00000000000E+00  0.00000000000E+00  0.94276476685E+02  0.94276476719E+02  0.25500000000E-02 0. -1.
         -1   -1    0    0    0  501 -0.00000000000E+00 -0.00000000000E+00 -0.16174808513E+02  0.16174809298E+02  0.50400000000E-02 0.  1.
         24    2    1    2    0    0 -0.71054273576E-14 -0.35527136788E-14  0.78101668172E+02  0.11045128602E+03  0.78100038486E+02 0.  0.
         66    2    3    3    0    0 -0.33184501042E+02 -0.20449190800E+02  0.41729155545E+02  0.57137579031E+02  0.20000003023E+01 0.  0.
        -13    1    3    3    0    0  0.33184501042E+02  0.20449190800E+02  0.36372512627E+02  0.53313706986E+02  0.10566000000E+00 0.  1.
         13    1    4    4    0    0 -0.10917572837E+02 -0.69614608293E+01  0.15112867280E+02  0.19901388268E+02  0.10566000000E+00 0.  1.
        -13    1    4    4    0    0 -0.16743055286E+02 -0.10403225455E+02  0.20327687027E+02  0.28315773415E+02  0.10566000000E+00 0. -1.
        -14    1    4    4    0    0 -0.55238729188E+01 -0.30845045160E+01  0.62886012385E+01  0.89204173483E+01  0.00000000000E+00 0.  1.
<mgrwt>
<rscale>  0 0.78100038E+02</rscale>
<asrwt>0</asrwt>
<pdfrwt beam="1">  1        2 0.14504073E-01 0.78100038E+02</pdfrwt>
<pdfrwt beam="2">  1       -1 0.24884322E-02 0.78100038E+02</pdfrwt>
<totfact> 0.18598956E+05</totfact>
</mgrwt>
</event>
<event>
 8    1  0.1600673E-013  0.7818037E+02  0.7818608E-02  0.1334296E+00
          2   -1    0    0  501    0  0.00000000000E+00  0.00000000000E+00  0.13780136850E+02  0.13780137086E+02  0.25500000000E-02 0. -1.
         -1   -1    0    0    0  501 -0.00000000000E+00 -0.00000000000E+00 -0.11088733314E+03  0.11088733325E+03  0.50400000000E-02 0.  1.
         24    2    1    2    0    0 -0.17763568394E-14  0.00000000000E+00 -0.97107196285E+02  0.12466747034E+03  0.78180372151E+02 0.  0.
         66    2    3    3    0    0  0.15225034443E+02  0.32339824308E+02 -0.23454470177E+02  0.42799276651E+02  0.20000001384E+01 0.  0.
        -13    1    3    3    0    0 -0.15225034443E+02 -0.32339824308E+02 -0.73652726109E+02  0.81868193685E+02  0.10566000000E+00 0.  1.
         13    1    4    4    0    0  0.70262184115E+01  0.14520048609E+02 -0.10934549203E+02  0.19487818941E+02  0.10566000000E+00 0. -1.
        -13    1    4    4    0    0  0.75551712253E+01  0.16338322501E+02 -0.11013898906E+02  0.21103045457E+02  0.10566000000E+00 0.  1.
        -14    1    4    4    0    0  0.64364480650E+00  0.14814531977E+01 -0.15060220677E+01  0.22084122537E+01  0.00000000000E+00 0.  1.
<mgrwt>
<rscale>  0 0.78180372E+02</rscale>
<asrwt>0</asrwt>
<pdfrwt beam="1">  1        2 0.21200211E-02 0.78180372E+02</pdfrwt>
<pdfrwt beam="2">  1       -1 0.17059589E-01 0.78180372E+02</pdfrwt>
<totfact> 0.12275846E+05</totfact>
</mgrwt>
</event>
<event>
 8    1  0.1600673E-013  0.7913764E+02  0.7818608E-02  0.1331517E+00
          2   -1    0    0  501    0  0.00000000000E+00  0.00000000000E+00  0.38138209359E+02  0.38138209445E+02  0.25500000000E-02 0. -1.
         -1   -1    0    0    0  501 -0.00000000000E+00 -0.00000000000E+00 -0.41053091716E+02  0.41053092025E+02  0.50400000000E-02 0.  1.
         24    2    1    2    0    0  0.00000000000E+00 -0.11102230246E-15 -0.29148823565E+01  0.79191301470E+02  0.79137637628E+02 0.  0.
         66    2    3    3    0    0  0.39396601354E+02  0.98553373078E+00 -0.47198742337E+01  0.39740919536E+02  0.19999994478E+01 0.  0.
        -13    1    3    3    0    0 -0.39396601354E+02 -0.98553373078E+00  0.18049918772E+01  0.39450381934E+02  0.10566000000E+00 0.  1.
         13    1    4    4    0    0  0.20231757644E+02  0.68425742849E+00 -0.18927036070E+01  0.20331889154E+02  0.10566000000E+00 0. -1.
        -13    1    4    4    0    0  0.14942209748E+02  0.68140746386E+00 -0.23708317165E+01  0.15144832629E+02  0.10566000000E+00 0.  1.
         14    1    4    4    0    0  0.42226339621E+01 -0.38013116158E+00 -0.45633891022E+00  0.42641977533E+01  0.00000000000E+00 0. -1.
<mgrwt>
<rscale>  0 0.79137638E+02</rscale>
<asrwt>0</asrwt>
<pdfrwt beam="1">  1        2 0.58674169E-02 0.79137638E+02</pdfrwt>
<pdfrwt beam="2">  1       -1 0.63158603E-02 0.79137638E+02</pdfrwt>
<totfact> 0.14546847E+05</totfact>
</mgrwt>
</event>
<event>
 8    1  0.1600673E-013  0.8048957E+02  0.7818608E-02  0.1327668E+00
         -1   -1    0    0    0  501 -0.00000000000E+00  0.00000000000E+00  0.18493311370E+01  0.18493380047E+01  0.50400000000E-02 0.  1.
          2   -1    0    0  501    0  0.00000000000E+00 -0.00000000000E+00 -0.87579763870E+03  0.87579763871E+03  0.25500000000E-02 0. -1.
         24    2    1    2    0    0  0.00000000000E+00  0.00000000000E+00 -0.87394830757E+03  0.87764697671E+03  0.80489573444E+02 0.  0.
         66    2    3    3    0    0  0.22895740174E+02  0.12345903575E+02 -0.77172725644E+03  0.77216811290E+03  0.19999992488E+01 0.  0.
        -13    1    3    3    0    0 -0.22895740174E+02 -0.12345903575E+02 -0.10222105113E+03  0.10547886381E+03  0.10566000000E+00 0.  1.
         13    1    4    4    0    0  0.89511714573E+01  0.43336326041E+01 -0.31531995503E+03  0.31547676467E+03  0.10566000000E+00 0. -1.
        -13    1    4    4    0    0  0.11608033003E+01  0.51890025092E+00 -0.31917698493E+02  0.31943189617E+02  0.10566000000E+00 0.  1.
         14    1    4    4    0    0  0.12783765416E+02  0.74933707196E+01 -0.42448960292E+03  0.42474815862E+03  0.00000000000E+00 0. -1.
<mgrwt>
<rscale>  0 0.80489573E+02</rscale>
<asrwt>0</asrwt>
<pdfrwt beam="1">  1        2 0.13473777E+00 0.80489573E+02</pdfrwt>
<pdfrwt beam="2">  1       -1 0.28451371E-03 0.80489573E+02</pdfrwt>
<totfact> 0.34286722E+05</totfact>
</mgrwt>
</event>
<event>
 8    1  0.1600673E-013  0.8108066E+02  0.7818608E-02  0.1326012E+00
         -1   -1    0    0    0  501 -0.00000000000E+00  0.00000000000E+00  0.39895465525E+02  0.39895465843E+02  0.50400000000E-02 0.  1.
          2   -1    0    0  501    0  0.00000000000E+00 -0.00000000000E+00 -0.41195615997E+02  0.41195616076E+02  0.25500000000E-02 0. -1.
         24    2    1    2    0    0  0.00000000000E+00 -0.88817841970E-15 -0.13001504725E+01  0.81091081919E+02  0.81080658456E+02 0.  0.
         66    2    3    3    0    0 -0.38720748848E+02  0.48067339684E+01  0.10264788546E+02  0.40395135422E+02  0.19999997786E+01 0.  0.
        -13    1    3    3    0    0  0.38720748848E+02 -0.48067339684E+01 -0.11564939018E+02  0.40695946497E+02  0.10566000000E+00 0.  1.
         13    1    4    4    0    0 -0.22417591939E+02  0.35610219893E+01  0.57803718656E+01  0.23423346663E+02  0.10566000000E+00 0. -1.
        -13    1    4    4    0    0 -0.60138728506E+01  0.30588730358E+00  0.13147579578E+01  0.61644128860E+01  0.10566000000E+00 0.  1.
         14    1    4    4    0    0 -0.10289284058E+02  0.93982467543E+00  0.31696587221E+01  0.10807375873E+02  0.00000000000E+00 0. -1.
<mgrwt>
<rscale>  0 0.81080658E+02</rscale>
<asrwt>0</asrwt>
<pdfrwt beam="1">  1        2 0.63377871E-02 0.81080658E+02</pdfrwt>
<pdfrwt beam="2">  1       -1 0.61377640E-02 0.81080658E+02</pdfrwt>
<totfact> 0.13819962E+05</totfact>
</mgrwt>
</event>
<event>
 8    1  0.1600673E-013  0.7951022E+02  0.7818608E-02  0.1330447E+00
          2   -1    0    0  501    0  0.00000000000E+00  0.00000000000E+00  0.11072851471E+03  0.11072851474E+03  0.25500000000E-02 0. -1.
         -1   -1    0    0    0  501 -0.00000000000E+00 -0.00000000000E+00 -0.14273367207E+02  0.14273368097E+02  0.50400000000E-02 0.  1.
         24    2    1    2    0    0 -0.35527136788E-14  0.00000000000E+00  0.96455147502E+02  0.12500188284E+03  0.79510220933E+02 0.  0.
         66    2    3    3    0    0  0.19447640804E+02 -0.34473720143E+02  0.42853894338E+02  0.58370406654E+02  0.19999999189E+01 0.  0.
        -13    1    3    3    0    0 -0.19447640804E+02  0.34473720143E+02  0.53601253165E+02  0.66631476182E+02  0.10566000000E+00 0.  1.
         13    1    4    4    0    0  0.50113534791E+01 -0.85922308006E+01  0.11815031165E+02  0.15444941544E+02  0.10566000000E+00 0.  1.
        -13    1    4    4    0    0  0.13090180850E+02 -0.23245940163E+02  0.27543921673E+02  0.38345864887E+02  0.10566000000E+00 0. -1.
         14    1    4    4    0    0  0.13461064747E+01 -0.26355491792E+01  0.34949414994E+01  0.45796002229E+01  0.00000000000E+00 0. -1.
<mgrwt>
<rscale>  0 0.79510221E+02</rscale>
<asrwt>0</asrwt>
<pdfrwt beam="1">  1        2 0.17035156E-01 0.79510221E+02</pdfrwt>
<pdfrwt beam="2">  1       -1 0.21959028E-02 0.79510221E+02</pdfrwt>
<totfact> 0.18550516E+05</totfact>
</mgrwt>
</event>
<event>
 8    1  0.1600673E-013  0.8173847E+02  0.7818608E-02  0.1324189E+00
         -1   -1    0    0    0  501 -0.00000000000E+00  0.00000000000E+00  0.39193110700E+01  0.39193143106E+01  0.50400000000E-02 0.  1.
          2   -1    0    0  501    0  0.00000000000E+00 -0.00000000000E+00 -0.42617025141E+03  0.42617025142E+03  0.25500000000E-02 0. -1.
         24    2    1    2    0    0 -0.17763568394E-14 -0.35527136788E-14 -0.42225094034E+03  0.43008956573E+03  0.81738472767E+02 0.  0.
         66    2    3    3    0    0  0.10216604023E+02  0.30133194740E+02 -0.34600858710E+03  0.34747421598E+03  0.19999996077E+01 0.  0.
        -13    1    3    3    0    0 -0.10216604023E+02 -0.30133194740E+02 -0.76242353241E+02  0.82615349753E+02  0.10566000000E+00 0.  1.
         13    1    4    4    0    0  0.31860260327E+01  0.11390318475E+02 -0.12614410450E+03  0.12669742058E+03  0.10566000000E+00 0. -1.
        -13    1    4    4    0    0  0.48372062433E+01  0.14164244007E+02 -0.16194050753E+03  0.16263075821E+03  0.10566000000E+00 0.  1.
        -14    1    4    4    0    0  0.21933717469E+01  0.45786322593E+01 -0.57923975070E+02  0.58146037190E+02  0.00000000000E+00 0.  1.
<mgrwt>
<rscale>  0 0.81738473E+02</rscale>
<asrwt>0</asrwt>
<pdfrwt beam="1">  1        2 0.65564618E-01 0.81738473E+02</pdfrwt>
<pdfrwt beam="2">  1       -1 0.60297152E-03 0.81738473E+02</pdfrwt>
<totfact> 0.27302728E+05</totfact>
</mgrwt>
</event>
<event>
 8    1  0.1600673E-013  0.7513025E+02  0.7818608E-02  0.1343468E+00
         -1   -1    0    0    0  501 -0.00000000000E+00  0.00000000000E+00  0.16779506486E+02  0.16779507243E+02  0.50400000000E-02 0.  1.
          2   -1    0    0  501    0  0.00000000000E+00 -0.00000000000E+00 -0.84098939738E+02  0.84098939777E+02  0.25500000000E-02 0. -1.
         24    2    1    2    0    0 -0.35527136788E-14  0.00000000000E+00 -0.67319433252E+02  0.10087844702E+03  0.75130253425E+02 0.  0.
         66    2    3    3    0    0 -0.20985942754E+02  0.16281835122E+02 -0.69300266267E+02  0.74243079335E+02  0.19999940553E+01 0.  0.
        -13    1    3    3    0    0  0.20985942754E+02 -0.16281835122E+02  0.19808330152E+01  0.26635367685E+02  0.10566000000E+00 0.  1.
         13    1    4    4    0    0 -0.51840911293E+01  0.44082759261E+01 -0.19907619834E+02  0.21038825750E+02  0.10566000000E+00 0. -1.
        -13    1    4    4    0    0 -0.62456406506E+01  0.48940938107E+01 -0.19178482677E+02  0.20755373838E+02  0.10566000000E+00 0.  1.
         14    1    4    4    0    0 -0.95562109743E+01  0.69794653853E+01 -0.30214163757E+02  0.32448879746E+02  0.00000000000E+00 0. -1.
<mgrwt>
<rscale>  0 0.75130253E+02</rscale>
<asrwt>0</asrwt>
<pdfrwt beam="1">  1        2 0.12938298E-01 0.75130253E+02</pdfrwt>
<pdfrwt beam="2">  1       -1 0.25814627E-02 0.75130253E+02</pdfrwt>
<totfact> 0.20014775E+05</totfact>
</mgrwt>
</event>
<event>
 8    1  0.1600673E-013  0.8056966E+02  0.7818608E-02  0.1327443E+00
         -1   -1    0    0    0  501 -0.00000000000E+00  0.00000000000E+00  0.27829716775E+02  0.27829717232E+02  0.50400000000E-02 0.  1.
          2   -1    0    0  501    0  0.00000000000E+00 -0.00000000000E+00 -0.58314192757E+02  0.58314192813E+02  0.25500000000E-02 0. -1.
         24    2    1    2    0    0  0.00000000000E+00 -0.35527136788E-14 -0.30484475982E+02  0.86143910045E+02  0.80569659065E+02 0.  0.
         66    2    3    3    0    0  0.28565780069E+02  0.27556249514E+02 -0.22464593058E+02  0.45650943194E+02  0.19999987420E+01 0.  0.
        -13    1    3    3    0    0 -0.28565780069E+02 -0.27556249514E+02 -0.80198829244E+01  0.40492966851E+02  0.10566000000E+00 0.  1.
         13    1    4    4    0    0  0.21591504782E+02  0.20948553378E+02 -0.17570674030E+02  0.34839269758E+02  0.10566000000E+00 0. -1.
        -13    1    4    4    0    0  0.41944289854E+01  0.41092433935E+01 -0.25704858176E+01  0.64107470044E+01  0.10566000000E+00 0.  1.
         14    1    4    4    0    0  0.27798463014E+01  0.24984527429E+01 -0.23234332104E+01  0.44009264310E+01  0.00000000000E+00 0. -1.
<mgrwt>
<rscale>  0 0.80569659E+02</rscale>
<asrwt>0</asrwt>
<pdfrwt beam="1">  1        2 0.89714142E-02 0.80569659E+02</pdfrwt>
<pdfrwt beam="2">  1       -1 0.42814950E-02 0.80569659E+02</pdfrwt>
<totfact> 0.15168430E+05</totfact>
</mgrwt>
</event>
<event>
 8    1  0.1600673E-013  0.8062345E+02  0.7818608E-02  0.1327291E+00
          2   -1    0    0  501    0  0.00000000000E+00  0.00000000000E+00  0.14522662739E+04  0.14522662739E+04  0.25500000000E-02 0. -1.
         -1   -1    0    0    0  501 -0.00000000000E+00 -0.00000000000E+00 -0.11189593877E+01  0.11189707382E+01  0.50400000000E-02 0.  1.
         24    2    1    2    0    0  0.00000000000E+00  0.17763568394E-14  0.14511473145E+04  0.14533852446E+04  0.80623451443E+02 0.  0.
         66    2    3    3    0    0 -0.99834197035E+01 -0.87570905926E+01  0.14116726372E+04  0.14117365158E+04  0.19999993448E+01 0.  0.
        -13    1    3    3    0    0  0.99834197035E+01  0.87570905926E+01  0.39474677299E+02  0.41648728870E+02  0.10566000000E+00 0.  1.
         13    1    4    4    0    0 -0.31025768115E+01 -0.30843579498E+01  0.47802652493E+03  0.47804655521E+03  0.10566000000E+00 0. -1.
        -13    1    4    4    0    0 -0.17502818716E+01 -0.23429587113E+01  0.31813941226E+03  0.31815287165E+03  0.10566000000E+00 0.  1.
        -14    1    4    4    0    0 -0.51305610205E+01 -0.33297739314E+01  0.61550670003E+03  0.61553708892E+03  0.00000000000E+00 0.  1.
<mgrwt>
<rscale>  0 0.80623451E+02</rscale>
<asrwt>0</asrwt>
<pdfrwt beam="1">  1        2 0.22342655E+00 0.80623451E+02</pdfrwt>
<pdfrwt beam="2">  1       -1 0.17214772E-03 0.80623451E+02</pdfrwt>
<totfact> 0.32961857E+05</totfact>
</mgrwt>
</event>
<event>
 8    1  0.1600673E-013  0.8030254E+02  0.7818608E-02  0.1328195E+00
          2   -1    0    0  501    0  0.00000000000E+00  0.00000000000E+00  0.25115078261E+03  0.25115078262E+03  0.25500000000E-02 0. -1.
         -1   -1    0    0    0  501 -0.00000000000E+00 -0.00000000000E+00 -0.64189491553E+01  0.64189511339E+01  0.50400000000E-02 0.  1.
         24    2    1    2    0    0 -0.35527136788E-14  0.00000000000E+00  0.24473183345E+03  0.25756973375E+03  0.80302536955E+02 0.  0.
         66    2    3    3    0    0  0.29132143701E+02  0.19512713970E+02  0.18502400721E+03  0.18832766936E+03  0.19999997278E+01 0.  0.
        -13    1    3    3    0    0 -0.29132143701E+02 -0.19512713970E+02  0.59707826238E+02  0.69242064392E+02  0.10566000000E+00 0.  1.
         13    1    4    4    0    0  0.23485615425E+02  0.16048320720E+02  0.15046406745E+03  0.15312925745E+03  0.10566000000E+00 0. -1.
        -13    1    4    4    0    0  0.13157282184E+01  0.10331105233E+01  0.10272969170E+02  0.10408819227E+02  0.10566000000E+00 0.  1.
         14    1    4    4    0    0  0.43308000571E+01  0.24312827274E+01  0.24286970593E+02  0.24789592684E+02  0.00000000000E+00 0. -1.
<mgrwt>
<rscale>  0 0.80302537E+02</rscale>
<asrwt>0</asrwt>
<pdfrwt beam="1">  1        2 0.38638580E-01 0.80302537E+02</pdfrwt>
<pdfrwt beam="2">  1       -1 0.98753085E-03 0.80302537E+02</pdfrwt>
<totfact> 0.23671574E+05</totfact>
</mgrwt>
</event>
<event>
 8    1  0.1600673E-013  0.7909905E+02  0.7818608E-02  0.1331628E+00
         -1   -1    0    0    0  501 -0.00000000000E+00  0.00000000000E+00  0.34855751289E+01  0.34855787727E+01  0.50400000000E-02 0.  1.
          2   -1    0    0  501    0  0.00000000000E+00 -0.00000000000E+00 -0.44875349585E+03  0.44875349586E+03  0.25500000000E-02 0. -1.
         24    2    1    2    0    0  0.00000000000E+00  0.35527136788E-14 -0.44526792072E+03  0.45223907463E+03  0.79099048027E+02 0.  0.
         66    2    3    3    0    0 -0.34808536415E+02  0.18700897433E+02 -0.22789648114E+03  0.23130534773E+03  0.20000001333E+01 0.  0.
        -13    1    3    3    0    0  0.34808536415E+02 -0.18700897433E+02 -0.21737143959E+03  0.22093372690E+03  0.10566000000E+00 0.  1.
         13    1    4    4    0    0 -0.26212671935E+01  0.17422830355E+01 -0.16622282752E+02  0.16917979779E+02  0.10566000000E+00 0. -1.
        -13    1    4    4    0    0 -0.23312620043E+02  0.11674170994E+02 -0.15215810820E+03  0.15437572859E+03  0.10566000000E+00 0.  1.
        -14    1    4    4    0    0 -0.88746491779E+01  0.52844434029E+01 -0.59116090182E+02  0.60011639359E+02  0.00000000000E+00 0.  1.
<mgrwt>
<rscale>  0 0.79099048E+02</rscale>
<asrwt>0</asrwt>
<pdfrwt beam="1">  1        2 0.69038954E-01 0.79099048E+02</pdfrwt>
<pdfrwt beam="2">  1       -1 0.53624297E-03 0.79099048E+02</pdfrwt>
<totfact> 0.30272031E+05</totfact>
</mgrwt>
</event>
<event>
 8    1  0.1600673E-013  0.7680398E+02  0.7818608E-02  0.1338374E+00
          2   -1    0    0  501    0  0.00000000000E+00  0.00000000000E+00  0.71901216865E+02  0.71901216910E+02  0.25500000000E-02 0. -1.
         -1   -1    0    0    0  501 -0.00000000000E+00 -0.00000000000E+00 -0.20510259602E+02  0.20510260222E+02  0.50400000000E-02 0.  1.
         24    2    1    2    0    0  0.00000000000E+00  0.00000000000E+00  0.51390957263E+02  0.92411477132E+02  0.76803975270E+02 0.  0.
         66    2    3    3    0    0 -0.13471488580E+02  0.24383817946E+02  0.57470729864E+02  0.63897859664E+02  0.20000241152E+01 0.  0.
        -13    1    3    3    0    0  0.13471488580E+02 -0.24383817946E+02 -0.60797726013E+01  0.28513617467E+02  0.10566000000E+00 0.  1.
         13    1    4    4    0    0 -0.75084479589E-01  0.13200736151E+00  0.21050687527E+00  0.28025132061E+00  0.10566000000E+00 0. -1.
        -13    1    4    4    0    0 -0.82058839231E+01  0.14340648548E+02  0.33282307354E+02  0.37157958482E+02  0.10566000000E+00 0. -1.
         14    1    4    4    0    0 -0.51905201771E+01  0.99111620356E+01  0.23977915635E+02  0.26459649862E+02  0.00000000000E+00 0. -1.
<mgrwt>
<rscale>  0 0.76803975E+02</rscale>
<asrwt>0</asrwt>
<pdfrwt beam="1">  1        2 0.11061726E-01 0.76803975E+02</pdfrwt>
<pdfrwt beam="2">  1       -1 0.31554246E-02 0.76803975E+02</pdfrwt>
<totfact> 0.18142560E+05</totfact>
</mgrwt>
</event>
<event>
 8    1  0.1600673E-013  0.8001132E+02  0.7818608E-02  0.1329019E+00
         -1   -1    0    0    0  501 -0.00000000000E+00  0.00000000000E+00  0.21805322037E+03  0.21805322043E+03  0.50400000000E-02 0.  1.
          2   -1    0    0  501    0  0.00000000000E+00 -0.00000000000E+00 -0.73397338852E+01  0.73397343282E+01  0.25500000000E-02 0. -1.
         24    2    1    2    0    0  0.35527136788E-14  0.00000000000E+00  0.21071348649E+03  0.22539295476E+03  0.80011315870E+02 0.  0.
         66    2    3    3    0    0 -0.22977252231E+02 -0.32601210057E+02  0.97628526172E+02  0.10548043485E+03  0.19999991122E+01 0.  0.
        -13    1    3    3    0    0  0.22977252231E+02  0.32601210057E+02  0.11308496031E+03  0.11991251991E+03  0.10566000000E+00 0.  1.
         13    1    4    4    0    0 -0.99266428144E+01 -0.13376449375E+02  0.39648358069E+02  0.43005477524E+02  0.10566000000E+00 0. -1.
        -13    1    4    4    0    0 -0.12118679000E+02 -0.17903202144E+02  0.54712716032E+02  0.58829240072E+02  0.10566000000E+00 0.  1.
        -14    1    4    4    0    0 -0.93193041662E+00 -0.13215585376E+01  0.32674520709E+01  0.36457172553E+01  0.00000000000E+00 0.  1.
<mgrwt>
<rscale>  0 0.80011316E+02</rscale>
<asrwt>0</asrwt>
<pdfrwt beam="1">  1        2 0.11291900E-02 0.80011316E+02</pdfrwt>
<pdfrwt beam="2">  1       -1 0.33546644E-01 0.80011316E+02</pdfrwt>
<totfact> 0.96925001E+04</totfact>
</mgrwt>
</event>
<event>
 8    1  0.1600673E-013  0.7786976E+02  0.7818608E-02  0.1335208E+00
         -1   -1    0    0    0  501 -0.00000000000E+00  0.00000000000E+00  0.16471905118E+03  0.16471905126E+03  0.50400000000E-02 0.  1.
          2   -1    0    0  501    0  0.00000000000E+00 -0.00000000000E+00 -0.92030936554E+01  0.92030940087E+01  0.25500000000E-02 0. -1.
         24    2    1    2    0    0  0.00000000000E+00  0.00000000000E+00  0.15551595753E+03  0.17392214527E+03  0.77869760300E+02 0.  0.
         66    2    3    3    0    0 -0.38553851670E+02 -0.23990146714E+01  0.88229125250E+02  0.96335524567E+02  0.20000002728E+01 0.  0.
        -13    1    3    3    0    0  0.38553851670E+02  0.23990146714E+01  0.67286832277E+02  0.77586620702E+02  0.10566000000E+00 0.  1.
         13    1    4    4    0    0 -0.58602979113E+01 -0.19334483826E+00  0.13544639040E+02  0.14759704760E+02  0.10566000000E+00 0. -1.
        -13    1    4    4    0    0 -0.26853355473E+02 -0.20343581555E+01  0.59726927509E+02  0.65517618600E+02  0.10566000000E+00 0.  1.
         14    1    4    4    0    0 -0.58401982858E+01 -0.17131167764E+00  0.14957558701E+02  0.16058201207E+02  0.00000000000E+00 0. -1.
<mgrwt>
<rscale>  0 0.77869760E+02</rscale>
<asrwt>0</asrwt>
<pdfrwt beam="1">  1        2 0.14158606E-02 0.77869760E+02</pdfrwt>
<pdfrwt beam="2">  1       -1 0.25341392E-01 0.77869760E+02</pdfrwt>
<totfact> 0.11271251E+05</totfact>
</mgrwt>
</event>
<event>
 8    1  0.1600673E-013  0.8211492E+02  0.7818608E-02  0.1323155E+00
         -1   -1    0    0    0  501 -0.00000000000E+00  0.00000000000E+00  0.29685354176E+01  0.29685396961E+01  0.50400000000E-02 0.  1.
          2   -1    0    0  501    0  0.00000000000E+00 -0.00000000000E+00 -0.56786047650E+03  0.56786047650E+03  0.25500000000E-02 0. -1.
         24    2    1    2    0    0  0.00000000000E+00 -0.44408920985E-15 -0.56489194108E+03  0.57082901620E+03  0.82114923358E+02 0.  0.
         66    2    3    3    0    0  0.24464139579E+02 -0.19829435592E+01 -0.51120126861E+03  0.51179406329E+03  0.20000003561E+01 0.  0.
        -13    1    3    3    0    0 -0.24464139579E+02  0.19829435592E+01 -0.53690672469E+02  0.59034952907E+02  0.10566000000E+00 0.  1.
         13    1    4    4    0    0  0.31080156032E+01 -0.22021606585E+00 -0.66195653505E+02  0.66269027178E+02  0.10566000000E+00 0. -1.
        -13    1    4    4    0    0  0.10715363709E+02  0.22107049889E-01 -0.21878444498E+03  0.21904671656E+03  0.10566000000E+00 0.  1.
        -14    1    4    4    0    0  0.10640760267E+02 -0.17848345433E+01 -0.22622117013E+03  0.22647831955E+03  0.00000000000E+00 0.  1.
<mgrwt>
<rscale>  0 0.82114923E+02</rscale>
<asrwt>0</asrwt>
<pdfrwt beam="1">  1        2 0.87363064E-01 0.82114923E+02</pdfrwt>
<pdfrwt beam="2">  1       -1 0.45669854E-03 0.82114923E+02</pdfrwt>
<totfact> 0.29579832E+05</totfact>
</mgrwt>
</event>
<event>
 8    1  0.1600673E-013  0.8684756E+02  0.7818608E-02  0.1310670E+00
          2   -1    0    0  501    0  0.00000000000E+00  0.00000000000E+00  0.76546907867E+03  0.76546907867E+03  0.25500000000E-02 0. -1.
         -1   -1    0    0    0  501 -0.00000000000E+00 -0.00000000000E+00 -0.24633557689E+01  0.24633609248E+01  0.50400000000E-02 0.  1.
         24    2    1    2    0    0  0.71054273576E-14 -0.35527136788E-14  0.76300572290E+03  0.76793243959E+03  0.86847559601E+02 0.  0.
         66    2    3    3    0    0 -0.31740027647E+02  0.16059511580E+02  0.60157099144E+03  0.60262508660E+03  0.19999997136E+01 0.  0.
        -13    1    3    3    0    0  0.31740027647E+02 -0.16059511580E+02  0.16143473146E+03  0.16530735299E+03  0.10566000000E+00 0.  1.
         13    1    4    4    0    0 -0.22791147389E+02  0.11638730726E+02  0.42672306121E+03  0.42748974091E+03  0.10566000000E+00 0. -1.
        -13    1    4    4    0    0 -0.11417737324E+01  0.55223690911E+00  0.17372022549E+02  0.17418580434E+02  0.10566000000E+00 0.  1.
        -14    1    4    4    0    0 -0.78071065257E+01  0.38685439449E+01  0.15747590768E+03  0.15771676526E+03  0.00000000000E+00 0.  1.
<mgrwt>
<rscale>  0 0.86847560E+02</rscale>
<asrwt>0</asrwt>
<pdfrwt beam="1">  1        2 0.11776451E+00 0.86847560E+02</pdfrwt>
<pdfrwt beam="2">  1       -1 0.37897808E-03 0.86847560E+02</pdfrwt>
<totfact> 0.27515070E+05</totfact>
</mgrwt>
</event>
<event>
 8    1  0.1600673E-013  0.8008408E+02  0.7818608E-02  0.1328813E+00
         -1   -1    0    0    0  501 -0.00000000000E+00  0.00000000000E+00  0.34375123401E+02  0.34375123771E+02  0.50400000000E-02 0.  1.
          2   -1    0    0  501    0  0.00000000000E+00 -0.00000000000E+00 -0.46643175146E+02  0.46643175215E+02  0.25500000000E-02 0. -1.
         24    2    1    2    0    0  0.00000000000E+00  0.00000000000E+00 -0.12268051744E+02  0.81018298986E+02  0.80084078799E+02 0.  0.
         66    2    3    3    0    0  0.34308139882E+02  0.10343782673E+02  0.11883373138E+02  0.37805513956E+02  0.20000065540E+01 0.  0.
        -13    1    3    3    0    0 -0.34308139882E+02 -0.10343782673E+02 -0.24151424882E+02  0.43212785030E+02  0.10566000000E+00 0.  1.
         13    1    4    4    0    0  0.80516304954E+00  0.38085139026E+00  0.45882298349E+00  0.10074809594E+01  0.10566000000E+00 0. -1.
        -13    1    4    4    0    0  0.61933285683E+01  0.18751133799E+01  0.26688026513E+01  0.70005028798E+01  0.10566000000E+00 0.  1.
         14    1    4    4    0    0  0.27309648264E+02  0.80878179028E+01  0.87557475028E+01  0.29797530117E+02  0.00000000000E+00 0. -1.
<mgrwt>
<rscale>  0 0.80084079E+02</rscale>
<asrwt>0</asrwt>
<pdfrwt beam="1">  1        2 0.71758731E-02 0.80084079E+02</pdfrwt>
<pdfrwt beam="2">  1       -1 0.52884806E-02 0.80084079E+02</pdfrwt>
<totfact> 0.14678483E+05</totfact>
</mgrwt>
</event>
<event>
 8    1  0.1600673E-013  0.8044342E+02  0.7818608E-02  0.1327798E+00
          2   -1    0    0  501    0  0.00000000000E+00  0.00000000000E+00  0.10595491680E+04  0.10595491680E+04  0.25500000000E-02 0. -1.
         -1   -1    0    0    0  501 -0.00000000000E+00 -0.00000000000E+00 -0.15268584378E+01  0.15268667561E+01  0.50400000000E-02 0.  1.
         24    2    1    2    0    0  0.00000000000E+00  0.00000000000E+00  0.10580223096E+04  0.10610760348E+04  0.80443421167E+02 0.  0.
         66    2    3    3    0    0  0.17406185945E+02  0.72022488870E+01  0.99772122367E+03  0.99790104112E+03  0.20000000952E+01 0.  0.
        -13    1    3    3    0    0 -0.17406185945E+02 -0.72022488870E+01  0.60301085923E+02  0.63174993674E+02  0.10566000000E+00 0.  1.
         13    1    4    4    0    0  0.85509938747E+01  0.44744345636E+01  0.52766538246E+03  0.52775364241E+03  0.10566000000E+00 0. -1.
        -13    1    4    4    0    0  0.32536448963E+01  0.96025795063E+00  0.18291800093E+03  0.18294948628E+03  0.10566000000E+00 0. -1.
        -14    1    4    4    0    0  0.56015471743E+01  0.17675563728E+01  0.28713784028E+03  0.28719791244E+03  0.00000000000E+00 0.  1.
<mgrwt>
<rscale>  0 0.80443421E+02</rscale>
<asrwt>0</asrwt>
<pdfrwt beam="1">  1        2 0.16300836E+00 0.80443421E+02</pdfrwt>
<pdfrwt beam="2">  1       -1 0.23490079E-03 0.80443421E+02</pdfrwt>
<totfact> 0.34770681E+05</totfact>
</mgrwt>
</event>
<event>
 8    1  0.1600673E-013  0.7913380E+02  0.7818608E-02  0.1331528E+00
         -1   -1    0    0    0  501 -0.00000000000E+00  0.00000000000E+00  0.21435947144E+02  0.21435947736E+02  0.50400000000E-02 0.  1.
          2   -1    0    0  501    0  0.00000000000E+00 -0.00000000000E+00 -0.73033366224E+02  0.73033366268E+02  0.25500000000E-02 0. -1.
         24    2    1    2    0    0  0.00000000000E+00  0.00000000000E+00 -0.51597419080E+02  0.94469314005E+02  0.79133795769E+02 0.  0.
         66    2    3    3    0    0 -0.84831677505E+01  0.25899436908E+02 -0.60016603684E+02  0.65944959486E+02  0.19999991686E+01 0.  0.
        -13    1    3    3    0    0  0.84831677505E+01 -0.25899436908E+02  0.84191846041E+01  0.28524354518E+02  0.10566000000E+00 0.  1.
         13    1    4    4    0    0 -0.47848412343E+01  0.14778824368E+02 -0.36351449243E+02  0.39531599784E+02  0.10566000000E+00 0. -1.
        -13    1    4    4    0    0 -0.24037596783E+01  0.79679147166E+01 -0.16791393239E+02  0.18741071914E+02  0.10566000000E+00 0. -1.
         14    1    4    4    0    0 -0.12945668379E+01  0.31526978239E+01 -0.68737612011E+01  0.76722877889E+01  0.00000000000E+00 0. -1.
<mgrwt>
<rscale>  0 0.79133796E+02</rscale>
<asrwt>0</asrwt>
<pdfrwt beam="1">  1        2 0.11235902E-01 0.79133796E+02</pdfrwt>
<pdfrwt beam="2">  1       -1 0.32978381E-02 0.79133796E+02</pdfrwt>
<totfact> 0.16802963E+05</totfact>
</mgrwt>
</event>
<event>
 8    1  0.1600673E-013  0.7799260E+02  0.7818608E-02  0.1334847E+00
          2   -1    0    0  501    0  0.00000000000E+00  0.00000000000E+00  0.17452354519E+02  0.17452354706E+02  0.25500000000E-02 0. -1.
         -1   -1    0    0    0  501 -0.00000000000E+00 -0.00000000000E+00 -0.87135034836E+02  0.87135034982E+02  0.50400000000E-02 0.  1.
         24    2    1    2    0    0  0.00000000000E+00  0.00000000000E+00 -0.69682680317E+02  0.10458738969E+03  0.77992603146E+02 0.  0.
         66    2    3    3    0    0 -0.52768439493E+01 -0.28484350008E+02  0.91810413733E-01  0.29038107770E+02  0.19999990648E+01 0.  0.
        -13    1    3    3    0    0  0.52768439493E+01  0.28484350008E+02 -0.69774490731E+02  0.75549281917E+02  0.10566000000E+00 0.  1.
         13    1    4    4    0    0 -0.90774140689E+00 -0.27540996650E+01  0.21503082925E+00  0.29097184949E+01  0.10566000000E+00 0. -1.
        -13    1    4    4    0    0 -0.22041416592E+01 -0.16411010876E+02  0.77161787493E-01  0.16558883912E+02  0.10566000000E+00 0.  1.
        -14    1    4    4    0    0 -0.21649608832E+01 -0.93192394677E+01 -0.20038220301E+00  0.95695053639E+01  0.00000000000E+00 0.  1.
<mgrwt>
<rscale>  0 0.77992603E+02</rscale>
<asrwt>0</asrwt>
<pdfrwt beam="1">  1        2 0.26849777E-02 0.77992603E+02</pdfrwt>
<pdfrwt beam="2">  1       -1 0.13405390E-01 0.77992603E+02</pdfrwt>
<totfact> 0.12993987E+05</totfact>
</mgrwt>
</event>
<event>
 8    1  0.1600673E-013  0.8001834E+02  0.7818608E-02  0.1328999E+00
          2   -1    0    0  501    0  0.00000000000E+00  0.00000000000E+00  0.26459851380E+03  0.26459851381E+03  0.25500000000E-02 0. -1.
         -1   -1    0    0    0  501 -0.00000000000E+00 -0.00000000000E+00 -0.60496682775E+01  0.60496703769E+01  0.50400000000E-02 0.  1.
         24    2    1    2    0    0  0.00000000000E+00  0.22204460493E-15  0.25854884552E+03  0.27064818419E+03  0.80018335923E+02 0.  0.
         66    2    3    3    0    0 -0.38710896811E+02 -0.19179866255E+01  0.16258386446E+03  0.16715180281E+03  0.19999986720E+01 0.  0.
        -13    1    3    3    0    0  0.38710896811E+02  0.19179866255E+01  0.95964981063E+02  0.10349638138E+03  0.10566000000E+00 0.  1.
         13    1    4    4    0    0 -0.70842306035E+01 -0.89021756901E+00  0.31957364570E+02  0.32745429068E+02  0.10566000000E+00 0. -1.
        -13    1    4    4    0    0 -0.13138113327E+02 -0.35799877307E+00  0.55652102943E+02  0.57183091127E+02  0.10566000000E+00 0.  1.
         14    1    4    4    0    0 -0.18488552881E+02 -0.66977028342E+00  0.74974396945E+02  0.77223282611E+02  0.00000000000E+00 0. -1.
<mgrwt>
<rscale>  0 0.80018336E+02</rscale>
<asrwt>0</asrwt>
<pdfrwt beam="1">  1        2 0.40707464E-01 0.80018336E+02</pdfrwt>
<pdfrwt beam="2">  1       -1 0.93071835E-03 0.80018336E+02</pdfrwt>
<totfact> 0.24346457E+05</totfact>
</mgrwt>
</event>
<event>
 8    1  0.1600673E-013  0.7482616E+02  0.7818608E-02  0.1344410E+00
          2   -1    0    0  501    0  0.00000000000E+00  0.00000000000E+00  0.98291326730E+03  0.98291326731E+03  0.25500000000E-02 0. -1.
         -1   -1    0    0    0  501 -0.00000000000E+00 -0.00000000000E+00 -0.14240668715E+01  0.14240757901E+01  0.50400000000E-02 0.  1.
         24    2    1    2    0    0 -0.17763568394E-14  0.17763568394E-14  0.98148920043E+03  0.98433734310E+03  0.74826161538E+02 0.  0.
         66    2    3    3    0    0  0.95387639342E+01 -0.12194133778E+02  0.93876003138E+03  0.93888981327E+03  0.20000046832E+01 0.  0.
        -13    1    3    3    0    0 -0.95387639342E+01  0.12194133778E+02  0.42729169052E+02  0.45447529832E+02  0.10566000000E+00 0.  1.
         13    1    4    4    0    0  0.13605568152E+01 -0.10648428051E+01  0.10648082110E+03  0.10649488922E+03  0.10566000000E+00 0. -1.
        -13    1    4    4    0    0  0.70227370000E+00 -0.71380060868E+00  0.44466059552E+02  0.44477458513E+02  0.10566000000E+00 0.  1.
         14    1    4    4    0    0  0.74759334190E+01 -0.10415490364E+02  0.78781315073E+03  0.78791746553E+03  0.00000000000E+00 0. -1.
<mgrwt>
<rscale>  0 0.74826162E+02</rscale>
<asrwt>0</asrwt>
<pdfrwt beam="1">  1        2 0.15121758E+00 0.74826162E+02</pdfrwt>
<pdfrwt beam="2">  1       -1 0.21908767E-03 0.74826162E+02</pdfrwt>
<totfact> 0.41849995E+05</totfact>
</mgrwt>
</event>
<event>
 8    1  0.1600673E-013  0.8028418E+02  0.7818608E-02  0.1328247E+00
         -1   -1    0    0    0  501 -0.00000000000E+00  0.00000000000E+00  0.30947678101E+02  0.30947678511E+02  0.50400000000E-02 0.  1.
          2   -1    0    0  501    0  0.00000000000E+00 -0.00000000000E+00 -0.52068115468E+02  0.52068115531E+02  0.25500000000E-02 0. -1.
         24    2    1    2    0    0  0.00000000000E+00  0.00000000000E+00 -0.21120437368E+02  0.83015794042E+02  0.80284177680E+02 0.  0.
         66    2    3    3    0    0  0.15441457311E+02 -0.29013375109E+02 -0.34353085090E+02  0.47585176366E+02  0.20000038737E+01 0.  0.
        -13    1    3    3    0    0 -0.15441457311E+02  0.29013375109E+02  0.13232647722E+02  0.35430617676E+02  0.10566000000E+00 0.  1.
         13    1    4    4    0    0  0.52795507298E+01 -0.10864704303E+02 -0.12859929924E+02  0.17643820935E+02  0.10566000000E+00 0. -1.
        -13    1    4    4    0    0  0.31655350128E+01 -0.44895765192E+01 -0.53995181647E+01  0.77034323315E+01  0.10566000000E+00 0.  1.
        -14    1    4    4    0    0  0.69963715688E+01 -0.13659094287E+02 -0.16093637001E+02  0.22237923100E+02  0.00000000000E+00 0.  1.
<mgrwt>
<rscale>  0 0.80284178E+02</rscale>
<asrwt>0</asrwt>
<pdfrwt beam="1">  1        2 0.80104793E-02 0.80284178E+02</pdfrwt>
<pdfrwt beam="2">  1       -1 0.47611813E-02 0.80284178E+02</pdfrwt>
<totfact> 0.14930691E+05</totfact>
</mgrwt>
</event>
<event>
 8    1  0.1600673E-013  0.8083775E+02  0.7818608E-02  0.1326691E+00
         -1   -1    0    0    0  501 -0.00000000000E+00  0.00000000000E+00  0.10918144387E+01  0.10918260714E+01  0.50400000000E-02 0.  1.
          2   -1    0    0  501    0  0.00000000000E+00 -0.00000000000E+00 -0.14962950641E+04  0.14962950641E+04  0.25500000000E-02 0. -1.
         24    2    1    2    0    0 -0.88817841970E-15  0.00000000000E+00 -0.14952032497E+04  0.14973868902E+04  0.80837745306E+02 0.  0.
         66    2    3    3    0    0 -0.51490660471E+01  0.95209640552E+01 -0.14689282898E+04  0.14689695307E+04  0.20000051733E+01 0.  0.
        -13    1    3    3    0    0  0.51490660471E+01 -0.95209640552E+01 -0.26274959882E+02  0.28417359457E+02  0.10566000000E+00 0.  1.
         13    1    4    4    0    0 -0.13481743718E+01  0.22456054437E+01 -0.33727149495E+03  0.33728168167E+03  0.10566000000E+00 0. -1.
        -13    1    4    4    0    0 -0.38423746237E+01  0.64394957429E+01 -0.97651169475E+03  0.97654049179E+03  0.10566000000E+00 0.  1.
        -14    1    4    4    0    0  0.41482948398E-01  0.83586286857E+00 -0.15514510008E+03  0.15514735727E+03  0.00000000000E+00 0.  1.
<mgrwt>
<rscale>  0 0.80837745E+02</rscale>
<asrwt>0</asrwt>
<pdfrwt beam="1">  1        2 0.23019760E+00 0.80837745E+02</pdfrwt>
<pdfrwt beam="2">  1       -1 0.16797355E-03 0.80837745E+02</pdfrwt>
<totfact> 0.32392917E+05</totfact>
</mgrwt>
</event>
<event>
 8    1  0.1600673E-013  0.8099745E+02  0.7818608E-02  0.1326244E+00
         -1   -1    0    0    0  501 -0.00000000000E+00  0.00000000000E+00  0.49377338864E+01  0.49377364586E+01  0.50400000000E-02 0.  1.
          2   -1    0    0  501    0  0.00000000000E+00 -0.00000000000E+00 -0.33216582099E+03  0.33216582100E+03  0.25500000000E-02 0. -1.
         24    2    1    2    0    0  0.00000000000E+00  0.00000000000E+00 -0.32722808711E+03  0.33710355746E+03  0.80997453427E+02 0.  0.
         66    2    3    3    0    0 -0.13770472701E+01 -0.40445277046E+02 -0.16642736881E+03  0.17128860378E+03  0.20000006410E+01 0.  0.
        -13    1    3    3    0    0  0.13770472701E+01  0.40445277046E+02 -0.16080071830E+03  0.16581495368E+03  0.10566000000E+00 0.  1.
         13    1    4    4    0    0 -0.27037463630E+00 -0.15090042900E+02 -0.65660258328E+02  0.67372569974E+02  0.10566000000E+00 0. -1.
        -13    1    4    4    0    0 -0.39451628592E+00 -0.83866446278E+01 -0.32157601912E+02  0.33235733420E+02  0.10566000000E+00 0.  1.
         14    1    4    4    0    0 -0.71215634785E+00 -0.16968589517E+02 -0.68609508567E+02  0.70680300387E+02  0.00000000000E+00 0. -1.
<mgrwt>
<rscale>  0 0.80997453E+02</rscale>
<asrwt>0</asrwt>
<pdfrwt beam="1">  1        2 0.51102416E-01 0.80997453E+02</pdfrwt>
<pdfrwt beam="2">  1       -1 0.75965183E-03 0.80997453E+02</pdfrwt>
<totfact> 0.25604437E+05</totfact>
</mgrwt>
</event>
<event>
 8    1  0.1600673E-013  0.8279818E+02  0.7818608E-02  0.1321293E+00
          2   -1    0    0  501    0  0.00000000000E+00  0.00000000000E+00  0.14416272674E+04  0.14416272674E+04  0.25500000000E-02 0. -1.
         -1   -1    0    0    0  501 -0.00000000000E+00 -0.00000000000E+00 -0.11888488091E+01  0.11888594924E+01  0.50400000000E-02 0.  1.
         24    2    1    2    0    0  0.00000000000E+00  0.00000000000E+00  0.14404384186E+04  0.14428161269E+04  0.82798177967E+02 0.  0.
         66    2    3    3    0    0 -0.34095319433E+01  0.13629013769E+02  0.13987878665E+04  0.13988598466E+04  0.20000041208E+01 0.  0.
        -13    1    3    3    0    0  0.34095319433E+01 -0.13629013769E+02  0.41650552068E+02  0.43956280280E+02  0.10566000000E+00 0.  1.
         13    1    4    4    0    0 -0.16664604098E+01  0.77829671989E+01  0.73160122882E+03  0.73164453175E+03  0.10566000000E+00 0. -1.
        -13    1    4    4    0    0 -0.23126156496E+00  0.16784028558E+01  0.14752854533E+03  0.14753831153E+03  0.10566000000E+00 0.  1.
         14    1    4    4    0    0 -0.15118099686E+01  0.41676437145E+01  0.51965809237E+03  0.51967700333E+03  0.00000000000E+00 0. -1.
<mgrwt>
<rscale>  0 0.82798178E+02</rscale>
<asrwt>0</asrwt>
<pdfrwt beam="1">  1        2 0.22178883E+00 0.82798178E+02</pdfrwt>
<pdfrwt beam="2">  1       -1 0.18290062E-03 0.82798178E+02</pdfrwt>
<totfact> 0.30828315E+05</totfact>
</mgrwt>
</event>
<event>
 8    1  0.1600673E-013  0.8035841E+02  0.7818608E-02  0.1328037E+00
         -1   -1    0    0    0  501 -0.00000000000E+00  0.00000000000E+00  0.19174010005E+01  0.19174076244E+01  0.50400000000E-02 0.  1.
          2   -1    0    0  501    0  0.00000000000E+00 -0.00000000000E+00 -0.84195513958E+03  0.84195513959E+03  0.25500000000E-02 0. -1.
         24    2    1    2    0    0  0.00000000000E+00 -0.35527136788E-14 -0.84003773858E+03  0.84387254721E+03  0.80358407737E+02 0.  0.
         66    2    3    3    0    0 -0.17002351517E+02 -0.24654669109E+02 -0.70116383752E+03  0.70180599863E+03  0.19999996388E+01 0.  0.
        -13    1    3    3    0    0  0.17002351517E+02  0.24654669109E+02 -0.13887390106E+03  0.14206654858E+03  0.10566000000E+00 0.  1.
         13    1    4    4    0    0 -0.18912137979E+01 -0.34613061257E+01 -0.84306772017E+02  0.84399053914E+02  0.10566000000E+00 0. -1.
        -13    1    4    4    0    0 -0.30196400547E+01 -0.48305380263E+01 -0.14156840772E+03  0.14168301787E+03  0.10566000000E+00 0.  1.
         14    1    4    4    0    0 -0.12091497664E+02 -0.16362824957E+02 -0.47528865778E+03  0.47572392684E+03  0.00000000000E+00 0. -1.
<mgrwt>
<rscale>  0 0.80358408E+02</rscale>
<asrwt>0</asrwt>
<pdfrwt beam="1">  1        2 0.12953126E+00 0.80358408E+02</pdfrwt>
<pdfrwt beam="2">  1       -1 0.29498595E-03 0.80358408E+02</pdfrwt>
<totfact> 0.34247649E+05</totfact>
</mgrwt>
</event>
<event>
 8    1  0.1600673E-013  0.7720065E+02  0.7818608E-02  0.1337189E+00
          2   -1    0    0  501    0  0.00000000000E+00  0.00000000000E+00  0.32716511080E+02  0.32716511179E+02  0.25500000000E-02 0. -1.
         -1   -1    0    0    0  501 -0.00000000000E+00 -0.00000000000E+00 -0.45542292489E+02  0.45542292768E+02  0.50400000000E-02 0.  1.
         24    2    1    2    0    0 -0.22204460493E-15  0.00000000000E+00 -0.12825781410E+02  0.78258803947E+02  0.77200645894E+02 0.  0.
         66    2    3    3    0    0 -0.51656757243E+00  0.17242823462E+02  0.28557872270E+02  0.33423552649E+02  0.20000000220E+01 0.  0.
        -13    1    3    3    0    0  0.51656757243E+00 -0.17242823462E+02 -0.41383653680E+02  0.44835251298E+02  0.10566000000E+00 0.  1.
         13    1    4    4    0    0 -0.24797024082E+00  0.66734571020E+01  0.10764014779E+02  0.12667742385E+02  0.10566000000E+00 0. -1.
        -13    1    4    4    0    0  0.60956568953E+00  0.29057955201E+01  0.50735710641E+01  0.58794136878E+01  0.10566000000E+00 0.  1.
        -14    1    4    4    0    0 -0.87816302114E+00  0.76635708402E+01  0.12720286427E+02  0.14876396576E+02  0.00000000000E+00 0.  1.
<mgrwt>
<rscale>  0 0.77200646E+02</rscale>
<asrwt>0</asrwt>
<pdfrwt beam="1">  1        2 0.50333094E-02 0.77200646E+02</pdfrwt>
<pdfrwt beam="2">  1       -1 0.70065066E-02 0.77200646E+02</pdfrwt>
<totfact> 0.15114368E+05</totfact>
</mgrwt>
</event>
<event>
 8    1  0.1600673E-013  0.7672257E+02  0.7818608E-02  0.1338618E+00
         -1   -1    0    0    0  501 -0.00000000000E+00  0.00000000000E+00  0.91707397568E+01  0.91707411417E+01  0.50400000000E-02 0.  1.
          2   -1    0    0  501    0  0.00000000000E+00 -0.00000000000E+00 -0.16046559778E+03  0.16046559780E+03  0.25500000000E-02 0. -1.
         24    2    1    2    0    0  0.00000000000E+00  0.00000000000E+00 -0.15129485802E+03  0.16963633894E+03  0.76722574417E+02 0.  0.
         66    2    3    3    0    0 -0.29496146720E+02 -0.43431337282E+01 -0.12897950801E+03  0.13239561537E+03  0.20000000355E+01 0.  0.
        -13    1    3    3    0    0  0.29496146720E+02  0.43431337282E+01 -0.22315350007E+02  0.37240723568E+02  0.10566000000E+00 0.  1.
         13    1    4    4    0    0 -0.12810688384E+02 -0.10773790602E+01 -0.55920896005E+02  0.57379719907E+02  0.10566000000E+00 0. -1.
        -13    1    4    4    0    0 -0.93437168777E+01 -0.19982664360E+01 -0.42765825499E+02  0.43820373213E+02  0.10566000000E+00 0.  1.
        -14    1    4    4    0    0 -0.73417414586E+01 -0.12674882320E+01 -0.30292786507E+02  0.31195522250E+02  0.00000000000E+00 0.  1.
<mgrwt>
<rscale>  0 0.76722574E+02</rscale>
<asrwt>0</asrwt>
<pdfrwt beam="1">  1        2 0.24687013E-01 0.76722574E+02</pdfrwt>
<pdfrwt beam="2">  1       -1 0.14108833E-02 0.76722574E+02</pdfrwt>
<totfact> 0.22868761E+05</totfact>
</mgrwt>
</event>
