<event>
 8    1  0.2389776E-016  0.7943999E+02  0.7818608E-02  0.1330648E+00
          2   -1    0    0  501    0  0.00000000000E+00  0.00000000000E+00  0.12452824882E+02  0.12452825143E+02  0.25500000000E-02 0. -1.
         -1   -1    0    0    0  501 -0.00000000000E+00 -0.00000000000E+00 -0.12669239157E+03  0.12669239167E+03  0.50400000000E-02 0.  1.
         24    2    1    2    0    0  0.00000000000E+00  0.00000000000E+00 -0.11423956668E+03  0.13914521681E+03  0.79439994744E+02 0.  0.
         66    2    3    3    0    0 -0.16552331832E+02 -0.30480697426E+02 -0.90967238266E+02  0.97376029139E+02  0.20000020981E+01 0.  0.
        -13    1    3    3    0    0  0.16552331832E+02  0.30480697426E+02 -0.23272328418E+02  0.41769187671E+02  0.10566000000E+00 0.  1.
         13    1    4    4    0    0 -0.93413404697E+01 -0.15895235048E+02 -0.48650514888E+02  0.52026943999E+02  0.10566000000E+00 0. -1.
        -13    1    4    4    0    0 -0.28590028284E+01 -0.65849417802E+01 -0.19694565127E+02  0.20962404800E+02  0.10566000000E+00 0. -1.
         14    1    4    4    0    0 -0.43519885344E+01 -0.80005205985E+01 -0.22622158252E+02  0.24386680340E+02  0.00000000000E+00 0. -1.
<mgrwt>
<rscale>  0 0.79439995E+02</rscale>
<asrwt>0</asrwt>
<pdfrwt beam="1">  1        2 0.19158193E-02 0.79439995E+02</pdfrwt>
<pdfrwt beam="2">  1       -1 0.19491136E-01 0.79439995E+02</pdfrwt>
<totfact> 0.11442323E+05</totfact>
</mgrwt>
</event>
<event>
 8    1  0.2389776E-016  0.7995194E+02  0.7818608E-02  0.1329188E+00
         -1   -1    0    0    0  501 -0.00000000000E+00  0.00000000000E+00  0.11980846981E+01  0.11980952989E+01  0.50400000000E-02 0.  1.
          2   -1    0    0  501    0  0.00000000000E+00 -0.00000000000E+00 -0.13338550039E+04  0.13338550039E+04  0.25500000000E-02 0. -1.
         24    2    1    2    0    0  0.17763568394E-14 -0.17763568394E-14 -0.13326569192E+04  0.13350530992E+04  0.79951944256E+02 0.  0.
         66    2    3    3    0    0 -0.13928891491E+02  0.85483496689E+01 -0.12754810616E+04  0.12755873262E+04  0.20000001473E+01 0.  0.
        -13    1    3    3    0    0  0.13928891491E+02 -0.85483496689E+01 -0.57175857593E+02  0.59465772977E+02  0.10566000000E+00 0.  1.
         13    1    4    4    0    0 -0.62488320581E+01  0.34579335630E+01 -0.53010094027E+03  0.53014905758E+03  0.10566000000E+00 0. -1.
        -13    1    4    4    0    0 -0.19058351808E+01  0.14351166862E+01 -0.15136063867E+03  0.15137947638E+03  0.10566000000E+00 0. -1.
         14    1    4    4    0    0 -0.57742242523E+01  0.36552994197E+01 -0.59401948265E+03  0.59405879225E+03  0.00000000000E+00 0. -1.
<mgrwt>
<rscale>  0 0.79951944E+02</rscale>
<asrwt>0</asrwt>
<pdfrwt beam="1">  1        2 0.20520727E+00 0.79951944E+02</pdfrwt>
<pdfrwt beam="2">  1       -1 0.18432261E-03 0.79951944E+02</pdfrwt>
<totfact> 0.34485776E+05</totfact>
</mgrwt>
</event>
<event>
 8    1  0.2389776E-016  0.8070238E+02  0.7818608E-02  0.1327070E+00
         -1   -1    0    0    0  501 -0.00000000000E+00  0.00000000000E+00  0.23670631803E+03  0.23670631808E+03  0.50400000000E-02 0.  1.
          2   -1    0    0  501    0  0.00000000000E+00 -0.00000000000E+00 -0.68786442389E+01  0.68786447115E+01  0.25500000000E-02 0. -1.
         24    2    1    2    0    0  0.00000000000E+00 -0.35527136788E-14  0.22982767379E+03  0.24358496279E+03  0.80702381995E+02 0.  0.
         66    2    3    3    0    0 -0.31312208029E+02 -0.23319816962E+02  0.14545951409E+03  0.15062117538E+03  0.19999998240E+01 0.  0.
        -13    1    3    3    0    0  0.31312208029E+02  0.23319816962E+02  0.84368159699E+02  0.92963787411E+02  0.10566000000E+00 0.  1.
         13    1    4    4    0    0 -0.19752705407E+02 -0.13811816877E+02  0.89375381991E+02  0.92568384054E+02  0.10566000000E+00 0. -1.
        -13    1    4    4    0    0 -0.35908400289E+01 -0.31927558580E+01  0.16768466679E+02  0.17443636688E+02  0.10566000000E+00 0.  1.
        -14    1    4    4    0    0 -0.79686625934E+01 -0.63152442266E+01  0.39315665419E+02  0.40609154639E+02  0.00000000000E+00 0.  1.
<mgrwt>
<rscale>  0 0.80702382E+02</rscale>
<asrwt>0</asrwt>
<pdfrwt beam="1">  1        2 0.10582532E-02 0.80702382E+02</pdfrwt>
<pdfrwt beam="2">  1       -1 0.36416349E-01 0.80702382E+02</pdfrwt>
<totfact> 0.92288948E+04</totfact>
</mgrwt>
</event>
<event>
 8    1  0.2389776E-016  0.7941826E+02  0.7818608E-02  0.1330710E+00
          2   -1    0    0  501    0  0.00000000000E+00  0.00000000000E+00  0.16890108973E+04  0.16890108973E+04  0.25500000000E-02 0. -1.
         -1   -1    0    0    0  501 -0.00000000000E+00 -0.00000000000E+00 -0.93356625297E+00  0.93357985748E+00  0.50400000000E-02 0.  1.
         24    2    1    2    0    0  0.88817841970E-15  0.00000000000E+00  0.16880773310E+04  0.16899444772E+04  0.79418261670E+02 0.  0.
         66    2    3    3    0    0 -0.75396071995E+01  0.83901950825E+01  0.16541747029E+04  0.16542143721E+04  0.20000004071E+01 0.  0.
        -13    1    3    3    0    0  0.75396071995E+01 -0.83901950825E+01  0.33902628127E+02  0.35730105069E+02  0.10566000000E+00 0.  1.
         13    1    4    4    0    0 -0.12245045356E+01  0.22004481588E+01  0.34600143440E+03  0.34601061422E+03  0.10566000000E+00 0. -1.
        -13    1    4    4    0    0 -0.10946035676E+01  0.17935379800E+01  0.29480898971E+03  0.29481649634E+03  0.10566000000E+00 0. -1.
         14    1    4    4    0    0 -0.52204990963E+01  0.43962089438E+01  0.10133642788E+04  0.10133872615E+04  0.00000000000E+00 0. -1.
<mgrwt>
<rscale>  0 0.79418262E+02</rscale>
<asrwt>0</asrwt>
<pdfrwt beam="1">  1        2 0.25984546E+00 0.79418262E+02</pdfrwt>
<pdfrwt beam="2">  1       -1 0.14362794E-03 0.79418262E+02</pdfrwt>
<totfact> 0.32054495E+05</totfact>
</mgrwt>
</event>
<event>
 8    1  0.2389776E-016  0.8056912E+02  0.7818608E-02  0.1327444E+00
         -1   -1    0    0    0  501 -0.00000000000E+00  0.00000000000E+00  0.26055694710E+01  0.26055743455E+01  0.50400000000E-02 0.  1.
          2   -1    0    0  501    0  0.00000000000E+00 -0.00000000000E+00 -0.62283666304E+03  0.62283666305E+03  0.25500000000E-02 0. -1.
         24    2    1    2    0    0  0.00000000000E+00  0.00000000000E+00 -0.62023109357E+03  0.62544223739E+03  0.80569118665E+02 0.  0.
         66    2    3    3    0    0  0.23401366945E+02 -0.24458997836E+02 -0.47948789185E+03  0.48068545328E+03  0.20000051938E+01 0.  0.
        -13    1    3    3    0    0 -0.23401366945E+02  0.24458997836E+02 -0.14074320172E+03  0.14475678411E+03  0.10566000000E+00 0.  1.
         13    1    4    4    0    0  0.88502104606E+01 -0.10259498125E+02 -0.18531476897E+03  0.18580946770E+03  0.10566000000E+00 0.  1.
        -13    1    4    4    0    0  0.98461542756E+01 -0.95455439971E+01 -0.20374667679E+03  0.20420769728E+03  0.10566000000E+00 0. -1.
        -14    1    4    4    0    0  0.47050022085E+01 -0.46539557138E+01 -0.90426446095E+02  0.90668288298E+02  0.00000000000E+00 0.  1.
<mgrwt>
<rscale>  0 0.80569119E+02</rscale>
<asrwt>0</asrwt>
<pdfrwt beam="1">  1        2 0.95820906E-01 0.80569119E+02</pdfrwt>
<pdfrwt beam="2">  1       -1 0.40085772E-03 0.80569119E+02</pdfrwt>
<totfact> 0.31899270E+05</totfact>
</mgrwt>
</event>
<event>
 8    1  0.2389776E-016  0.8124023E+02  0.7818608E-02  0.1325568E+00
          2   -1    0    0  501    0  0.00000000000E+00  0.00000000000E+00  0.10126552786E+04  0.10126552786E+04  0.25500000000E-02 0. -1.
         -1   -1    0    0    0  501 -0.00000000000E+00 -0.00000000000E+00 -0.16293697188E+01  0.16293775137E+01  0.50400000000E-02 0.  1.
         24    2    1    2    0    0  0.35527136788E-14  0.00000000000E+00  0.10110259089E+04  0.10142846561E+04  0.81240231444E+02 0.  0.
         66    2    3    3    0    0  0.18081729936E+02 -0.17598725445E+02  0.90285824763E+03  0.90321297566E+03  0.19999981667E+01 0.  0.
        -13    1    3    3    0    0 -0.18081729936E+02  0.17598725445E+02  0.10816766123E+03  0.11107168044E+03  0.10566000000E+00 0.  1.
         13    1    4    4    0    0  0.82867457379E+01 -0.82882671998E+01  0.44648654617E+03  0.44664036159E+03  0.10566000000E+00 0. -1.
        -13    1    4    4    0    0  0.60284090204E+01 -0.52612281986E+01  0.27885597806E+03  0.27897076890E+03  0.10566000000E+00 0.  1.
        -14    1    4    4    0    0  0.37665751782E+01 -0.40492300468E+01  0.17751572340E+03  0.17760184517E+03  0.00000000000E+00 0.  1.
<mgrwt>
<rscale>  0 0.81240231E+02</rscale>
<asrwt>0</asrwt>
<pdfrwt beam="1">  1        2 0.15579320E+00 0.81240231E+02</pdfrwt>
<pdfrwt beam="2">  1       -1 0.25067273E-03 0.81240231E+02</pdfrwt>
<totfact> 0.33866657E+05</totfact>
</mgrwt>
</event>
<event>
 8    1  0.2389776E-016  0.7820448E+02  0.7818608E-02  0.1334225E+00
         -1   -1    0    0    0  501 -0.00000000000E+00  0.00000000000E+00  0.27710058866E+02  0.27710059324E+02  0.50400000000E-02 0.  1.
          2   -1    0    0  501    0  0.00000000000E+00 -0.00000000000E+00 -0.55177987103E+02  0.55177987162E+02  0.25500000000E-02 0. -1.
         24    2    1    2    0    0  0.00000000000E+00  0.00000000000E+00 -0.27467928237E+02  0.82888046486E+02  0.78204483047E+02 0.  0.
         66    2    3    3    0    0 -0.22124480107E+02 -0.26463426104E+02  0.57190944355E+01  0.35021615879E+02  0.19999991102E+01 0.  0.
        -13    1    3    3    0    0  0.22124480107E+02  0.26463426104E+02 -0.33187022673E+02  0.47866430607E+02  0.10566000000E+00 0.  1.
         13    1    4    4    0    0 -0.18804964761E+02 -0.21956743764E+02  0.51352352148E+01  0.29361660395E+02  0.10566000000E+00 0. -1.
        -13    1    4    4    0    0 -0.11892096292E+01 -0.13049441564E+01 -0.97820650558E-02  0.17687166302E+01  0.10566000000E+00 0.  1.
         14    1    4    4    0    0 -0.21303057161E+01 -0.32017381835E+01  0.59364128576E+00  0.38912388536E+01  0.00000000000E+00 0. -1.
<mgrwt>
<rscale>  0 0.78204483E+02</rscale>
<asrwt>0</asrwt>
<pdfrwt beam="1">  1        2 0.84889211E-02 0.78204483E+02</pdfrwt>
<pdfrwt beam="2">  1       -1 0.42630861E-02 0.78204483E+02</pdfrwt>
<totfact> 0.16246523E+05</totfact>
</mgrwt>
</event>
<event>
 8    1  0.2389776E-016  0.8143690E+02  0.7818608E-02  0.1325022E+00
         -1   -1    0    0    0  501 -0.00000000000E+00  0.00000000000E+00  0.19883176187E+03  0.19883176193E+03  0.50400000000E-02 0.  1.
          2   -1    0    0  501    0  0.00000000000E+00 -0.00000000000E+00 -0.83386683697E+01  0.83386687596E+01  0.25500000000E-02 0. -1.
         24    2    1    2    0    0  0.88817841970E-15 -0.71054273576E-14  0.19049309350E+03  0.20717043069E+03  0.81436900005E+02 0.  0.
         66    2    3    3    0    0  0.55193943981E+01 -0.31238958519E+02  0.30463301988E+02  0.44026685551E+02  0.20000071615E+01 0.  0.
        -13    1    3    3    0    0 -0.55193943981E+01  0.31238958519E+02  0.16002979151E+03  0.16314374514E+03  0.10566000000E+00 0.  1.
         13    1    4    4    0    0  0.21540929108E+01 -0.14262451674E+02  0.13591925845E+02  0.19819416143E+02  0.10566000000E+00 0. -1.
        -13    1    4    4    0    0  0.32983578838E+01 -0.16568817197E+02  0.16126645145E+02  0.23355614222E+02  0.10566000000E+00 0.  1.
        -14    1    4    4    0    0  0.66943603389E-01 -0.40768964813E+00  0.74473099780E+00  0.85165518510E+00  0.00000000000E+00 0.  1.
<mgrwt>
<rscale>  0 0.81436900E+02</rscale>
<asrwt>0</asrwt>
<pdfrwt beam="1">  1        2 0.12828721E-02 0.81436900E+02</pdfrwt>
<pdfrwt beam="2">  1       -1 0.30589501E-01 0.81436900E+02</pdfrwt>
<totfact> 0.95359068E+04</totfact>
</mgrwt>
</event>
<event>
 8    1  0.2389776E-016  0.7802385E+02  0.7818608E-02  0.1334755E+00
         -1   -1    0    0    0  501 -0.00000000000E+00  0.00000000000E+00  0.92938213226E+02  0.92938213362E+02  0.50400000000E-02 0.  1.
          2   -1    0    0  501    0  0.00000000000E+00 -0.00000000000E+00 -0.16375721805E+02  0.16375722004E+02  0.25500000000E-02 0. -1.
         24    2    1    2    0    0  0.00000000000E+00 -0.35527136788E-14  0.76562491421E+02  0.10931393537E+03  0.78023851306E+02 0.  0.
         66    2    3    3    0    0  0.24512328044E+02  0.30272814526E+02  0.40577506515E+02  0.56283492900E+02  0.20000031346E+01 0.  0.
        -13    1    3    3    0    0 -0.24512328044E+02 -0.30272814526E+02  0.35984984905E+02  0.53030442466E+02  0.10566000000E+00 0.  1.
         13    1    4    4    0    0  0.90558245327E+01  0.11614023753E+02  0.15549568777E+02  0.21417137038E+02  0.10566000000E+00 0. -1.
        -13    1    4    4    0    0  0.12560659237E+02  0.15746396229E+02  0.20178557037E+02  0.28511479842E+02  0.10566000000E+00 0.  1.
        -14    1    4    4    0    0  0.28958442740E+01  0.29123945439E+01  0.48493807015E+01  0.63548760198E+01  0.00000000000E+00 0.  1.
<mgrwt>
<rscale>  0 0.78023851E+02</rscale>
<asrwt>0</asrwt>
<pdfrwt beam="1">  1        2 0.25193418E-02 0.78023851E+02</pdfrwt>
<pdfrwt beam="2">  1       -1 0.14298187E-01 0.78023851E+02</pdfrwt>
<totfact> 0.12810434E+05</totfact>
</mgrwt>
</event>
<event>
 8    1  0.2389776E-016  0.7521193E+02  0.7818608E-02  0.1343216E+00
          2   -1    0    0  501    0  0.00000000000E+00  0.00000000000E+00  0.32930859247E+03  0.32930859248E+03  0.25500000000E-02 0. -1.
         -1   -1    0    0    0  501 -0.00000000000E+00 -0.00000000000E+00 -0.42944763070E+01  0.42944792645E+01  0.50400000000E-02 0.  1.
         24    2    1    2    0    0  0.00000000000E+00  0.44408920985E-15  0.32501411616E+03  0.33360307174E+03  0.75211925730E+02 0.  0.
         66    2    3    3    0    0 -0.32306091895E+02  0.36212408391E+01  0.24624086176E+03  0.24838550471E+03  0.19999971884E+01 0.  0.
        -13    1    3    3    0    0  0.32306091895E+02 -0.36212408391E+01  0.78773254401E+02  0.85217567037E+02  0.10566000000E+00 0.  1.
         13    1    4    4    0    0 -0.71347633233E+01  0.10892752751E+01  0.54285290688E+02  0.54763083528E+02  0.10566000000E+00 0. -1.
        -13    1    4    4    0    0 -0.63196680951E+01 -0.71503795745E-01  0.47825750104E+02  0.48241650621E+02  0.10566000000E+00 0.  1.
        -14    1    4    4    0    0 -0.18851660476E+02  0.26034693597E+01  0.14412982097E+03  0.14538077056E+03  0.00000000000E+00 0.  1.
<mgrwt>
<rscale>  0 0.75211926E+02</rscale>
<asrwt>0</asrwt>
<pdfrwt beam="1">  1        2 0.50662864E-01 0.75211926E+02</pdfrwt>
<pdfrwt beam="2">  1       -1 0.66068885E-03 0.75211926E+02</pdfrwt>
<totfact> 0.30976364E+05</totfact>
</mgrwt>
</event>
<event>
 8    1  0.2389776E-016  0.8054669E+02  0.7818608E-02  0.1327507E+00
          2   -1    0    0  501    0  0.00000000000E+00  0.00000000000E+00  0.16439512137E+03  0.16439512139E+03  0.25500000000E-02 0. -1.
         -1   -1    0    0    0  501 -0.00000000000E+00 -0.00000000000E+00 -0.98661218136E+01  0.98661231009E+01  0.50400000000E-02 0.  1.
         24    2    1    2    0    0  0.17763568394E-14  0.00000000000E+00  0.15452899955E+03  0.17426124449E+03  0.80546692219E+02 0.  0.
         66    2    3    3    0    0  0.11384737375E+02  0.10713708342E+02  0.15755182887E+03  0.15833816524E+03  0.20000004289E+01 0.  0.
        -13    1    3    3    0    0 -0.11384737375E+02 -0.10713708342E+02 -0.30228293131E+01  0.15923079245E+02  0.10566000000E+00 0.  1.
         13    1    4    4    0    0  0.79622235525E+01  0.72339740460E+01  0.11529123135E+03  0.11579208338E+03  0.10566000000E+00 0. -1.
        -13    1    4    4    0    0  0.17153194162E+01  0.21715270274E+01  0.24045624037E+02  0.24204566712E+02  0.10566000000E+00 0.  1.
         14    1    4    4    0    0  0.17071944068E+01  0.13082072687E+01  0.18214973485E+02  0.18341515151E+02  0.00000000000E+00 0. -1.
<mgrwt>
<rscale>  0 0.80546692E+02</rscale>
<asrwt>0</asrwt>
<pdfrwt beam="1">  1        2 0.25291557E-01 0.80546692E+02</pdfrwt>
<pdfrwt beam="2">  1       -1 0.15178650E-02 0.80546692E+02</pdfrwt>
<totfact> 0.20269208E+05</totfact>
</mgrwt>
</event>
<event>
 8    1  0.2389776E-016  0.8131722E+02  0.7818608E-02  0.1325354E+00
         -1   -1    0    0    0  501 -0.00000000000E+00  0.00000000000E+00  0.33099189862E+01  0.33099228234E+01  0.50400000000E-02 0.  1.
          2   -1    0    0  501    0  0.00000000000E+00 -0.00000000000E+00 -0.49944474619E+03  0.49944474620E+03  0.25500000000E-02 0. -1.
         24    2    1    2    0    0  0.88817841970E-15 -0.71054273576E-14 -0.49613482721E+03  0.50275466902E+03  0.81317221157E+02 0.  0.
         66    2    3    3    0    0  0.56725491770E+01 -0.39416994107E+02 -0.29815513881E+03  0.30080951454E+03  0.19999996327E+01 0.  0.
        -13    1    3    3    0    0 -0.56725491770E+01  0.39416994107E+02 -0.19797968840E+03  0.20194515449E+03  0.10566000000E+00 0.  1.
         13    1    4    4    0    0  0.23223951967E+01 -0.21091556924E+02 -0.16121215247E+03  0.16260263393E+03  0.10566000000E+00 0. -1.
        -13    1    4    4    0    0  0.79732207535E+00 -0.28144790487E+01 -0.22154922720E+02  0.22347455774E+02  0.10566000000E+00 0.  1.
        -14    1    4    4    0    0  0.25528319050E+01 -0.15510958134E+02 -0.11478806362E+03  0.11585942483E+03  0.00000000000E+00 0.  1.
<mgrwt>
<rscale>  0 0.81317221E+02</rscale>
<asrwt>0</asrwt>
<pdfrwt beam="1">  1        2 0.76837594E-01 0.81317221E+02</pdfrwt>
<pdfrwt beam="2">  1       -1 0.50921900E-03 0.81317221E+02</pdfrwt>
<totfact> 0.29171094E+05</totfact>
</mgrwt>
</event>
<event>
 8    1  0.2389776E-016  0.7868583E+02  0.7818608E-02  0.1332823E+00
         -1   -1    0    0    0  501 -0.00000000000E+00  0.00000000000E+00  0.32267532988E+01  0.32267572349E+01  0.50400000000E-02 0.  1.
          2   -1    0    0  501    0  0.00000000000E+00 -0.00000000000E+00 -0.47969709483E+03  0.47969709484E+03  0.25500000000E-02 0. -1.
         24    2    1    2    0    0  0.00000000000E+00  0.00000000000E+00 -0.47647034154E+03  0.48292385208E+03  0.78685834436E+02 0.  0.
         66    2    3    3    0    0  0.25002616795E+02 -0.22054803858E+02 -0.36629276450E+03  0.36781236322E+03  0.19999992562E+01 0.  0.
        -13    1    3    3    0    0 -0.25002616795E+02  0.22054803858E+02 -0.11017757704E+03  0.11511148885E+03  0.10566000000E+00 0.  1.
         13    1    4    4    0    0  0.10655083350E+02 -0.10408411634E+02 -0.16598498483E+03  0.16665200925E+03  0.10566000000E+00 0. -1.
        -13    1    4    4    0    0  0.82168789349E+01 -0.61630622197E+01 -0.11328215707E+03  0.11374690638E+03  0.10566000000E+00 0.  1.
         14    1    4    4    0    0  0.61306545102E+01 -0.54833300044E+01 -0.87025622595E+02  0.87413447597E+02  0.00000000000E+00 0. -1.
<mgrwt>
<rscale>  0 0.78685834E+02</rscale>
<asrwt>0</asrwt>
<pdfrwt beam="1">  1        2 0.73799497E-01 0.78685834E+02</pdfrwt>
<pdfrwt beam="2">  1       -1 0.49642427E-03 0.78685834E+02</pdfrwt>
<totfact> 0.31372099E+05</totfact>
</mgrwt>
</event>
<event>
 8    1  0.2389776E-016  0.7901686E+02  0.7818608E-02  0.1331865E+00
          2   -1    0    0  501    0  0.00000000000E+00  0.00000000000E+00  0.82055683105E+03  0.82055683106E+03  0.25500000000E-02 0. -1.
         -1   -1    0    0    0  501 -0.00000000000E+00 -0.00000000000E+00 -0.19022609679E+01  0.19022676446E+01  0.50400000000E-02 0.  1.
         24    2    1    2    0    0  0.00000000000E+00 -0.17763568394E-14  0.81865457008E+03  0.82245909870E+03  0.79016858427E+02 0.  0.
         66    2    3    3    0    0  0.23931844284E+02 -0.13805054416E+02  0.70317894030E+03  0.70372433152E+03  0.20000000470E+01 0.  0.
        -13    1    3    3    0    0 -0.23931844284E+02  0.13805054416E+02  0.11547562979E+03  0.11873476718E+03  0.10566000000E+00 0.  1.
         13    1    4    4    0    0  0.13361909656E+02 -0.84503756367E+01  0.40027666747E+03  0.40058878063E+03  0.10566000000E+00 0. -1.
        -13    1    4    4    0    0  0.42075642012E+01 -0.22130359671E+01  0.10968820459E+03  0.10979123151E+03  0.10566000000E+00 0.  1.
        -14    1    4    4    0    0  0.63623704267E+01 -0.31416428124E+01  0.19321406823E+03  0.19334431939E+03  0.00000000000E+00 0.  1.
<mgrwt>
<rscale>  0 0.79016858E+02</rscale>
<asrwt>0</asrwt>
<pdfrwt beam="1">  1        2 0.12623963E+00 0.79016858E+02</pdfrwt>
<pdfrwt beam="2">  1       -1 0.29265577E-03 0.79016858E+02</pdfrwt>
<totfact> 0.35636653E+05</totfact>
</mgrwt>
</event>
<event>
 8    1  0.2389776E-016  0.7897542E+02  0.7818608E-02  0.1331984E+00
         -1   -1    0    0    0  501 -0.00000000000E+00  0.00000000000E+00  0.19279872745E+02  0.19279873404E+02  0.50400000000E-02 0.  1.
          2   -1    0    0  501    0  0.00000000000E+00 -0.00000000000E+00 -0.80876007869E+02  0.80876007909E+02  0.25500000000E-02 0. -1.
         24    2    1    2    0    0  0.00000000000E+00  0.22204460493E-15 -0.61596135124E+02  0.10015588131E+03  0.78975418324E+02 0.  0.
         66    2    3    3    0    0 -0.36236551126E+02  0.90301840002E+00 -0.50601990312E+02  0.62277319250E+02  0.19999974383E+01 0.  0.
        -13    1    3    3    0    0  0.36236551126E+02 -0.90301840002E+00 -0.10994144812E+02  0.37878562063E+02  0.10566000000E+00 0.  1.
         13    1    4    4    0    0 -0.93330578559E+01  0.27623180910E+00 -0.12717815337E+02  0.15777714154E+02  0.10566000000E+00 0. -1.
        -13    1    4    4    0    0 -0.13215366601E+02 -0.52663142926E+00 -0.18636828065E+02  0.22853135002E+02  0.10566000000E+00 0.  1.
        -14    1    4    4    0    0 -0.13688126670E+02  0.11534180202E+01 -0.19247346910E+02  0.23646470095E+02  0.00000000000E+00 0.  1.
<mgrwt>
<rscale>  0 0.78975418E+02</rscale>
<asrwt>0</asrwt>
<pdfrwt beam="1">  1        2 0.12442463E-01 0.78975418E+02</pdfrwt>
<pdfrwt beam="2">  1       -1 0.29661344E-02 0.78975418E+02</pdfrwt>
<totfact> 0.17333869E+05</totfact>
</mgrwt>
</event>
<event>
 8    1  0.2389776E-016  0.8019194E+02  0.7818608E-02  0.1328508E+00
          2   -1    0    0  501    0  0.00000000000E+00  0.00000000000E+00  0.66396787848E+03  0.66396787849E+03  0.25500000000E-02 0. -1.
         -1   -1    0    0    0  501 -0.00000000000E+00 -0.00000000000E+00 -0.24213293808E+01  0.24213346261E+01  0.50400000000E-02 0.  1.
         24    2    1    2    0    0  0.35527136788E-14  0.00000000000E+00  0.66154654910E+03  0.66638921311E+03  0.80191936787E+02 0.  0.
         66    2    3    3    0    0  0.30503042415E+02 -0.55785190558E+01  0.54188144329E+03  0.54277164080E+03  0.20000011300E+01 0.  0.
        -13    1    3    3    0    0 -0.30503042415E+02  0.55785190558E+01  0.11966510581E+03  0.12361757231E+03  0.10566000000E+00 0.  1.
         13    1    4    4    0    0  0.49329660669E+01 -0.10691240943E+01  0.98119164735E+02  0.98248963521E+02  0.10566000000E+00 0.  1.
        -13    1    4    4    0    0  0.15423538082E+02 -0.22070629901E+01  0.26986962901E+03  0.27031904202E+03  0.10566000000E+00 0. -1.
        -14    1    4    4    0    0  0.10146538266E+02 -0.23023319714E+01  0.17389264954E+03  0.17420363526E+03  0.00000000000E+00 0.  1.
<mgrwt>
<rscale>  0 0.80191937E+02</rscale>
<asrwt>0</asrwt>
<pdfrwt beam="1">  1        2 0.10214896E+00 0.80191937E+02</pdfrwt>
<pdfrwt beam="2">  1       -1 0.37251241E-03 0.80191937E+02</pdfrwt>
<totfact> 0.32827884E+05</totfact>
</mgrwt>
</event>
<event>
 8    1  0.2389776E-016  0.7999743E+02  0.7818608E-02  0.1329059E+00
         -1   -1    0    0    0  501 -0.00000000000E+00  0.00000000000E+00  0.88300398838E+02  0.88300398982E+02  0.50400000000E-02 0.  1.
          2   -1    0    0  501    0  0.00000000000E+00 -0.00000000000E+00 -0.18118798807E+02  0.18118798986E+02  0.25500000000E-02 0. -1.
         24    2    1    2    0    0  0.00000000000E+00 -0.35527136788E-14  0.70181600031E+02  0.10641919797E+03  0.79997429416E+02 0.  0.
         66    2    3    3    0    0 -0.79629022572E+01 -0.25920806607E+02 -0.39577157015E+01  0.27476526814E+02  0.19999961707E+01 0.  0.
        -13    1    3    3    0    0  0.79629022572E+01  0.25920806607E+02  0.74139315732E+02  0.78942671153E+02  0.10566000000E+00 0.  1.
         13    1    4    4    0    0 -0.51062453113E+01 -0.13458073420E+02 -0.21283044188E+01  0.14551093605E+02  0.10566000000E+00 0. -1.
        -13    1    4    4    0    0 -0.12607481199E+00 -0.71030527012E+00 -0.13652477004E+00  0.74177589838E+00  0.10566000000E+00 0. -1.
         14    1    4    4    0    0 -0.27305821340E+01 -0.11752427917E+02 -0.16928865126E+01  0.12183657311E+02  0.00000000000E+00 0. -1.
<mgrwt>
<rscale>  0 0.79997429E+02</rscale>
<asrwt>0</asrwt>
<pdfrwt beam="1">  1        2 0.27875075E-02 0.79997429E+02</pdfrwt>
<pdfrwt beam="2">  1       -1 0.13584677E-01 0.79997429E+02</pdfrwt>
<totfact> 0.12168490E+05</totfact>
</mgrwt>
</event>
<event>
 8    1  0.2389776E-016  0.8340182E+02  0.7818608E-02  0.1319666E+00
         -1   -1    0    0    0  501 -0.00000000000E+00  0.00000000000E+00  0.68843208051E+02  0.68843208236E+02  0.50400000000E-02 0.  1.
          2   -1    0    0  501    0  0.00000000000E+00 -0.00000000000E+00 -0.25259805549E+02  0.25259805678E+02  0.25500000000E-02 0. -1.
         24    2    1    2    0    0  0.00000000000E+00  0.00000000000E+00  0.43583402502E+02  0.94103013914E+02  0.83401824045E+02 0.  0.
         66    2    3    3    0    0  0.17895766235E+02 -0.18274675478E+02 -0.15322801049E+02  0.29883280235E+02  0.19999981642E+01 0.  0.
        -13    1    3    3    0    0 -0.17895766235E+02  0.18274675478E+02  0.58906203551E+02  0.64219733679E+02  0.10566000000E+00 0.  1.
         13    1    4    4    0    0  0.57868302596E+01 -0.54366384266E+01 -0.45006557292E+01  0.91275137833E+01  0.10566000000E+00 0. -1.
        -13    1    4    4    0    0  0.10123692246E+02 -0.10918127741E+02 -0.97236916361E+01  0.17783587971E+02  0.10566000000E+00 0.  1.
        -14    1    4    4    0    0  0.19852437296E+01 -0.19199093100E+01 -0.10984536836E+01  0.29721784804E+01  0.00000000000E+00 0.  1.
<mgrwt>
<rscale>  0 0.83401824E+02</rscale>
<asrwt>0</asrwt>
<pdfrwt beam="1">  1        2 0.38861240E-02 0.83401824E+02</pdfrwt>
<pdfrwt beam="2">  1       -1 0.10591263E-01 0.83401824E+02</pdfrwt>
<totfact> 0.11555631E+05</totfact>
</mgrwt>
</event>
<event>
 8    1  0.2389776E-016  0.8138873E+02  0.7818608E-02  0.1325156E+00
          2   -1    0    0  501    0  0.00000000000E+00  0.00000000000E+00  0.32880618011E+02  0.32880618110E+02  0.25500000000E-02 0. -1.
         -1   -1    0    0    0  501 -0.00000000000E+00 -0.00000000000E+00 -0.50364968432E+02  0.50364968684E+02  0.50400000000E-02 0.  1.
         24    2    1    2    0    0  0.00000000000E+00  0.00000000000E+00 -0.17484350421E+02  0.83245586794E+02  0.81388729017E+02 0.  0.
         66    2    3    3    0    0 -0.16630631418E+02  0.14718380084E+02  0.26100649341E+02  0.34328596065E+02  0.19999995229E+01 0.  0.
        -13    1    3    3    0    0  0.16630631418E+02 -0.14718380084E+02 -0.43584999762E+02  0.48916990729E+02  0.10566000000E+00 0.  1.
         13    1    4    4    0    0 -0.52682914631E+01  0.47349292230E+01  0.72403084983E+01  0.10129544949E+02  0.10566000000E+00 0. -1.
        -13    1    4    4    0    0 -0.51283695886E+01  0.50120693028E+01  0.83649511833E+01  0.11018374910E+02  0.10566000000E+00 0.  1.
        -14    1    4    4    0    0 -0.62339703664E+01  0.49713815587E+01  0.10495389659E+02  0.13180676205E+02  0.00000000000E+00 0.  1.
<mgrwt>
<rscale>  0 0.81388729E+02</rscale>
<asrwt>0</asrwt>
<pdfrwt beam="1">  1        2 0.50585566E-02 0.81388729E+02</pdfrwt>
<pdfrwt beam="2">  1       -1 0.77484568E-02 0.81388729E+02</pdfrwt>
<totfact> 0.13058657E+05</totfact>
</mgrwt>
</event>
<event>
 8    1  0.2389776E-016  0.7479252E+02  0.7818608E-02  0.1344515E+00
         -1   -1    0    0    0  501 -0.00000000000E+00  0.00000000000E+00  0.81891958118E+02  0.81891958273E+02  0.50400000000E-02 0.  1.
          2   -1    0    0  501    0  0.00000000000E+00 -0.00000000000E+00 -0.17077137280E+02  0.17077137470E+02  0.25500000000E-02 0. -1.
         24    2    1    2    0    0  0.17763568394E-14  0.00000000000E+00  0.64814820838E+02  0.98969095743E+02  0.74792519090E+02 0.  0.
         66    2    3    3    0    0 -0.15786789494E+02  0.20175326502E+02 -0.35708132878E+01  0.25942575623E+02  0.20000001087E+01 0.  0.
        -13    1    3    3    0    0  0.15786789494E+02 -0.20175326502E+02  0.68385634126E+02  0.73026520120E+02  0.10566000000E+00 0.  1.
         13    1    4    4    0    0 -0.98666997427E+01  0.13301121024E+02 -0.26320550110E+01  0.16769330992E+02  0.10566000000E+00 0. -1.
        -13    1    4    4    0    0 -0.15512032124E+01  0.22273949766E+01  0.62225281270E-01  0.27170859039E+01  0.10566000000E+00 0.  1.
        -14    1    4    4    0    0 -0.43688865389E+01  0.46468105015E+01 -0.10009835580E+01  0.64561587271E+01  0.00000000000E+00 0.  1.
<mgrwt>
<rscale>  0 0.74792519E+02</rscale>
<asrwt>0</asrwt>
<pdfrwt beam="1">  1        2 0.26272519E-02 0.74792519E+02</pdfrwt>
<pdfrwt beam="2">  1       -1 0.12598763E-01 0.74792519E+02</pdfrwt>
<totfact> 0.14592875E+05</totfact>
</mgrwt>
</event>
<event>
 8    1  0.2389776E-016  0.7987797E+02  0.7818608E-02  0.1329398E+00
          2   -1    0    0  501    0  0.00000000000E+00  0.00000000000E+00  0.10105752926E+03  0.10105752929E+03  0.25500000000E-02 0. -1.
         -1   -1    0    0    0  501 -0.00000000000E+00 -0.00000000000E+00 -0.15784302864E+02  0.15784303669E+02  0.50400000000E-02 0.  1.
         24    2    1    2    0    0  0.00000000000E+00  0.00000000000E+00  0.85273226393E+02  0.11684183296E+03  0.79877974371E+02 0.  0.
         66    2    3    3    0    0 -0.13100517002E+02 -0.12976652588E+02  0.94443536825E+02  0.96247590667E+02  0.20000007907E+01 0.  0.
        -13    1    3    3    0    0  0.13100517002E+02  0.12976652588E+02 -0.91703104319E+01  0.20594242291E+02  0.10566000000E+00 0.  1.
         13    1    4    4    0    0 -0.10487201225E+01 -0.92422717713E+00  0.96909213948E+01  0.97917889727E+01  0.10566000000E+00 0.  1.
        -13    1    4    4    0    0 -0.47792457308E+01 -0.53139275106E+01  0.37246186155E+02  0.37925829753E+02  0.10566000000E+00 0. -1.
         14    1    4    4    0    0 -0.72725511487E+01 -0.67384979001E+01  0.47506429275E+02  0.48529971941E+02  0.00000000000E+00 0. -1.
<mgrwt>
<rscale>  0 0.79877974E+02</rscale>
<asrwt>0</asrwt>
<pdfrwt beam="1">  1        2 0.15547312E-01 0.79877974E+02</pdfrwt>
<pdfrwt beam="2">  1       -1 0.24283543E-02 0.79877974E+02</pdfrwt>
<totfact> 0.17851046E+05</totfact>
</mgrwt>
</event>
<event>
 8    1  0.2389776E-016  0.7548725E+02  0.7818608E-02  0.1342369E+00
          2   -1    0    0  501    0  0.00000000000E+00  0.00000000000E+00  0.46675848726E+02  0.46675848796E+02  0.25500000000E-02 0. -1.
         -1   -1    0    0    0  501 -0.00000000000E+00 -0.00000000000E+00 -0.30520732656E+02  0.30520733072E+02  0.50400000000E-02 0.  1.
         24    2    1    2    0    0  0.00000000000E+00  0.00000000000E+00  0.16155116071E+02  0.77196581868E+02  0.75487247114E+02 0.  0.
         66    2    3    3    0    0 -0.12707086455E+02 -0.15796324335E+02  0.40608796017E+02  0.45432017718E+02  0.20000028367E+01 0.  0.
        -13    1    3    3    0    0  0.12707086455E+02  0.15796324335E+02 -0.24453679946E+02  0.31764564150E+02  0.10566000000E+00 0.  1.
         13    1    4    4    0    0 -0.26738852179E+01 -0.27790892814E+01  0.79003702053E+01  0.87920425846E+01  0.10566000000E+00 0. -1.
        -13    1    4    4    0    0 -0.52881321306E+01 -0.64078967279E+01  0.14876969685E+02  0.17039978667E+02  0.10566000000E+00 0.  1.
         14    1    4    4    0    0 -0.47450691070E+01 -0.66093383253E+01  0.17831456126E+02  0.19599996467E+02  0.00000000000E+00 0. -1.
<mgrwt>
<rscale>  0 0.75487247E+02</rscale>
<asrwt>0</asrwt>
<pdfrwt beam="1">  1        2 0.71808997E-02 0.75487247E+02</pdfrwt>
<pdfrwt beam="2">  1       -1 0.46954974E-02 0.75487247E+02</pdfrwt>
<totfact> 0.17257137E+05</totfact>
</mgrwt>
</event>
<event>
 8    1  0.2389776E-016  0.7961445E+02  0.7818608E-02  0.1330149E+00
         -1   -1    0    0    0  501 -0.00000000000E+00  0.00000000000E+00  0.47659164840E+01  0.47659191489E+01  0.50400000000E-02 0.  1.
          2   -1    0    0  501    0  0.00000000000E+00 -0.00000000000E+00 -0.33248898465E+03  0.33248898466E+03  0.25500000000E-02 0. -1.
         24    2    1    2    0    0  0.00000000000E+00  0.00000000000E+00 -0.32772306816E+03  0.33725490381E+03  0.79614450540E+02 0.  0.
         66    2    3    3    0    0  0.74879277538E+01  0.24509852972E+02 -0.29285693075E+03  0.29398296536E+03  0.20000195977E+01 0.  0.
        -13    1    3    3    0    0 -0.74879277538E+01 -0.24509852972E+02 -0.34866137411E+02  0.43271938444E+02  0.10566000000E+00 0.  1.
         13    1    4    4    0    0  0.28401332498E+01  0.12145310394E+02 -0.13987453696E+03  0.14042959865E+03  0.10566000000E+00 0. -1.
        -13    1    4    4    0    0  0.10911915132E+01  0.23223939897E+01 -0.31904072966E+02  0.32007268684E+02  0.10566000000E+00 0.  1.
         14    1    4    4    0    0  0.35566029908E+01  0.10042148588E+02 -0.12107832082E+03  0.12154609803E+03  0.00000000000E+00 0. -1.
<mgrwt>
<rscale>  0 0.79614451E+02</rscale>
<asrwt>0</asrwt>
<pdfrwt beam="1">  1        2 0.51152133E-01 0.79614451E+02</pdfrwt>
<pdfrwt beam="2">  1       -1 0.73321839E-03 0.79614451E+02</pdfrwt>
<totfact> 0.26795218E+05</totfact>
</mgrwt>
</event>
<event>
 8    1  0.2389776E-016  0.7943788E+02  0.7818608E-02  0.1330654E+00
          2   -1    0    0  501    0  0.00000000000E+00  0.00000000000E+00  0.29320617802E+02  0.29320617912E+02  0.25500000000E-02 0. -1.
         -1   -1    0    0    0  501 -0.00000000000E+00 -0.00000000000E+00 -0.53804939782E+02  0.53804940018E+02  0.50400000000E-02 0.  1.
         24    2    1    2    0    0  0.00000000000E+00  0.00000000000E+00 -0.24484321980E+02  0.83125557930E+02  0.79437877353E+02 0.  0.
         66    2    3    3    0    0 -0.16281657477E+02 -0.68254631283E+01  0.24951989393E+02  0.30631373840E+02  0.19999928808E+01 0.  0.
        -13    1    3    3    0    0  0.16281657477E+02  0.68254631283E+01 -0.49436311373E+02  0.52494184090E+02  0.10566000000E+00 0.  1.
         13    1    4    4    0    0 -0.10446634870E+02 -0.47355240709E+01  0.17571905583E+02  0.20984289318E+02  0.10566000000E+00 0. -1.
        -13    1    4    4    0    0 -0.20644051559E+01 -0.65901592920E+00  0.23200400485E+01  0.31764477809E+01  0.10566000000E+00 0. -1.
         14    1    4    4    0    0 -0.37706174508E+01 -0.14309231282E+01  0.50600437616E+01  0.64706367406E+01  0.00000000000E+00 0. -1.
<mgrwt>
<rscale>  0 0.79437877E+02</rscale>
<asrwt>0</asrwt>
<pdfrwt beam="1">  1        2 0.45108643E-02 0.79437877E+02</pdfrwt>
<pdfrwt beam="2">  1       -1 0.82776831E-02 0.79437877E+02</pdfrwt>
<totfact> 0.13662084E+05</totfact>
</mgrwt>
</event>
<event>
 8    1  0.2389776E-016  0.7953674E+02  0.7818608E-02  0.1330371E+00
          2   -1    0    0  501    0  0.00000000000E+00  0.00000000000E+00  0.42522764111E+03  0.42522764112E+03  0.25500000000E-02 0. -1.
         -1   -1    0    0    0  501 -0.00000000000E+00 -0.00000000000E+00 -0.37192374856E+01  0.37192409005E+01  0.50400000000E-02 0.  1.
         24    2    1    2    0    0  0.00000000000E+00  0.00000000000E+00  0.42150840362E+03  0.42894688202E+03  0.79536741617E+02 0.  0.
         66    2    3    3    0    0  0.34796574727E+02 -0.94844089673E+01  0.30093073739E+03  0.30309085163E+03  0.20000025667E+01 0.  0.
        -13    1    3    3    0    0 -0.34796574727E+02  0.94844089673E+01  0.12057766624E+03  0.12585603039E+03  0.10566000000E+00 0.  1.
         13    1    4    4    0    0  0.16472920216E+02 -0.54968939509E+01  0.14556307371E+03  0.14659533599E+03  0.10566000000E+00 0. -1.
        -13    1    4    4    0    0  0.14419434682E+02 -0.31617909312E+01  0.12145126095E+03  0.12234515507E+03  0.10566000000E+00 0.  1.
         14    1    4    4    0    0  0.39042198286E+01 -0.82572408515E+00  0.33916402732E+02  0.34150360569E+02  0.00000000000E+00 0. -1.
<mgrwt>
<rscale>  0 0.79536742E+02</rscale>
<asrwt>0</asrwt>
<pdfrwt beam="1">  1        2 0.65419571E-01 0.79536742E+02</pdfrwt>
<pdfrwt beam="2">  1       -1 0.57219123E-03 0.79536742E+02</pdfrwt>
<totfact> 0.29299227E+05</totfact>
</mgrwt>
</event>
<event>
 8    1  0.2389776E-016  0.7996631E+02  0.7818608E-02  0.1329147E+00
          2   -1    0    0  501    0  0.00000000000E+00  0.00000000000E+00  0.17820824988E+02  0.17820825170E+02  0.25500000000E-02 0. -1.
         -1   -1    0    0    0  501 -0.00000000000E+00 -0.00000000000E+00 -0.89707005509E+02  0.89707005650E+02  0.50400000000E-02 0.  1.
         24    2    1    2    0    0  0.17763568394E-14 -0.17763568394E-14 -0.71886180521E+02  0.10752783082E+03  0.79966314478E+02 0.  0.
         66    2    3    3    0    0 -0.66791103420E+01  0.13464174764E+02  0.13818911148E+02  0.20514794907E+02  0.19999969356E+01 0.  0.
        -13    1    3    3    0    0  0.66791103420E+01 -0.13464174764E+02 -0.85705091668E+02  0.87013035914E+02  0.10566000000E+00 0.  1.
         13    1    4    4    0    0 -0.16577786018E+01  0.30308972382E+01  0.32812161829E+01  0.47657225723E+01  0.10566000000E+00 0. -1.
        -13    1    4    4    0    0 -0.20863853706E+01  0.62797253478E+01  0.58990572507E+01  0.88655510173E+01  0.10566000000E+00 0.  1.
        -14    1    4    4    0    0 -0.29349463696E+01  0.41535521777E+01  0.46386377139E+01  0.68835213173E+01  0.00000000000E+00 0.  1.
<mgrwt>
<rscale>  0 0.79966314E+02</rscale>
<asrwt>0</asrwt>
<pdfrwt beam="1">  1        2 0.27416654E-02 0.79966314E+02</pdfrwt>
<pdfrwt beam="2">  1       -1 0.13801078E-01 0.79966314E+02</pdfrwt>
<totfact> 0.12140376E+05</totfact>
</mgrwt>
</event>
<event>
 8    1  0.2389776E-016  0.9010462E+02  0.7818608E-02  0.1302599E+00
         -1   -1    0    0    0  501 -0.00000000000E+00  0.00000000000E+00  0.18945464445E+01  0.18945531484E+01  0.50400000000E-02 0.  1.
          2   -1    0    0  501    0  0.00000000000E+00 -0.00000000000E+00 -0.10713418146E+04  0.10713418146E+04  0.25500000000E-02 0. -1.
         24    2    1    2    0    0 -0.17763568394E-14  0.00000000000E+00 -0.10694472682E+04  0.10732363678E+04  0.90104615303E+02 0.  0.
         66    2    3    3    0    0  0.15101733365E+02  0.10772626343E+02 -0.10237140583E+04  0.10238840682E+04  0.19999998624E+01 0.  0.
        -13    1    3    3    0    0 -0.15101733365E+02 -0.10772626343E+02 -0.45733209811E+02  0.49352299568E+02  0.10566000000E+00 0.  1.
         13    1    4    4    0    0  0.70161211508E+01  0.54675812984E+01 -0.45556787488E+03  0.45565471597E+03  0.10566000000E+00 0. -1.
        -13    1    4    4    0    0  0.17181434177E+01  0.12949864339E+01 -0.14996496860E+03  0.14998043865E+03  0.10566000000E+00 0.  1.
         14    1    4    4    0    0  0.63674687967E+01  0.40100586108E+01 -0.41818121487E+03  0.41824891356E+03  0.00000000000E+00 0. -1.
<mgrwt>
<rscale>  0 0.90104615E+02</rscale>
<asrwt>0</asrwt>
<pdfrwt beam="1">  1        2 0.16482133E+00 0.90104615E+02</pdfrwt>
<pdfrwt beam="2">  1       -1 0.29147006E-03 0.90104615E+02</pdfrwt>
<totfact> 0.25852494E+05</totfact>
</mgrwt>
</event>
<event>
 8    1  0.2389776E-016  0.7858664E+02  0.7818608E-02  0.1333111E+00
         -1   -1    0    0    0  501 -0.00000000000E+00  0.00000000000E+00  0.55066596512E+01  0.55066619576E+01  0.50400000000E-02 0.  1.
          2   -1    0    0  501    0  0.00000000000E+00 -0.00000000000E+00 -0.28038132325E+03  0.28038132326E+03  0.25500000000E-02 0. -1.
         24    2    1    2    0    0  0.00000000000E+00  0.00000000000E+00 -0.27487466360E+03  0.28588798522E+03  0.78586636295E+02 0.  0.
         66    2    3    3    0    0 -0.37804501463E+02 -0.10227794793E+02 -0.12712675573E+03  0.13303758920E+03  0.20000006495E+01 0.  0.
        -13    1    3    3    0    0  0.37804501463E+02  0.10227794793E+02 -0.14774790788E+03  0.15285039602E+03  0.10566000000E+00 0.  1.
         13    1    4    4    0    0 -0.10775195866E+02 -0.35020459997E+01 -0.34948931010E+02  0.36739734823E+02  0.10566000000E+00 0.  1.
        -13    1    4    4    0    0 -0.65678465257E+01 -0.14923089243E+01 -0.23411213610E+02  0.24361027906E+02  0.10566000000E+00 0. -1.
         14    1    4    4    0    0 -0.20461459072E+02 -0.52334398689E+01 -0.68766611106E+02  0.71936826475E+02  0.00000000000E+00 0. -1.
<mgrwt>
<rscale>  0 0.78586636E+02</rscale>
<asrwt>0</asrwt>
<pdfrwt beam="1">  1        2 0.43135577E-01 0.78586636E+02</pdfrwt>
<pdfrwt beam="2">  1       -1 0.84717881E-03 0.78586636E+02</pdfrwt>
<totfact> 0.26067713E+05</totfact>
</mgrwt>
</event>
<event>
 8    1  0.2389776E-016  0.8167474E+02  0.7818608E-02  0.1324365E+00
         -1   -1    0    0    0  501 -0.00000000000E+00  0.00000000000E+00  0.24721480220E+01  0.24721531596E+01  0.50400000000E-02 0.  1.
          2   -1    0    0  501    0  0.00000000000E+00 -0.00000000000E+00 -0.67459116814E+03  0.67459116815E+03  0.25500000000E-02 0. -1.
         24    2    1    2    0    0  0.00000000000E+00  0.35527136788E-14 -0.67211902012E+03  0.67706332131E+03  0.81674744269E+02 0.  0.
         66    2    3    3    0    0  0.12351083801E+01  0.16368493776E+02 -0.64601696561E+03  0.64622857638E+03  0.19999969716E+01 0.  0.
        -13    1    3    3    0    0 -0.12351083801E+01 -0.16368493776E+02 -0.26102054505E+02  0.30834744925E+02  0.10566000000E+00 0.  1.
         13    1    4    4    0    0  0.56915502140E+00  0.91853616858E+01 -0.36898532086E+03  0.36910008532E+03  0.10566000000E+00 0. -1.
        -13    1    4    4    0    0 -0.14019235437E+00  0.21406699947E+01 -0.65451465842E+02  0.65486698396E+02  0.10566000000E+00 0. -1.
        -14    1    4    4    0    0  0.80614571305E+00  0.50424620951E+01 -0.21158017891E+03  0.21164179266E+03  0.00000000000E+00 0.  1.
<mgrwt>
<rscale>  0 0.81674744E+02</rscale>
<asrwt>0</asrwt>
<pdfrwt beam="1">  1        2 0.10378311E+00 0.81674744E+02</pdfrwt>
<pdfrwt beam="2">  1       -1 0.38033140E-03 0.81674744E+02</pdfrwt>
<totfact> 0.31420802E+05</totfact>
</mgrwt>
</event>
<event>
 8    1  0.2389776E-016  0.7914315E+02  0.7818608E-02  0.1331501E+00
          2   -1    0    0  501    0  0.00000000000E+00  0.00000000000E+00  0.67415113718E+02  0.67415113766E+02  0.25500000000E-02 0. -1.
         -1   -1    0    0    0  501 -0.00000000000E+00 -0.00000000000E+00 -0.23227872342E+02  0.23227872889E+02  0.50400000000E-02 0.  1.
         24    2    1    2    0    0  0.00000000000E+00  0.00000000000E+00  0.44187241376E+02  0.90642986655E+02  0.79143153396E+02 0.  0.
         66    2    3    3    0    0  0.14393783565E+02 -0.17382222759E+02  0.59300676426E+02  0.63481437429E+02  0.20000000213E+01 0.  0.
        -13    1    3    3    0    0 -0.14393783565E+02  0.17382222759E+02 -0.15113435050E+02  0.27161549227E+02  0.10566000000E+00 0.  1.
         13    1    4    4    0    0  0.72654270107E+01 -0.86906058346E+01  0.30295024126E+02  0.32343665690E+02  0.10566000000E+00 0. -1.
        -13    1    4    4    0    0  0.50810164385E+01 -0.67588433917E+01  0.22987576885E+02  0.24493642994E+02  0.10566000000E+00 0.  1.
        -14    1    4    4    0    0  0.20473401161E+01 -0.19327735327E+01  0.60180754144E+01  0.66441287445E+01  0.00000000000E+00 0.  1.
<mgrwt>
<rscale>  0 0.79143153E+02</rscale>
<asrwt>0</asrwt>
<pdfrwt beam="1">  1        2 0.10371556E-01 0.79143153E+02</pdfrwt>
<pdfrwt beam="2">  1       -1 0.35735189E-02 0.79143153E+02</pdfrwt>
<totfact> 0.16473318E+05</totfact>
</mgrwt>
</event>
<event>
 8    1  0.2389776E-016  0.8000337E+02  0.7818608E-02  0.1329042E+00
          2   -1    0    0  501    0  0.00000000000E+00  0.00000000000E+00  0.67300899469E+03  0.67300899469E+03  0.25500000000E-02 0. -1.
         -1   -1    0    0    0  501 -0.00000000000E+00 -0.00000000000E+00 -0.23775802013E+01  0.23775855432E+01  0.50400000000E-02 0.  1.
         24    2    1    2    0    0 -0.35527136788E-14  0.00000000000E+00  0.67063141449E+03  0.67538658024E+03  0.80003366595E+02 0.  0.
         66    2    3    3    0    0 -0.22647933966E+02  0.64724168954E+00  0.61356985906E+03  0.61399130268E+03  0.19999954402E+01 0.  0.
        -13    1    3    3    0    0  0.22647933966E+02 -0.64724168954E+00  0.57061555426E+02  0.61395277558E+02  0.10566000000E+00 0.  1.
         13    1    4    4    0    0 -0.10029715075E+02  0.71030933258E+00  0.29521034611E+03  0.29538154874E+03  0.10566000000E+00 0. -1.
        -13    1    4    4    0    0 -0.30259015154E+01  0.18412691259E-01  0.80169026790E+02  0.80226183005E+02  0.10566000000E+00 0. -1.
         14    1    4    4    0    0 -0.95923173760E+01 -0.81480334302E-01  0.23819048616E+03  0.23838357093E+03  0.00000000000E+00 0. -1.
<mgrwt>
<rscale>  0 0.80003367E+02</rscale>
<asrwt>0</asrwt>
<pdfrwt beam="1">  1        2 0.10354004E+00 0.80003367E+02</pdfrwt>
<pdfrwt beam="2">  1       -1 0.36578131E-03 0.80003367E+02</pdfrwt>
<totfact> 0.33139197E+05</totfact>
</mgrwt>
</event>
<event>
 8    1  0.2389776E-016  0.7728690E+02  0.7818608E-02  0.1336932E+00
         -1   -1    0    0    0  501 -0.00000000000E+00  0.00000000000E+00  0.15263651625E+02  0.15263652457E+02  0.50400000000E-02 0.  1.
          2   -1    0    0  501    0  0.00000000000E+00 -0.00000000000E+00 -0.97834782183E+02  0.97834782216E+02  0.25500000000E-02 0. -1.
         24    2    1    2    0    0  0.00000000000E+00  0.00000000000E+00 -0.82571130558E+02  0.11309843467E+03  0.77286896198E+02 0.  0.
         66    2    3    3    0    0  0.27584609217E+02 -0.15766622738E+02 -0.73434239830E+02  0.80038020362E+02  0.20000164640E+01 0.  0.
        -13    1    3    3    0    0 -0.27584609217E+02  0.15766622738E+02 -0.91368907279E+01  0.33060414311E+02  0.10566000000E+00 0.  1.
         13    1    4    4    0    0  0.96005055989E+01 -0.55469788794E+01 -0.24531931335E+02  0.26921469155E+02  0.10566000000E+00 0. -1.
        -13    1    4    4    0    0  0.12712253491E+02 -0.75582104315E+01 -0.36386814157E+02  0.39277720686E+02  0.10566000000E+00 0.  1.
        -14    1    4    4    0    0  0.52718501273E+01 -0.26614334272E+01 -0.12515494338E+02  0.13838830521E+02  0.00000000000E+00 0.  1.
<mgrwt>
<rscale>  0 0.77286896E+02</rscale>
<asrwt>0</asrwt>
<pdfrwt beam="1">  1        2 0.15051505E-01 0.77286896E+02</pdfrwt>
<pdfrwt beam="2">  1       -1 0.23482542E-02 0.77286896E+02</pdfrwt>
<totfact> 0.19321390E+05</totfact>
</mgrwt>
</event>
<event>
 8    1  0.2389776E-016  0.7930316E+02  0.7818608E-02  0.1331041E+00
          2   -1    0    0  501    0  0.00000000000E+00  0.00000000000E+00  0.17152509246E+03  0.17152509248E+03  0.25500000000E-02 0. -1.
         -1   -1    0    0    0  501 -0.00000000000E+00 -0.00000000000E+00 -0.91662847540E+01  0.91662861396E+01  0.50400000000E-02 0.  1.
         24    2    1    2    0    0  0.00000000000E+00 -0.17763568394E-14  0.16235880770E+03  0.18069137862E+03  0.79303164295E+02 0.  0.
         66    2    3    3    0    0  0.86866406755E+01  0.92317434002E+01  0.16677473015E+03  0.16726772980E+03  0.20000008068E+01 0.  0.
        -13    1    3    3    0    0 -0.86866406755E+01 -0.92317434002E+01 -0.44159224473E+01  0.13423648816E+02  0.10566000000E+00 0.  1.
         13    1    4    4    0    0  0.41262964529E+00  0.10607885721E+00  0.72143569674E+01  0.72276985574E+01  0.10566000000E+00 0. -1.
        -13    1    4    4    0    0  0.37824047064E+01  0.46003122601E+01  0.84184248008E+02  0.84394716867E+02  0.10566000000E+00 0.  1.
         14    1    4    4    0    0  0.44916063238E+01  0.45253522829E+01  0.75376125176E+02  0.75645314377E+02  0.00000000000E+00 0. -1.
<mgrwt>
<rscale>  0 0.79303164E+02</rscale>
<asrwt>0</asrwt>
<pdfrwt beam="1">  1        2 0.26388474E-01 0.79303164E+02</pdfrwt>
<pdfrwt beam="2">  1       -1 0.14101978E-02 0.79303164E+02</pdfrwt>
<totfact> 0.21421698E+05</totfact>
</mgrwt>
</event>
<event>
 8    1  0.2389776E-016  0.7842234E+02  0.7818608E-02  0.1333589E+00
         -1   -1    0    0    0  501 -0.00000000000E+00  0.00000000000E+00  0.35493067347E+01  0.35493103130E+01  0.50400000000E-02 0.  1.
          2   -1    0    0  501    0  0.00000000000E+00 -0.00000000000E+00 -0.43318747823E+03  0.43318747824E+03  0.25500000000E-02 0. -1.
         24    2    1    2    0    0  0.00000000000E+00  0.00000000000E+00 -0.42963817150E+03  0.43673678855E+03  0.78422344186E+02 0.  0.
         66    2    3    3    0    0 -0.26144210066E+01  0.38786897857E+02 -0.24238411156E+03  0.24548995127E+03  0.19999991093E+01 0.  0.
        -13    1    3    3    0    0  0.26144210066E+01 -0.38786897857E+02 -0.18725405994E+03  0.19124683728E+03  0.10566000000E+00 0.  1.
         13    1    4    4    0    0 -0.18557440491E+01  0.20682564454E+02 -0.13256022684E+03  0.13417688759E+03  0.10566000000E+00 0. -1.
        -13    1    4    4    0    0 -0.50053832044E+00  0.14938593817E+02 -0.92634084249E+02  0.93832280440E+02  0.10566000000E+00 0.  1.
        -14    1    4    4    0    0 -0.25813863714E+00  0.31657395860E+01 -0.17189800469E+02  0.17480783245E+02  0.00000000000E+00 0.  1.
<mgrwt>
<rscale>  0 0.78422344E+02</rscale>
<asrwt>0</asrwt>
<pdfrwt beam="1">  1        2 0.66644186E-01 0.78422344E+02</pdfrwt>
<pdfrwt beam="2">  1       -1 0.54604781E-03 0.78422344E+02</pdfrwt>
<totfact> 0.30590158E+05</totfact>
</mgrwt>
</event>
<event>
 8    1  0.2389776E-016  0.8213252E+02  0.7818608E-02  0.1323106E+00
          2   -1    0    0  501    0  0.00000000000E+00  0.00000000000E+00  0.75679567398E+03  0.75679567398E+03  0.25500000000E-02 0. -1.
         -1   -1    0    0    0  501 -0.00000000000E+00 -0.00000000000E+00 -0.22283893186E+01  0.22283950181E+01  0.50400000000E-02 0.  1.
         24    2    1    2    0    0  0.17763568394E-14 -0.35527136788E-14  0.75456728466E+03  0.75902406900E+03  0.82132516360E+02 0.  0.
         66    2    3    3    0    0  0.93535298168E+01 -0.26909031473E+02  0.65053634364E+03  0.65116289736E+03  0.20000007921E+01 0.  0.
        -13    1    3    3    0    0 -0.93535298168E+01  0.26909031473E+02  0.10403094102E+03  0.10786117165E+03  0.10566000000E+00 0.  1.
         13    1    4    4    0    0  0.41175878571E+01 -0.96767523523E+01  0.24538184042E+03  0.24560711072E+03  0.10566000000E+00 0. -1.
        -13    1    4    4    0    0  0.15845396165E+01 -0.44901307352E+01  0.99074564629E+02  0.99188973985E+02  0.10566000000E+00 0.  1.
         14    1    4    4    0    0  0.36514023432E+01 -0.12742148386E+02  0.30607993859E+03  0.30636681265E+03  0.00000000000E+00 0. -1.
<mgrwt>
<rscale>  0 0.82132516E+02</rscale>
<asrwt>0</asrwt>
<pdfrwt beam="1">  1        2 0.11643022E+00 0.82132516E+02</pdfrwt>
<pdfrwt beam="2">  1       -1 0.34282921E-03 0.82132516E+02</pdfrwt>
<totfact> 0.31763683E+05</totfact>
</mgrwt>
</event>
<event>
 8    1  0.2389776E-016  0.7605113E+02  0.7818608E-02  0.1340647E+00
          2   -1    0    0  501    0  0.00000000000E+00  0.00000000000E+00  0.11669637906E+03  0.11669637909E+03  0.25500000000E-02 0. -1.
         -1   -1    0    0    0  501 -0.00000000000E+00 -0.00000000000E+00 -0.12390645343E+02  0.12390646368E+02  0.50400000000E-02 0.  1.
         24    2    1    2    0    0  0.35527136788E-14  0.00000000000E+00  0.10430573372E+03  0.12908702546E+03  0.76051127902E+02 0.  0.
         66    2    3    3    0    0 -0.26261365982E+02  0.27170006393E+02  0.45384514215E+02  0.59089955074E+02  0.20000173749E+01 0.  0.
        -13    1    3    3    0    0  0.26261365982E+02 -0.27170006393E+02  0.58921219506E+02  0.69997070386E+02  0.10566000000E+00 0.  1.
         13    1    4    4    0    0 -0.45718206671E+01  0.50588783528E+01  0.88146475787E+01  0.11144638638E+02  0.10566000000E+00 0. -1.
        -13    1    4    4    0    0 -0.33310503900E+01  0.27477226960E+01  0.53708866883E+01  0.68922757177E+01  0.10566000000E+00 0.  1.
         14    1    4    4    0    0 -0.18358494924E+02  0.19363405344E+02  0.31198979948E+02  0.41053040718E+02  0.00000000000E+00 0. -1.
<mgrwt>
<rscale>  0 0.76051128E+02</rscale>
<asrwt>0</asrwt>
<pdfrwt beam="1">  1        2 0.17953289E-01 0.76051128E+02</pdfrwt>
<pdfrwt beam="2">  1       -1 0.19062532E-02 0.76051128E+02</pdfrwt>
<totfact> 0.21203895E+05</totfact>
</mgrwt>
</event>
<event>
 8    1  0.2389776E-016  0.7948998E+02  0.7818608E-02  0.1330505E+00
          2   -1    0    0  501    0  0.00000000000E+00  0.00000000000E+00  0.11260203542E+03  0.11260203545E+03  0.25500000000E-02 0. -1.
         -1   -1    0    0    0  501 -0.00000000000E+00 -0.00000000000E+00 -0.14028734908E+02  0.14028735813E+02  0.50400000000E-02 0.  1.
         24    2    1    2    0    0  0.00000000000E+00  0.00000000000E+00  0.98573300516E+02  0.12663077127E+03  0.79489978341E+02 0.  0.
         66    2    3    3    0    0  0.30525841760E+02  0.14678989113E+02  0.16269963996E+02  0.37629927994E+02  0.20000039736E+01 0.  0.
        -13    1    3    3    0    0 -0.30525841760E+02 -0.14678989113E+02  0.82303336520E+02  0.89000843271E+02  0.10566000000E+00 0.  1.
         13    1    4    4    0    0  0.49272984632E+01  0.16960466123E+01  0.23180212192E+01  0.57043168447E+01  0.10566000000E+00 0. -1.
        -13    1    4    4    0    0  0.54400691167E+01  0.31395795452E+01  0.31181617628E+01  0.70132309622E+01  0.10566000000E+00 0.  1.
         14    1    4    4    0    0  0.20158474181E+02  0.98433629553E+01  0.10833781014E+02  0.24912380188E+02  0.00000000000E+00 0. -1.
<mgrwt>
<rscale>  0 0.79489978E+02</rscale>
<asrwt>0</asrwt>
<pdfrwt beam="1">  1        2 0.17323391E-01 0.79489978E+02</pdfrwt>
<pdfrwt beam="2">  1       -1 0.21582669E-02 0.79489978E+02</pdfrwt>
<totfact> 0.18654017E+05</totfact>
</mgrwt>
</event>
<event>
 8    1  0.2389776E-016  0.8133256E+02  0.7818608E-02  0.1325312E+00
          2   -1    0    0  501    0  0.00000000000E+00  0.00000000000E+00  0.28688711001E+02  0.28688711114E+02  0.25500000000E-02 0. -1.
         -1   -1    0    0    0  501 -0.00000000000E+00 -0.00000000000E+00 -0.57644492466E+02  0.57644492686E+02  0.50400000000E-02 0.  1.
         24    2    1    2    0    0  0.00000000000E+00 -0.88817841970E-15 -0.28955781466E+02  0.86333203800E+02  0.81332556816E+02 0.  0.
         66    2    3    3    0    0 -0.23971736453E+02  0.78171481793E+01  0.19347741172E+02  0.31844733300E+02  0.19999990532E+01 0.  0.
        -13    1    3    3    0    0  0.23971736453E+02 -0.78171481793E+01 -0.48303522638E+02  0.54488470501E+02  0.10566000000E+00 0.  1.
         13    1    4    4    0    0 -0.82072459881E+01  0.21246119157E+01  0.56011333117E+01  0.10161531426E+02  0.10566000000E+00 0. -1.
        -13    1    4    4    0    0 -0.12449355669E+02  0.45488985329E+01  0.11124080372E+02  0.17304197831E+02  0.10566000000E+00 0.  1.
         14    1    4    4    0    0 -0.33151347964E+01  0.11436377307E+01  0.26225274886E+01  0.43790040426E+01  0.00000000000E+00 0. -1.
<mgrwt>
<rscale>  0 0.81332557E+02</rscale>
<asrwt>0</asrwt>
<pdfrwt beam="1">  1        2 0.44136479E-02 0.81332557E+02</pdfrwt>
<pdfrwt beam="2">  1       -1 0.88683834E-02 0.81332557E+02</pdfrwt>
<totfact> 0.12731473E+05</totfact>
</mgrwt>
</event>
<event>
 8    1  0.2389776E-016  0.7942521E+02  0.7818608E-02  0.1330691E+00
         -1   -1    0    0    0  501 -0.00000000000E+00  0.00000000000E+00  0.56757372640E+01  0.56757395018E+01  0.50400000000E-02 0.  1.
          2   -1    0    0  501    0  0.00000000000E+00 -0.00000000000E+00 -0.27786531812E+03  0.27786531813E+03  0.25500000000E-02 0. -1.
         24    2    1    2    0    0  0.00000000000E+00 -0.35527136788E-14 -0.27218958085E+03  0.28354105763E+03  0.79425206561E+02 0.  0.
         66    2    3    3    0    0 -0.24038058098E+02 -0.31268816410E+02 -0.12040894120E+03  0.12671969157E+03  0.19999982172E+01 0.  0.
        -13    1    3    3    0    0  0.24038058098E+02  0.31268816410E+02 -0.15178063966E+03  0.15682136607E+03  0.10566000000E+00 0.  1.
         13    1    4    4    0    0 -0.61405909272E+01 -0.72514946363E+01 -0.30507249440E+02  0.31953003987E+02  0.10566000000E+00 0. -1.
        -13    1    4    4    0    0 -0.61511350301E+01 -0.74695143368E+01 -0.28340229716E+02  0.29946784317E+02  0.10566000000E+00 0.  1.
        -14    1    4    4    0    0 -0.11746332141E+02 -0.16547807437E+02 -0.61561462044E+02  0.64819903260E+02  0.00000000000E+00 0.  1.
<mgrwt>
<rscale>  0 0.79425207E+02</rscale>
<asrwt>0</asrwt>
<pdfrwt beam="1">  1        2 0.42748500E-01 0.79425207E+02</pdfrwt>
<pdfrwt beam="2">  1       -1 0.87319074E-03 0.79425207E+02</pdfrwt>
<totfact> 0.25269924E+05</totfact>
</mgrwt>
</event>
<event>
 8    1  0.2389776E-016  0.7890380E+02  0.7818608E-02  0.1332191E+00
         -1   -1    0    0    0  501 -0.00000000000E+00  0.00000000000E+00  0.48248402014E+01  0.48248428338E+01  0.50400000000E-02 0.  1.
          2   -1    0    0  501    0  0.00000000000E+00 -0.00000000000E+00 -0.32259140185E+03  0.32259140186E+03  0.25500000000E-02 0. -1.
         24    2    1    2    0    0  0.00000000000E+00  0.00000000000E+00 -0.31776656165E+03  0.32741624469E+03  0.78903799576E+02 0.  0.
         66    2    3    3    0    0 -0.12091136433E+02  0.17522286729E+02 -0.29668687577E+03  0.29745643106E+03  0.20000023231E+01 0.  0.
        -13    1    3    3    0    0  0.12091136433E+02 -0.17522286729E+02 -0.21079685877E+02  0.29959813637E+02  0.10566000000E+00 0.  1.
         13    1    4    4    0    0 -0.46364100798E+01  0.72771794855E+01 -0.11699538558E+03  0.11731319214E+03  0.10566000000E+00 0. -1.
        -13    1    4    4    0    0 -0.59437918575E+01  0.86044195253E+01 -0.14082740624E+03  0.14121520530E+03  0.10566000000E+00 0. -1.
         14    1    4    4    0    0 -0.15109344960E+01  0.16406877185E+01 -0.38864083959E+02  0.38928033616E+02  0.00000000000E+00 0. -1.
<mgrwt>
<rscale>  0 0.78903800E+02</rscale>
<asrwt>0</asrwt>
<pdfrwt beam="1">  1        2 0.49629430E-01 0.78903800E+02</pdfrwt>
<pdfrwt beam="2">  1       -1 0.74228356E-03 0.78903800E+02</pdfrwt>
<totfact> 0.27134695E+05</totfact>
</mgrwt>
</event>
<event>
 8    1  0.2389776E-016  0.8135250E+02  0.7818608E-02  0.1325256E+00
          2   -1    0    0  501    0  0.00000000000E+00  0.00000000000E+00  0.58285208178E+02  0.58285208234E+02  0.25500000000E-02 0. -1.
         -1   -1    0    0    0  501 -0.00000000000E+00 -0.00000000000E+00 -0.28387255388E+02  0.28387255836E+02  0.50400000000E-02 0.  1.
         24    2    1    2    0    0  0.35527136788E-14  0.00000000000E+00  0.29897952790E+02  0.86672464070E+02  0.81352495025E+02 0.  0.
         66    2    3    3    0    0 -0.30426791191E+02 -0.32787705712E+01  0.43466230348E+02  0.53196363960E+02  0.19999998190E+01 0.  0.
        -13    1    3    3    0    0  0.30426791191E+02  0.32787705712E+01 -0.13568277557E+02  0.33476100110E+02  0.10566000000E+00 0.  1.
         13    1    4    4    0    0 -0.13342283387E+02 -0.15299123533E+01  0.18357095846E+02  0.22745357542E+02  0.10566000000E+00 0. -1.
        -13    1    4    4    0    0 -0.24987179434E+01 -0.58756537818E+00  0.31719304125E+01  0.40818048719E+01  0.10566000000E+00 0.  1.
        -14    1    4    4    0    0 -0.14585789861E+02 -0.11612928397E+01  0.21937204089E+02  0.26369201546E+02  0.00000000000E+00 0.  1.
<mgrwt>
<rscale>  0 0.81352495E+02</rscale>
<asrwt>0</asrwt>
<pdfrwt beam="1">  1        2 0.89669551E-02 0.81352495E+02</pdfrwt>
<pdfrwt beam="2">  1       -1 0.43672701E-02 0.81352495E+02</pdfrwt>
<totfact> 0.14771811E+05</totfact>
</mgrwt>
</event>
<event>
 8    1  0.2389776E-016  0.8054857E+02  0.7818608E-02  0.1327502E+00
          2   -1    0    0  501    0  0.00000000000E+00  0.00000000000E+00  0.80718684458E+02  0.80718684498E+02  0.25500000000E-02 0. -1.
         -1   -1    0    0    0  501 -0.00000000000E+00 -0.00000000000E+00 -0.20094704499E+02  0.20094705131E+02  0.50400000000E-02 0.  1.
         24    2    1    2    0    0  0.00000000000E+00  0.00000000000E+00  0.60623979960E+02  0.10081338963E+03  0.80548572814E+02 0.  0.
         66    2    3    3    0    0 -0.12848905543E+02  0.16423673644E+02  0.73418279225E+02  0.76348380180E+02  0.20000005306E+01 0.  0.
        -13    1    3    3    0    0  0.12848905543E+02 -0.16423673644E+02 -0.12794299265E+02  0.24465009449E+02  0.10566000000E+00 0.  1.
         13    1    4    4    0    0 -0.36945896138E+01  0.58419714222E+01  0.22789539802E+02  0.23814972411E+02  0.10566000000E+00 0. -1.
        -13    1    4    4    0    0 -0.35217161612E+01  0.42149761941E+01  0.21368451869E+02  0.22063327227E+02  0.10566000000E+00 0.  1.
         14    1    4    4    0    0 -0.56325997678E+01  0.63667260280E+01  0.29260287555E+02  0.30470080542E+02  0.00000000000E+00 0. -1.
<mgrwt>
<rscale>  0 0.80548573E+02</rscale>
<asrwt>0</asrwt>
<pdfrwt beam="1">  1        2 0.12418259E-01 0.80548573E+02</pdfrwt>
<pdfrwt beam="2">  1       -1 0.30914930E-02 0.80548573E+02</pdfrwt>
<totfact> 0.16428598E+05</totfact>
</mgrwt>
</event>
<event>
 8    1  0.2389776E-016  0.8052575E+02  0.7818608E-02  0.1327566E+00
          2   -1    0    0  501    0  0.00000000000E+00  0.00000000000E+00  0.18224961414E+02  0.18224961592E+02  0.25500000000E-02 0. -1.
         -1   -1    0    0    0  501 -0.00000000000E+00 -0.00000000000E+00 -0.88949374523E+02  0.88949374666E+02  0.50400000000E-02 0.  1.
         24    2    1    2    0    0 -0.71054273576E-14  0.00000000000E+00 -0.70724413110E+02  0.10717433626E+03  0.80525745837E+02 0.  0.
         66    2    3    3    0    0 -0.23661516369E+02  0.32285700131E+02 -0.29919002756E+02  0.50013803825E+02  0.20000143082E+01 0.  0.
        -13    1    3    3    0    0  0.23661516369E+02 -0.32285700131E+02 -0.40805410354E+02  0.57160532433E+02  0.10566000000E+00 0.  1.
         13    1    4    4    0    0 -0.71352605679E+01  0.10036645789E+02 -0.92892786791E+01  0.15425565289E+02  0.10566000000E+00 0. -1.
        -13    1    4    4    0    0 -0.98973933635E+00  0.19893668992E+01 -0.18682825018E+01  0.29049626771E+01  0.10566000000E+00 0.  1.
         14    1    4    4    0    0 -0.15536516465E+02  0.20259687443E+02 -0.18761441575E+02  0.31683275859E+02  0.00000000000E+00 0. -1.
<mgrwt>
<rscale>  0 0.80525746E+02</rscale>
<asrwt>0</asrwt>
<pdfrwt beam="1">  1        2 0.28038403E-02 0.80525746E+02</pdfrwt>
<pdfrwt beam="2">  1       -1 0.13684519E-01 0.80525746E+02</pdfrwt>
<totfact> 0.11953331E+05</totfact>
</mgrwt>
</event>
<event>
 8    1  0.2389776E-016  0.8084501E+02  0.7818608E-02  0.1326670E+00
          2   -1    0    0  501    0  0.00000000000E+00  0.00000000000E+00  0.92216101624E+02  0.92216101659E+02  0.25500000000E-02 0. -1.
         -1   -1    0    0    0  501 -0.00000000000E+00 -0.00000000000E+00 -0.17719017158E+02  0.17719017875E+02  0.50400000000E-02 0.  1.
         24    2    1    2    0    0  0.00000000000E+00  0.00000000000E+00  0.74497084466E+02  0.10993511953E+03  0.80845005491E+02 0.  0.
         66    2    3    3    0    0  0.27762438214E+02  0.70888946113E+01  0.75995720494E+02  0.81242568647E+02  0.20000061555E+01 0.  0.
        -13    1    3    3    0    0 -0.27762438214E+02 -0.70888946113E+01 -0.14986360282E+01  0.28692550886E+02  0.10566000000E+00 0.  1.
         13    1    4    4    0    0  0.22947071215E+02  0.56973688388E+01  0.62005254238E+02  0.66360310474E+02  0.10566000000E+00 0. -1.
        -13    1    4    4    0    0  0.22225614790E+01  0.51870160537E+00  0.74563381853E+01  0.77985238380E+01  0.10566000000E+00 0.  1.
         14    1    4    4    0    0  0.25928055197E+01  0.87282416711E+00  0.65341280710E+01  0.70837343356E+01  0.00000000000E+00 0. -1.
<mgrwt>
<rscale>  0 0.80845005E+02</rscale>
<asrwt>0</asrwt>
<pdfrwt beam="1">  1        2 0.14187093E-01 0.80845005E+02</pdfrwt>
<pdfrwt beam="2">  1       -1 0.27260027E-02 0.80845005E+02</pdfrwt>
<totfact> 0.16851841E+05</totfact>
</mgrwt>
</event>
<event>
 8    1  0.2389776E-016  0.8111935E+02  0.7818608E-02  0.1325905E+00
         -1   -1    0    0    0  501 -0.00000000000E+00  0.00000000000E+00  0.33783915474E+01  0.33783953068E+01  0.50400000000E-02 0.  1.
          2   -1    0    0  501    0  0.00000000000E+00 -0.00000000000E+00 -0.48694370760E+03  0.48694370760E+03  0.25500000000E-02 0. -1.
         24    2    1    2    0    0  0.00000000000E+00  0.00000000000E+00 -0.48356531605E+03  0.49032210291E+03  0.81119354758E+02 0.  0.
         66    2    3    3    0    0  0.11944463962E+02  0.35662429129E+02 -0.33331914299E+03  0.33544020353E+03  0.19999985166E+01 0.  0.
        -13    1    3    3    0    0 -0.11944463962E+02 -0.35662429129E+02 -0.15024617306E+03  0.15488189938E+03  0.10566000000E+00 0.  1.
         13    1    4    4    0    0  0.11363833007E+01  0.36113038913E+01 -0.31991929471E+02  0.32215331724E+02  0.10566000000E+00 0. -1.
        -13    1    4    4    0    0  0.64368056195E+00  0.24586398511E+01 -0.26720561573E+02  0.26841363777E+02  0.10566000000E+00 0.  1.
         14    1    4    4    0    0  0.10164400100E+02  0.29592485386E+02 -0.27460665194E+03  0.27638350803E+03  0.00000000000E+00 0. -1.
<mgrwt>
<rscale>  0 0.81119355E+02</rscale>
<asrwt>0</asrwt>
<pdfrwt beam="1">  1        2 0.74914361E-01 0.81119355E+02</pdfrwt>
<pdfrwt beam="2">  1       -1 0.51975322E-03 0.81119355E+02</pdfrwt>
<totfact> 0.29118941E+05</totfact>
</mgrwt>
</event>
<event>
 8    1  0.2389776E-016  0.7289795E+02  0.7818608E-02  0.1350507E+00
         -1   -1    0    0    0  501 -0.00000000000E+00  0.00000000000E+00  0.36280574561E+03  0.36280574564E+03  0.50400000000E-02 0.  1.
          2   -1    0    0  501    0  0.00000000000E+00 -0.00000000000E+00 -0.36618155061E+01  0.36618163939E+01  0.25500000000E-02 0. -1.
         24    2    1    2    0    0  0.00000000000E+00  0.17763568394E-14  0.35914393010E+03  0.36646756204E+03  0.72897952620E+02 0.  0.
         66    2    3    3    0    0 -0.33121823714E+02 -0.13879776291E+02  0.21021097908E+03  0.21326593522E+03  0.20000005888E+01 0.  0.
        -13    1    3    3    0    0  0.33121823714E+02  0.13879776291E+02  0.14893295102E+03  0.15320162682E+03  0.10566000000E+00 0.  1.
         13    1    4    4    0    0 -0.10255242345E+01 -0.28789750842E+00  0.56849177807E+01  0.57848110721E+01  0.10566000000E+00 0. -1.
        -13    1    4    4    0    0 -0.55444537934E+01 -0.25698719934E+01  0.32592682171E+02  0.33160809777E+02  0.10566000000E+00 0.  1.
         14    1    4    4    0    0 -0.26551845686E+02 -0.11022006789E+02  0.17193337913E+03  0.17432031437E+03  0.00000000000E+00 0. -1.
<mgrwt>
<rscale>  0 0.72897953E+02</rscale>
<asrwt>0</asrwt>
<pdfrwt beam="1">  1        2 0.56335629E-03 0.72897953E+02</pdfrwt>
<pdfrwt beam="2">  1       -1 0.55816269E-01 0.72897953E+02</pdfrwt>
<totfact> 0.10092309E+05</totfact>
</mgrwt>
</event>
<event>
 8    1  0.2389776E-016  0.8078418E+02  0.7818608E-02  0.1326841E+00
         -1   -1    0    0    0  501 -0.00000000000E+00  0.00000000000E+00  0.20038065385E+01  0.20038128769E+01  0.50400000000E-02 0.  1.
          2   -1    0    0  501    0  0.00000000000E+00 -0.00000000000E+00 -0.81420950754E+03  0.81420950754E+03  0.25500000000E-02 0. -1.
         24    2    1    2    0    0  0.00000000000E+00  0.00000000000E+00 -0.81220570100E+03  0.81621332042E+03  0.80784179721E+02 0.  0.
         66    2    3    3    0    0  0.93706447628E+01  0.33389951345E+02 -0.61508775081E+03  0.61606788509E+03  0.20000005675E+01 0.  0.
        -13    1    3    3    0    0 -0.93706447628E+01 -0.33389951345E+02 -0.19711795019E+03  0.20014543533E+03  0.10566000000E+00 0.  1.
         13    1    4    4    0    0  0.44746742496E+01  0.12918704706E+02 -0.24819233210E+03  0.24856862336E+03  0.10566000000E+00 0. -1.
        -13    1    4    4    0    0  0.22415149411E+00  0.13547339730E+01 -0.25330913511E+02  0.25368324568E+02  0.10566000000E+00 0.  1.
        -14    1    4    4    0    0  0.46718190191E+01  0.19116512666E+02 -0.34156450520E+03  0.34213093716E+03  0.00000000000E+00 0.  1.
<mgrwt>
<rscale>  0 0.80784180E+02</rscale>
<asrwt>0</asrwt>
<pdfrwt beam="1">  1        2 0.12526274E+00 0.80784180E+02</pdfrwt>
<pdfrwt beam="2">  1       -1 0.30827907E-03 0.80784180E+02</pdfrwt>
<totfact> 0.33604806E+05</totfact>
</mgrwt>
</event>
<event>
 8    1  0.2389776E-016  0.8142434E+02  0.7818608E-02  0.1325057E+00
         -1   -1    0    0    0  501 -0.00000000000E+00  0.00000000000E+00  0.59919097850E+01  0.59919119047E+01  0.50400000000E-02 0.  1.
          2   -1    0    0  501    0  0.00000000000E+00 -0.00000000000E+00 -0.27661970667E+03  0.27661970668E+03  0.25500000000E-02 0. -1.
         24    2    1    2    0    0  0.00000000000E+00  0.17763568394E-14 -0.27062779689E+03  0.28261161859E+03  0.81424336124E+02 0.  0.
         66    2    3    3    0    0 -0.11253504947E+02 -0.13852205304E+02 -0.26230461792E+03  0.26291868997E+03  0.19999968660E+01 0.  0.
        -13    1    3    3    0    0  0.11253504947E+02  0.13852205304E+02 -0.83231789634E+01  0.19692928616E+02  0.10566000000E+00 0.  1.
         13    1    4    4    0    0 -0.10771452223E+01 -0.18550916658E+01 -0.24634952489E+02  0.24728397746E+02  0.10566000000E+00 0.  1.
        -13    1    4    4    0    0 -0.17325202245E+01 -0.19479806360E+01 -0.37195739632E+02  0.37287135392E+02  0.10566000000E+00 0.  1.
         14    1    4    4    0    0 -0.84438395004E+01 -0.10049133002E+02 -0.20047392580E+03  0.20090315683E+03  0.00000000000E+00 0. -1.
<mgrwt>
<rscale>  0 0.81424336E+02</rscale>
<asrwt>0</asrwt>
<pdfrwt beam="1">  1        2 0.42556868E-01 0.81424336E+02</pdfrwt>
<pdfrwt beam="2">  1       -1 0.92183266E-03 0.81424336E+02</pdfrwt>
<totfact> 0.23634476E+05</totfact>
</mgrwt>
</event>
<event>
 8    1  0.2389776E-016  0.7954276E+02  0.7818608E-02  0.1330354E+00
          2   -1    0    0  501    0  0.00000000000E+00  0.00000000000E+00  0.84286803449E+02  0.84286803488E+02  0.25500000000E-02 0. -1.
         -1   -1    0    0    0  501 -0.00000000000E+00 -0.00000000000E+00 -0.18766434135E+02  0.18766434812E+02  0.50400000000E-02 0.  1.
         24    2    1    2    0    0  0.00000000000E+00  0.11102230246E-15  0.65520369315E+02  0.10305323830E+03  0.79542762894E+02 0.  0.
         66    2    3    3    0    0 -0.31362901474E+02 -0.26459270323E+00  0.64411231031E+02  0.71669437543E+02  0.19999991575E+01 0.  0.
        -13    1    3    3    0    0  0.31362901474E+02  0.26459270323E+00  0.11091382840E+01  0.31383800757E+02  0.10566000000E+00 0.  1.
         13    1    4    4    0    0 -0.45687528503E+01  0.51976959587E+00  0.10178800219E+02  0.11169726988E+02  0.10566000000E+00 0. -1.
        -13    1    4    4    0    0 -0.19245654609E+02 -0.76669723474E+00  0.38404801225E+02  0.42964205650E+02  0.10566000000E+00 0.  1.
        -14    1    4    4    0    0 -0.75484940150E+01 -0.17665064353E-01  0.15827629586E+02  0.17535504905E+02  0.00000000000E+00 0.  1.
<mgrwt>
<rscale>  0 0.79542763E+02</rscale>
<asrwt>0</asrwt>
<pdfrwt beam="1">  1        2 0.12967201E-01 0.79542763E+02</pdfrwt>
<pdfrwt beam="2">  1       -1 0.28871437E-02 0.79542763E+02</pdfrwt>
<totfact> 0.17186340E+05</totfact>
</mgrwt>
</event>
<event>
 8    1  0.2389776E-016  0.7956568E+02  0.7818608E-02  0.1330289E+00
         -1   -1    0    0    0  501 -0.00000000000E+00  0.00000000000E+00  0.19491068135E+01  0.19491133297E+01  0.50400000000E-02 0.  1.
          2   -1    0    0  501    0  0.00000000000E+00 -0.00000000000E+00 -0.81199844486E+03  0.81199844486E+03  0.25500000000E-02 0. -1.
         24    2    1    2    0    0  0.00000000000E+00 -0.88817841970E-15 -0.81004933804E+03  0.81394755819E+03  0.79565679912E+02 0.  0.
         66    2    3    3    0    0 -0.32443947877E+02  0.56502462113E+01 -0.63314102490E+03  0.63400007291E+03  0.20000001306E+01 0.  0.
        -13    1    3    3    0    0  0.32443947877E+02 -0.56502462113E+01 -0.17690831315E+03  0.17994748529E+03  0.10566000000E+00 0.  1.
         13    1    4    4    0    0 -0.14847310237E+02  0.31479640530E+01 -0.29589812352E+03  0.29628712926E+03  0.10566000000E+00 0. -1.
        -13    1    4    4    0    0 -0.97763008769E+01  0.16267975274E+01 -0.19785209685E+03  0.19810019162E+03  0.10566000000E+00 0.  1.
        -14    1    4    4    0    0 -0.78203367626E+01  0.87548463090E+00 -0.13939080453E+03  0.13961275203E+03  0.00000000000E+00 0.  1.
<mgrwt>
<rscale>  0 0.79565680E+02</rscale>
<asrwt>0</asrwt>
<pdfrwt beam="1">  1        2 0.12492257E+00 0.79565680E+02</pdfrwt>
<pdfrwt beam="2">  1       -1 0.29986374E-03 0.79565680E+02</pdfrwt>
<totfact> 0.34942619E+05</totfact>
</mgrwt>
</event>
<event>
 8    1  0.2389776E-016  0.7959822E+02  0.7818608E-02  0.1330196E+00
         -1   -1    0    0    0  501 -0.00000000000E+00  0.00000000000E+00  0.62648710159E+02  0.62648710362E+02  0.50400000000E-02 0.  1.
          2   -1    0    0  501    0  0.00000000000E+00 -0.00000000000E+00 -0.25283348509E+02  0.25283348637E+02  0.25500000000E-02 0. -1.
         24    2    1    2    0    0  0.00000000000E+00  0.35527136788E-14  0.37365361650E+02  0.87932058999E+02  0.79598220762E+02 0.  0.
         66    2    3    3    0    0  0.52119889240E+01 -0.19184934223E+02 -0.19361392011E+02  0.27822473451E+02  0.19999996598E+01 0.  0.
        -13    1    3    3    0    0 -0.52119889240E+01  0.19184934223E+02  0.56726753661E+02  0.60109585547E+02  0.10566000000E+00 0.  1.
         13    1    4    4    0    0  0.21888408834E+01 -0.67260364085E+01 -0.75510451407E+01  0.10346982021E+02  0.10566000000E+00 0. -1.
        -13    1    4    4    0    0  0.31325576182E+01 -0.11787155756E+02 -0.11096475371E+02  0.16489174866E+02  0.10566000000E+00 0.  1.
        -14    1    4    4    0    0 -0.10940957755E+00 -0.67174205855E+00 -0.71387149895E+00  0.98631656474E+00  0.00000000000E+00 0.  1.
<mgrwt>
<rscale>  0 0.79598221E+02</rscale>
<asrwt>0</asrwt>
<pdfrwt beam="1">  1        2 0.38897460E-02 0.79598221E+02</pdfrwt>
<pdfrwt beam="2">  1       -1 0.96382630E-02 0.79598221E+02</pdfrwt>
<totfact> 0.13195871E+05</totfact>
</mgrwt>
</event>
<event>
 8    1  0.2389776E-016  0.8269776E+02  0.7818608E-02  0.1321565E+00
          2   -1    0    0  501    0  0.00000000000E+00  0.00000000000E+00  0.51847816839E+03  0.51847816840E+03  0.25500000000E-02 0. -1.
         -1   -1    0    0    0  501 -0.00000000000E+00 -0.00000000000E+00 -0.32975910875E+01  0.32975949390E+01  0.50400000000E-02 0.  1.
         24    2    1    2    0    0  0.00000000000E+00  0.35527136788E-14  0.51518057731E+03  0.52177576334E+03  0.82697762814E+02 0.  0.
         66    2    3    3    0    0 -0.13400908834E+02  0.20432536162E+02  0.46801142422E+03  0.46865314049E+03  0.19999994539E+01 0.  0.
        -13    1    3    3    0    0  0.13400908834E+02 -0.20432536162E+02  0.47169153088E+02  0.53122622852E+02  0.10566000000E+00 0.  1.
         13    1    4    4    0    0 -0.20291746528E+01  0.22191084163E+01  0.57821556745E+02  0.57899789122E+02  0.10566000000E+00 0. -1.
        -13    1    4    4    0    0 -0.10155251593E+02  0.16622323370E+02  0.37740187576E+03  0.37790424417E+03  0.10566000000E+00 0.  1.
        -14    1    4    4    0    0 -0.12164825887E+01  0.15911043760E+01  0.32787991711E+02  0.32849107195E+02  0.00000000000E+00 0.  1.
<mgrwt>
<rscale>  0 0.82697763E+02</rscale>
<asrwt>0</asrwt>
<pdfrwt beam="1">  1        2 0.79765916E-01 0.82697763E+02</pdfrwt>
<pdfrwt beam="2">  1       -1 0.50732172E-03 0.82697763E+02</pdfrwt>
<totfact> 0.28247943E+05</totfact>
</mgrwt>
</event>
<event>
 8    1  0.2389776E-016  0.7936430E+02  0.7818608E-02  0.1330865E+00
          2   -1    0    0  501    0  0.00000000000E+00  0.00000000000E+00  0.39958517721E+02  0.39958517803E+02  0.25500000000E-02 0. -1.
         -1   -1    0    0    0  501 -0.00000000000E+00 -0.00000000000E+00 -0.39407695325E+02  0.39407695647E+02  0.50400000000E-02 0.  1.
         24    2    1    2    0    0 -0.71054273576E-14 -0.88817841970E-15  0.55082239656E+00  0.79366213450E+02  0.79364302001E+02 0.  0.
         66    2    3    3    0    0 -0.31594931473E+02 -0.44586721065E+01  0.23825010631E+02  0.39871676438E+02  0.19999996673E+01 0.  0.
        -13    1    3    3    0    0  0.31594931473E+02  0.44586721065E+01 -0.23274188234E+02  0.39494537012E+02  0.10566000000E+00 0.  1.
         13    1    4    4    0    0 -0.16787856389E+02 -0.20390780679E+01  0.13091860071E+02  0.21386863390E+02  0.10566000000E+00 0. -1.
        -13    1    4    4    0    0 -0.25307572255E+01 -0.79231980983E-01  0.14802254114E+01  0.29348323879E+01  0.10566000000E+00 0.  1.
         14    1    4    4    0    0 -0.12276317859E+02 -0.23403620576E+01  0.92529251486E+01  0.15549980661E+02  0.00000000000E+00 0. -1.
<mgrwt>
<rscale>  0 0.79364302E+02</rscale>
<asrwt>0</asrwt>
<pdfrwt beam="1">  1        2 0.61474643E-02 0.79364302E+02</pdfrwt>
<pdfrwt beam="2">  1       -1 0.60627224E-02 0.79364302E+02</pdfrwt>
<totfact> 0.14569843E+05</totfact>
</mgrwt>
</event>
<event>
 8    1  0.2389776E-016  0.8141529E+02  0.7818608E-02  0.1325082E+00
         -1   -1    0    0    0  501 -0.00000000000E+00  0.00000000000E+00  0.52762865668E+03  0.52762865671E+03  0.50400000000E-02 0.  1.
          2   -1    0    0  501    0  0.00000000000E+00 -0.00000000000E+00 -0.31406785442E+01  0.31406795794E+01  0.25500000000E-02 0. -1.
         24    2    1    2    0    0  0.35527136788E-14 -0.35527136788E-14  0.52448797814E+03  0.53076933629E+03  0.81415288060E+02 0.  0.
         66    2    3    3    0    0 -0.31198927627E+02  0.19006805532E+02  0.37910891282E+03  0.38087031848E+03  0.19999949479E+01 0.  0.
        -13    1    3    3    0    0  0.31198927627E+02 -0.19006805532E+02  0.14537906532E+03  0.14989901781E+03  0.10566000000E+00 0.  1.
         13    1    4    4    0    0 -0.77675812937E+00  0.50714490325E+00  0.10301816205E+02  0.10344038394E+02  0.10566000000E+00 0.  1.
        -13    1    4    4    0    0 -0.35637943219E+01  0.26973299329E+01  0.50407182649E+02  0.50605053555E+02  0.10566000000E+00 0.  1.
         14    1    4    4    0    0 -0.26858375176E+02  0.15802330696E+02  0.31839991397E+03  0.31992122653E+03  0.00000000000E+00 0. -1.
<mgrwt>
<rscale>  0 0.81415288E+02</rscale>
<asrwt>0</asrwt>
<pdfrwt beam="1">  1        2 0.48318115E-03 0.81415288E+02</pdfrwt>
<pdfrwt beam="2">  1       -1 0.81173680E-01 0.81415288E+02</pdfrwt>
<totfact> 0.61676130E+04</totfact>
</mgrwt>
</event>
<event>
 8    1  0.2389776E-016  0.8016204E+02  0.7818608E-02  0.1328592E+00
          2   -1    0    0  501    0  0.00000000000E+00  0.00000000000E+00  0.37916061033E+03  0.37916061034E+03  0.25500000000E-02 0. -1.
         -1   -1    0    0    0  501 -0.00000000000E+00 -0.00000000000E+00 -0.42369580266E+01  0.42369610242E+01  0.50400000000E-02 0.  1.
         24    2    1    2    0    0  0.00000000000E+00  0.00000000000E+00  0.37492365231E+03  0.38339757137E+03  0.80162040084E+02 0.  0.
         66    2    3    3    0    0 -0.36814928962E+02  0.90257819022E+01  0.24951096652E+03  0.25238170724E+03  0.20000000533E+01 0.  0.
        -13    1    3    3    0    0  0.36814928962E+02 -0.90257819022E+01  0.12541268579E+03  0.13101586413E+03  0.10566000000E+00 0.  1.
         13    1    4    4    0    0 -0.20310115465E+02  0.44711636993E+01  0.13367816559E+03  0.13528619743E+03  0.10566000000E+00 0. -1.
        -13    1    4    4    0    0 -0.13695223992E+02  0.34236573768E+01  0.96341713436E+02  0.97370516594E+02  0.10566000000E+00 0.  1.
        -14    1    4    4    0    0 -0.28095895056E+01  0.11309608260E+01  0.19491087499E+02  0.19724993219E+02  0.00000000000E+00 0.  1.
<mgrwt>
<rscale>  0 0.80162040E+02</rscale>
<asrwt>0</asrwt>
<pdfrwt beam="1">  1        2 0.58332416E-01 0.80162040E+02</pdfrwt>
<pdfrwt beam="2">  1       -1 0.65183977E-03 0.80162040E+02</pdfrwt>
<totfact> 0.27580330E+05</totfact>
</mgrwt>
</event>
<event>
 8    1  0.2389776E-016  0.7506620E+02  0.7818608E-02  0.1343666E+00
          2   -1    0    0  501    0  0.00000000000E+00  0.00000000000E+00  0.83986756343E+01  0.83986760214E+01  0.25500000000E-02 0. -1.
         -1   -1    0    0    0  501 -0.00000000000E+00 -0.00000000000E+00 -0.16773280713E+03  0.16773280720E+03  0.50400000000E-02 0.  1.
         24    2    1    2    0    0  0.35527136788E-14  0.35527136788E-14 -0.15933413149E+03  0.17613148322E+03  0.75066196948E+02 0.  0.
         66    2    3    3    0    0 -0.19683056813E+02 -0.24814642744E+02 -0.32589325452E+02  0.45489046618E+02  0.20000021943E+01 0.  0.
        -13    1    3    3    0    0  0.19683056813E+02  0.24814642744E+02 -0.12674480604E+03  0.13064243661E+03  0.10566000000E+00 0.  1.
         13    1    4    4    0    0 -0.15863897317E+01 -0.23403950193E+01 -0.35357894604E+01  0.45284713063E+01  0.10566000000E+00 0. -1.
        -13    1    4    4    0    0 -0.59841701095E+01 -0.72348769701E+01 -0.88031003955E+01  0.12870877098E+02  0.10566000000E+00 0.  1.
         14    1    4    4    0    0 -0.12112496972E+02 -0.15239370755E+02 -0.20250435596E+02  0.28089698213E+02  0.00000000000E+00 0. -1.
<mgrwt>
<rscale>  0 0.75066197E+02</rscale>
<asrwt>0</asrwt>
<pdfrwt beam="1">  1        2 0.12921041E-02 0.75066197E+02</pdfrwt>
<pdfrwt beam="2">  1       -1 0.25805045E-01 0.75066197E+02</pdfrwt>
<totfact> 0.12307246E+05</totfact>
</mgrwt>
</event>
<event>
 8    1  0.2389776E-016  0.7887553E+02  0.7818608E-02  0.1332273E+00
          2   -1    0    0  501    0  0.00000000000E+00  0.00000000000E+00  0.76839685925E+03  0.76839685925E+03  0.25500000000E-02 0. -1.
         -1   -1    0    0    0  501 -0.00000000000E+00 -0.00000000000E+00 -0.20241294852E+01  0.20241357599E+01  0.50400000000E-02 0.  1.
         24    2    1    2    0    0 -0.44408920985E-15  0.71054273576E-14  0.76637272976E+03  0.77042099501E+03  0.78875526188E+02 0.  0.
         66    2    3    3    0    0  0.29158603723E+01 -0.32748339609E+02  0.59572220240E+03  0.59663212989E+03  0.19999975634E+01 0.  0.
        -13    1    3    3    0    0 -0.29158603723E+01  0.32748339609E+02  0.17065052736E+03  0.17378886513E+03  0.10566000000E+00 0.  1.
         13    1    4    4    0    0  0.11536366601E+01 -0.89056596116E+01  0.15252406120E+03  0.15278822618E+03  0.10566000000E+00 0. -1.
        -13    1    4    4    0    0  0.90765598985E+00 -0.85473091963E+01  0.15105066041E+03  0.15129505448E+03  0.10566000000E+00 0.  1.
        -14    1    4    4    0    0  0.85456772234E+00 -0.15295370801E+02  0.29214748078E+03  0.29254884922E+03  0.00000000000E+00 0.  1.
<mgrwt>
<rscale>  0 0.78875526E+02</rscale>
<asrwt>0</asrwt>
<pdfrwt beam="1">  1        2 0.11821499E+00 0.78875526E+02</pdfrwt>
<pdfrwt beam="2">  1       -1 0.31140480E-03 0.78875526E+02</pdfrwt>
<totfact> 0.35391873E+05</totfact>
</mgrwt>
</event>
<event>
 8    1  0.2389776E-016  0.7866667E+02  0.7818608E-02  0.1332878E+00
         -1   -1    0    0    0  501 -0.00000000000E+00  0.00000000000E+00  0.22570674657E+01  0.22570730929E+01  0.50400000000E-02 0.  1.
          2   -1    0    0  501    0  0.00000000000E+00 -0.00000000000E+00 -0.68545113871E+03  0.68545113872E+03  0.25500000000E-02 0. -1.
         24    2    1    2    0    0  0.00000000000E+00  0.00000000000E+00 -0.68319407125E+03  0.68770821181E+03  0.78666674039E+02 0.  0.
         66    2    3    3    0    0 -0.14099140834E+02  0.28647265579E+02 -0.54224769532E+03  0.54319058781E+03  0.20000003894E+01 0.  0.
        -13    1    3    3    0    0  0.14099140834E+02 -0.28647265579E+02 -0.14094637592E+03  0.14451762400E+03  0.10566000000E+00 0.  1.
         13    1    4    4    0    0 -0.18764807504E+01  0.35278011853E+01 -0.64856780510E+02  0.64979840746E+02  0.10566000000E+00 0. -1.
        -13    1    4    4    0    0 -0.58001598403E+01  0.99908035110E+01 -0.19461239244E+03  0.19495500113E+03  0.10566000000E+00 0.  1.
        -14    1    4    4    0    0 -0.64225002432E+01  0.15128660883E+02 -0.28277852237E+03  0.28325574593E+03  0.00000000000E+00 0.  1.
<mgrwt>
<rscale>  0 0.78666674E+02</rscale>
<asrwt>0</asrwt>
<pdfrwt beam="1">  1        2 0.10545386E+00 0.78666674E+02</pdfrwt>
<pdfrwt beam="2">  1       -1 0.34724213E-03 0.78666674E+02</pdfrwt>
<totfact> 0.34774156E+05</totfact>
</mgrwt>
</event>
<event>
 8    1  0.2389776E-016  0.7975716E+02  0.7818608E-02  0.1329742E+00
          2   -1    0    0  501    0  0.00000000000E+00  0.00000000000E+00  0.69675771583E+01  0.69675776249E+01  0.25500000000E-02 0. -1.
         -1   -1    0    0    0  501 -0.00000000000E+00 -0.00000000000E+00 -0.22824307727E+03  0.22824307733E+03  0.50400000000E-02 0.  1.
         24    2    1    2    0    0 -0.88817841970E-15  0.00000000000E+00 -0.22127550012E+03  0.23521065496E+03  0.79757164272E+02 0.  0.
         66    2    3    3    0    0 -0.49416826150E+01  0.36947401829E+02 -0.15228458388E+03  0.15679325627E+03  0.19999990069E+01 0.  0.
        -13    1    3    3    0    0  0.49416826150E+01 -0.36947401829E+02 -0.68990916238E+02  0.78417398684E+02  0.10566000000E+00 0.  1.
         13    1    4    4    0    0 -0.18595389361E+01  0.21127917460E+02 -0.86144963665E+02  0.88717600904E+02  0.10566000000E+00 0. -1.
        -13    1    4    4    0    0 -0.19973090368E+01  0.10905513974E+02 -0.45440229063E+02  0.46773337061E+02  0.10566000000E+00 0.  1.
         14    1    4    4    0    0 -0.10848346421E+01  0.49139703949E+01 -0.20699391150E+02  0.21302318306E+02  0.00000000000E+00 0. -1.
<mgrwt>
<rscale>  0 0.79757164E+02</rscale>
<asrwt>0</asrwt>
<pdfrwt beam="1">  1        2 0.10719352E-02 0.79757164E+02</pdfrwt>
<pdfrwt beam="2">  1       -1 0.35114314E-01 0.79757164E+02</pdfrwt>
<totfact> 0.96273972E+04</totfact>
</mgrwt>
</event>
<event>
 8    1  0.2389776E-016  0.8069312E+02  0.7818608E-02  0.1327096E+00
         -1   -1    0    0    0  501 -0.00000000000E+00  0.00000000000E+00  0.34844580872E+01  0.34844617322E+01  0.50400000000E-02 0.  1.
          2   -1    0    0  501    0  0.00000000000E+00 -0.00000000000E+00 -0.46717278237E+03  0.46717278238E+03  0.25500000000E-02 0. -1.
         24    2    1    2    0    0  0.00000000000E+00  0.00000000000E+00 -0.46368832428E+03  0.47065724411E+03  0.80693118394E+02 0.  0.
         66    2    3    3    0    0  0.30786406373E+02  0.50477545324E+01 -0.38098319755E+03  0.38226362559E+03  0.19999973809E+01 0.  0.
        -13    1    3    3    0    0 -0.30786406373E+02 -0.50477545324E+01 -0.82705126729E+02  0.88393618516E+02  0.10566000000E+00 0.  1.
         13    1    4    4    0    0  0.15300715060E+02  0.16779463983E+01 -0.18917171154E+03  0.18979693095E+03  0.10566000000E+00 0. -1.
        -13    1    4    4    0    0  0.68099467895E+01  0.18662761154E+01 -0.86301331318E+02  0.86589776031E+02  0.10566000000E+00 0.  1.
         14    1    4    4    0    0  0.86757445235E+01  0.15035320187E+01 -0.10551015469E+03  0.10587691861E+03  0.00000000000E+00 0. -1.
<mgrwt>
<rscale>  0 0.80693118E+02</rscale>
<asrwt>0</asrwt>
<pdfrwt beam="1">  1        2 0.71872686E-01 0.80693118E+02</pdfrwt>
<pdfrwt beam="2">  1       -1 0.53607113E-03 0.80693118E+02</pdfrwt>
<totfact> 0.29124634E+05</totfact>
</mgrwt>
</event>
<event>
 8    1  0.2389776E-016  0.8002592E+02  0.7818608E-02  0.1328978E+00
         -1   -1    0    0    0  501 -0.00000000000E+00  0.00000000000E+00  0.57246051290E+01  0.57246073476E+01  0.50400000000E-02 0.  1.
          2   -1    0    0  501    0  0.00000000000E+00 -0.00000000000E+00 -0.27967638029E+03  0.27967638030E+03  0.25500000000E-02 0. -1.
         24    2    1    2    0    0  0.48572257327E-16  0.17763568394E-14 -0.27395177516E+03  0.28540098765E+03  0.80025924782E+02 0.  0.
         66    2    3    3    0    0  0.60956605352E-01 -0.14626106808E+02 -0.26979031691E+03  0.27019389671E+03  0.20000008136E+01 0.  0.
        -13    1    3    3    0    0 -0.60956605352E-01  0.14626106808E+02 -0.41614582494E+01  0.15207090941E+02  0.10566000000E+00 0.  1.
         13    1    4    4    0    0  0.69419852811E+00 -0.80297369368E+01 -0.13623876523E+03  0.13647699771E+03  0.10566000000E+00 0. -1.
        -13    1    4    4    0    0 -0.39656984425E+00 -0.18477130040E+01 -0.37351147766E+02  0.37399073711E+02  0.10566000000E+00 0. -1.
        -14    1    4    4    0    0 -0.23667207851E+00 -0.47486568676E+01 -0.96200403912E+02  0.96317825290E+02  0.00000000000E+00 0.  1.
<mgrwt>
<rscale>  0 0.80025925E+02</rscale>
<asrwt>0</asrwt>
<pdfrwt beam="1">  1        2 0.43027125E-01 0.80025925E+02</pdfrwt>
<pdfrwt beam="2">  1       -1 0.88070887E-03 0.80025925E+02</pdfrwt>
<totfact> 0.24833638E+05</totfact>
</mgrwt>
</event>
<event>
 8    1  0.2389776E-016  0.8241189E+02  0.7818608E-02  0.1322343E+00
         -1   -1    0    0    0  501 -0.00000000000E+00  0.00000000000E+00  0.22080423785E+02  0.22080424360E+02  0.50400000000E-02 0.  1.
          2   -1    0    0  501    0  0.00000000000E+00 -0.00000000000E+00 -0.76897516847E+02  0.76897516889E+02  0.25500000000E-02 0. -1.
         24    2    1    2    0    0 -0.71054273576E-14  0.17763568394E-14 -0.54817093062E+02  0.98977941250E+02  0.82411887263E+02 0.  0.
         66    2    3    3    0    0  0.31340905238E+02 -0.13404452813E+02 -0.55178055554E+02  0.64888747151E+02  0.19999989601E+01 0.  0.
        -13    1    3    3    0    0 -0.31340905238E+02  0.13404452813E+02  0.36096249188E+00  0.34089194098E+02  0.10566000000E+00 0.  1.
         13    1    4    4    0    0  0.47951915699E+01 -0.21687150072E+01 -0.88930639684E+01  0.10334163622E+02  0.10566000000E+00 0. -1.
        -13    1    4    4    0    0  0.53762476941E+01 -0.24843514792E+01 -0.10810176179E+02  0.12326683033E+02  0.10566000000E+00 0.  1.
        -14    1    4    4    0    0  0.21169465974E+02 -0.87513863262E+01 -0.35474815406E+02  0.42227900496E+02  0.00000000000E+00 0.  1.
<mgrwt>
<rscale>  0 0.82411887E+02</rscale>
<asrwt>0</asrwt>
<pdfrwt beam="1">  1        2 0.11830387E-01 0.82411887E+02</pdfrwt>
<pdfrwt beam="2">  1       -1 0.33969884E-02 0.82411887E+02</pdfrwt>
<totfact> 0.15252493E+05</totfact>
</mgrwt>
</event>
<event>
 8    1  0.2389776E-016  0.7978928E+02  0.7818608E-02  0.1329650E+00
          2   -1    0    0  501    0  0.00000000000E+00  0.00000000000E+00  0.43670463354E+03  0.43670463354E+03  0.25500000000E-02 0. -1.
         -1   -1    0    0    0  501 -0.00000000000E+00 -0.00000000000E+00 -0.36445262727E+01  0.36445297576E+01  0.50400000000E-02 0.  1.
         24    2    1    2    0    0  0.00000000000E+00  0.00000000000E+00  0.43306010726E+03  0.44034916330E+03  0.79789279461E+02 0.  0.
         66    2    3    3    0    0  0.36504257813E+02 -0.63156133695E+01  0.29798847151E+03  0.30028915559E+03  0.20000004208E+01 0.  0.
        -13    1    3    3    0    0 -0.36504257813E+02  0.63156133695E+01  0.13507163575E+03  0.14006000771E+03  0.10566000000E+00 0.  1.
         13    1    4    4    0    0  0.10047539206E+02 -0.13615491209E+01  0.87440767356E+02  0.88026733553E+02  0.10566000000E+00 0. -1.
        -13    1    4    4    0    0  0.11734662702E+02 -0.20651116055E+01  0.90712303552E+02  0.91491530616E+02  0.10566000000E+00 0.  1.
         14    1    4    4    0    0  0.14722055905E+02 -0.28889526430E+01  0.11983540060E+03  0.12077089142E+03  0.00000000000E+00 0. -1.
<mgrwt>
<rscale>  0 0.79789279E+02</rscale>
<asrwt>0</asrwt>
<pdfrwt beam="1">  1        2 0.67185315E-01 0.79789279E+02</pdfrwt>
<pdfrwt beam="2">  1       -1 0.56069673E-03 0.79789279E+02</pdfrwt>
<totfact> 0.29323184E+05</totfact>
</mgrwt>
</event>
<event>
 8    1  0.2389776E-016  0.7932365E+02  0.7818608E-02  0.1330982E+00
         -1   -1    0    0    0  501 -0.00000000000E+00  0.00000000000E+00  0.89035711566E+01  0.89035725831E+01  0.50400000000E-02 0.  1.
          2   -1    0    0  501    0  0.00000000000E+00 -0.00000000000E+00 -0.17667742674E+03  0.17667742676E+03  0.25500000000E-02 0. -1.
         24    2    1    2    0    0  0.00000000000E+00  0.44408920985E-15 -0.16777385559E+03  0.18558099935E+03  0.79323645273E+02 0.  0.
         66    2    3    3    0    0  0.27652824201E+02  0.31974778491E+01 -0.14995303839E+03  0.15252808358E+03  0.20000020628E+01 0.  0.
        -13    1    3    3    0    0 -0.27652824201E+02 -0.31974778491E+01 -0.17820817200E+02  0.33052915765E+02  0.10566000000E+00 0.  1.
         13    1    4    4    0    0  0.11115074265E+02  0.95345990498E+00 -0.58353858242E+02  0.59410755739E+02  0.10566000000E+00 0. -1.
        -13    1    4    4    0    0  0.20310379926E+01 -0.15122348022E+00 -0.10555336617E+02  0.10750547847E+02  0.10566000000E+00 0.  1.
        -14    1    4    4    0    0  0.14506711943E+02  0.23952414243E+01 -0.81043843528E+02  0.82366779995E+02  0.00000000000E+00 0.  1.
<mgrwt>
<rscale>  0 0.79323645E+02</rscale>
<asrwt>0</asrwt>
<pdfrwt beam="1">  1        2 0.27181140E-01 0.79323645E+02</pdfrwt>
<pdfrwt beam="2">  1       -1 0.13697804E-02 0.79323645E+02</pdfrwt>
<totfact> 0.21620420E+05</totfact>
</mgrwt>
</event>
<event>
 8    1  0.2389776E-016  0.7232563E+02  0.7818608E-02  0.1352359E+00
          2   -1    0    0  501    0  0.00000000000E+00  0.00000000000E+00  0.34615148997E+02  0.34615149091E+02  0.25500000000E-02 0. -1.
         -1   -1    0    0    0  501 -0.00000000000E+00 -0.00000000000E+00 -0.37779674140E+02  0.37779674476E+02  0.50400000000E-02 0.  1.
         24    2    1    2    0    0  0.00000000000E+00  0.00000000000E+00 -0.31645251428E+01  0.72394823567E+02  0.72325626579E+02 0.  0.
         66    2    3    3    0    0 -0.17128625137E+02  0.23979480650E+02  0.19349189460E+02  0.35310004563E+02  0.19999995332E+01 0.  0.
        -13    1    3    3    0    0  0.17128625137E+02 -0.23979480650E+02 -0.22513714603E+02  0.37084819004E+02  0.10566000000E+00 0.  1.
         13    1    4    4    0    0 -0.11440481102E+02  0.17057748064E+02  0.13962013647E+02  0.24835465890E+02  0.10566000000E+00 0. -1.
        -13    1    4    4    0    0 -0.38735733968E+01  0.42430637578E+01  0.35331270174E+01  0.67455401170E+01  0.10566000000E+00 0.  1.
         14    1    4    4    0    0 -0.18145706388E+01  0.26786688277E+01  0.18540487958E+01  0.37289985558E+01  0.00000000000E+00 0. -1.
<mgrwt>
<rscale>  0 0.72325627E+02</rscale>
<asrwt>0</asrwt>
<pdfrwt beam="1">  1        2 0.53254075E-02 0.72325627E+02</pdfrwt>
<pdfrwt beam="2">  1       -1 0.58122576E-02 0.72325627E+02</pdfrwt>
<totfact> 0.18282549E+05</totfact>
</mgrwt>
</event>
<event>
 8    1  0.2389776E-016  0.8067259E+02  0.7818608E-02  0.1327153E+00
          2   -1    0    0  501    0  0.00000000000E+00  0.00000000000E+00  0.50423529342E+03  0.50423529342E+03  0.25500000000E-02 0. -1.
         -1   -1    0    0    0  501 -0.00000000000E+00 -0.00000000000E+00 -0.32266996917E+01  0.32267036279E+01  0.50400000000E-02 0.  1.
         24    2    1    2    0    0  0.35527136788E-14  0.35527136788E-14  0.50100859372E+03  0.50746199705E+03  0.80672594261E+02 0.  0.
         66    2    3    3    0    0 -0.24860237353E+02 -0.30373834182E+02  0.30845096357E+03  0.31094468662E+03  0.20000014083E+01 0.  0.
        -13    1    3    3    0    0  0.24860237353E+02  0.30373834182E+02  0.19255763016E+03  0.19651731043E+03  0.10566000000E+00 0.  1.
         13    1    4    4    0    0 -0.32960113419E+00 -0.45418183417E+00  0.47439140765E+01  0.47781589390E+01  0.10566000000E+00 0.  1.
        -13    1    4    4    0    0 -0.52832754453E+01 -0.74245739045E+01  0.74594688043E+02  0.75149291050E+02  0.10566000000E+00 0.  1.
         14    1    4    4    0    0 -0.19247360774E+02 -0.22495078444E+02  0.22911236145E+03  0.23101723663E+03  0.00000000000E+00 0. -1.
<mgrwt>
<rscale>  0 0.80672594E+02</rscale>
<asrwt>0</asrwt>
<pdfrwt beam="1">  1        2 0.77574616E-01 0.80672594E+02</pdfrwt>
<pdfrwt beam="2">  1       -1 0.49641593E-03 0.80672594E+02</pdfrwt>
<totfact> 0.29873857E+05</totfact>
</mgrwt>
</event>
<event>
 8    1  0.2389776E-016  0.8039464E+02  0.7818608E-02  0.1327935E+00
         -1   -1    0    0    0  501 -0.00000000000E+00  0.00000000000E+00  0.10774036603E+02  0.10774037782E+02  0.50400000000E-02 0.  1.
          2   -1    0    0  501    0  0.00000000000E+00 -0.00000000000E+00 -0.14997390048E+03  0.14997390050E+03  0.25500000000E-02 0. -1.
         24    2    1    2    0    0  0.00000000000E+00  0.17763568394E-14 -0.13919986388E+03  0.16074793829E+03  0.80394636384E+02 0.  0.
         66    2    3    3    0    0 -0.23074059881E+02  0.12360074814E+02 -0.13057426816E+03  0.13318717352E+03  0.19999993342E+01 0.  0.
        -13    1    3    3    0    0  0.23074059881E+02 -0.12360074814E+02 -0.86255957221E+01  0.27560764764E+02  0.10566000000E+00 0.  1.
         13    1    4    4    0    0 -0.35845111078E+01  0.21181464265E+01 -0.21417626160E+02  0.21818825325E+02  0.10566000000E+00 0. -1.
        -13    1    4    4    0    0 -0.43657364099E-01  0.32690813442E-01 -0.73481746539E+00  0.74437584443E+00  0.10566000000E+00 0.  1.
         14    1    4    4    0    0 -0.19445891409E+02  0.10209237574E+02 -0.10842182453E+03  0.11062397235E+03  0.00000000000E+00 0. -1.
<mgrwt>
<rscale>  0 0.80394636E+02</rscale>
<asrwt>0</asrwt>
<pdfrwt beam="1">  1        2 0.23072906E-01 0.80394636E+02</pdfrwt>
<pdfrwt beam="2">  1       -1 0.16575443E-02 0.80394636E+02</pdfrwt>
<totfact> 0.19768996E+05</totfact>
</mgrwt>
</event>
<event>
 8    1  0.2389776E-016  0.8079281E+02  0.7818608E-02  0.1326816E+00
         -1   -1    0    0    0  501 -0.00000000000E+00  0.00000000000E+00  0.16125614444E+02  0.16125615231E+02  0.50400000000E-02 0.  1.
          2   -1    0    0  501    0  0.00000000000E+00 -0.00000000000E+00 -0.10119735541E+03  0.10119735544E+03  0.25500000000E-02 0. -1.
         24    2    1    2    0    0  0.00000000000E+00  0.00000000000E+00 -0.85071740969E+02  0.11732297068E+03  0.80792811170E+02 0.  0.
         66    2    3    3    0    0 -0.88690971586E+01  0.18803798698E+02 -0.92815791199E+02  0.95136821666E+02  0.20000027012E+01 0.  0.
        -13    1    3    3    0    0  0.88690971586E+01 -0.18803798698E+02  0.77440502303E+01  0.22186149010E+02  0.10566000000E+00 0.  1.
         13    1    4    4    0    0 -0.21396505846E+01  0.43401161779E+01 -0.24126091040E+02  0.24606790647E+02  0.10566000000E+00 0. -1.
        -13    1    4    4    0    0 -0.65408045580E+01  0.13760625852E+02 -0.64311668575E+02  0.66091896834E+02  0.10566000000E+00 0.  1.
        -14    1    4    4    0    0 -0.18864201593E+00  0.70305666826E+00 -0.43780315842E+01  0.44381341847E+01  0.00000000000E+00 0.  1.
<mgrwt>
<rscale>  0 0.80792811E+02</rscale>
<asrwt>0</asrwt>
<pdfrwt beam="1">  1        2 0.15568824E-01 0.80792811E+02</pdfrwt>
<pdfrwt beam="2">  1       -1 0.24808639E-02 0.80792811E+02</pdfrwt>
<totfact> 0.17321325E+05</totfact>
</mgrwt>
</event>
<event>
 8    1  0.2389776E-016  0.8042736E+02  0.7818608E-02  0.1327843E+00
          2   -1    0    0  501    0  0.00000000000E+00  0.00000000000E+00  0.21640261184E+03  0.21640261185E+03  0.25500000000E-02 0. -1.
         -1   -1    0    0    0  501 -0.00000000000E+00 -0.00000000000E+00 -0.74728304361E+01  0.74728321357E+01  0.50400000000E-02 0.  1.
         24    2    1    2    0    0  0.00000000000E+00  0.00000000000E+00  0.20892978140E+03  0.22387544399E+03  0.80427363903E+02 0.  0.
         66    2    3    3    0    0 -0.23613390796E+02  0.14603143285E+02  0.18541072846E+03  0.18748861898E+03  0.20000003419E+01 0.  0.
        -13    1    3    3    0    0  0.23613390796E+02 -0.14603143285E+02  0.23519052943E+02  0.36386825007E+02  0.10566000000E+00 0.  1.
         13    1    4    4    0    0 -0.42219656352E+01  0.28045014383E+01  0.35259821334E+02  0.35622414105E+02  0.10566000000E+00 0. -1.
        -13    1    4    4    0    0 -0.15816910602E+02  0.10072578351E+02  0.12713559361E+03  0.12851109610E+03  0.10566000000E+00 0.  1.
        -14    1    4    4    0    0 -0.35745145589E+01  0.17260634958E+01  0.23015313514E+02  0.23355108770E+02  0.00000000000E+00 0.  1.
<mgrwt>
<rscale>  0 0.80427364E+02</rscale>
<asrwt>0</asrwt>
<pdfrwt beam="1">  1        2 0.33292708E-01 0.80427364E+02</pdfrwt>
<pdfrwt beam="2">  1       -1 0.11496664E-02 0.80427364E+02</pdfrwt>
<totfact> 0.22358870E+05</totfact>
</mgrwt>
</event>
<event>
 8    1  0.2389776E-016  0.7095812E+02  0.7818608E-02  0.1356865E+00
         -1   -1    0    0    0  501 -0.00000000000E+00  0.00000000000E+00  0.11137330996E+01  0.11137445034E+01  0.50400000000E-02 0.  1.
          2   -1    0    0  501    0  0.00000000000E+00 -0.00000000000E+00 -0.11302144837E+04  0.11302144837E+04  0.25500000000E-02 0. -1.
         24    2    1    2    0    0  0.00000000000E+00  0.00000000000E+00 -0.11291007506E+04  0.11313282282E+04  0.70958120959E+02 0.  0.
         66    2    3    3    0    0  0.20942670705E+01  0.15513267730E+02 -0.10721224348E+04  0.10722385755E+04  0.19999987835E+01 0.  0.
        -13    1    3    3    0    0 -0.20942670705E+01 -0.15513267730E+02 -0.56978315745E+02  0.59089652727E+02  0.10566000000E+00 0.  1.
         13    1    4    4    0    0  0.12985965163E+01  0.71190083512E+01 -0.47558494296E+03  0.47564000649E+03  0.10566000000E+00 0. -1.
        -13    1    4    4    0    0  0.26925268016E+00  0.16337222039E+01 -0.15710497390E+03  0.15711373439E+03  0.10566000000E+00 0.  1.
        -14    1    4    4    0    0  0.52641787404E+00  0.67605371754E+01 -0.43943251797E+03  0.43948483458E+03  0.00000000000E+00 0.  1.
<mgrwt>
<rscale>  0 0.70958121E+02</rscale>
<asrwt>0</asrwt>
<pdfrwt beam="1">  1        2 0.17387823E+00 0.70958121E+02</pdfrwt>
<pdfrwt beam="2">  1       -1 0.17134534E-03 0.70958121E+02</pdfrwt>
<totfact> 0.47982275E+05</totfact>
</mgrwt>
</event>
<event>
 8    1  0.2389776E-016  0.7924907E+02  0.7818608E-02  0.1331196E+00
          2   -1    0    0  501    0  0.00000000000E+00  0.00000000000E+00  0.18061397729E+02  0.18061397909E+02  0.25500000000E-02 0. -1.
         -1   -1    0    0    0  501 -0.00000000000E+00 -0.00000000000E+00 -0.86931474479E+02  0.86931474625E+02  0.50400000000E-02 0.  1.
         24    2    1    2    0    0  0.00000000000E+00  0.00000000000E+00 -0.68870076750E+02  0.10499287253E+03  0.79249074514E+02 0.  0.
         66    2    3    3    0    0 -0.28207317069E+02  0.25768765412E+02 -0.20662143723E+02  0.43481101483E+02  0.19999989607E+01 0.  0.
        -13    1    3    3    0    0  0.28207317069E+02 -0.25768765412E+02 -0.48207933027E+02  0.61511771051E+02  0.10566000000E+00 0.  1.
         13    1    4    4    0    0 -0.42633574764E+01  0.37101836064E+01 -0.24991347067E+01  0.61804949383E+01  0.10566000000E+00 0. -1.
        -13    1    4    4    0    0 -0.98015020024E+01  0.83679638638E+01 -0.75942840696E+01  0.14959163589E+02  0.10566000000E+00 0.  1.
        -14    1    4    4    0    0 -0.14142457590E+02  0.13690617941E+02 -0.10568724946E+02  0.22341442955E+02  0.00000000000E+00 0.  1.
<mgrwt>
<rscale>  0 0.79249075E+02</rscale>
<asrwt>0</asrwt>
<pdfrwt beam="1">  1        2 0.27786766E-02 0.79249075E+02</pdfrwt>
<pdfrwt beam="2">  1       -1 0.13374073E-01 0.79249075E+02</pdfrwt>
<totfact> 0.12495426E+05</totfact>
</mgrwt>
</event>
<event>
 8    1  0.2389776E-016  0.8018070E+02  0.7818608E-02  0.1328539E+00
         -1   -1    0    0    0  501 -0.00000000000E+00  0.00000000000E+00  0.50444284220E+01  0.50444309398E+01  0.50400000000E-02 0.  1.
          2   -1    0    0  501    0  0.00000000000E+00 -0.00000000000E+00 -0.31861605678E+03  0.31861605679E+03  0.25500000000E-02 0. -1.
         24    2    1    2    0    0  0.00000000000E+00  0.00000000000E+00 -0.31357162836E+03  0.32366048773E+03  0.80180703455E+02 0.  0.
         66    2    3    3    0    0 -0.66475510759E+01 -0.16711333991E+02 -0.30140222028E+03  0.30194495697E+03  0.20000082949E+01 0.  0.
        -13    1    3    3    0    0  0.66475510759E+01  0.16711333991E+02 -0.12169408081E+02  0.21715530759E+02  0.10566000000E+00 0.  1.
         13    1    4    4    0    0 -0.13796828795E+01 -0.29378340742E+01 -0.44874631974E+02  0.44991978760E+02  0.10566000000E+00 0. -1.
        -13    1    4    4    0    0 -0.17007194061E+01 -0.57051628880E+01 -0.10610544621E+03  0.10627237746E+03  0.10566000000E+00 0. -1.
         14    1    4    4    0    0 -0.35671487904E+01 -0.80683370287E+01 -0.15042214209E+03  0.15068060076E+03  0.00000000000E+00 0. -1.
<mgrwt>
<rscale>  0 0.80180703E+02</rscale>
<asrwt>0</asrwt>
<pdfrwt beam="1">  1        2 0.49017839E-01 0.80180703E+02</pdfrwt>
<pdfrwt beam="2">  1       -1 0.77606636E-03 0.80180703E+02</pdfrwt>
<totfact> 0.25901898E+05</totfact>
</mgrwt>
</event>
<event>
 8    1  0.2389776E-016  0.8397848E+02  0.7818608E-02  0.1318126E+00
         -1   -1    0    0    0  501 -0.00000000000E+00  0.00000000000E+00  0.20539644201E+01  0.20539706036E+01  0.50400000000E-02 0.  1.
          2   -1    0    0  501    0  0.00000000000E+00 -0.00000000000E+00 -0.85838572325E+03  0.85838572325E+03  0.25500000000E-02 0. -1.
         24    2    1    2    0    0  0.00000000000E+00 -0.35527136788E-14 -0.85633175883E+03  0.86043969386E+03  0.83978482868E+02 0.  0.
         66    2    3    3    0    0 -0.69556908647E+01 -0.26563976294E+02 -0.75355609278E+03  0.75405889122E+03  0.20000007156E+01 0.  0.
        -13    1    3    3    0    0  0.69556908647E+01  0.26563976294E+02 -0.10277566605E+03  0.10638080263E+03  0.10566000000E+00 0.  1.
         13    1    4    4    0    0 -0.54132062521E+01 -0.19119207898E+02 -0.55975157931E+03  0.56010417658E+03  0.10566000000E+00 0. -1.
        -13    1    4    4    0    0 -0.13170417852E+01 -0.48940154182E+01 -0.12681074879E+03  0.12691202922E+03  0.10566000000E+00 0.  1.
         14    1    4    4    0    0 -0.22544282747E+00 -0.25507529778E+01 -0.66993764667E+02  0.67042685429E+02  0.00000000000E+00 0. -1.
<mgrwt>
<rscale>  0 0.83978483E+02</rscale>
<asrwt>0</asrwt>
<pdfrwt beam="1">  1        2 0.13205906E+00 0.83978483E+02</pdfrwt>
<pdfrwt beam="2">  1       -1 0.31599569E-03 0.83978483E+02</pdfrwt>
<totfact> 0.30619026E+05</totfact>
</mgrwt>
</event>
<event>
 8    1  0.2389776E-016  0.8185970E+02  0.7818608E-02  0.1323855E+00
         -1   -1    0    0    0  501 -0.00000000000E+00  0.00000000000E+00  0.29023736572E+02  0.29023737009E+02  0.50400000000E-02 0.  1.
          2   -1    0    0  501    0  0.00000000000E+00 -0.00000000000E+00 -0.57720083749E+02  0.57720083805E+02  0.25500000000E-02 0. -1.
         24    2    1    2    0    0  0.71054273576E-14  0.00000000000E+00 -0.28696347177E+02  0.86743820815E+02  0.81859697704E+02 0.  0.
         66    2    3    3    0    0  0.32101474199E+02 -0.22359729666E+02 -0.16944837878E+01  0.39208844776E+02  0.20000192255E+01 0.  0.
        -13    1    3    3    0    0 -0.32101474199E+02  0.22359729666E+02 -0.27001863389E+02  0.47534976039E+02  0.10566000000E+00 0.  1.
         13    1    4    4    0    0  0.10169667075E+02 -0.75070942447E+01 -0.75347915447E+00  0.12663233682E+02  0.10566000000E+00 0. -1.
        -13    1    4    4    0    0  0.43280076832E+01 -0.35185871307E+01 -0.53947325195E+00  0.56048462358E+01  0.10566000000E+00 0.  1.
        -14    1    4    4    0    0  0.17603799441E+02 -0.11334048290E+02 -0.40153138137E+00  0.20940764858E+02  0.00000000000E+00 0.  1.
<mgrwt>
<rscale>  0 0.81859698E+02</rscale>
<asrwt>0</asrwt>
<pdfrwt beam="1">  1        2 0.88800129E-02 0.81859698E+02</pdfrwt>
<pdfrwt beam="2">  1       -1 0.44651903E-02 0.81859698E+02</pdfrwt>
<totfact> 0.14490554E+05</totfact>
</mgrwt>
</event>
<event>
 8    1  0.2389776E-016  0.8036569E+02  0.7818608E-02  0.1328017E+00
          2   -1    0    0  501    0  0.00000000000E+00  0.00000000000E+00  0.23029930950E+03  0.23029930952E+03  0.25500000000E-02 0. -1.
         -1   -1    0    0    0  501 -0.00000000000E+00 -0.00000000000E+00 -0.70111402556E+01  0.70111420671E+01  0.50400000000E-02 0.  1.
         24    2    1    2    0    0 -0.17763568394E-14  0.00000000000E+00  0.22328816925E+03  0.23731045159E+03  0.80365688607E+02 0.  0.
         66    2    3    3    0    0  0.14379391195E+02  0.28181657313E+02  0.18474441624E+03  0.18744458390E+03  0.20000003410E+01 0.  0.
        -13    1    3    3    0    0 -0.14379391195E+02 -0.28181657313E+02  0.38543753007E+02  0.49865867685E+02  0.10566000000E+00 0.  1.
         13    1    4    4    0    0  0.72140798630E+01  0.14438535637E+02  0.89225277047E+02  0.90673455254E+02  0.10566000000E+00 0. -1.
        -13    1    4    4    0    0  0.25287081602E+00  0.74898113458E+00  0.48392617170E+01  0.49045422203E+01  0.10566000000E+00 0. -1.
         14    1    4    4    0    0  0.69124405155E+01  0.12994140541E+02  0.90679877478E+02  0.91866586426E+02  0.00000000000E+00 0. -1.
<mgrwt>
<rscale>  0 0.80365689E+02</rscale>
<asrwt>0</asrwt>
<pdfrwt beam="1">  1        2 0.35430656E-01 0.80365689E+02</pdfrwt>
<pdfrwt beam="2">  1       -1 0.10786373E-02 0.80365689E+02</pdfrwt>
<totfact> 0.22902938E+05</totfact>
</mgrwt>
</event>
<event>
 8    1  0.2389776E-016  0.7733164E+02  0.7818608E-02  0.1336799E+00
          2   -1    0    0  501    0  0.00000000000E+00  0.00000000000E+00  0.11200745476E+04  0.11200745476E+04  0.25500000000E-02 0. -1.
         -1   -1    0    0    0  501 -0.00000000000E+00 -0.00000000000E+00 -0.13347685781E+01  0.13347780934E+01  0.50400000000E-02 0.  1.
         24    2    1    2    0    0  0.00000000000E+00  0.00000000000E+00  0.11187397791E+04  0.11214093257E+04  0.77331640308E+02 0.  0.
         66    2    3    3    0    0  0.19774094077E+02  0.16996442333E+02  0.97325815993E+03  0.97360943901E+03  0.20000000128E+01 0.  0.
        -13    1    3    3    0    0 -0.19774094077E+02 -0.16996442333E+02  0.14548161912E+03  0.14779988672E+03  0.10566000000E+00 0.  1.
         13    1    4    4    0    0  0.11082099651E+01  0.13598193789E+01  0.71362486413E+02  0.71384121969E+02  0.10566000000E+00 0. -1.
        -13    1    4    4    0    0  0.49285090673E+01  0.48175055899E+01  0.24481838545E+03  0.24491539678E+03  0.10566000000E+00 0.  1.
         14    1    4    4    0    0  0.13737375045E+02  0.10819117364E+02  0.65707728807E+03  0.65730992026E+03  0.00000000000E+00 0. -1.
<mgrwt>
<rscale>  0 0.77331640E+02</rscale>
<asrwt>0</asrwt>
<pdfrwt beam="1">  1        2 0.17232039E+00 0.77331640E+02</pdfrwt>
<pdfrwt beam="2">  1       -1 0.20534828E-03 0.77331640E+02</pdfrwt>
<totfact> 0.38463876E+05</totfact>
</mgrwt>
</event>
<event>
 8    1  0.2389776E-016  0.8141284E+02  0.7818608E-02  0.1325089E+00
          2   -1    0    0  501    0  0.00000000000E+00  0.00000000000E+00  0.27567026666E+02  0.27567026784E+02  0.25500000000E-02 0. -1.
         -1   -1    0    0    0  501 -0.00000000000E+00 -0.00000000000E+00 -0.60108497523E+02  0.60108497735E+02  0.50400000000E-02 0.  1.
         24    2    1    2    0    0  0.00000000000E+00  0.00000000000E+00 -0.32541470857E+02  0.87675524518E+02  0.81412838508E+02 0.  0.
         66    2    3    3    0    0  0.31222218908E+02 -0.16991579280E+02  0.50269965171E+01  0.35955686691E+02  0.19999978684E+01 0.  0.
        -13    1    3    3    0    0 -0.31222218908E+02  0.16991579280E+02 -0.37568467375E+02  0.51719837827E+02  0.10566000000E+00 0.  1.
         13    1    4    4    0    0  0.11836682943E+02 -0.66510874820E+01  0.13781737762E+01  0.13647510937E+02  0.10566000000E+00 0. -1.
        -13    1    4    4    0    0  0.11843589398E+02 -0.58728929735E+01  0.26784579229E+01  0.13488765050E+02  0.10566000000E+00 0.  1.
        -14    1    4    4    0    0  0.75419465678E+01 -0.44675988241E+01  0.97036481802E+00  0.88194107039E+01  0.00000000000E+00 0.  1.
<mgrwt>
<rscale>  0 0.81412839E+02</rscale>
<asrwt>0</asrwt>
<pdfrwt beam="1">  1        2 0.42410811E-02 0.81412839E+02</pdfrwt>
<pdfrwt beam="2">  1       -1 0.92474612E-02 0.81412839E+02</pdfrwt>
<totfact> 0.12595402E+05</totfact>
</mgrwt>
</event>
<event>
 8    1  0.2389776E-016  0.8057424E+02  0.7818608E-02  0.1327430E+00
         -1   -1    0    0    0  501 -0.00000000000E+00  0.00000000000E+00  0.14234224092E+02  0.14234224984E+02  0.50400000000E-02 0.  1.
          2   -1    0    0  501    0  0.00000000000E+00 -0.00000000000E+00 -0.11402462217E+03  0.11402462220E+03  0.25500000000E-02 0. -1.
         24    2    1    2    0    0 -0.71054273576E-14 -0.35527136788E-14 -0.99790398080E+02  0.12825884718E+03  0.80574241120E+02 0.  0.
         66    2    3    3    0    0 -0.26357955709E+02  0.30294508586E+02 -0.54579831783E+02  0.67789800982E+02  0.20000000183E+01 0.  0.
        -13    1    3    3    0    0  0.26357955709E+02 -0.30294508586E+02 -0.45210566296E+02  0.60469046202E+02  0.10566000000E+00 0.  1.
         13    1    4    4    0    0 -0.44430973302E+01  0.49703463422E+01 -0.86852472161E+01  0.10949435597E+02  0.10566000000E+00 0. -1.
        -13    1    4    4    0    0 -0.52316625841E+01  0.51444586444E+01 -0.94087634874E+01  0.11931963063E+02  0.10566000000E+00 0.  1.
        -14    1    4    4    0    0 -0.16683195795E+02  0.20179703600E+02 -0.36485821080E+02  0.44908402323E+02  0.00000000000E+00 0.  1.
<mgrwt>
<rscale>  0 0.80574241E+02</rscale>
<asrwt>0</asrwt>
<pdfrwt beam="1">  1        2 0.17542249E-01 0.80574241E+02</pdfrwt>
<pdfrwt beam="2">  1       -1 0.21898808E-02 0.80574241E+02</pdfrwt>
<totfact> 0.18057463E+05</totfact>
</mgrwt>
</event>
<event>
 8    1  0.2389776E-016  0.7975660E+02  0.7818608E-02  0.1329744E+00
         -1   -1    0    0    0  501 -0.00000000000E+00  0.00000000000E+00  0.56236020100E+01  0.56236042684E+01  0.50400000000E-02 0.  1.
          2   -1    0    0  501    0  0.00000000000E+00 -0.00000000000E+00 -0.28278644403E+03  0.28278644404E+03  0.25500000000E-02 0. -1.
         24    2    1    2    0    0  0.00000000000E+00  0.00000000000E+00 -0.27716284202E+03  0.28841004831E+03  0.79756598281E+02 0.  0.
         66    2    3    3    0    0  0.16868491154E+02 -0.19726986760E+02 -0.24802697029E+03  0.24938941036E+03  0.20000021141E+01 0.  0.
        -13    1    3    3    0    0 -0.16868491154E+02  0.19726986760E+02 -0.29135871729E+02  0.39020637948E+02  0.10566000000E+00 0.  1.
         13    1    4    4    0    0  0.12515716817E+02 -0.14821135736E+02 -0.18921086471E+03  0.19020271218E+03  0.10566000000E+00 0. -1.
        -13    1    4    4    0    0  0.16092944725E+01 -0.12477003190E+01 -0.18680139789E+02  0.18791098194E+02  0.10566000000E+00 0.  1.
        -14    1    4    4    0    0  0.27434798644E+01 -0.36581507056E+01 -0.40135965785E+02  0.40395599981E+02  0.00000000000E+00 0.  1.
<mgrwt>
<rscale>  0 0.79756598E+02</rscale>
<asrwt>0</asrwt>
<pdfrwt beam="1">  1        2 0.43505596E-01 0.79756598E+02</pdfrwt>
<pdfrwt beam="2">  1       -1 0.86516993E-03 0.79756598E+02</pdfrwt>
<totfact> 0.25154844E+05</totfact>
</mgrwt>
</event>
<event>
 8    1  0.2389776E-016  0.8034597E+02  0.7818608E-02  0.1328072E+00
          2   -1    0    0  501    0  0.00000000000E+00  0.00000000000E+00  0.35943986558E+02  0.35943986648E+02  0.25500000000E-02 0. -1.
         -1   -1    0    0    0  501 -0.00000000000E+00 -0.00000000000E+00 -0.44899552097E+02  0.44899552379E+02  0.50400000000E-02 0.  1.
         24    2    1    2    0    0  0.00000000000E+00 -0.35527136788E-14 -0.89555655386E+01  0.80843539028E+02  0.80345974687E+02 0.  0.
         66    2    3    3    0    0 -0.21267789066E+02 -0.20731608502E+02  0.22700542840E+02  0.37435719403E+02  0.19999997885E+01 0.  0.
        -13    1    3    3    0    0  0.21267789066E+02  0.20731608502E+02 -0.31656108379E+02  0.43407819625E+02  0.10566000000E+00 0.  1.
         13    1    4    4    0    0 -0.30081159506E+00 -0.32551259101E+00  0.34368416122E+00  0.57072664289E+00  0.10566000000E+00 0.  1.
        -13    1    4    4    0    0 -0.16351634352E+01 -0.21437846875E+01  0.24660525083E+01  0.36554276434E+01  0.10566000000E+00 0.  1.
         14    1    4    4    0    0 -0.19331814036E+02 -0.18262311224E+02  0.19890806171E+02  0.33209565117E+02  0.00000000000E+00 0. -1.
<mgrwt>
<rscale>  0 0.80345975E+02</rscale>
<asrwt>0</asrwt>
<pdfrwt beam="1">  1        2 0.55298441E-02 0.80345975E+02</pdfrwt>
<pdfrwt beam="2">  1       -1 0.69076235E-02 0.80345975E+02</pdfrwt>
<totfact> 0.13782188E+05</totfact>
</mgrwt>
</event>
<event>
 8    1  0.2389776E-016  0.8015331E+02  0.7818608E-02  0.1328617E+00
          2   -1    0    0  501    0  0.00000000000E+00  0.00000000000E+00  0.17674280320E+03  0.17674280322E+03  0.25500000000E-02 0. -1.
         -1   -1    0    0    0  501 -0.00000000000E+00 -0.00000000000E+00 -0.90874319856E+01  0.90874333832E+01  0.50400000000E-02 0.  1.
         24    2    1    2    0    0 -0.88817841970E-15  0.00000000000E+00  0.16765537122E+03  0.18583023661E+03  0.80153311463E+02 0.  0.
         66    2    3    3    0    0 -0.45745104440E+01  0.90769283067E+01  0.17369676870E+03  0.17400541437E+03  0.20000001331E+01 0.  0.
        -13    1    3    3    0    0  0.45745104440E+01 -0.90769283067E+01 -0.60413974820E+01  0.11824822234E+02  0.10566000000E+00 0.  1.
         13    1    4    4    0    0 -0.11059237676E+01  0.28703347704E+01  0.52944830317E+02  0.53034216412E+02  0.10566000000E+00 0. -1.
        -13    1    4    4    0    0 -0.47984518042E+00  0.22115665913E+01  0.33187910364E+02  0.33265144469E+02  0.10566000000E+00 0.  1.
         14    1    4    4    0    0 -0.29887414960E+01  0.39950269450E+01  0.87564028019E+02  0.87706053491E+02  0.00000000000E+00 0. -1.
<mgrwt>
<rscale>  0 0.80153311E+02</rscale>
<asrwt>0</asrwt>
<pdfrwt beam="1">  1        2 0.27191200E-01 0.80153311E+02</pdfrwt>
<pdfrwt beam="2">  1       -1 0.13980666E-02 0.80153311E+02</pdfrwt>
<totfact> 0.21036400E+05</totfact>
</mgrwt>
</event>
<event>
 8    1  0.2389776E-016  0.7954848E+02  0.7818608E-02  0.1330338E+00
          2   -1    0    0  501    0  0.00000000000E+00  0.00000000000E+00  0.17750652402E+03  0.17750652403E+03  0.25500000000E-02 0. -1.
         -1   -1    0    0    0  501 -0.00000000000E+00 -0.00000000000E+00 -0.89122913343E+01  0.89122927594E+01  0.50400000000E-02 0.  1.
         24    2    1    2    0    0 -0.35527136788E-14  0.00000000000E+00  0.16859423268E+03  0.18641881679E+03  0.79548475543E+02 0.  0.
         66    2    3    3    0    0  0.22211546878E+02  0.32286825674E+02  0.99929094759E+02  0.10735742130E+03  0.20000007195E+01 0.  0.
        -13    1    3    3    0    0 -0.22211546878E+02 -0.32286825674E+02  0.68665137922E+02  0.79061395489E+02  0.10566000000E+00 0.  1.
         13    1    4    4    0    0  0.16182815547E+02  0.24583008472E+02  0.75686576529E+02  0.81207615747E+02  0.10566000000E+00 0. -1.
        -13    1    4    4    0    0  0.28459412704E+01  0.38498737666E+01  0.11100898794E+02  0.12089748872E+02  0.10566000000E+00 0.  1.
        -14    1    4    4    0    0  0.31827900601E+01  0.38539434353E+01  0.13141619436E+02  0.14060056685E+02  0.00000000000E+00 0.  1.
<mgrwt>
<rscale>  0 0.79548476E+02</rscale>
<asrwt>0</asrwt>
<pdfrwt beam="1">  1        2 0.27308696E-01 0.79548476E+02</pdfrwt>
<pdfrwt beam="2">  1       -1 0.13711219E-02 0.79548476E+02</pdfrwt>
<totfact> 0.21493284E+05</totfact>
</mgrwt>
</event>
<event>
 8    1  0.2389776E-016  0.7965746E+02  0.7818608E-02  0.1330026E+00
          2   -1    0    0  501    0  0.00000000000E+00  0.00000000000E+00  0.13827080770E+04  0.13827080770E+04  0.25500000000E-02 0. -1.
         -1   -1    0    0    0  501 -0.00000000000E+00 -0.00000000000E+00 -0.11472559506E+01  0.11472670212E+01  0.50400000000E-02 0.  1.
         24    2    1    2    0    0 -0.44408920985E-15  0.00000000000E+00  0.13815608210E+04  0.13838553440E+04  0.79657459938E+02 0.  0.
         66    2    3    3    0    0  0.28726435170E+01 -0.11524908739E+02  0.13512004657E+04  0.13512541486E+04  0.19999946808E+01 0.  0.
        -13    1    3    3    0    0 -0.28726435170E+01  0.11524908739E+02  0.30360355276E+02  0.32601195357E+02  0.10566000000E+00 0.  1.
         13    1    4    4    0    0  0.10822586832E+01 -0.29422730711E+01  0.43503754841E+03  0.43504885697E+03  0.10566000000E+00 0. -1.
        -13    1    4    4    0    0  0.97568306692E+00 -0.27050563439E+01  0.29560054380E+03  0.29561454961E+03  0.10566000000E+00 0.  1.
         14    1    4    4    0    0  0.81470176689E+00 -0.58775793240E+01  0.62056237353E+03  0.62059074205E+03  0.00000000000E+00 0. -1.
<mgrwt>
<rscale>  0 0.79657460E+02</rscale>
<asrwt>0</asrwt>
<pdfrwt beam="1">  1        2 0.21272316E+00 0.79657460E+02</pdfrwt>
<pdfrwt beam="2">  1       -1 0.17650273E-03 0.79657460E+02</pdfrwt>
<totfact> 0.34512609E+05</totfact>
</mgrwt>
</event>
<event>
 8    1  0.2389776E-016  0.8065649E+02  0.7818608E-02  0.1327199E+00
          2   -1    0    0  501    0  0.00000000000E+00  0.00000000000E+00  0.34918491289E+03  0.34918491290E+03  0.25500000000E-02 0. -1.
         -1   -1    0    0    0  501 -0.00000000000E+00 -0.00000000000E+00 -0.46576087075E+01  0.46576114344E+01  0.50400000000E-02 0.  1.
         24    2    1    2    0    0  0.00000000000E+00 -0.35527136788E-14  0.34452730419E+03  0.35384252434E+03  0.80656485788E+02 0.  0.
         66    2    3    3    0    0 -0.80795417835E+00 -0.20133975372E+02  0.32549693176E+03  0.32612617550E+03  0.20000015808E+01 0.  0.
        -13    1    3    3    0    0  0.80795417835E+00  0.20133975372E+02  0.19030372428E+02  0.27716348840E+02  0.10566000000E+00 0.  1.
         13    1    4    4    0    0 -0.76542039304E+00 -0.13718813785E+02  0.22626901861E+03  0.22668584355E+03  0.10566000000E+00 0. -1.
        -13    1    4    4    0    0 -0.38431703776E+00 -0.39372188456E+01  0.65866534315E+02  0.65985308202E+02  0.10566000000E+00 0.  1.
        -14    1    4    4    0    0  0.34178325246E+00 -0.24779427414E+01  0.33361378834E+02  0.33455023744E+02  0.00000000000E+00 0.  1.
<mgrwt>
<rscale>  0 0.80656486E+02</rscale>
<asrwt>0</asrwt>
<pdfrwt beam="1">  1        2 0.53720774E-01 0.80656486E+02</pdfrwt>
<pdfrwt beam="2">  1       -1 0.71655516E-03 0.80656486E+02</pdfrwt>
<totfact> 0.26357232E+05</totfact>
</mgrwt>
</event>
<event>
 8    1  0.2462435E-016  0.7865288E+02  0.7818608E-02  0.1332918E+00
          2   -1    0    0  501    0  0.00000000000E+00  0.00000000000E+00  0.25371490085E+03  0.25371490087E+03  0.25500000000E-02 0. -1.
         -1   -1    0    0    0  501 -0.00000000000E+00 -0.00000000000E+00 -0.60956949398E+01  0.60956970233E+01  0.50400000000E-02 0.  1.
         24    2    1    2    0    0  0.88817841970E-15  0.35527136788E-14  0.24761920591E+03  0.25981059789E+03  0.78652880675E+02 0.  0.
         66    2    3    3    0    0  0.69476205267E+01  0.27758622757E+02  0.21287852460E+03  0.21480241341E+03  0.20000002572E+01 0.  0.
        -13    1    3    3    0    0 -0.69476205267E+01 -0.27758622757E+02  0.34740681316E+02  0.45008184485E+02  0.10566000000E+00 0.  1.
         13    1    4    4    0    0  0.80004455164E+00  0.22457442607E+01  0.16502982951E+02  0.16674622901E+02  0.10566000000E+00 0. -1.
        -13    1    4    4    0    0  0.11536898595E+01  0.29125886911E+01  0.25430608526E+02  0.25623059677E+02  0.10566000000E+00 0.  1.
         14    1    4    4    0    0  0.49938861155E+01  0.22600289805E+02  0.17094493312E+03  0.17250473083E+03  0.00000000000E+00 0. -1.
<mgrwt>
<rscale>  0 0.78652881E+02</rscale>
<asrwt>0</asrwt>
<pdfrwt beam="1">  1        2 0.39033057E-01 0.78652881E+02</pdfrwt>
<pdfrwt beam="2">  1       -1 0.93779950E-03 0.78652881E+02</pdfrwt>
<totfact> 0.25089185E+05</totfact>
</mgrwt>
</event>
<event>
 8    1  0.2389776E-016  0.7908110E+02  0.7818608E-02  0.1331680E+00
         -1   -1    0    0    0  501 -0.00000000000E+00  0.00000000000E+00  0.22308105613E+03  0.22308105619E+03  0.50400000000E-02 0.  1.
          2   -1    0    0  501    0  0.00000000000E+00 -0.00000000000E+00 -0.70084614196E+01  0.70084618835E+01  0.25500000000E-02 0. -1.
         24    2    1    2    0    0  0.00000000000E+00  0.00000000000E+00  0.21607259471E+03  0.23008951807E+03  0.79081098507E+02 0.  0.
         66    2    3    3    0    0 -0.11147632672E+02 -0.37884110872E+02  0.11219358628E+03  0.11895745642E+03  0.20000160357E+01 0.  0.
        -13    1    3    3    0    0  0.11147632672E+02  0.37884110872E+02  0.10387900843E+03  0.11113206165E+03  0.10566000000E+00 0.  1.
         13    1    4    4    0    0 -0.46075892137E+01 -0.18137197636E+02  0.54603494584E+02  0.57721231806E+02  0.10566000000E+00 0. -1.
        -13    1    4    4    0    0 -0.39104125007E+01 -0.12751484294E+02  0.36372652031E+02  0.38741097783E+02  0.10566000000E+00 0.  1.
         14    1    4    4    0    0 -0.26296309580E+01 -0.69954289422E+01  0.21217439667E+02  0.22495126830E+02  0.00000000000E+00 0. -1.
<mgrwt>
<rscale>  0 0.79081099E+02</rscale>
<asrwt>0</asrwt>
<pdfrwt beam="1">  1        2 0.10782247E-02 0.79081099E+02</pdfrwt>
<pdfrwt beam="2">  1       -1 0.34320167E-01 0.79081099E+02</pdfrwt>
<totfact> 0.99127322E+04</totfact>
</mgrwt>
</event>
<event>
 8    1  0.2389776E-016  0.7877014E+02  0.7818608E-02  0.1332578E+00
          2   -1    0    0  501    0  0.00000000000E+00  0.00000000000E+00  0.33789398981E+03  0.33789398982E+03  0.25500000000E-02 0. -1.
         -1   -1    0    0    0  501 -0.00000000000E+00 -0.00000000000E+00 -0.45907396166E+01  0.45907423833E+01  0.50400000000E-02 0.  1.
         24    2    1    2    0    0  0.17763568394E-14 -0.71054273576E-14  0.33330325019E+03  0.34248473220E+03  0.78770141568E+02 0.  0.
         66    2    3    3    0    0  0.91797378215E+01  0.35408021727E+02  0.22994308466E+03  0.23284290363E+03  0.20000000155E+01 0.  0.
        -13    1    3    3    0    0 -0.91797378215E+01 -0.35408021727E+02  0.10336016554E+03  0.10964182857E+03  0.10566000000E+00 0.  1.
         13    1    4    4    0    0  0.40281678884E+01  0.16093298961E+02  0.10640528822E+03  0.10769083960E+03  0.10566000000E+00 0. -1.
        -13    1    4    4    0    0  0.88496363830E+00  0.22864983437E+01  0.13122240675E+02  0.13349741558E+02  0.10566000000E+00 0. -1.
        -14    1    4    4    0    0  0.42666062948E+01  0.17028224422E+02  0.11041555576E+03  0.11180232247E+03  0.00000000000E+00 0.  1.
<mgrwt>
<rscale>  0 0.78770142E+02</rscale>
<asrwt>0</asrwt>
<pdfrwt beam="1">  1        2 0.51983679E-01 0.78770142E+02</pdfrwt>
<pdfrwt beam="2">  1       -1 0.70626801E-03 0.78770142E+02</pdfrwt>
<totfact> 0.27712726E+05</totfact>
</mgrwt>
</event>
<event>
 8    1  0.2389776E-016  0.8020806E+02  0.7818608E-02  0.1328462E+00
          2   -1    0    0  501    0  0.00000000000E+00  0.00000000000E+00  0.61968310363E+03  0.61968310363E+03  0.25500000000E-02 0. -1.
         -1   -1    0    0    0  501 -0.00000000000E+00 -0.00000000000E+00 -0.25954102720E+01  0.25954151655E+01  0.50400000000E-02 0.  1.
         24    2    1    2    0    0  0.00000000000E+00  0.00000000000E+00  0.61708769336E+03  0.62227851880E+03  0.80208064849E+02 0.  0.
         66    2    3    3    0    0  0.33774740862E+02  0.88518821342E+01  0.46140617096E+03  0.46272966572E+03  0.20000010745E+01 0.  0.
        -13    1    3    3    0    0 -0.33774740862E+02 -0.88518821342E+01  0.15568152240E+03  0.15954885308E+03  0.10566000000E+00 0.  1.
         13    1    4    4    0    0  0.95710261269E+01  0.19813525604E+01  0.13088809276E+03  0.13125255918E+03  0.10566000000E+00 0. -1.
        -13    1    4    4    0    0  0.16055859885E+02  0.46619387499E+01  0.21116903783E+03  0.21182987989E+03  0.10566000000E+00 0.  1.
        -14    1    4    4    0    0  0.81478548498E+01  0.22085908239E+01  0.11934904036E+03  0.11964722666E+03  0.00000000000E+00 0.  1.
<mgrwt>
<rscale>  0 0.80208065E+02</rscale>
<asrwt>0</asrwt>
<pdfrwt beam="1">  1        2 0.95335941E-01 0.80208065E+02</pdfrwt>
<pdfrwt beam="2">  1       -1 0.39929394E-03 0.80208065E+02</pdfrwt>
<totfact> 0.32230431E+05</totfact>
</mgrwt>
</event>
<event>
 8    1  0.2389776E-016  0.7936334E+02  0.7818608E-02  0.1330868E+00
          2   -1    0    0  501    0  0.00000000000E+00  0.00000000000E+00  0.29659318992E+03  0.29659318993E+03  0.25500000000E-02 0. -1.
         -1   -1    0    0    0  501 -0.00000000000E+00 -0.00000000000E+00 -0.53090713569E+01  0.53090737492E+01  0.50400000000E-02 0.  1.
         24    2    1    2    0    0  0.00000000000E+00  0.00000000000E+00  0.29128411856E+03  0.30190226368E+03  0.79363335919E+02 0.  0.
         66    2    3    3    0    0  0.37233171575E+02  0.64489717452E+01  0.19149871892E+03  0.19520158211E+03  0.20000017577E+01 0.  0.
        -13    1    3    3    0    0 -0.37233171575E+02 -0.64489717452E+01  0.99785399640E+02  0.10670068157E+03  0.10566000000E+00 0.  1.
         13    1    4    4    0    0  0.51176904029E+01  0.10413280579E+01  0.28825517633E+02  0.29294995307E+02  0.10566000000E+00 0. -1.
        -13    1    4    4    0    0  0.15383289588E+01  0.78050284888E-01  0.67772044432E+01  0.69508425341E+01  0.10566000000E+00 0. -1.
         14    1    4    4    0    0  0.30577152214E+02  0.53295934024E+01  0.15589599685E+03  0.15895574427E+03  0.00000000000E+00 0. -1.
<mgrwt>
<rscale>  0 0.79363336E+02</rscale>
<asrwt>0</asrwt>
<pdfrwt beam="1">  1        2 0.45629724E-01 0.79363336E+02</pdfrwt>
<pdfrwt beam="2">  1       -1 0.81678035E-03 0.79363336E+02</pdfrwt>
<totfact> 0.25926616E+05</totfact>
</mgrwt>
</event>
<event>
 8    1  0.2389776E-016  0.8264987E+02  0.7818608E-02  0.1321695E+00
         -1   -1    0    0    0  501 -0.00000000000E+00  0.00000000000E+00  0.12460311406E+01  0.12460413336E+01  0.50400000000E-02 0.  1.
          2   -1    0    0  501    0  0.00000000000E+00 -0.00000000000E+00 -0.13705460682E+04  0.13705460682E+04  0.25500000000E-02 0. -1.
         24    2    1    2    0    0  0.00000000000E+00  0.00000000000E+00 -0.13693000370E+04  0.13717921095E+04  0.82649865664E+02 0.  0.
         66    2    3    3    0    0  0.55016200679E+01 -0.11992807097E+02 -0.13346197066E+04  0.13346864262E+04  0.19999984875E+01 0.  0.
        -13    1    3    3    0    0 -0.55016200679E+01  0.11992807097E+02 -0.34680330463E+02  0.37105683264E+02  0.10566000000E+00 0.  1.
         13    1    4    4    0    0  0.95572179308E+00 -0.27015903104E+01 -0.31294209481E+03  0.31295523300E+03  0.10566000000E+00 0. -1.
        -13    1    4    4    0    0  0.35238318255E+01 -0.79343037113E+01 -0.80135715872E+03  0.80140419113E+03  0.10566000000E+00 0.  1.
         14    1    4    4    0    0  0.10220664493E+01 -0.13569130749E+01 -0.22032045304E+03  0.22032700212E+03  0.00000000000E+00 0. -1.
<mgrwt>
<rscale>  0 0.82649866E+02</rscale>
<asrwt>0</asrwt>
<pdfrwt beam="1">  1        2 0.21085204E+00 0.82649866E+02</pdfrwt>
<pdfrwt beam="2">  1       -1 0.19169898E-03 0.82649866E+02</pdfrwt>
<totfact> 0.31427832E+05</totfact>
</mgrwt>
</event>
<event>
 8    1  0.2389776E-016  0.7889754E+02  0.7818608E-02  0.1332209E+00
          2   -1    0    0  501    0  0.00000000000E+00  0.00000000000E+00  0.19577177953E+02  0.19577178119E+02  0.25500000000E-02 0. -1.
         -1   -1    0    0    0  501 -0.00000000000E+00 -0.00000000000E+00 -0.79490797143E+02  0.79490797303E+02  0.50400000000E-02 0.  1.
         24    2    1    2    0    0  0.00000000000E+00  0.00000000000E+00 -0.59913619190E+02  0.99067975422E+02  0.78897541088E+02 0.  0.
         66    2    3    3    0    0 -0.28964745034E+02  0.19049189038E+02 -0.64053957673E+01  0.35310864479E+02  0.19999993646E+01 0.  0.
        -13    1    3    3    0    0  0.28964745034E+02 -0.19049189038E+02 -0.53508223423E+02  0.63757110943E+02  0.10566000000E+00 0.  1.
         13    1    4    4    0    0 -0.14205353969E+02  0.82994125361E+01 -0.32654780558E+01  0.16773396818E+02  0.10566000000E+00 0. -1.
        -13    1    4    4    0    0 -0.11459367836E+02  0.85230034887E+01 -0.26631588339E+01  0.14527982608E+02  0.10566000000E+00 0.  1.
        -14    1    4    4    0    0 -0.33000232289E+01  0.22267730129E+01 -0.47675887754E+00  0.40094850529E+01  0.00000000000E+00 0.  1.
<mgrwt>
<rscale>  0 0.78897541E+02</rscale>
<asrwt>0</asrwt>
<pdfrwt beam="1">  1        2 0.30118736E-02 0.78897541E+02</pdfrwt>
<pdfrwt beam="2">  1       -1 0.12229353E-01 0.78897541E+02</pdfrwt>
<totfact> 0.12864749E+05</totfact>
</mgrwt>
</event>
<event>
 8    1  0.2389776E-016  0.8041349E+02  0.7818608E-02  0.1327882E+00
          2   -1    0    0  501    0  0.00000000000E+00  0.00000000000E+00  0.19129564072E+03  0.19129564074E+03  0.25500000000E-02 0. -1.
         -1   -1    0    0    0  501 -0.00000000000E+00 -0.00000000000E+00 -0.84507014971E+01  0.84507030000E+01  0.50400000000E-02 0.  1.
         24    2    1    2    0    0  0.00000000000E+00 -0.35527136788E-14  0.18284493923E+03  0.19974634374E+03  0.80413494122E+02 0.  0.
         66    2    3    3    0    0 -0.11240786853E+02  0.29158758294E+02  0.15422059966E+03  0.15736766450E+03  0.19999992073E+01 0.  0.
        -13    1    3    3    0    0  0.11240786853E+02 -0.29158758294E+02  0.28624339564E+02  0.42378679236E+02  0.10566000000E+00 0.  1.
         13    1    4    4    0    0 -0.39911136753E+01  0.10826226908E+02  0.60573089945E+02  0.61662359401E+02  0.10566000000E+00 0. -1.
        -13    1    4    4    0    0 -0.12551474520E+01  0.32116737781E+01  0.18252384372E+02  0.18575546907E+02  0.10566000000E+00 0.  1.
         14    1    4    4    0    0 -0.59945257260E+01  0.15120857608E+02  0.75395125344E+02  0.77129758194E+02  0.00000000000E+00 0. -1.
<mgrwt>
<rscale>  0 0.80413494E+02</rscale>
<asrwt>0</asrwt>
<pdfrwt beam="1">  1        2 0.29430097E-01 0.80413494E+02</pdfrwt>
<pdfrwt beam="2">  1       -1 0.13001081E-02 0.80413494E+02</pdfrwt>
<totfact> 0.21427986E+05</totfact>
</mgrwt>
</event>
<event>
 8    1  0.2389776E-016  0.7826373E+02  0.7818608E-02  0.1334052E+00
         -1   -1    0    0    0  501 -0.00000000000E+00  0.00000000000E+00  0.25157144935E+01  0.25157195421E+01  0.50400000000E-02 0.  1.
          2   -1    0    0  501    0  0.00000000000E+00 -0.00000000000E+00 -0.60869443163E+03  0.60869443163E+03  0.25500000000E-02 0. -1.
         24    2    1    2    0    0  0.00000000000E+00  0.00000000000E+00 -0.60617871713E+03  0.61121015117E+03  0.78263732297E+02 0.  0.
         66    2    3    3    0    0 -0.66896326353E+01  0.25803553505E+02 -0.52674613111E+03  0.52742398617E+03  0.19999997788E+01 0.  0.
        -13    1    3    3    0    0  0.66896326353E+01 -0.25803553505E+02 -0.79432586027E+02  0.83786164999E+02  0.10566000000E+00 0.  1.
         13    1    4    4    0    0 -0.25190580733E+01  0.10791866565E+02 -0.21868967763E+03  0.21897030918E+03  0.10566000000E+00 0.  1.
        -13    1    4    4    0    0 -0.15838488069E+01  0.81957409095E+01 -0.15874266684E+03  0.15896202121E+03  0.10566000000E+00 0. -1.
        -14    1    4    4    0    0 -0.25867257550E+01  0.68159460308E+01 -0.14931378664E+03  0.14949165579E+03  0.00000000000E+00 0.  1.
<mgrwt>
<rscale>  0 0.78263732E+02</rscale>
<asrwt>0</asrwt>
<pdfrwt beam="1">  1        2 0.93645180E-01 0.78263732E+02</pdfrwt>
<pdfrwt beam="2">  1       -1 0.38703387E-03 0.78263732E+02</pdfrwt>
<totfact> 0.34186708E+05</totfact>
</mgrwt>
</event>
<event>
 8    1  0.2389776E-016  0.7965767E+02  0.7818608E-02  0.1330026E+00
          2   -1    0    0  501    0  0.00000000000E+00  0.00000000000E+00  0.39964998370E+02  0.39964998451E+02  0.25500000000E-02 0. -1.
         -1   -1    0    0    0  501 -0.00000000000E+00 -0.00000000000E+00 -0.39693133112E+02  0.39693133432E+02  0.50400000000E-02 0.  1.
         24    2    1    2    0    0 -0.71054273576E-14 -0.35527136788E-14  0.27186525731E+00  0.79658131883E+02  0.79657667957E+02 0.  0.
         66    2    3    3    0    0 -0.27942022346E+02 -0.27102463104E+02  0.84445522821E+01  0.39882459716E+02  0.20000026547E+01 0.  0.
        -13    1    3    3    0    0  0.27942022346E+02  0.27102463104E+02 -0.81726870248E+01  0.39775672167E+02  0.10566000000E+00 0.  1.
         13    1    4    4    0    0 -0.65502963420E+01 -0.67141963522E+01  0.27974727607E+01  0.97889648434E+01  0.10566000000E+00 0. -1.
        -13    1    4    4    0    0 -0.87293065716E+01 -0.84883058243E+01  0.20291456415E+01  0.12344258789E+02  0.10566000000E+00 0.  1.
         14    1    4    4    0    0 -0.12662419433E+02 -0.11899960928E+02  0.36179338799E+01  0.17749236083E+02  0.00000000000E+00 0. -1.
<mgrwt>
<rscale>  0 0.79657668E+02</rscale>
<asrwt>0</asrwt>
<pdfrwt beam="1">  1        2 0.61484613E-02 0.79657668E+02</pdfrwt>
<pdfrwt beam="2">  1       -1 0.61066359E-02 0.79657668E+02</pdfrwt>
<totfact> 0.14422607E+05</totfact>
</mgrwt>
</event>
<event>
 8    1  0.2389776E-016  0.7918211E+02  0.7818608E-02  0.1331389E+00
         -1   -1    0    0    0  501 -0.00000000000E+00  0.00000000000E+00  0.14481792660E+02  0.14481793537E+02  0.50400000000E-02 0.  1.
          2   -1    0    0  501    0  0.00000000000E+00 -0.00000000000E+00 -0.10823602177E+03  0.10823602180E+03  0.25500000000E-02 0. -1.
         24    2    1    2    0    0  0.00000000000E+00  0.00000000000E+00 -0.93754229108E+02  0.12271781533E+03  0.79182111142E+02 0.  0.
         66    2    3    3    0    0 -0.34856976203E+01  0.36972753862E+02 -0.68061355918E+02  0.77559543525E+02  0.20000016187E+01 0.  0.
        -13    1    3    3    0    0  0.34856976203E+01 -0.36972753862E+02 -0.25692873190E+02  0.45158271809E+02  0.10566000000E+00 0.  1.
         13    1    4    4    0    0 -0.21640000532E+01  0.20818872980E+02 -0.37000006743E+02  0.42510234431E+02  0.10566000000E+00 0. -1.
        -13    1    4    4    0    0 -0.50860893939E+00  0.58479343736E+01 -0.10271731500E+02  0.11831172872E+02  0.10566000000E+00 0.  1.
         14    1    4    4    0    0 -0.81308862769E+00  0.10305946508E+02 -0.20789617675E+02  0.23218136222E+02  0.00000000000E+00 0. -1.
<mgrwt>
<rscale>  0 0.79182111E+02</rscale>
<asrwt>0</asrwt>
<pdfrwt beam="1">  1        2 0.16651695E-01 0.79182111E+02</pdfrwt>
<pdfrwt beam="2">  1       -1 0.22279683E-02 0.79182111E+02</pdfrwt>
<totfact> 0.18633526E+05</totfact>
</mgrwt>
</event>
<event>
 8    1  0.2389776E-016  0.8482540E+02  0.7818608E-02  0.1315890E+00
         -1   -1    0    0    0  501 -0.00000000000E+00  0.00000000000E+00  0.15565791607E+02  0.15565792423E+02  0.50400000000E-02 0.  1.
          2   -1    0    0  501    0  0.00000000000E+00 -0.00000000000E+00 -0.11556347916E+03  0.11556347919E+03  0.25500000000E-02 0. -1.
         24    2    1    2    0    0  0.35527136788E-14  0.00000000000E+00 -0.99997687554E+02  0.13112927161E+03  0.84825399248E+02 0.  0.
         66    2    3    3    0    0  0.29874338877E+02 -0.14558961535E+02 -0.90703657067E+02  0.96620871895E+02  0.19999990274E+01 0.  0.
        -13    1    3    3    0    0 -0.29874338877E+02  0.14558961535E+02 -0.92940304868E+01  0.34508399718E+02  0.10566000000E+00 0.  1.
         13    1    4    4    0    0  0.18066779154E+02 -0.85664261143E+01 -0.54880630568E+02  0.58409647670E+02  0.10566000000E+00 0. -1.
        -13    1    4    4    0    0  0.52958864351E+01 -0.33483234752E+01 -0.16525045346E+02  0.17673312393E+02  0.10566000000E+00 0.  1.
        -14    1    4    4    0    0  0.65116732883E+01 -0.26442119459E+01 -0.19297981152E+02  0.20537911831E+02  0.00000000000E+00 0.  1.
<mgrwt>
<rscale>  0 0.84825399E+02</rscale>
<asrwt>0</asrwt>
<pdfrwt beam="1">  1        2 0.17778996E-01 0.84825399E+02</pdfrwt>
<pdfrwt beam="2">  1       -1 0.23947373E-02 0.84825399E+02</pdfrwt>
<totfact> 0.15795890E+05</totfact>
</mgrwt>
</event>
<event>
 8    1  0.2389776E-016  0.8076836E+02  0.7818608E-02  0.1326885E+00
         -1   -1    0    0    0  501 -0.00000000000E+00  0.00000000000E+00  0.29654067403E+02  0.29654067831E+02  0.50400000000E-02 0.  1.
          2   -1    0    0  501    0  0.00000000000E+00 -0.00000000000E+00 -0.54996904461E+02  0.54996904520E+02  0.25500000000E-02 0. -1.
         24    2    1    2    0    0  0.00000000000E+00  0.00000000000E+00 -0.25342837058E+02  0.84650972351E+02  0.80768358469E+02 0.  0.
         66    2    3    3    0    0 -0.10383609782E+02 -0.65442021597E+01 -0.52975158516E+02  0.54415194088E+02  0.19999984607E+01 0.  0.
        -13    1    3    3    0    0  0.10383609782E+02  0.65442021597E+01  0.27632321458E+02  0.30235778263E+02  0.10566000000E+00 0.  1.
         13    1    4    4    0    0 -0.22179405217E+01 -0.76979631551E+00 -0.89806550544E+01  0.92830585352E+01  0.10566000000E+00 0. -1.
        -13    1    4    4    0    0 -0.65652732897E+01 -0.43210422616E+01 -0.36187342383E+02  0.37031191344E+02  0.10566000000E+00 0.  1.
        -14    1    4    4    0    0 -0.16003959703E+01 -0.14533635826E+01 -0.78071610783E+01  0.81009442084E+01  0.00000000000E+00 0.  1.
<mgrwt>
<rscale>  0 0.80768358E+02</rscale>
<asrwt>0</asrwt>
<pdfrwt beam="1">  1        2 0.84610622E-02 0.80768358E+02</pdfrwt>
<pdfrwt beam="2">  1       -1 0.45621643E-02 0.80768358E+02</pdfrwt>
<totfact> 0.14867502E+05</totfact>
</mgrwt>
</event>
<event>
 8    1  0.2389776E-016  0.8086215E+02  0.7818608E-02  0.1326622E+00
          2   -1    0    0  501    0  0.00000000000E+00  0.00000000000E+00  0.72318199695E+03  0.72318199695E+03  0.25500000000E-02 0. -1.
         -1   -1    0    0    0  501 -0.00000000000E+00 -0.00000000000E+00 -0.22603849274E+01  0.22603905463E+01  0.50400000000E-02 0.  1.
         24    2    1    2    0    0  0.00000000000E+00  0.00000000000E+00  0.72092161202E+03  0.72544238750E+03  0.80862147520E+02 0.  0.
         66    2    3    3    0    0 -0.18788337554E+02  0.27628561421E+02  0.56453523473E+03  0.56552663093E+03  0.20000000356E+01 0.  0.
        -13    1    3    3    0    0  0.18788337554E+02 -0.27628561421E+02  0.15638637729E+03  0.15991575657E+03  0.10566000000E+00 0.  1.
         13    1    4    4    0    0 -0.16471238084E+02  0.24421276452E+02  0.49791965667E+03  0.49879023255E+03  0.10566000000E+00 0. -1.
        -13    1    4    4    0    0 -0.16573733159E+01  0.26545781847E+01  0.49168616854E+02  0.49268222202E+02  0.10566000000E+00 0.  1.
        -14    1    4    4    0    0 -0.65972615468E+00  0.55270678468E+00  0.17446961208E+02  0.17468176172E+02  0.00000000000E+00 0.  1.
<mgrwt>
<rscale>  0 0.80862148E+02</rscale>
<asrwt>0</asrwt>
<pdfrwt beam="1">  1        2 0.11125868E+00 0.80862148E+02</pdfrwt>
<pdfrwt beam="2">  1       -1 0.34775224E-03 0.80862148E+02</pdfrwt>
<totfact> 0.32769005E+05</totfact>
</mgrwt>
</event>
<event>
 8    1  0.2389776E-016  0.7923943E+02  0.7818608E-02  0.1331224E+00
          2   -1    0    0  501    0  0.00000000000E+00  0.00000000000E+00  0.37917421631E+03  0.37917421632E+03  0.25500000000E-02 0. -1.
         -1   -1    0    0    0  501 -0.00000000000E+00 -0.00000000000E+00 -0.41398421907E+01  0.41398452586E+01  0.50400000000E-02 0.  1.
         24    2    1    2    0    0  0.35527136788E-14  0.35527136788E-14  0.37503437412E+03  0.38331406158E+03  0.79239434827E+02 0.  0.
         66    2    3    3    0    0  0.24277696874E+02  0.30456073401E+02  0.15317907735E+03  0.15806583664E+03  0.19999999405E+01 0.  0.
        -13    1    3    3    0    0 -0.24277696874E+02 -0.30456073401E+02  0.22185529677E+03  0.22524822494E+03  0.10566000000E+00 0.  1.
         13    1    4    4    0    0  0.44503833583E+01  0.52886631585E+01  0.28881322810E+02  0.29697101564E+02  0.10566000000E+00 0. -1.
        -13    1    4    4    0    0  0.11252881123E+02  0.15359759874E+02  0.72875065012E+02  0.75321549516E+02  0.10566000000E+00 0.  1.
         14    1    4    4    0    0  0.85744323925E+01  0.98076503681E+01  0.51422689532E+02  0.53047185555E+02  0.00000000000E+00 0. -1.
<mgrwt>
<rscale>  0 0.79239435E+02</rscale>
<asrwt>0</asrwt>
<pdfrwt beam="1">  1        2 0.58334494E-01 0.79239435E+02</pdfrwt>
<pdfrwt beam="2">  1       -1 0.63689905E-03 0.79239435E+02</pdfrwt>
<totfact> 0.28427633E+05</totfact>
</mgrwt>
</event>
<event>
 8    1  0.2389776E-016  0.7876250E+02  0.7818608E-02  0.1332600E+00
          2   -1    0    0  501    0  0.00000000000E+00  0.00000000000E+00  0.10117595583E+04  0.10117595583E+04  0.25500000000E-02 0. -1.
         -1   -1    0    0    0  501 -0.00000000000E+00 -0.00000000000E+00 -0.15328529202E+01  0.15328612059E+01  0.50400000000E-02 0.  1.
         24    2    1    2    0    0  0.88817841970E-15  0.00000000000E+00  0.10102267053E+04  0.10132924195E+04  0.78762498511E+02 0.  0.
         66    2    3    3    0    0 -0.65329478521E+01 -0.22403479159E+02  0.91314054058E+03  0.91344088048E+03  0.20000001896E+01 0.  0.
        -13    1    3    3    0    0  0.65329478521E+01  0.22403479159E+02  0.97086164761E+02  0.99851538987E+02  0.10566000000E+00 0.  1.
         13    1    4    4    0    0 -0.24991664003E+00 -0.96376426120E+00  0.30938933648E+02  0.30955130095E+02  0.10566000000E+00 0.  1.
        -13    1    4    4    0    0 -0.23194364700E+01 -0.72212471705E+01  0.27310624712E+03  0.27321156560E+03  0.10566000000E+00 0. -1.
         14    1    4    4    0    0 -0.39635947421E+01 -0.14218467728E+02  0.60909535981E+03  0.60927418479E+03  0.00000000000E+00 0. -1.
<mgrwt>
<rscale>  0 0.78762499E+02</rscale>
<asrwt>0</asrwt>
<pdfrwt beam="1">  1        2 0.15565556E+00 0.78762499E+02</pdfrwt>
<pdfrwt beam="2">  1       -1 0.23582380E-03 0.78762499E+02</pdfrwt>
<totfact> 0.36701332E+05</totfact>
</mgrwt>
</event>
<event>
 8    1  0.2389776E-016  0.7795650E+02  0.7818608E-02  0.1334953E+00
         -1   -1    0    0    0  501 -0.00000000000E+00  0.00000000000E+00  0.17321718970E+03  0.17321718978E+03  0.50400000000E-02 0.  1.
          2   -1    0    0  501    0  0.00000000000E+00 -0.00000000000E+00 -0.87710910854E+01  0.87710914561E+01  0.25500000000E-02 0. -1.
         24    2    1    2    0    0  0.35527136788E-14  0.00000000000E+00  0.16444609862E+03  0.18198828123E+03  0.77956495274E+02 0.  0.
         66    2    3    3    0    0 -0.20958755181E+02  0.16868270815E+02  0.16516974238E+02  0.31632553099E+02  0.19999996215E+01 0.  0.
        -13    1    3    3    0    0  0.20958755181E+02 -0.16868270815E+02  0.14792912438E+03  0.15035572814E+03  0.10566000000E+00 0.  1.
         13    1    4    4    0    0 -0.11297747754E+02  0.92700276463E+01  0.87454236745E+01  0.17031327492E+02  0.10566000000E+00 0. -1.
        -13    1    4    4    0    0 -0.40554847428E+01  0.33778080292E+01  0.25992927045E+01  0.58842187400E+01  0.10566000000E+00 0.  1.
         14    1    4    4    0    0 -0.56055226849E+01  0.42204351399E+01  0.51722578595E+01  0.87170068662E+01  0.00000000000E+00 0. -1.
<mgrwt>
<rscale>  0 0.77956495E+02</rscale>
<asrwt>0</asrwt>
<pdfrwt beam="1">  1        2 0.13493987E-02 0.77956495E+02</pdfrwt>
<pdfrwt beam="2">  1       -1 0.26648797E-01 0.77956495E+02</pdfrwt>
<totfact> 0.11087552E+05</totfact>
</mgrwt>
</event>
<event>
 8    1  0.2389776E-016  0.8012199E+02  0.7818608E-02  0.1328706E+00
         -1   -1    0    0    0  501 -0.00000000000E+00  0.00000000000E+00  0.30208432807E+01  0.30208474851E+01  0.50400000000E-02 0.  1.
          2   -1    0    0  501    0  0.00000000000E+00 -0.00000000000E+00 -0.53126955484E+03  0.53126955484E+03  0.25500000000E-02 0. -1.
         24    2    1    2    0    0  0.00000000000E+00  0.00000000000E+00 -0.52824871156E+03  0.53429040233E+03  0.80121986740E+02 0.  0.
         66    2    3    3    0    0 -0.32020078242E+01 -0.31666860353E+02 -0.42624223952E+03  0.42743360844E+03  0.19999935530E+01 0.  0.
        -13    1    3    3    0    0  0.32020078242E+01  0.31666860353E+02 -0.10200647203E+03  0.10685679388E+03  0.10566000000E+00 0.  1.
         13    1    4    4    0    0 -0.23880218307E+01 -0.23333840277E+02 -0.32276394521E+03  0.32361512054E+03  0.10566000000E+00 0. -1.
        -13    1    4    4    0    0 -0.86879257189E+00 -0.59941502720E+01 -0.75134655240E+02  0.75378459921E+02  0.10566000000E+00 0. -1.
         14    1    4    4    0    0  0.54806578428E-01 -0.23388698044E+01 -0.28343639075E+02  0.28440027984E+02  0.00000000000E+00 0. -1.
<mgrwt>
<rscale>  0 0.80121987E+02</rscale>
<asrwt>0</asrwt>
<pdfrwt beam="1">  1        2 0.81733703E-01 0.80121987E+02</pdfrwt>
<pdfrwt beam="2">  1       -1 0.46474587E-03 0.80121987E+02</pdfrwt>
<totfact> 0.30911843E+05</totfact>
</mgrwt>
</event>
<event>
 8    1  0.2389776E-016  0.7123013E+02  0.7818608E-02  0.1355959E+00
          2   -1    0    0  501    0  0.00000000000E+00  0.00000000000E+00  0.53778753592E+02  0.53778753653E+02  0.25500000000E-02 0. -1.
         -1   -1    0    0    0  501 -0.00000000000E+00 -0.00000000000E+00 -0.23586132575E+02  0.23586133113E+02  0.50400000000E-02 0.  1.
         24    2    1    2    0    0  0.00000000000E+00  0.00000000000E+00  0.30192621017E+02  0.77364886766E+02  0.71230129442E+02 0.  0.
         66    2    3    3    0    0 -0.35665468859E+01 -0.35348094196E+02  0.17339372665E+02  0.39583605988E+02  0.19999996591E+01 0.  0.
        -13    1    3    3    0    0  0.35665468859E+01  0.35348094196E+02  0.12853248352E+02  0.37781280778E+02  0.10566000000E+00 0.  1.
         13    1    4    4    0    0 -0.33365111918E+01 -0.24145756564E+02  0.11817183421E+02  0.27088869578E+02  0.10566000000E+00 0. -1.
        -13    1    4    4    0    0 -0.15621250154E+00 -0.32151998266E+01  0.15857867453E+01  0.35899576470E+01  0.10566000000E+00 0.  1.
         14    1    4    4    0    0 -0.73823192579E-01 -0.79871378056E+01  0.39364024985E+01  0.89047787631E+01  0.00000000000E+00 0. -1.
<mgrwt>
<rscale>  0 0.71230129E+02</rscale>
<asrwt>0</asrwt>
<pdfrwt beam="1">  1        2 0.82736543E-02 0.71230129E+02</pdfrwt>
<pdfrwt beam="2">  1       -1 0.36286359E-02 0.71230129E+02</pdfrwt>
<totfact> 0.20791822E+05</totfact>
</mgrwt>
</event>
<event>
 8    1  0.2389776E-016  0.7970480E+02  0.7818608E-02  0.1329891E+00
          2   -1    0    0  501    0  0.00000000000E+00  0.00000000000E+00  0.15507637586E+03  0.15507637588E+03  0.25500000000E-02 0. -1.
         -1   -1    0    0    0  501 -0.00000000000E+00 -0.00000000000E+00 -0.10241492527E+02  0.10241493767E+02  0.50400000000E-02 0.  1.
         24    2    1    2    0    0  0.00000000000E+00  0.00000000000E+00  0.14483488333E+03  0.16531786964E+03  0.79704796561E+02 0.  0.
         66    2    3    3    0    0  0.99777591867E+01  0.11233286188E+02  0.14896604662E+03  0.14973518467E+03  0.20000208892E+01 0.  0.
        -13    1    3    3    0    0 -0.99777591867E+01 -0.11233286188E+02 -0.41311632926E+01  0.15582684979E+02  0.10566000000E+00 0.  1.
         13    1    4    4    0    0  0.41170734990E+01  0.42444068797E+01  0.54909944983E+02  0.55227515841E+02  0.10566000000E+00 0. -1.
        -13    1    4    4    0    0  0.39025575252E+01  0.36079335710E+01  0.55698738068E+02  0.55951833985E+02  0.10566000000E+00 0.  1.
        -14    1    4    4    0    0  0.19581281624E+01  0.33809457378E+01  0.38357363572E+02  0.38555834839E+02  0.00000000000E+00 0.  1.
<mgrwt>
<rscale>  0 0.79704797E+02</rscale>
<asrwt>0</asrwt>
<pdfrwt beam="1">  1        2 0.23857902E-01 0.79704797E+02</pdfrwt>
<pdfrwt beam="2">  1       -1 0.15756144E-02 0.79704797E+02</pdfrwt>
<totfact> 0.20446437E+05</totfact>
</mgrwt>
</event>
<event>
 8    1  0.2389776E-016  0.8719098E+02  0.7818608E-02  0.1309800E+00
         -1   -1    0    0    0  501 -0.00000000000E+00  0.00000000000E+00  0.18684404514E+01  0.18684472489E+01  0.50400000000E-02 0.  1.
          2   -1    0    0  501    0  0.00000000000E+00 -0.00000000000E+00 -0.10171923677E+04  0.10171923677E+04  0.25500000000E-02 0. -1.
         24    2    1    2    0    0  0.00000000000E+00  0.00000000000E+00 -0.10153239273E+04  0.10190608150E+04  0.87190981916E+02 0.  0.
         66    2    3    3    0    0  0.10502529893E+02  0.12936437487E+02 -0.97848031695E+03  0.97862423086E+03  0.20000075898E+01 0.  0.
        -13    1    3    3    0    0 -0.10502529893E+02 -0.12936437487E+02 -0.36843610345E+02  0.40436584133E+02  0.10566000000E+00 0.  1.
         13    1    4    4    0    0  0.69294507686E+01  0.74443528419E+01 -0.59235918044E+03  0.59244649167E+03  0.10566000000E+00 0. -1.
        -13    1    4    4    0    0  0.46413041020E+00  0.11612855128E+01 -0.87820979520E+02  0.87829947108E+02  0.10566000000E+00 0.  1.
         14    1    4    4    0    0  0.31089487142E+01  0.43307991327E+01 -0.29830015699E+03  0.29834779209E+03  0.00000000000E+00 0. -1.
<mgrwt>
<rscale>  0 0.87190982E+02</rscale>
<asrwt>0</asrwt>
<pdfrwt beam="1">  1        2 0.15649069E+00 0.87190982E+02</pdfrwt>
<pdfrwt beam="2">  1       -1 0.28745371E-03 0.87190982E+02</pdfrwt>
<totfact> 0.28165675E+05</totfact>
</mgrwt>
</event>
<event>
 8    1  0.2389776E-016  0.8052008E+02  0.7818608E-02  0.1327582E+00
          2   -1    0    0  501    0  0.00000000000E+00  0.00000000000E+00  0.12368309151E+02  0.12368309414E+02  0.25500000000E-02 0. -1.
         -1   -1    0    0    0  501 -0.00000000000E+00 -0.00000000000E+00 -0.13105030261E+03  0.13105030271E+03  0.50400000000E-02 0.  1.
         24    2    1    2    0    0 -0.17763568394E-14  0.00000000000E+00 -0.11868199346E+03  0.14341861212E+03  0.80520076573E+02 0.  0.
         66    2    3    3    0    0  0.14556371896E+02 -0.24816194131E+02 -0.92788081405E+01  0.30295672026E+02  0.20000022660E+01 0.  0.
        -13    1    3    3    0    0 -0.14556371896E+02  0.24816194131E+02 -0.10940318532E+03  0.11312294010E+03  0.10566000000E+00 0.  1.
         13    1    4    4    0    0  0.87972907130E+01 -0.13257304084E+02 -0.49362231009E+01  0.16659108559E+02  0.10566000000E+00 0. -1.
        -13    1    4    4    0    0  0.43455502972E+01 -0.84279762485E+01 -0.34049522452E+01  0.10075686322E+02  0.10566000000E+00 0.  1.
        -14    1    4    4    0    0  0.14135308858E+01 -0.31309137986E+01 -0.93763279441E+00  0.35608771442E+01  0.00000000000E+00 0.  1.
<mgrwt>
<rscale>  0 0.80520077E+02</rscale>
<asrwt>0</asrwt>
<pdfrwt beam="1">  1        2 0.19028169E-02 0.80520077E+02</pdfrwt>
<pdfrwt beam="2">  1       -1 0.20161584E-01 0.80520077E+02</pdfrwt>
<totfact> 0.10971937E+05</totfact>
</mgrwt>
</event>
<event>
 8    1  0.2389776E-016  0.7954036E+02  0.7818608E-02  0.1330361E+00
         -1   -1    0    0    0  501 -0.00000000000E+00  0.00000000000E+00  0.10637983989E+02  0.10637985183E+02  0.50400000000E-02 0.  1.
          2   -1    0    0  501    0  0.00000000000E+00 -0.00000000000E+00 -0.14868110899E+03  0.14868110901E+03  0.25500000000E-02 0. -1.
         24    2    1    2    0    0  0.00000000000E+00  0.00000000000E+00 -0.13804312500E+03  0.15931909420E+03  0.79540363433E+02 0.  0.
         66    2    3    3    0    0 -0.19073198014E+02  0.17871333372E+01 -0.13881659734E+03  0.14014645349E+03  0.20000002932E+01 0.  0.
        -13    1    3    3    0    0  0.19073198014E+02 -0.17871333372E+01  0.77347233903E+00  0.19172640703E+02  0.10566000000E+00 0.  1.
         13    1    4    4    0    0 -0.81067262598E+01  0.76237729629E+00 -0.57107813960E+02  0.57685473120E+02  0.10566000000E+00 0. -1.
        -13    1    4    4    0    0 -0.58652677693E+01  0.12762852433E+01 -0.44858975453E+02  0.45258911971E+02  0.10566000000E+00 0.  1.
        -14    1    4    4    0    0 -0.51012039846E+01 -0.25152920240E+00 -0.36849807928E+02  0.37202068401E+02  0.00000000000E+00 0.  1.
<mgrwt>
<rscale>  0 0.79540363E+02</rscale>
<asrwt>0</asrwt>
<pdfrwt beam="1">  1        2 0.22874015E-01 0.79540363E+02</pdfrwt>
<pdfrwt beam="2">  1       -1 0.16366131E-02 0.79540363E+02</pdfrwt>
<totfact> 0.20280852E+05</totfact>
</mgrwt>
</event>
<event>
 8    1  0.2389776E-016  0.8263962E+02  0.7818608E-02  0.1321723E+00
          2   -1    0    0  501    0  0.00000000000E+00  0.00000000000E+00  0.49470199327E+02  0.49470199392E+02  0.25500000000E-02 0. -1.
         -1   -1    0    0    0  501 -0.00000000000E+00 -0.00000000000E+00 -0.34512227624E+02  0.34512227992E+02  0.50400000000E-02 0.  1.
         24    2    1    2    0    0  0.00000000000E+00  0.00000000000E+00  0.14957971703E+02  0.83982427384E+02  0.82639622409E+02 0.  0.
         66    2    3    3    0    0  0.55775115389E+01  0.29006419987E+02  0.36811262141E+02  0.47239285134E+02  0.20000010199E+01 0.  0.
        -13    1    3    3    0    0 -0.55775115389E+01 -0.29006419987E+02 -0.21853290438E+02  0.36743142251E+02  0.10566000000E+00 0.  1.
         13    1    4    4    0    0  0.26382070140E+01  0.11041601683E+02  0.15280995284E+02  0.19036729889E+02  0.10566000000E+00 0. -1.
        -13    1    4    4    0    0  0.98351914826E+00  0.47775598954E+01  0.60884034226E+01  0.78020643897E+01  0.10566000000E+00 0. -1.
         14    1    4    4    0    0  0.19557853767E+01  0.13187258409E+02  0.15441863435E+02  0.20400490855E+02  0.00000000000E+00 0. -1.
<mgrwt>
<rscale>  0 0.82639622E+02</rscale>
<asrwt>0</asrwt>
<pdfrwt beam="1">  1        2 0.76108000E-02 0.82639622E+02</pdfrwt>
<pdfrwt beam="2">  1       -1 0.53095735E-02 0.82639622E+02</pdfrwt>
<totfact> 0.13636627E+05</totfact>
</mgrwt>
</event>
<event>
 8    1  0.2389776E-016  0.8399229E+02  0.7818608E-02  0.1318089E+00
         -1   -1    0    0    0  501 -0.00000000000E+00  0.00000000000E+00  0.76181618505E+01  0.76181635176E+01  0.50400000000E-02 0.  1.
          2   -1    0    0  501    0  0.00000000000E+00 -0.00000000000E+00 -0.23150940730E+03  0.23150940731E+03  0.25500000000E-02 0. -1.
         24    2    1    2    0    0  0.88817841970E-15 -0.71054273576E-14 -0.22389124545E+03  0.23912757083E+03  0.83992293354E+02 0.  0.
         66    2    3    3    0    0  0.73374689177E+01 -0.40394793138E+02 -0.13684391735E+03  0.14288399310E+03  0.20000008481E+01 0.  0.
        -13    1    3    3    0    0 -0.73374689177E+01  0.40394793138E+02 -0.87047328094E+02  0.96243577735E+02  0.10566000000E+00 0.  1.
         13    1    4    4    0    0  0.35690062349E+01 -0.20408804385E+02 -0.67636889574E+02  0.70739077583E+02  0.10566000000E+00 0. -1.
        -13    1    4    4    0    0  0.31747470058E+01 -0.14970990335E+02 -0.50481758121E+02  0.52750626889E+02  0.10566000000E+00 0.  1.
        -14    1    4    4    0    0  0.59371567698E+00 -0.50149984177E+01 -0.18725269658E+02  0.19394288623E+02  0.00000000000E+00 0.  1.
<mgrwt>
<rscale>  0 0.83992293E+02</rscale>
<asrwt>0</asrwt>
<pdfrwt beam="1">  1        2 0.35616827E-01 0.83992293E+02</pdfrwt>
<pdfrwt beam="2">  1       -1 0.11720252E-02 0.83992293E+02</pdfrwt>
<totfact> 0.20422428E+05</totfact>
</mgrwt>
</event>
<event>
 8    1  0.2389776E-016  0.8079526E+02  0.7818608E-02  0.1326810E+00
         -1   -1    0    0    0  501 -0.00000000000E+00  0.00000000000E+00  0.32765483253E+01  0.32765522016E+01  0.50400000000E-02 0.  1.
          2   -1    0    0  501    0  0.00000000000E+00 -0.00000000000E+00 -0.49807517712E+03  0.49807517713E+03  0.25500000000E-02 0. -1.
         24    2    1    2    0    0  0.88817841970E-15 -0.35527136788E-14 -0.49479862879E+03  0.50135172933E+03  0.80795256316E+02 0.  0.
         66    2    3    3    0    0 -0.68022363066E+01  0.21428299967E+02 -0.45563531972E+03  0.45619402345E+03  0.19999997776E+01 0.  0.
        -13    1    3    3    0    0  0.68022363066E+01 -0.21428299967E+02 -0.39163309077E+02  0.45157705878E+02  0.10566000000E+00 0.  1.
         13    1    4    4    0    0 -0.11065836974E+01  0.17528663892E+01 -0.38649352579E+02  0.38705047305E+02  0.10566000000E+00 0.  1.
        -13    1    4    4    0    0 -0.47722247235E+01  0.15933271392E+02 -0.33957244540E+03  0.33997955836E+03  0.10566000000E+00 0. -1.
         14    1    4    4    0    0 -0.92342788572E+00  0.37421621865E+01 -0.77413521739E+02  0.77509417782E+02  0.00000000000E+00 0. -1.
<mgrwt>
<rscale>  0 0.80795256E+02</rscale>
<asrwt>0</asrwt>
<pdfrwt beam="1">  1        2 0.76626891E-01 0.80795256E+02</pdfrwt>
<pdfrwt beam="2">  1       -1 0.50408505E-03 0.80795256E+02</pdfrwt>
<totfact> 0.29639447E+05</totfact>
</mgrwt>
</event>
<event>
 8    1  0.2389776E-016  0.8129689E+02  0.7818608E-02  0.1325411E+00
          2   -1    0    0  501    0  0.00000000000E+00  0.00000000000E+00  0.13473924566E+02  0.13473924807E+02  0.25500000000E-02 0. -1.
         -1   -1    0    0    0  501 -0.00000000000E+00 -0.00000000000E+00 -0.12262916864E+03  0.12262916874E+03  0.50400000000E-02 0.  1.
         24    2    1    2    0    0  0.35527136788E-14  0.00000000000E+00 -0.10915524407E+03  0.13610309355E+03  0.81296892716E+02 0.  0.
         66    2    3    3    0    0  0.24117654333E+02 -0.78300768804E+01 -0.14759205806E+01  0.25478416257E+02  0.19999997208E+01 0.  0.
        -13    1    3    3    0    0 -0.24117654333E+02  0.78300768804E+01 -0.10767932349E+03  0.11062467729E+03  0.10566000000E+00 0.  1.
         13    1    4    4    0    0  0.19159357027E+02 -0.65328843705E+01 -0.69130245174E+00  0.20254594615E+02  0.10566000000E+00 0. -1.
        -13    1    4    4    0    0  0.24103327055E+01 -0.39381513001E+00 -0.16365037324E+00  0.24500488951E+01  0.10566000000E+00 0.  1.
         14    1    4    4    0    0  0.25479646010E+01 -0.90337737984E+00 -0.62096775566E+00  0.27737727470E+01  0.00000000000E+00 0. -1.
<mgrwt>
<rscale>  0 0.81296893E+02</rscale>
<asrwt>0</asrwt>
<pdfrwt beam="1">  1        2 0.20729116E-02 0.81296893E+02</pdfrwt>
<pdfrwt beam="2">  1       -1 0.18866025E-01 0.81296893E+02</pdfrwt>
<totfact> 0.10879333E+05</totfact>
</mgrwt>
</event>
<event>
 8    1  0.2389776E-016  0.8060898E+02  0.7818608E-02  0.1327332E+00
         -1   -1    0    0    0  501 -0.00000000000E+00  0.00000000000E+00  0.99283952616E+02  0.99283952744E+02  0.50400000000E-02 0.  1.
          2   -1    0    0  501    0  0.00000000000E+00 -0.00000000000E+00 -0.16361675746E+02  0.16361675945E+02  0.25500000000E-02 0. -1.
         24    2    1    2    0    0  0.00000000000E+00  0.00000000000E+00  0.82922276869E+02  0.11564562869E+03  0.80608978617E+02 0.  0.
         66    2    3    3    0    0  0.20137322347E+02  0.34311101174E+02  0.50524138933E+02  0.64338573415E+02  0.19999997848E+01 0.  0.
        -13    1    3    3    0    0 -0.20137322347E+02 -0.34311101174E+02  0.32398137936E+02  0.51307055274E+02  0.10566000000E+00 0.  1.
         13    1    4    4    0    0  0.10022378746E+02  0.17165943648E+02  0.26265269209E+02  0.32939235385E+02  0.10566000000E+00 0. -1.
        -13    1    4    4    0    0  0.43255080155E+01  0.66396577559E+01  0.90515502146E+01  0.12030660831E+02  0.10566000000E+00 0.  1.
         14    1    4    4    0    0  0.57894355849E+01  0.10505499770E+02  0.15207319509E+02  0.19368677200E+02  0.00000000000E+00 0. -1.
<mgrwt>
<rscale>  0 0.80608979E+02</rscale>
<asrwt>0</asrwt>
<pdfrwt beam="1">  1        2 0.25171809E-02 0.80608979E+02</pdfrwt>
<pdfrwt beam="2">  1       -1 0.15274455E-01 0.80608979E+02</pdfrwt>
<totfact> 0.11649032E+05</totfact>
</mgrwt>
</event>
<event>
 8    1  0.2389776E-016  0.8033101E+02  0.7818608E-02  0.1328115E+00
          2   -1    0    0  501    0  0.00000000000E+00  0.00000000000E+00  0.36853464445E+03  0.36853464446E+03  0.25500000000E-02 0. -1.
         -1   -1    0    0    0  501 -0.00000000000E+00 -0.00000000000E+00 -0.43775182341E+01  0.43775211355E+01  0.50400000000E-02 0.  1.
         24    2    1    2    0    0  0.17763568394E-14  0.71054273576E-14  0.36415712621E+03  0.37291216559E+03  0.80331006930E+02 0.  0.
         66    2    3    3    0    0 -0.14652269852E+02 -0.32803525023E+02  0.26529837993E+03  0.26772745593E+03  0.19999999796E+01 0.  0.
        -13    1    3    3    0    0  0.14652269852E+02  0.32803525023E+02  0.98858746288E+02  0.10518470967E+03  0.10566000000E+00 0.  1.
         13    1    4    4    0    0 -0.40413411215E+01 -0.89749630681E+01  0.73364403597E+02  0.74021816239E+02  0.10566000000E+00 0. -1.
        -13    1    4    4    0    0 -0.17061892507E+01 -0.55173930860E+01  0.43061115211E+02  0.43446789473E+02  0.10566000000E+00 0.  1.
         14    1    4    4    0    0 -0.89047394802E+01 -0.18311168869E+02  0.14887286112E+03  0.15025885022E+03  0.00000000000E+00 0. -1.
<mgrwt>
<rscale>  0 0.80331007E+02</rscale>
<asrwt>0</asrwt>
<pdfrwt beam="1">  1        2 0.56697633E-01 0.80331007E+02</pdfrwt>
<pdfrwt beam="2">  1       -1 0.67346462E-03 0.80331007E+02</pdfrwt>
<totfact> 0.27153811E+05</totfact>
</mgrwt>
</event>
<event>
 8    1  0.2389776E-016  0.7984107E+02  0.7818608E-02  0.1329503E+00
          2   -1    0    0  501    0  0.00000000000E+00  0.00000000000E+00  0.29414386358E+02  0.29414386468E+02  0.25500000000E-02 0. -1.
         -1   -1    0    0    0  501 -0.00000000000E+00 -0.00000000000E+00 -0.54179237907E+02  0.54179238141E+02  0.50400000000E-02 0.  1.
         24    2    1    2    0    0 -0.35527136788E-14  0.00000000000E+00 -0.24764851549E+02  0.83593624610E+02  0.79841068399E+02 0.  0.
         66    2    3    3    0    0 -0.25733883210E+02 -0.17988052386E+02  0.13380528745E+02  0.34188321499E+02  0.20000009274E+01 0.  0.
        -13    1    3    3    0    0  0.25733883210E+02  0.17988052386E+02 -0.38145380294E+02  0.49405303111E+02  0.10566000000E+00 0.  1.
         13    1    4    4    0    0 -0.49258439278E+01 -0.35710062067E+01  0.28859902951E+01  0.67346958171E+01  0.10566000000E+00 0. -1.
        -13    1    4    4    0    0 -0.13854222912E+02 -0.92899098274E+01  0.61063594635E+01  0.17763465513E+02  0.10566000000E+00 0.  1.
        -14    1    4    4    0    0 -0.69538163695E+01 -0.51271363519E+01  0.43881789866E+01  0.96901601684E+01  0.00000000000E+00 0.  1.
<mgrwt>
<rscale>  0 0.79841068E+02</rscale>
<asrwt>0</asrwt>
<pdfrwt beam="1">  1        2 0.45252902E-02 0.79841068E+02</pdfrwt>
<pdfrwt beam="2">  1       -1 0.83352674E-02 0.79841068E+02</pdfrwt>
<totfact> 0.13477976E+05</totfact>
</mgrwt>
</event>
<event>
 8    1  0.2389776E-016  0.7990525E+02  0.7818608E-02  0.1329321E+00
         -1   -1    0    0    0  501 -0.00000000000E+00  0.00000000000E+00  0.33725195347E+01  0.33725233006E+01  0.50400000000E-02 0.  1.
          2   -1    0    0  501    0  0.00000000000E+00 -0.00000000000E+00 -0.47329932404E+03  0.47329932405E+03  0.25500000000E-02 0. -1.
         24    2    1    2    0    0  0.17763568394E-14  0.00000000000E+00 -0.46992680451E+03  0.47667184735E+03  0.79905246768E+02 0.  0.
         66    2    3    3    0    0  0.13089298106E+02  0.20646545018E+02 -0.42343352284E+03  0.42414332224E+03  0.19999972732E+01 0.  0.
        -13    1    3    3    0    0 -0.13089298106E+02 -0.20646545018E+02 -0.46493281669E+02  0.52528525112E+02  0.10566000000E+00 0.  1.
         13    1    4    4    0    0  0.75111291188E+01  0.12769439396E+02 -0.26251320686E+03  0.26293092359E+03  0.10566000000E+00 0. -1.
        -13    1    4    4    0    0  0.20760666370E+01  0.25289847273E+01 -0.61019884948E+02  0.61107637326E+02  0.10566000000E+00 0.  1.
         14    1    4    4    0    0  0.35021023499E+01  0.53481208952E+01 -0.99900431037E+02  0.10010476132E+03  0.00000000000E+00 0. -1.
<mgrwt>
<rscale>  0 0.79905247E+02</rscale>
<asrwt>0</asrwt>
<pdfrwt beam="1">  1        2 0.72815228E-01 0.79905247E+02</pdfrwt>
<pdfrwt beam="2">  1       -1 0.51884983E-03 0.79905247E+02</pdfrwt>
<totfact> 0.30008154E+05</totfact>
</mgrwt>
</event>
<event>
 8    1  0.2389776E-016  0.7967534E+02  0.7818608E-02  0.1329975E+00
          2   -1    0    0  501    0  0.00000000000E+00  0.00000000000E+00  0.11500827819E+04  0.11500827819E+04  0.25500000000E-02 0. -1.
         -1   -1    0    0    0  501 -0.00000000000E+00 -0.00000000000E+00 -0.13799308452E+01  0.13799400491E+01  0.50400000000E-02 0.  1.
         24    2    1    2    0    0  0.00000000000E+00  0.00000000000E+00  0.11487028511E+04  0.11514627220E+04  0.79675341379E+02 0.  0.
         66    2    3    3    0    0  0.27347459584E+01 -0.19725260025E+02  0.10729311286E+04  0.10731177808E+04  0.20000006768E+01 0.  0.
        -13    1    3    3    0    0 -0.27347459584E+01  0.19725260025E+02  0.75771722469E+02  0.78344941180E+02  0.10566000000E+00 0.  1.
         13    1    4    4    0    0  0.21087403173E+00 -0.16168276600E+01  0.10282159259E+03  0.10283457427E+03  0.10566000000E+00 0.  1.
        -13    1    4    4    0    0  0.85985075500E+00 -0.71833792169E+01  0.42625429203E+03  0.42631569631E+03  0.10566000000E+00 0. -1.
        -14    1    4    4    0    0  0.16640211717E+01 -0.10925053148E+02  0.54385524401E+03  0.54396751023E+03  0.00000000000E+00 0.  1.
<mgrwt>
<rscale>  0 0.79675341E+02</rscale>
<asrwt>0</asrwt>
<pdfrwt beam="1">  1        2 0.17693678E+00 0.79675341E+02</pdfrwt>
<pdfrwt beam="2">  1       -1 0.21229660E-03 0.79675341E+02</pdfrwt>
<totfact> 0.35545597E+05</totfact>
</mgrwt>
</event>
<event>
 8    1  0.2389776E-016  0.8189853E+02  0.7818608E-02  0.1323748E+00
          2   -1    0    0  501    0  0.00000000000E+00  0.00000000000E+00  0.55904931235E+03  0.55904931236E+03  0.25500000000E-02 0. -1.
         -1   -1    0    0    0  501 -0.00000000000E+00 -0.00000000000E+00 -0.29994514900E+01  0.29994557243E+01  0.50400000000E-02 0.  1.
         24    2    1    2    0    0  0.00000000000E+00  0.17763568394E-14  0.55604986086E+03  0.56204876808E+03  0.81898534407E+02 0.  0.
         66    2    3    3    0    0 -0.22500139239E+02 -0.82927099766E+01  0.50578234506E+03  0.50635442714E+03  0.20000002422E+01 0.  0.
        -13    1    3    3    0    0  0.22500139239E+02  0.82927099766E+01  0.50267515801E+02  0.55694340946E+02  0.10566000000E+00 0.  1.
         13    1    4    4    0    0 -0.87519672648E+01 -0.30689207187E+01  0.21080993262E+03  0.21101387172E+03  0.10566000000E+00 0. -1.
        -13    1    4    4    0    0 -0.57652970996E+01 -0.25951983649E+01  0.12033899929E+03  0.12050501906E+03  0.10566000000E+00 0.  1.
         14    1    4    4    0    0 -0.79828748742E+01 -0.26285908930E+01  0.17463341316E+03  0.17483553635E+03  0.00000000000E+00 0. -1.
<mgrwt>
<rscale>  0 0.81898534E+02</rscale>
<asrwt>0</asrwt>
<pdfrwt beam="1">  1        2 0.86007529E-01 0.81898534E+02</pdfrwt>
<pdfrwt beam="2">  1       -1 0.46145471E-03 0.81898534E+02</pdfrwt>
<totfact> 0.29647083E+05</totfact>
</mgrwt>
</event>
<event>
 8    1  0.2389776E-016  0.7819230E+02  0.7818608E-02  0.1334261E+00
         -1   -1    0    0    0  501 -0.00000000000E+00  0.00000000000E+00  0.82557641781E+02  0.82557641935E+02  0.50400000000E-02 0.  1.
          2   -1    0    0  501    0  0.00000000000E+00 -0.00000000000E+00 -0.18514446315E+02  0.18514446491E+02  0.25500000000E-02 0. -1.
         24    2    1    2    0    0 -0.71054273576E-14  0.00000000000E+00  0.64043195466E+02  0.10107208843E+03  0.78192302519E+02 0.  0.
         66    2    3    3    0    0  0.38246759713E+02  0.79794891269E+01  0.31872791588E+02  0.50461487510E+02  0.20000007081E+01 0.  0.
        -13    1    3    3    0    0 -0.38246759713E+02 -0.79794891269E+01  0.32170403879E+02  0.50610600916E+02  0.10566000000E+00 0.  1.
         13    1    4    4    0    0  0.87174376396E+01  0.21510869927E+01  0.68365930542E+01  0.11285878915E+02  0.10566000000E+00 0.  1.
        -13    1    4    4    0    0  0.16745183761E+02  0.26241143504E+01  0.13849857161E+02  0.21888738262E+02  0.10566000000E+00 0. -1.
         14    1    4    4    0    0  0.12784138313E+02  0.32042877838E+01  0.11186341373E+02  0.17286870333E+02  0.00000000000E+00 0. -1.
<mgrwt>
<rscale>  0 0.78192303E+02</rscale>
<asrwt>0</asrwt>
<pdfrwt beam="1">  1        2 0.28483764E-02 0.78192303E+02</pdfrwt>
<pdfrwt beam="2">  1       -1 0.12701176E-01 0.78192303E+02</pdfrwt>
<totfact> 0.13053699E+05</totfact>
</mgrwt>
</event>
<event>
 8    1  0.2389776E-016  0.7970530E+02  0.7818608E-02  0.1329890E+00
          2   -1    0    0  501    0  0.00000000000E+00  0.00000000000E+00  0.67384267589E+01  0.67384272414E+01  0.25500000000E-02 0. -1.
         -1   -1    0    0    0  501 -0.00000000000E+00 -0.00000000000E+00 -0.23569796629E+03  0.23569796634E+03  0.50400000000E-02 0.  1.
         24    2    1    2    0    0 -0.71054273576E-14 -0.17763568394E-14 -0.22895953953E+03  0.24243639358E+03  0.79705295886E+02 0.  0.
         66    2    3    3    0    0 -0.31414080483E+02 -0.14539605592E+02 -0.54639134262E+02  0.64712283120E+02  0.20000025996E+01 0.  0.
        -13    1    3    3    0    0  0.31414080483E+02  0.14539605592E+02 -0.17432040526E+03  0.17772411046E+03  0.10566000000E+00 0.  1.
         13    1    4    4    0    0 -0.21098841297E+02 -0.98582677161E+01 -0.37759774259E+02  0.44363929747E+02  0.10566000000E+00 0. -1.
        -13    1    4    4    0    0 -0.81573134658E+01 -0.36964911803E+01 -0.12657820597E+02  0.15506043865E+02  0.10566000000E+00 0.  1.
         14    1    4    4    0    0 -0.21579257195E+01 -0.98484669531E+00 -0.42215394059E+01  0.48423095089E+01  0.00000000000E+00 0. -1.
<mgrwt>
<rscale>  0 0.79705296E+02</rscale>
<asrwt>0</asrwt>
<pdfrwt beam="1">  1        2 0.10366813E-02 0.79705296E+02</pdfrwt>
<pdfrwt beam="2">  1       -1 0.36261219E-01 0.79705296E+02</pdfrwt>
<totfact> 0.95404304E+04</totfact>
</mgrwt>
</event>
<event>
 8    1  0.2389776E-016  0.8009927E+02  0.7818608E-02  0.1328770E+00
         -1   -1    0    0    0  501 -0.00000000000E+00  0.00000000000E+00  0.13678910291E+02  0.13678911220E+02  0.50400000000E-02 0.  1.
          2   -1    0    0  501    0  0.00000000000E+00 -0.00000000000E+00 -0.11725885126E+03  0.11725885128E+03  0.25500000000E-02 0. -1.
         24    2    1    2    0    0  0.00000000000E+00  0.88817841970E-15 -0.10357994097E+03  0.13093776250E+03  0.80099272651E+02 0.  0.
         66    2    3    3    0    0 -0.17268374195E+02  0.60646869341E+01 -0.11000879126E+03  0.11153883328E+03  0.20000001513E+01 0.  0.
        -13    1    3    3    0    0  0.17268374195E+02 -0.60646869341E+01  0.64288502915E+01  0.19398929225E+02  0.10566000000E+00 0.  1.
         13    1    4    4    0    0 -0.13165476210E+02  0.47784931350E+01 -0.80779131118E+02  0.81984406741E+02  0.10566000000E+00 0. -1.
        -13    1    4    4    0    0 -0.17295608050E+01  0.15958536059E+00 -0.12093054964E+02  0.12217609851E+02  0.10566000000E+00 0.  1.
        -14    1    4    4    0    0 -0.23733371804E+01  0.11266084385E+01 -0.17136605176E+02  0.17336816689E+02  0.00000000000E+00 0.  1.
<mgrwt>
<rscale>  0 0.80099273E+02</rscale>
<asrwt>0</asrwt>
<pdfrwt beam="1">  1        2 0.18039823E-01 0.80099273E+02</pdfrwt>
<pdfrwt beam="2">  1       -1 0.21044479E-02 0.80099273E+02</pdfrwt>
<totfact> 0.18497054E+05</totfact>
</mgrwt>
</event>
<event>
 8    1  0.2389776E-016  0.7969943E+02  0.7818608E-02  0.1329907E+00
          2   -1    0    0  501    0  0.00000000000E+00  0.00000000000E+00  0.14040833103E+03  0.14040833105E+03  0.25500000000E-02 0. -1.
         -1   -1    0    0    0  501 -0.00000000000E+00 -0.00000000000E+00 -0.11309868461E+02  0.11309869584E+02  0.50400000000E-02 0.  1.
         24    2    1    2    0    0  0.00000000000E+00  0.00000000000E+00  0.12909846257E+03  0.15171820063E+03  0.79699431407E+02 0.  0.
         66    2    3    3    0    0  0.19241286298E+02 -0.18470030948E+02  0.12088784655E+03  0.12381131043E+03  0.20000012319E+01 0.  0.
        -13    1    3    3    0    0 -0.19241286298E+02  0.18470030948E+02  0.82106160182E+01  0.27906890207E+02  0.10566000000E+00 0.  1.
         13    1    4    4    0    0  0.25653801021E+01 -0.28683996390E+01  0.19286925404E+02  0.19667372655E+02  0.10566000000E+00 0. -1.
        -13    1    4    4    0    0  0.10631977509E+01 -0.10565486953E+01  0.82058941599E+01  0.83423346614E+01  0.10566000000E+00 0.  1.
         14    1    4    4    0    0  0.15612708445E+02 -0.14545082613E+02  0.93395026984E+02  0.95801603110E+02  0.00000000000E+00 0. -1.
<mgrwt>
<rscale>  0 0.79699431E+02</rscale>
<asrwt>0</asrwt>
<pdfrwt beam="1">  1        2 0.21601280E-01 0.79699431E+02</pdfrwt>
<pdfrwt beam="2">  1       -1 0.17399800E-02 0.79699431E+02</pdfrwt>
<totfact> 0.19809261E+05</totfact>
</mgrwt>
</event>
<event>
 8    1  0.2389776E-016  0.8135962E+02  0.7818608E-02  0.1325237E+00
          2   -1    0    0  501    0  0.00000000000E+00  0.00000000000E+00  0.54672936795E+03  0.54672936795E+03  0.25500000000E-02 0. -1.
         -1   -1    0    0    0  501 -0.00000000000E+00 -0.00000000000E+00 -0.30268098798E+01  0.30268140759E+01  0.50400000000E-02 0.  1.
         24    2    1    2    0    0  0.00000000000E+00  0.00000000000E+00  0.54370255807E+03  0.54975618203E+03  0.81359621620E+02 0.  0.
         66    2    3    3    0    0  0.30278412256E+02 -0.70405719546E+01  0.44905792815E+03  0.45013706218E+03  0.20000041461E+01 0.  0.
        -13    1    3    3    0    0 -0.30278412256E+02  0.70405719546E+01  0.94644629921E+02  0.99619119847E+02  0.10566000000E+00 0.  1.
         13    1    4    4    0    0  0.33328203868E+00 -0.19577680293E+00  0.55970555776E+01  0.56113813494E+01  0.10566000000E+00 0.  1.
        -13    1    4    4    0    0  0.16130879133E+02 -0.43158091738E+01  0.24564148104E+03  0.24620840733E+03  0.10566000000E+00 0. -1.
         14    1    4    4    0    0  0.13814251084E+02 -0.25289859779E+01  0.19781939153E+03  0.19831727350E+03  0.00000000000E+00 0. -1.
<mgrwt>
<rscale>  0 0.81359622E+02</rscale>
<asrwt>0</asrwt>
<pdfrwt beam="1">  1        2 0.84112203E-01 0.81359622E+02</pdfrwt>
<pdfrwt beam="2">  1       -1 0.46566343E-03 0.81359622E+02</pdfrwt>
<totfact> 0.29961512E+05</totfact>
</mgrwt>
</event>
<event>
 8    1  0.2389776E-016  0.7607827E+02  0.7818608E-02  0.1340564E+00
          2   -1    0    0  501    0  0.00000000000E+00  0.00000000000E+00  0.19003381423E+03  0.19003381425E+03  0.25500000000E-02 0. -1.
         -1   -1    0    0    0  501 -0.00000000000E+00 -0.00000000000E+00 -0.76143066805E+01  0.76143083485E+01  0.50400000000E-02 0.  1.
         24    2    1    2    0    0 -0.35527136788E-14  0.00000000000E+00  0.18241950755E+03  0.19764812260E+03  0.76078273055E+02 0.  0.
         66    2    3    3    0    0 -0.29061458061E+02 -0.15017327511E+02  0.14157396436E+03  0.14531784424E+03  0.20000000414E+01 0.  0.
        -13    1    3    3    0    0  0.29061458061E+02  0.15017327511E+02  0.40845543193E+02  0.52330278358E+02  0.10566000000E+00 0.  1.
         13    1    4    4    0    0 -0.23371234210E+02 -0.11687037369E+02  0.11301581831E+03  0.11599736110E+03  0.10566000000E+00 0. -1.
        -13    1    4    4    0    0 -0.45950843088E+01 -0.24759075323E+01  0.21286938074E+02  0.21917796753E+02  0.10566000000E+00 0.  1.
        -14    1    4    4    0    0 -0.10951395427E+01 -0.85438260986E+00  0.72712079809E+01  0.74026863883E+01  0.00000000000E+00 0.  1.
<mgrwt>
<rscale>  0 0.76078273E+02</rscale>
<asrwt>0</asrwt>
<pdfrwt beam="1">  1        2 0.29235969E-01 0.76078273E+02</pdfrwt>
<pdfrwt beam="2">  1       -1 0.11714320E-02 0.76078273E+02</pdfrwt>
<totfact> 0.24740513E+05</totfact>
</mgrwt>
</event>
<event>
 8    1  0.2389776E-016  0.7997073E+02  0.7818608E-02  0.1329135E+00
          2   -1    0    0  501    0  0.00000000000E+00  0.00000000000E+00  0.73815770660E+03  0.73815770660E+03  0.25500000000E-02 0. -1.
         -1   -1    0    0    0  501 -0.00000000000E+00 -0.00000000000E+00 -0.21659697513E+01  0.21659756151E+01  0.50400000000E-02 0.  1.
         24    2    1    2    0    0  0.00000000000E+00  0.00000000000E+00  0.73599173685E+03  0.74032368222E+03  0.79970730555E+02 0.  0.
         66    2    3    3    0    0 -0.28832543414E+02 -0.17096692398E+02  0.56960637884E+03  0.57059533758E+03  0.20000002768E+01 0.  0.
        -13    1    3    3    0    0  0.28832543414E+02  0.17096692398E+02  0.16638535801E+03  0.16972834464E+03  0.10566000000E+00 0.  1.
         13    1    4    4    0    0 -0.13672226727E+02 -0.78122299518E+01  0.25372926706E+03  0.25421745190E+03  0.10566000000E+00 0. -1.
        -13    1    4    4    0    0 -0.38036118163E+01 -0.21076852229E+01  0.81812144168E+02  0.81927699206E+02  0.10566000000E+00 0.  1.
         14    1    4    4    0    0 -0.11356704870E+02 -0.71767772229E+01  0.23406496761E+03  0.23445018648E+03  0.00000000000E+00 0. -1.
<mgrwt>
<rscale>  0 0.79970731E+02</rscale>
<asrwt>0</asrwt>
<pdfrwt beam="1">  1        2 0.11356263E+00 0.79970731E+02</pdfrwt>
<pdfrwt beam="2">  1       -1 0.33322684E-03 0.79970731E+02</pdfrwt>
<totfact> 0.33874422E+05</totfact>
</mgrwt>
</event>
<event>
 8    1  0.2389776E-016  0.7964814E+02  0.7818608E-02  0.1330053E+00
          2   -1    0    0  501    0  0.00000000000E+00  0.00000000000E+00  0.16382497205E+04  0.16382497205E+04  0.25500000000E-02 0. -1.
         -1   -1    0    0    0  501 -0.00000000000E+00 -0.00000000000E+00 -0.96807337424E+00  0.96808649382E+00  0.50400000000E-02 0.  1.
         24    2    1    2    0    0  0.00000000000E+00  0.00000000000E+00  0.16372816471E+04  0.16392178069E+04  0.79648143463E+02 0.  0.
         66    2    3    3    0    0 -0.19291950157E+02  0.57103404942E+01  0.15258768731E+04  0.15260108188E+04  0.19999999374E+01 0.  0.
        -13    1    3    3    0    0  0.19291950157E+02 -0.57103404942E+01  0.11140477400E+03  0.11320698814E+03  0.10566000000E+00 0.  1.
         13    1    4    4    0    0 -0.35660837559E+01  0.11979605924E+01  0.33245866108E+03  0.33247996113E+03  0.10566000000E+00 0. -1.
        -13    1    4    4    0    0 -0.12033677630E+02  0.29786906997E+01  0.91068301677E+03  0.91076739632E+03  0.10566000000E+00 0.  1.
        -14    1    4    4    0    0 -0.36921887706E+01  0.15336892021E+01  0.28273519522E+03  0.28276346135E+03  0.00000000000E+00 0.  1.
<mgrwt>
<rscale>  0 0.79648143E+02</rscale>
<asrwt>0</asrwt>
<pdfrwt beam="1">  1        2 0.25203844E+00 0.79648143E+02</pdfrwt>
<pdfrwt beam="2">  1       -1 0.14893537E-03 0.79648143E+02</pdfrwt>
<totfact> 0.32344387E+05</totfact>
</mgrwt>
</event>
<event>
 8    1  0.2389776E-016  0.8679448E+02  0.7818608E-02  0.1310805E+00
         -1   -1    0    0    0  501 -0.00000000000E+00  0.00000000000E+00  0.11219439060E+01  0.11219552263E+01  0.50400000000E-02 0.  1.
          2   -1    0    0  501    0  0.00000000000E+00 -0.00000000000E+00 -0.16786142942E+04  0.16786142942E+04  0.25500000000E-02 0. -1.
         24    2    1    2    0    0  0.35527136788E-14  0.00000000000E+00 -0.16774923502E+04  0.16797362494E+04  0.86794483397E+02 0.  0.
         66    2    3    3    0    0 -0.24617883981E+02  0.31815782211E+01 -0.15275579750E+04  0.15277609530E+04  0.20000030851E+01 0.  0.
        -13    1    3    3    0    0  0.24617883981E+02 -0.31815782211E+01 -0.14993437526E+03  0.15197529635E+03  0.10566000000E+00 0.  1.
         13    1    4    4    0    0 -0.76414971784E+01  0.17087215836E+01 -0.51331477675E+03  0.51337450599E+03  0.10566000000E+00 0. -1.
        -13    1    4    4    0    0 -0.50046922481E+01  0.33537256862E+00 -0.30908349599E+03  0.30912421140E+03  0.10566000000E+00 0.  1.
         14    1    4    4    0    0 -0.11971694555E+02  0.11374840690E+01 -0.70515970225E+03  0.70526223564E+03  0.00000000000E+00 0. -1.
<mgrwt>
<rscale>  0 0.86794483E+02</rscale>
<asrwt>0</asrwt>
<pdfrwt beam="1">  1        2 0.25824634E+00 0.86794483E+02</pdfrwt>
<pdfrwt beam="2">  1       -1 0.17260897E-03 0.86794483E+02</pdfrwt>
<totfact> 0.25505882E+05</totfact>
</mgrwt>
</event>
<event>
 8    1  0.2389776E-016  0.7820039E+02  0.7818608E-02  0.1334237E+00
          2   -1    0    0  501    0  0.00000000000E+00  0.00000000000E+00  0.35539619335E+03  0.35539619336E+03  0.25500000000E-02 0. -1.
         -1   -1    0    0    0  501 -0.00000000000E+00 -0.00000000000E+00 -0.43017480376E+01  0.43017509901E+01  0.50400000000E-02 0.  1.
         24    2    1    2    0    0  0.88817841970E-15  0.00000000000E+00  0.35109444531E+03  0.35969794435E+03  0.78200394116E+02 0.  0.
         66    2    3    3    0    0 -0.67134163844E+01  0.74316801613E+01  0.34938901714E+03  0.34953824559E+03  0.20000015794E+01 0.  0.
        -13    1    3    3    0    0  0.67134163844E+01 -0.74316801613E+01  0.17054281777E+01  0.10159698759E+02  0.10566000000E+00 0.  1.
         13    1    4    4    0    0 -0.67613475337E-01  0.42098196392E-01  0.73054070898E+01  0.73066052736E+01  0.10566000000E+00 0. -1.
        -13    1    4    4    0    0 -0.80332831935E+00  0.27949910903E+00  0.26255361307E+02  0.26269347490E+02  0.10566000000E+00 0.  1.
         14    1    4    4    0    0 -0.58424745897E+01  0.71100828558E+01  0.31582824874E+03  0.31596229283E+03  0.00000000000E+00 0. -1.
<mgrwt>
<rscale>  0 0.78200394E+02</rscale>
<asrwt>0</asrwt>
<pdfrwt beam="1">  1        2 0.54676357E-01 0.78200394E+02</pdfrwt>
<pdfrwt beam="2">  1       -1 0.66180738E-03 0.78200394E+02</pdfrwt>
<totfact> 0.28756875E+05</totfact>
</mgrwt>
</event>
<event>
 8    1  0.2389776E-016  0.7988379E+02  0.7818608E-02  0.1329382E+00
          2   -1    0    0  501    0  0.00000000000E+00  0.00000000000E+00  0.24862119061E+02  0.24862119192E+02  0.25500000000E-02 0. -1.
         -1   -1    0    0    0  501 -0.00000000000E+00 -0.00000000000E+00 -0.64168105861E+02  0.64168106059E+02  0.50400000000E-02 0.  1.
         24    2    1    2    0    0  0.17763568394E-14  0.00000000000E+00 -0.39305986800E+02  0.89030225251E+02  0.79883793162E+02 0.  0.
         66    2    3    3    0    0  0.10183069112E+02  0.37494558821E+02 -0.94621038766E+01  0.40038334598E+02  0.19999974806E+01 0.  0.
        -13    1    3    3    0    0 -0.10183069112E+02 -0.37494558821E+02 -0.29843882923E+02  0.48991890652E+02  0.10566000000E+00 0.  1.
         13    1    4    4    0    0  0.80105148444E+01  0.31541694159E+02 -0.75569980679E+01  0.33409073653E+02  0.10566000000E+00 0. -1.
        -13    1    4    4    0    0  0.11797449321E+01  0.28330099783E+01 -0.10529088851E+01  0.32461553872E+01  0.10566000000E+00 0.  1.
         14    1    4    4    0    0  0.99280933526E+00  0.31198546836E+01 -0.85219692370E+00  0.33831055585E+01  0.00000000000E+00 0. -1.
<mgrwt>
<rscale>  0 0.79883793E+02</rscale>
<asrwt>0</asrwt>
<pdfrwt beam="1">  1        2 0.38249414E-02 0.79883793E+02</pdfrwt>
<pdfrwt beam="2">  1       -1 0.98720163E-02 0.79883793E+02</pdfrwt>
<totfact> 0.13019713E+05</totfact>
</mgrwt>
</event>
<event>
 8    1  0.2389776E-016  0.8196336E+02  0.7818608E-02  0.1323570E+00
         -1   -1    0    0    0  501 -0.00000000000E+00  0.00000000000E+00  0.21067139375E+01  0.21067199662E+01  0.50400000000E-02 0.  1.
          2   -1    0    0  501    0  0.00000000000E+00 -0.00000000000E+00 -0.79721107751E+03  0.79721107752E+03  0.25500000000E-02 0. -1.
         24    2    1    2    0    0  0.00000000000E+00 -0.35527136788E-14 -0.79510436357E+03  0.79931779748E+03  0.81963360087E+02 0.  0.
         66    2    3    3    0    0 -0.95699592401E+01  0.31205675528E+02 -0.63906536662E+03  0.63990149330E+03  0.20000018963E+01 0.  0.
        -13    1    3    3    0    0  0.95699592401E+01 -0.31205675528E+02 -0.15603899695E+03  0.15941630418E+03  0.10566000000E+00 0.  1.
         13    1    4    4    0    0 -0.24816858005E+01  0.81012856913E+01 -0.15436329925E+03  0.15459569500E+03  0.10566000000E+00 0. -1.
        -13    1    4    4    0    0 -0.23480182194E+01  0.97176146037E+01 -0.20191847669E+03  0.20216584186E+03  0.10566000000E+00 0.  1.
         14    1    4    4    0    0 -0.47402552202E+01  0.13386775233E+02 -0.28278359068E+03  0.28313995644E+03  0.00000000000E+00 0. -1.
<mgrwt>
<rscale>  0 0.81963360E+02</rscale>
<asrwt>0</asrwt>
<pdfrwt beam="1">  1        2 0.12264762E+00 0.81963360E+02</pdfrwt>
<pdfrwt beam="2">  1       -1 0.32411094E-03 0.81963360E+02</pdfrwt>
<totfact> 0.32245889E+05</totfact>
</mgrwt>
</event>
<event>
 8    1  0.2389776E-016  0.8209378E+02  0.7818608E-02  0.1323212E+00
          2   -1    0    0  501    0  0.00000000000E+00  0.00000000000E+00  0.80876218249E+02  0.80876218289E+02  0.25500000000E-02 0. -1.
         -1   -1    0    0    0  501 -0.00000000000E+00 -0.00000000000E+00 -0.20832416310E+02  0.20832416920E+02  0.50400000000E-02 0.  1.
         24    2    1    2    0    0  0.00000000000E+00  0.00000000000E+00  0.60043801938E+02  0.10170863521E+03  0.82093777626E+02 0.  0.
         66    2    3    3    0    0  0.35430463349E+01 -0.39584400025E+02  0.42635669403E+02  0.58320478472E+02  0.20000002756E+01 0.  0.
        -13    1    3    3    0    0 -0.35430463349E+01  0.39584400025E+02  0.17408132535E+02  0.43388156737E+02  0.10566000000E+00 0.  1.
         13    1    4    4    0    0  0.17362404657E+01 -0.18585774852E+02  0.19846075193E+02  0.27245612902E+02  0.10566000000E+00 0. -1.
        -13    1    4    4    0    0  0.15045551174E+01 -0.93628074650E+01  0.10451052792E+02  0.14112459680E+02  0.10566000000E+00 0.  1.
        -14    1    4    4    0    0  0.30225075189E+00 -0.11635817708E+02  0.12338541418E+02  0.16962405889E+02  0.00000000000E+00 0.  1.
<mgrwt>
<rscale>  0 0.82093778E+02</rscale>
<asrwt>0</asrwt>
<pdfrwt beam="1">  1        2 0.12442495E-01 0.82093778E+02</pdfrwt>
<pdfrwt beam="2">  1       -1 0.32049872E-02 0.82093778E+02</pdfrwt>
<totfact> 0.15614690E+05</totfact>
</mgrwt>
</event>
<event>
 8    1  0.2389776E-016  0.8166867E+02  0.7818608E-02  0.1324382E+00
          2   -1    0    0  501    0  0.00000000000E+00  0.00000000000E+00  0.36703907404E+02  0.36703907492E+02  0.25500000000E-02 0. -1.
         -1   -1    0    0    0  501 -0.00000000000E+00 -0.00000000000E+00 -0.45429576069E+02  0.45429576348E+02  0.50400000000E-02 0.  1.
         24    2    1    2    0    0  0.35527136788E-14  0.35527136788E-14 -0.87256686650E+01  0.82133483841E+02  0.81668671314E+02 0.  0.
         66    2    3    3    0    0  0.27566598448E+02 -0.30037117900E+02 -0.61902090440E+01  0.41285160482E+02  0.19999965822E+01 0.  0.
        -13    1    3    3    0    0 -0.27566598448E+02  0.30037117900E+02 -0.25354596210E+01  0.40848323359E+02  0.10566000000E+00 0.  1.
         13    1    4    4    0    0  0.10228855204E+02 -0.10249311234E+02 -0.15808244413E+01  0.14566675307E+02  0.10566000000E+00 0. -1.
        -13    1    4    4    0    0  0.41727232004E+01 -0.50148018971E+01 -0.91022906360E+00  0.65878325691E+01  0.10566000000E+00 0.  1.
         14    1    4    4    0    0  0.13165020043E+02 -0.14773004769E+02 -0.36991555391E+01  0.20130652606E+02  0.00000000000E+00 0. -1.
<mgrwt>
<rscale>  0 0.81668671E+02</rscale>
<asrwt>0</asrwt>
<pdfrwt beam="1">  1        2 0.56467550E-02 0.81668671E+02</pdfrwt>
<pdfrwt beam="2">  1       -1 0.69891656E-02 0.81668671E+02</pdfrwt>
<totfact> 0.13226271E+05</totfact>
</mgrwt>
</event>
<event>
 8    1  0.2389776E-016  0.7771812E+02  0.7818608E-02  0.1335655E+00
         -1   -1    0    0    0  501 -0.00000000000E+00  0.00000000000E+00  0.65379893092E+02  0.65379893286E+02  0.50400000000E-02 0.  1.
          2   -1    0    0  501    0  0.00000000000E+00 -0.00000000000E+00 -0.23096192354E+02  0.23096192495E+02  0.25500000000E-02 0. -1.
         24    2    1    2    0    0  0.00000000000E+00  0.00000000000E+00  0.42283700738E+02  0.88476085780E+02  0.77718121484E+02 0.  0.
         66    2    3    3    0    0  0.26711171038E+02 -0.25663988587E+02  0.34426849982E+02  0.50609633131E+02  0.19999993803E+01 0.  0.
        -13    1    3    3    0    0 -0.26711171038E+02  0.25663988587E+02  0.78568507554E+01  0.37866452649E+02  0.10566000000E+00 0.  1.
         13    1    4    4    0    0  0.59633952218E+01 -0.61422899631E+01  0.86833380897E+01  0.12194315601E+02  0.10566000000E+00 0. -1.
        -13    1    4    4    0    0  0.17737137086E+02 -0.16706282349E+02  0.21435967314E+02  0.32453316636E+02  0.10566000000E+00 0.  1.
        -14    1    4    4    0    0  0.30106387302E+01 -0.28154162748E+01  0.43075445792E+01  0.59620008945E+01  0.00000000000E+00 0.  1.
<mgrwt>
<rscale>  0 0.77718121E+02</rscale>
<asrwt>0</asrwt>
<pdfrwt beam="1">  1        2 0.35532604E-02 0.77718121E+02</pdfrwt>
<pdfrwt beam="2">  1       -1 0.10058445E-01 0.77718121E+02</pdfrwt>
<totfact> 0.13872150E+05</totfact>
</mgrwt>
</event>
<event>
 8    1  0.2389776E-016  0.7993257E+02  0.7818608E-02  0.1329243E+00
          2   -1    0    0  501    0  0.00000000000E+00  0.00000000000E+00  0.58678203664E+03  0.58678203665E+03  0.25500000000E-02 0. -1.
         -1   -1    0    0    0  501 -0.00000000000E+00 -0.00000000000E+00 -0.27221395749E+01  0.27221442406E+01  0.50400000000E-02 0.  1.
         24    2    1    2    0    0 -0.35527136788E-14  0.44408920985E-15  0.58405989707E+03  0.58950418089E+03  0.79932571099E+02 0.  0.
         66    2    3    3    0    0  0.20560983068E+02 -0.30531294660E+01  0.54374509172E+03  0.54414593667E+03  0.20000005882E+01 0.  0.
        -13    1    3    3    0    0 -0.20560983068E+02  0.30531294660E+01  0.40314805351E+02  0.45358244221E+02  0.10566000000E+00 0.  1.
         13    1    4    4    0    0  0.55328967818E+01 -0.12466076540E+01  0.15515588156E+03  0.15525954310E+03  0.10566000000E+00 0. -1.
        -13    1    4    4    0    0  0.36241014640E+01 -0.23154887503E+00  0.10810051923E+03  0.10816155115E+03  0.10566000000E+00 0.  1.
         14    1    4    4    0    0  0.11403984822E+02 -0.15749729370E+01  0.28048869093E+03  0.28072484242E+03  0.00000000000E+00 0. -1.
<mgrwt>
<rscale>  0 0.79932571E+02</rscale>
<asrwt>0</asrwt>
<pdfrwt beam="1">  1        2 0.90274115E-01 0.79932571E+02</pdfrwt>
<pdfrwt beam="2">  1       -1 0.41879127E-03 0.79932571E+02</pdfrwt>
<totfact> 0.32032799E+05</totfact>
</mgrwt>
</event>
<event>
 8    1  0.2389776E-016  0.7956074E+02  0.7818608E-02  0.1330303E+00
          2   -1    0    0  501    0  0.00000000000E+00  0.00000000000E+00  0.19176063039E+03  0.19176063041E+03  0.25500000000E-02 0. -1.
         -1   -1    0    0    0  501 -0.00000000000E+00 -0.00000000000E+00 -0.82523586093E+01  0.82523601484E+01  0.50400000000E-02 0.  1.
         24    2    1    2    0    0  0.35527136788E-14 -0.71054273576E-14  0.18350827178E+03  0.20001299056E+03  0.79560735159E+02 0.  0.
         66    2    3    3    0    0 -0.22267402907E+02  0.32928263035E+02  0.93330676144E+02  0.10146291365E+03  0.19999996926E+01 0.  0.
        -13    1    3    3    0    0  0.22267402907E+02 -0.32928263035E+02  0.90177595641E+02  0.98550076906E+02  0.10566000000E+00 0.  1.
         13    1    4    4    0    0 -0.12294845184E+02  0.19158374703E+02  0.53022451228E+02  0.57702669242E+02  0.10566000000E+00 0. -1.
        -13    1    4    4    0    0 -0.12045324032E+00  0.26376086137E+00  0.94452300333E+00  0.99366317961E+00  0.10566000000E+00 0. -1.
        -14    1    4    4    0    0 -0.98521044821E+01  0.13506127471E+02  0.39363701913E+02  0.42766581232E+02  0.00000000000E+00 0.  1.
<mgrwt>
<rscale>  0 0.79560735E+02</rscale>
<asrwt>0</asrwt>
<pdfrwt beam="1">  1        2 0.29501634E-01 0.79560735E+02</pdfrwt>
<pdfrwt beam="2">  1       -1 0.12695938E-02 0.79560735E+02</pdfrwt>
<totfact> 0.22058244E+05</totfact>
</mgrwt>
</event>
<event>
 8    1  0.2389776E-016  0.8119439E+02  0.7818608E-02  0.1325696E+00
         -1   -1    0    0    0  501 -0.00000000000E+00  0.00000000000E+00  0.35988404859E+02  0.35988405212E+02  0.50400000000E-02 0.  1.
          2   -1    0    0  501    0  0.00000000000E+00 -0.00000000000E+00 -0.45796201764E+02  0.45796201835E+02  0.25500000000E-02 0. -1.
         24    2    1    2    0    0  0.00000000000E+00  0.17763568394E-14 -0.98077969055E+01  0.81784607047E+02  0.81194390629E+02 0.  0.
         66    2    3    3    0    0  0.11447184727E+02  0.14388337852E+02 -0.41336952268E+02  0.45285824790E+02  0.19999999678E+01 0.  0.
        -13    1    3    3    0    0 -0.11447184727E+02 -0.14388337852E+02  0.31529155362E+02  0.36498782256E+02  0.10566000000E+00 0.  1.
         13    1    4    4    0    0  0.76788966727E+01  0.98088652445E+01 -0.26735646267E+02  0.29495512147E+02  0.10566000000E+00 0. -1.
        -13    1    4    4    0    0  0.28038575173E+01  0.26875279203E+01 -0.92248767533E+01  0.10009692226E+02  0.10566000000E+00 0.  1.
        -14    1    4    4    0    0  0.96443053644E+00  0.18919446873E+01 -0.53764292476E+01  0.57806204178E+01  0.00000000000E+00 0.  1.
<mgrwt>
<rscale>  0 0.81194391E+02</rscale>
<asrwt>0</asrwt>
<pdfrwt beam="1">  1        2 0.70455695E-02 0.81194391E+02</pdfrwt>
<pdfrwt beam="2">  1       -1 0.55366777E-02 0.81194391E+02</pdfrwt>
<totfact> 0.14077662E+05</totfact>
</mgrwt>
</event>
<event>
 8    1  0.2389776E-016  0.7958119E+02  0.7818608E-02  0.1330244E+00
         -1   -1    0    0    0  501 -0.00000000000E+00  0.00000000000E+00  0.33584950171E+01  0.33584987988E+01  0.50400000000E-02 0.  1.
          2   -1    0    0  501    0  0.00000000000E+00 -0.00000000000E+00 -0.47142864063E+03  0.47142864063E+03  0.25500000000E-02 0. -1.
         24    2    1    2    0    0  0.71054273576E-14  0.17763568394E-14 -0.46807014561E+03  0.47478713943E+03  0.79581194760E+02 0.  0.
         66    2    3    3    0    0 -0.37684519861E+02 -0.11244820363E+02 -0.26933558506E+03  0.27219887288E+03  0.19999994166E+01 0.  0.
        -13    1    3    3    0    0  0.37684519861E+02  0.11244820363E+02 -0.19873456055E+03  0.20258826655E+03  0.10566000000E+00 0.  1.
         13    1    4    4    0    0 -0.18820083324E+02 -0.53652255471E+01 -0.13307319087E+03  0.13450452213E+03  0.10566000000E+00 0. -1.
        -13    1    4    4    0    0 -0.15422136651E+02 -0.50230638189E+01 -0.10830653468E+03  0.10951433736E+03  0.10566000000E+00 0.  1.
        -14    1    4    4    0    0 -0.34422998848E+01 -0.85653099740E+00 -0.27955859507E+02  0.28180013389E+02  0.00000000000E+00 0.  1.
<mgrwt>
<rscale>  0 0.79581195E+02</rscale>
<asrwt>0</asrwt>
<pdfrwt beam="1">  1        2 0.72527431E-01 0.79581195E+02</pdfrwt>
<pdfrwt beam="2">  1       -1 0.51669221E-03 0.79581195E+02</pdfrwt>
<totfact> 0.30288327E+05</totfact>
</mgrwt>
</event>
<event>
 8    1  0.2389776E-016  0.8149440E+02  0.7818608E-02  0.1324863E+00
         -1   -1    0    0    0  501 -0.00000000000E+00  0.00000000000E+00  0.15155227514E+01  0.15155311318E+01  0.50400000000E-02 0.  1.
          2   -1    0    0  501    0  0.00000000000E+00 -0.00000000000E+00 -0.10955490617E+04  0.10955490617E+04  0.25500000000E-02 0. -1.
         24    2    1    2    0    0  0.00000000000E+00  0.35527136788E-14 -0.10940335390E+04  0.10970645929E+04  0.81494395559E+02 0.  0.
         66    2    3    3    0    0  0.20087897453E+02  0.10736020832E+02 -0.10017783378E+04  0.10020392327E+04  0.20000006999E+01 0.  0.
        -13    1    3    3    0    0 -0.20087897453E+02 -0.10736020832E+02 -0.92255201199E+02  0.95025360193E+02  0.10566000000E+00 0.  1.
         13    1    4    4    0    0  0.78950434887E+01  0.49421944665E+01 -0.40832395503E+03  0.40843019038E+03  0.10566000000E+00 0. -1.
        -13    1    4    4    0    0  0.47872391632E+01  0.21156150056E+01 -0.20673374979E+03  0.20680001923E+03  0.10566000000E+00 0.  1.
        -14    1    4    4    0    0  0.74056148015E+01  0.36782113596E+01 -0.38672063296E+03  0.38680902306E+03  0.00000000000E+00 0.  1.
<mgrwt>
<rscale>  0 0.81494396E+02</rscale>
<asrwt>0</asrwt>
<pdfrwt beam="1">  1        2 0.16854538E+00 0.81494396E+02</pdfrwt>
<pdfrwt beam="2">  1       -1 0.23315887E-03 0.81494396E+02</pdfrwt>
<totfact> 0.33600675E+05</totfact>
</mgrwt>
</event>
<event>
 8    1  0.2389776E-016  0.7326046E+02  0.7818608E-02  0.1349344E+00
          2   -1    0    0  501    0  0.00000000000E+00  0.00000000000E+00  0.49202786802E+03  0.49202786803E+03  0.25500000000E-02 0. -1.
         -1   -1    0    0    0  501 -0.00000000000E+00 -0.00000000000E+00 -0.27270258337E+01  0.27270304910E+01  0.50400000000E-02 0.  1.
         24    2    1    2    0    0  0.00000000000E+00 -0.35527136788E-14  0.48930084219E+03  0.49475489852E+03  0.73260463027E+02 0.  0.
         66    2    3    3    0    0  0.11194706630E+02 -0.28646730207E+02  0.37885086720E+03  0.38010253376E+03  0.19999943708E+01 0.  0.
        -13    1    3    3    0    0 -0.11194706630E+02  0.28646730207E+02  0.11044997498E+03  0.11465236476E+03  0.10566000000E+00 0.  1.
         13    1    4    4    0    0  0.15484718872E+01 -0.34898982861E+01  0.47523838212E+02  0.47677075389E+02  0.10566000000E+00 0. -1.
        -13    1    4    4    0    0  0.84083950998E+01 -0.20043871755E+02  0.26914981033E+03  0.27002609035E+03  0.10566000000E+00 0.  1.
        -14    1    4    4    0    0  0.12378396433E+01 -0.51129601657E+01  0.62177218661E+02  0.62399368018E+02  0.00000000000E+00 0.  1.
<mgrwt>
<rscale>  0 0.73260463E+02</rscale>
<asrwt>0</asrwt>
<pdfrwt beam="1">  1        2 0.75696599E-01 0.73260463E+02</pdfrwt>
<pdfrwt beam="2">  1       -1 0.41954278E-03 0.73260463E+02</pdfrwt>
<totfact> 0.38065785E+05</totfact>
</mgrwt>
</event>
<event>
 8    1  0.2389776E-016  0.8367441E+02  0.7818608E-02  0.1318936E+00
          2   -1    0    0  501    0  0.00000000000E+00  0.00000000000E+00  0.35045274360E+02  0.35045274452E+02  0.25500000000E-02 0. -1.
         -1   -1    0    0    0  501 -0.00000000000E+00 -0.00000000000E+00 -0.49945445423E+02  0.49945445678E+02  0.50400000000E-02 0.  1.
         24    2    1    2    0    0  0.00000000000E+00  0.35527136788E-14 -0.14900171064E+02  0.84990720130E+02  0.83674413117E+02 0.  0.
         66    2    3    3    0    0  0.26480763381E+02  0.23630487250E+02  0.15000364370E+02  0.38582919707E+02  0.20000012429E+01 0.  0.
        -13    1    3    3    0    0 -0.26480763381E+02 -0.23630487250E+02 -0.29900535433E+02  0.46407800423E+02  0.10566000000E+00 0.  1.
         13    1    4    4    0    0  0.24597429177E+02  0.22411152730E+02  0.13943716158E+02  0.36079518749E+02  0.10566000000E+00 0. -1.
        -13    1    4    4    0    0  0.16619008698E+01  0.10169778261E+01  0.10183715604E+01  0.22010004703E+01  0.10566000000E+00 0.  1.
         14    1    4    4    0    0  0.22143333389E+00  0.20235669334E+00  0.38276651303E-01  0.30240048732E+00  0.00000000000E+00 0. -1.
<mgrwt>
<rscale>  0 0.83674413E+02</rscale>
<asrwt>0</asrwt>
<pdfrwt beam="1">  1        2 0.53915807E-02 0.83674413E+02</pdfrwt>
<pdfrwt beam="2">  1       -1 0.76839147E-02 0.83674413E+02</pdfrwt>
<totfact> 0.12242575E+05</totfact>
</mgrwt>
</event>
<event>
 8    1  0.2389776E-016  0.8059185E+02  0.7818608E-02  0.1327380E+00
         -1   -1    0    0    0  501 -0.00000000000E+00  0.00000000000E+00  0.40459228800E+01  0.40459260191E+01  0.50400000000E-02 0.  1.
          2   -1    0    0  501    0  0.00000000000E+00 -0.00000000000E+00 -0.40133268406E+03  0.40133268406E+03  0.25500000000E-02 0. -1.
         24    2    1    2    0    0  0.00000000000E+00  0.00000000000E+00 -0.39728676118E+03  0.40537861008E+03  0.80591853852E+02 0.  0.
         66    2    3    3    0    0  0.28434994171E+00  0.40186002356E+02 -0.21184451069E+03  0.21563184445E+03  0.19999974394E+01 0.  0.
        -13    1    3    3    0    0 -0.28434994171E+00 -0.40186002356E+02 -0.18544225048E+03  0.18974676564E+03  0.10566000000E+00 0.  1.
         13    1    4    4    0    0 -0.41122654742E+00  0.25890860923E+02 -0.13780876660E+03  0.14022044467E+03  0.10566000000E+00 0. -1.
        -13    1    4    4    0    0 -0.59539384255E-01  0.71699949115E+01 -0.37703487609E+02  0.38379376153E+02  0.10566000000E+00 0.  1.
        -14    1    4    4    0    0  0.75511587339E+00  0.71251465211E+01 -0.36332256479E+02  0.37032023626E+02  0.00000000000E+00 0.  1.
<mgrwt>
<rscale>  0 0.80591854E+02</rscale>
<asrwt>0</asrwt>
<pdfrwt beam="1">  1        2 0.61743458E-01 0.80591854E+02</pdfrwt>
<pdfrwt beam="2">  1       -1 0.62245024E-03 0.80591854E+02</pdfrwt>
<totfact> 0.27746859E+05</totfact>
</mgrwt>
</event>
<event>
 8    1  0.2389776E-016  0.8080235E+02  0.7818608E-02  0.1326790E+00
          2   -1    0    0  501    0  0.00000000000E+00  0.00000000000E+00  0.48301808944E+02  0.48301809011E+02  0.25500000000E-02 0. -1.
         -1   -1    0    0    0  501 -0.00000000000E+00 -0.00000000000E+00 -0.33792834651E+02  0.33792835027E+02  0.50400000000E-02 0.  1.
         24    2    1    2    0    0  0.00000000000E+00  0.00000000000E+00  0.14508974293E+02  0.82094644038E+02  0.80802352965E+02 0.  0.
         66    2    3    3    0    0  0.38820289023E+02 -0.11044399778E+02  0.61200579619E+01  0.40871122991E+02  0.19999946966E+01 0.  0.
        -13    1    3    3    0    0 -0.38820289023E+02  0.11044399778E+02  0.83889163314E+01  0.41223521047E+02  0.10566000000E+00 0.  1.
         13    1    4    4    0    0  0.26779290022E+02 -0.75738404905E+01  0.45490819231E+01  0.28199268506E+02  0.10566000000E+00 0. -1.
        -13    1    4    4    0    0  0.11090564631E+02 -0.33404429624E+01  0.12073303986E+01  0.11645943232E+02  0.10566000000E+00 0.  1.
        -14    1    4    4    0    0  0.95043436933E+00 -0.13011632497E+00  0.36364564014E+00  0.10259112535E+01  0.00000000000E+00 0.  1.
<mgrwt>
<rscale>  0 0.80802353E+02</rscale>
<asrwt>0</asrwt>
<pdfrwt beam="1">  1        2 0.74310475E-02 0.80802353E+02</pdfrwt>
<pdfrwt beam="2">  1       -1 0.51988977E-02 0.80802353E+02</pdfrwt>
<totfact> 0.14430833E+05</totfact>
</mgrwt>
</event>
<event>
 8    1  0.2389776E-016  0.8107664E+02  0.7818608E-02  0.1326024E+00
         -1   -1    0    0    0  501 -0.00000000000E+00  0.00000000000E+00  0.26718714244E+01  0.26718761779E+01  0.50400000000E-02 0.  1.
          2   -1    0    0  501    0  0.00000000000E+00 -0.00000000000E+00 -0.61505728036E+03  0.61505728036E+03  0.25500000000E-02 0. -1.
         24    2    1    2    0    0  0.00000000000E+00 -0.88817841970E-15 -0.61238540893E+03  0.61772915654E+03  0.81076641312E+02 0.  0.
         66    2    3    3    0    0  0.28352375523E+02  0.52608116772E+01 -0.52319675401E+03  0.52399463426E+03  0.19999957027E+01 0.  0.
        -13    1    3    3    0    0 -0.28352375523E+02 -0.52608116772E+01 -0.89188654920E+02  0.93734522283E+02  0.10566000000E+00 0.  1.
         13    1    4    4    0    0  0.18625325478E+02  0.34962220884E+01 -0.33155070051E+03  0.33209186153E+03  0.10566000000E+00 0. -1.
        -13    1    4    4    0    0  0.18755926993E+01  0.22346455087E-01 -0.37738150189E+02  0.37784884426E+02  0.10566000000E+00 0.  1.
        -14    1    4    4    0    0  0.78514573463E+01  0.17422431337E+01 -0.15390790331E+03  0.15411788830E+03  0.00000000000E+00 0.  1.
<mgrwt>
<rscale>  0 0.81076641E+02</rscale>
<asrwt>0</asrwt>
<pdfrwt beam="1">  1        2 0.94624084E-01 0.81076641E+02</pdfrwt>
<pdfrwt beam="2">  1       -1 0.41105800E-03 0.81076641E+02</pdfrwt>
<totfact> 0.31275694E+05</totfact>
</mgrwt>
</event>
<event>
 8    1  0.2389776E-016  0.8119507E+02  0.7818608E-02  0.1325694E+00
          2   -1    0    0  501    0  0.00000000000E+00  0.00000000000E+00  0.12253278707E+02  0.12253278972E+02  0.25500000000E-02 0. -1.
         -1   -1    0    0    0  501 -0.00000000000E+00 -0.00000000000E+00 -0.13450766832E+03  0.13450766842E+03  0.50400000000E-02 0.  1.
         24    2    1    2    0    0  0.00000000000E+00 -0.55511151231E-16 -0.12225438962E+03  0.14676094739E+03  0.81195073116E+02 0.  0.
         66    2    3    3    0    0  0.28707064995E+02 -0.34838978915E+00 -0.93438261021E+01  0.30257627810E+02  0.19999995974E+01 0.  0.
        -13    1    3    3    0    0 -0.28707064995E+02  0.34838978915E+00 -0.11291056352E+03  0.11650331958E+03  0.10566000000E+00 0.  1.
         13    1    4    4    0    0  0.20994686742E+00  0.79143494022E-01 -0.81269724459E-01  0.26097927791E+00  0.10566000000E+00 0.  1.
        -13    1    4    4    0    0  0.11445813447E+02 -0.74124611499E+00 -0.40338347511E+01  0.12158909413E+02  0.10566000000E+00 0.  1.
         14    1    4    4    0    0  0.17051304680E+02  0.31371283181E+00 -0.52287216266E+01  0.17837739119E+02  0.00000000000E+00 0. -1.
<mgrwt>
<rscale>  0 0.81195073E+02</rscale>
<asrwt>0</asrwt>
<pdfrwt beam="1">  1        2 0.18851199E-02 0.81195073E+02</pdfrwt>
<pdfrwt beam="2">  1       -1 0.20693487E-01 0.81195073E+02</pdfrwt>
<totfact> 0.10676493E+05</totfact>
</mgrwt>
</event>
<event>
 8    1  0.2389776E-016  0.8050145E+02  0.7818608E-02  0.1327634E+00
          2   -1    0    0  501    0  0.00000000000E+00  0.00000000000E+00  0.18603996544E+02  0.18603996719E+02  0.25500000000E-02 0. -1.
         -1   -1    0    0    0  501 -0.00000000000E+00 -0.00000000000E+00 -0.87084568250E+02  0.87084568396E+02  0.50400000000E-02 0.  1.
         24    2    1    2    0    0  0.11102230246E-15  0.00000000000E+00 -0.68480571706E+02  0.10568856512E+03  0.80501453993E+02 0.  0.
         66    2    3    3    0    0  0.35750331739E+00 -0.33922452814E+02 -0.58820752891E+01  0.34488540317E+02  0.19999974811E+01 0.  0.
        -13    1    3    3    0    0 -0.35750331739E+00  0.33922452814E+02 -0.62598496417E+02  0.71200024798E+02  0.10566000000E+00 0.  1.
         13    1    4    4    0    0 -0.43121439169E+00 -0.32352917466E+01 -0.50952127473E+00  0.33051224640E+01  0.10566000000E+00 0. -1.
        -13    1    4    4    0    0  0.40302803311E+00 -0.21655942726E+02 -0.42720337901E+01  0.22077221829E+02  0.10566000000E+00 0.  1.
         14    1    4    4    0    0  0.38568967597E+00 -0.90312183417E+01 -0.11005202243E+01  0.91061960239E+01  0.00000000000E+00 0. -1.
<mgrwt>
<rscale>  0 0.80501454E+02</rscale>
<asrwt>0</asrwt>
<pdfrwt beam="1">  1        2 0.28621534E-02 0.80501454E+02</pdfrwt>
<pdfrwt beam="2">  1       -1 0.13397626E-01 0.80501454E+02</pdfrwt>
<totfact> 0.12015008E+05</totfact>
</mgrwt>
</event>
<event>
 8    1  0.2389776E-016  0.8027419E+02  0.7818608E-02  0.1328275E+00
          2   -1    0    0  501    0  0.00000000000E+00  0.00000000000E+00  0.21166780550E+02  0.21166780703E+02  0.25500000000E-02 0. -1.
         -1   -1    0    0    0  501 -0.00000000000E+00 -0.00000000000E+00 -0.76109182306E+02  0.76109182473E+02  0.50400000000E-02 0.  1.
         24    2    1    2    0    0  0.17763568394E-14 -0.88817841970E-15 -0.54942401756E+02  0.97275963176E+02  0.80274189507E+02 0.  0.
         66    2    3    3    0    0 -0.13709286751E+02 -0.47057802777E+01  0.17835121234E+02  0.23069036762E+02  0.19999991116E+01 0.  0.
        -13    1    3    3    0    0  0.13709286751E+02  0.47057802777E+01 -0.72777522990E+02  0.74206926414E+02  0.10566000000E+00 0.  1.
         13    1    4    4    0    0 -0.82619695583E+01 -0.23868177973E+01  0.10990489316E+02  0.13955610328E+02  0.10566000000E+00 0. -1.
        -13    1    4    4    0    0 -0.19076862082E+01 -0.29980520498E+00  0.24267014300E+01  0.31030942132E+01  0.10566000000E+00 0.  1.
        -14    1    4    4    0    0 -0.35396309844E+01 -0.20191572754E+01  0.44179304880E+01  0.60103322208E+01  0.00000000000E+00 0.  1.
<mgrwt>
<rscale>  0 0.80274190E+02</rscale>
<asrwt>0</asrwt>
<pdfrwt beam="1">  1        2 0.32564278E-02 0.80274190E+02</pdfrwt>
<pdfrwt beam="2">  1       -1 0.11709105E-01 0.80274190E+02</pdfrwt>
<totfact> 0.12435904E+05</totfact>
</mgrwt>
</event>
<event>
 8    1  0.2389776E-016  0.7867782E+02  0.7818608E-02  0.1332846E+00
          2   -1    0    0  501    0  0.00000000000E+00  0.00000000000E+00  0.19145262465E+03  0.19145262467E+03  0.25500000000E-02 0. -1.
         -1   -1    0    0    0  501 -0.00000000000E+00 -0.00000000000E+00 -0.80831994123E+01  0.80832009836E+01  0.50400000000E-02 0.  1.
         24    2    1    2    0    0  0.00000000000E+00  0.00000000000E+00  0.18336942524E+03  0.19953582565E+03  0.78677821564E+02 0.  0.
         66    2    3    3    0    0 -0.16198468376E+02 -0.66779693665E+01  0.18099764255E+03  0.18185470098E+03  0.20000015188E+01 0.  0.
        -13    1    3    3    0    0  0.16198468376E+02  0.66779693665E+01  0.23717826878E+01  0.17681124674E+02  0.10566000000E+00 0.  1.
         13    1    4    4    0    0 -0.11552768531E+01 -0.63803933052E+00  0.15460035649E+02  0.15516624152E+02  0.10566000000E+00 0. -1.
        -13    1    4    4    0    0 -0.40289564103E+01 -0.22756674168E+01  0.51847381411E+02  0.52053561600E+02  0.10566000000E+00 0.  1.
         14    1    4    4    0    0 -0.11014235112E+02 -0.37642626192E+01  0.11369022549E+03  0.11428451523E+03  0.00000000000E+00 0. -1.
<mgrwt>
<rscale>  0 0.78677822E+02</rscale>
<asrwt>0</asrwt>
<pdfrwt beam="1">  1        2 0.29454250E-01 0.78677822E+02</pdfrwt>
<pdfrwt beam="2">  1       -1 0.12435693E-02 0.78677822E+02</pdfrwt>
<totfact> 0.22704612E+05</totfact>
</mgrwt>
</event>
<event>
 8    1  0.2389776E-016  0.8008219E+02  0.7818608E-02  0.1328818E+00
          2   -1    0    0  501    0  0.00000000000E+00  0.00000000000E+00  0.49672314478E+03  0.49672314479E+03  0.25500000000E-02 0. -1.
         -1   -1    0    0    0  501 -0.00000000000E+00 -0.00000000000E+00 -0.32277305139E+01  0.32277344488E+01  0.50400000000E-02 0.  1.
         24    2    1    2    0    0  0.00000000000E+00  0.00000000000E+00  0.49349541427E+03  0.49995087924E+03  0.80082193692E+02 0.  0.
         66    2    3    3    0    0 -0.32756251047E+02  0.21862255361E+02  0.29120177529E+03  0.29385949725E+03  0.20000007536E+01 0.  0.
        -13    1    3    3    0    0  0.32756251047E+02 -0.21862255361E+02  0.20229363898E+03  0.20609138198E+03  0.10566000000E+00 0.  1.
         13    1    4    4    0    0 -0.88961707529E+01  0.58716766490E+01  0.78965841000E+02  0.79682078597E+02  0.10566000000E+00 0. -1.
        -13    1    4    4    0    0 -0.15549471002E+02  0.10048884736E+02  0.14224237971E+03  0.14344222489E+03  0.10566000000E+00 0.  1.
        -14    1    4    4    0    0 -0.83106092922E+01  0.59416939761E+01  0.69993554581E+02  0.70735193766E+02  0.00000000000E+00 0.  1.
<mgrwt>
<rscale>  0 0.80082194E+02</rscale>
<asrwt>0</asrwt>
<pdfrwt beam="1">  1        2 0.76418990E-01 0.80082194E+02</pdfrwt>
<pdfrwt beam="2">  1       -1 0.49657394E-03 0.80082194E+02</pdfrwt>
<totfact> 0.30306266E+05</totfact>
</mgrwt>
</event>
<event>
 8    1  0.2389776E-016  0.7933771E+02  0.7818608E-02  0.1330941E+00
         -1   -1    0    0    0  501 -0.00000000000E+00  0.00000000000E+00  0.32924971396E+01  0.32925009971E+01  0.50400000000E-02 0.  1.
          2   -1    0    0  501    0  0.00000000000E+00 -0.00000000000E+00 -0.47794031652E+03  0.47794031652E+03  0.25500000000E-02 0. -1.
         24    2    1    2    0    0  0.00000000000E+00  0.35527136788E-14 -0.47464781938E+03  0.48123281752E+03  0.79337709946E+02 0.  0.
         66    2    3    3    0    0 -0.20945123427E+02 -0.21109439464E+02 -0.39649395404E+03  0.39761257798E+03  0.19999867548E+01 0.  0.
        -13    1    3    3    0    0  0.20945123427E+02  0.21109439464E+02 -0.78153865337E+02  0.83620239542E+02  0.10566000000E+00 0.  1.
         13    1    4    4    0    0 -0.14259460715E+02 -0.14805539709E+02 -0.28068433828E+03  0.28143604095E+03  0.10566000000E+00 0. -1.
        -13    1    4    4    0    0 -0.93177056101E+00 -0.10127708283E+01 -0.20930284677E+02  0.20975745084E+02  0.10566000000E+00 0.  1.
        -14    1    4    4    0    0 -0.57538921511E+01 -0.52911289261E+01 -0.94879331079E+02  0.95200791941E+02  0.00000000000E+00 0.  1.
<mgrwt>
<rscale>  0 0.79337710E+02</rscale>
<asrwt>0</asrwt>
<pdfrwt beam="1">  1        2 0.73529224E-01 0.79337710E+02</pdfrwt>
<pdfrwt beam="2">  1       -1 0.50653870E-03 0.79337710E+02</pdfrwt>
<totfact> 0.30668575E+05</totfact>
</mgrwt>
</event>
<event>
 8    1  0.2389776E-016  0.7813409E+02  0.7818608E-02  0.1334432E+00
          2   -1    0    0  501    0  0.00000000000E+00  0.00000000000E+00  0.85061467829E+03  0.85061467830E+03  0.25500000000E-02 0. -1.
         -1   -1    0    0    0  501 -0.00000000000E+00 -0.00000000000E+00 -0.17942682080E+01  0.17942752866E+01  0.50400000000E-02 0.  1.
         24    2    1    2    0    0  0.35527136788E-14  0.00000000000E+00  0.84882041008E+03  0.85240895358E+03  0.78134087134E+02 0.  0.
         66    2    3    3    0    0 -0.23015716890E+02 -0.16234501297E+01  0.76827303952E+03  0.76862202810E+03  0.20000002155E+01 0.  0.
        -13    1    3    3    0    0  0.23015716890E+02  0.16234501297E+01  0.80547370560E+02  0.83786925486E+02  0.10566000000E+00 0.  1.
         13    1    4    4    0    0 -0.56691682411E+01 -0.83980072217E+00  0.19296855535E+03  0.19305366935E+03  0.10566000000E+00 0. -1.
        -13    1    4    4    0    0 -0.15807416631E+01 -0.40451489163E+00  0.62897102815E+02  0.62918352514E+02  0.10566000000E+00 0.  1.
         14    1    4    4    0    0 -0.15765806986E+02 -0.37913451588E+00  0.51240738136E+03  0.51265000623E+03  0.00000000000E+00 0. -1.
<mgrwt>
<rscale>  0 0.78134087E+02</rscale>
<asrwt>0</asrwt>
<pdfrwt beam="1">  1        2 0.13086404E+00 0.78134087E+02</pdfrwt>
<pdfrwt beam="2">  1       -1 0.27604129E-03 0.78134087E+02</pdfrwt>
<totfact> 0.36889407E+05</totfact>
</mgrwt>
</event>
<event>
 8    1  0.2389776E-016  0.8038204E+02  0.7818608E-02  0.1327971E+00
         -1   -1    0    0    0  501 -0.00000000000E+00  0.00000000000E+00  0.23160294602E+01  0.23160349441E+01  0.50400000000E-02 0.  1.
          2   -1    0    0  501    0  0.00000000000E+00 -0.00000000000E+00 -0.69745059026E+03  0.69745059026E+03  0.25500000000E-02 0. -1.
         24    2    1    2    0    0  0.00000000000E+00  0.00000000000E+00 -0.69513456080E+03  0.69976662521E+03  0.80382038651E+02 0.  0.
         66    2    3    3    0    0 -0.17435859239E+02 -0.30650281067E+02 -0.51520492997E+03  0.51641414463E+03  0.19999999705E+01 0.  0.
        -13    1    3    3    0    0  0.17435859239E+02  0.30650281067E+02 -0.17992963083E+03  0.18335248057E+03  0.10566000000E+00 0.  1.
         13    1    4    4    0    0 -0.92565371575E+01 -0.16327007355E+02 -0.28818212531E+03  0.28879266466E+03  0.10566000000E+00 0. -1.
        -13    1    4    4    0    0 -0.69041288593E+01 -0.12210641515E+02 -0.19447647857E+03  0.19498173925E+03  0.10566000000E+00 0.  1.
         14    1    4    4    0    0 -0.12751932225E+01 -0.21126321965E+01 -0.32546326085E+02  0.32639740719E+02  0.00000000000E+00 0. -1.
<mgrwt>
<rscale>  0 0.80382039E+02</rscale>
<asrwt>0</asrwt>
<pdfrwt beam="1">  1        2 0.10729992E+00 0.80382039E+02</pdfrwt>
<pdfrwt beam="2">  1       -1 0.35631320E-03 0.80382039E+02</pdfrwt>
<totfact> 0.33012208E+05</totfact>
</mgrwt>
</event>
<event>
 8    1  0.2389776E-016  0.7935270E+02  0.7818608E-02  0.1330898E+00
          2   -1    0    0  501    0  0.00000000000E+00  0.00000000000E+00  0.11239846064E+04  0.11239846064E+04  0.25500000000E-02 0. -1.
         -1   -1    0    0    0  501 -0.00000000000E+00 -0.00000000000E+00 -0.14005597650E+01  0.14005688333E+01  0.50400000000E-02 0.  1.
         24    2    1    2    0    0  0.00000000000E+00  0.00000000000E+00  0.11225840466E+04  0.11253851752E+04  0.79352699272E+02 0.  0.
         66    2    3    3    0    0 -0.94337750998E+01  0.14167679770E+02  0.10695335647E+04  0.10696708677E+04  0.20000000420E+01 0.  0.
        -13    1    3    3    0    0  0.94337750998E+01 -0.14167679770E+02  0.53050481938E+02  0.55714307503E+02  0.10566000000E+00 0.  1.
         13    1    4    4    0    0 -0.20060022870E+01  0.30751180006E+01  0.26527486319E+03  0.26530029136E+03  0.10566000000E+00 0.  1.
        -13    1    4    4    0    0 -0.62024557644E+01  0.97672673839E+01  0.67286883925E+03  0.67296831721E+03  0.10566000000E+00 0. -1.
         14    1    4    4    0    0 -0.12253170484E+01  0.13252943852E+01  0.13138986222E+03  0.13140225912E+03  0.00000000000E+00 0. -1.
<mgrwt>
<rscale>  0 0.79352699E+02</rscale>
<asrwt>0</asrwt>
<pdfrwt beam="1">  1        2 0.17292103E+00 0.79352699E+02</pdfrwt>
<pdfrwt beam="2">  1       -1 0.21547103E-03 0.79352699E+02</pdfrwt>
<totfact> 0.35971380E+05</totfact>
</mgrwt>
</event>
<event>
 8    1  0.2389776E-016  0.8577791E+02  0.7818608E-02  0.1313411E+00
         -1   -1    0    0    0  501 -0.00000000000E+00  0.00000000000E+00  0.21624115693E+01  0.21624174427E+01  0.50400000000E-02 0.  1.
          2   -1    0    0  501    0  0.00000000000E+00 -0.00000000000E+00 -0.85065220019E+03  0.85065220019E+03  0.25500000000E-02 0. -1.
         24    2    1    2    0    0  0.00000000000E+00 -0.35527136788E-14 -0.84848978862E+03  0.85281461763E+03  0.85777914762E+02 0.  0.
         66    2    3    3    0    0 -0.83862594505E+01  0.31474182289E+02 -0.70152034460E+03  0.70227896691E+03  0.19999963472E+01 0.  0.
        -13    1    3    3    0    0  0.83862594505E+01 -0.31474182289E+02 -0.14696944402E+03  0.15053565072E+03  0.10566000000E+00 0.  1.
         13    1    4    4    0    0 -0.60205154912E+01  0.21509436784E+02 -0.47997645317E+03  0.48049589930E+03  0.10566000000E+00 0. -1.
        -13    1    4    4    0    0 -0.86944095627E+00  0.40932721848E+01 -0.79759230545E+02  0.79868997902E+02  0.10566000000E+00 0.  1.
         14    1    4    4    0    0 -0.14963030030E+01  0.58714733193E+01 -0.14178466088E+03  0.14191406971E+03  0.00000000000E+00 0. -1.
<mgrwt>
<rscale>  0 0.85777915E+02</rscale>
<asrwt>0</asrwt>
<pdfrwt beam="1">  1        2 0.13086930E+00 0.85777915E+02</pdfrwt>
<pdfrwt beam="2">  1       -1 0.33267984E-03 0.85777915E+02</pdfrwt>
<totfact> 0.28932628E+05</totfact>
</mgrwt>
</event>
<event>
 8    1  0.2389776E-016  0.8027450E+02  0.7818608E-02  0.1328274E+00
         -1   -1    0    0    0  501 -0.00000000000E+00  0.00000000000E+00  0.13060545743E+02  0.13060546715E+02  0.50400000000E-02 0.  1.
          2   -1    0    0  501    0  0.00000000000E+00 -0.00000000000E+00 -0.12334850624E+03  0.12334850627E+03  0.25500000000E-02 0. -1.
         24    2    1    2    0    0  0.00000000000E+00 -0.35527136788E-14 -0.11028796050E+03  0.13640905298E+03  0.80274500961E+02 0.  0.
         66    2    3    3    0    0  0.21573387742E+02 -0.20055350913E+02 -0.10144623310E+03  0.10565493998E+03  0.19999935222E+01 0.  0.
        -13    1    3    3    0    0 -0.21573387742E+02  0.20055350913E+02 -0.88417273995E+01  0.30754112999E+02  0.10566000000E+00 0.  1.
         13    1    4    4    0    0  0.32339311113E+01 -0.38795260189E+01 -0.16966009494E+02  0.17702137576E+02  0.10566000000E+00 0. -1.
        -13    1    4    4    0    0  0.85757940673E+01 -0.72920670783E+01 -0.37497258409E+02  0.39150658211E+02  0.10566000000E+00 0.  1.
        -14    1    4    4    0    0  0.97636625631E+01 -0.88837578156E+01 -0.46982965194E+02  0.48802144194E+02  0.00000000000E+00 0.  1.
<mgrwt>
<rscale>  0 0.80274501E+02</rscale>
<asrwt>0</asrwt>
<pdfrwt beam="1">  1        2 0.18976692E-01 0.80274501E+02</pdfrwt>
<pdfrwt beam="2">  1       -1 0.20093149E-02 0.80274501E+02</pdfrwt>
<totfact> 0.18670688E+05</totfact>
</mgrwt>
</event>
<event>
 8    1  0.2389776E-016  0.8307631E+02  0.7818608E-02  0.1320541E+00
          2   -1    0    0  501    0  0.00000000000E+00  0.00000000000E+00  0.23691093450E+03  0.23691093451E+03  0.25500000000E-02 0. -1.
         -1   -1    0    0    0  501 -0.00000000000E+00 -0.00000000000E+00 -0.72829826809E+01  0.72829844248E+01  0.50400000000E-02 0.  1.
         24    2    1    2    0    0  0.00000000000E+00  0.00000000000E+00  0.22962795182E+03  0.24419391894E+03  0.83076313050E+02 0.  0.
         66    2    3    3    0    0 -0.48234228124E+01 -0.17305849404E+02  0.22488809071E+03  0.22561341091E+03  0.20000016044E+01 0.  0.
        -13    1    3    3    0    0  0.48234228124E+01  0.17305849404E+02  0.47398611034E+01  0.18580508027E+02  0.10566000000E+00 0.  1.
         13    1    4    4    0    0 -0.31961727120E+01 -0.11991034496E+02  0.15125946488E+03  0.15176770839E+03  0.10566000000E+00 0. -1.
        -13    1    4    4    0    0 -0.26657133701E+00 -0.18142678444E+00  0.54535137833E+01  0.54640600817E+01  0.10566000000E+00 0.  1.
         14    1    4    4    0    0 -0.13606787634E+01 -0.51333881229E+01  0.68175112048E+02  0.68381642442E+02  0.00000000000E+00 0. -1.
<mgrwt>
<rscale>  0 0.83076313E+02</rscale>
<asrwt>0</asrwt>
<pdfrwt beam="1">  1        2 0.36447843E-01 0.83076313E+02</pdfrwt>
<pdfrwt beam="2">  1       -1 0.11204588E-02 0.83076313E+02</pdfrwt>
<totfact> 0.21197162E+05</totfact>
</mgrwt>
</event>
<event>
 8    1  0.2389776E-016  0.7002519E+02  0.7818608E-02  0.1360007E+00
          2   -1    0    0  501    0  0.00000000000E+00  0.00000000000E+00  0.26033271260E+03  0.26033271261E+03  0.25500000000E-02 0. -1.
         -1   -1    0    0    0  501 -0.00000000000E+00 -0.00000000000E+00 -0.47089030367E+01  0.47089057339E+01  0.50400000000E-02 0.  1.
         24    2    1    2    0    0  0.00000000000E+00 -0.44408920985E-15  0.25562380956E+03  0.26504161834E+03  0.70025191467E+02 0.  0.
         66    2    3    3    0    0  0.31430370106E+02  0.39057688345E+01  0.18415181432E+03  0.18686629958E+03  0.20000020996E+01 0.  0.
        -13    1    3    3    0    0 -0.31430370106E+02 -0.39057688345E+01  0.71471995245E+02  0.78175318762E+02  0.10566000000E+00 0.  1.
         13    1    4    4    0    0  0.14626130179E+02  0.17678591778E+01  0.85526849054E+02  0.86786531693E+02  0.10566000000E+00 0. -1.
        -13    1    4    4    0    0  0.88881114912E+01  0.83327633174E+00  0.55819332513E+02  0.56528770742E+02  0.10566000000E+00 0.  1.
        -14    1    4    4    0    0  0.79161284358E+01  0.13046333249E+01  0.42805632749E+02  0.43550997148E+02  0.00000000000E+00 0.  1.
<mgrwt>
<rscale>  0 0.70025191E+02</rscale>
<asrwt>0</asrwt>
<pdfrwt beam="1">  1        2 0.40051184E-01 0.70025191E+02</pdfrwt>
<pdfrwt beam="2">  1       -1 0.72444688E-03 0.70025191E+02</pdfrwt>
<totfact> 0.34272861E+05</totfact>
</mgrwt>
</event>
<event>
 8    1  0.2389776E-016  0.7821246E+02  0.7818608E-02  0.1334202E+00
         -1   -1    0    0    0  501 -0.00000000000E+00  0.00000000000E+00  0.51034973046E+01  0.51034997932E+01  0.50400000000E-02 0.  1.
          2   -1    0    0  501    0  0.00000000000E+00 -0.00000000000E+00 -0.29965661670E+03  0.29965661671E+03  0.25500000000E-02 0. -1.
         24    2    1    2    0    0 -0.44408920985E-15  0.71054273576E-14 -0.29455311940E+03  0.30476011650E+03  0.78212457230E+02 0.  0.
         66    2    3    3    0    0 -0.14848698894E+01  0.38658366123E+02 -0.16893371812E+03  0.17331842125E+03  0.19999793811E+01 0.  0.
        -13    1    3    3    0    0  0.14848698894E+01 -0.38658366123E+02 -0.12561940128E+03  0.13144169525E+03  0.10566000000E+00 0.  1.
         13    1    4    4    0    0 -0.23632901692E+00  0.11453384361E+02 -0.46772768886E+02  0.48155362506E+02  0.10566000000E+00 0. -1.
        -13    1    4    4    0    0  0.27926211160E-01  0.57700203125E+00 -0.29120348022E+01  0.29706601862E+01  0.10566000000E+00 0. -1.
         14    1    4    4    0    0 -0.12764670837E+01  0.26627979731E+02 -0.11924891443E+03  0.12219239856E+03  0.00000000000E+00 0. -1.
<mgrwt>
<rscale>  0 0.78212457E+02</rscale>
<asrwt>0</asrwt>
<pdfrwt beam="1">  1        2 0.46101004E-01 0.78212457E+02</pdfrwt>
<pdfrwt beam="2">  1       -1 0.78515386E-03 0.78212457E+02</pdfrwt>
<totfact> 0.27037596E+05</totfact>
</mgrwt>
</event>
<event>
 8    1  0.2389776E-016  0.8245228E+02  0.7818608E-02  0.1322233E+00
         -1   -1    0    0    0  501 -0.00000000000E+00  0.00000000000E+00  0.16331180909E+01  0.16331258679E+01  0.50400000000E-02 0.  1.
          2   -1    0    0  501    0  0.00000000000E+00 -0.00000000000E+00 -0.10407028892E+04  0.10407028892E+04  0.25500000000E-02 0. -1.
         24    2    1    2    0    0 -0.88817841970E-15 -0.35527136788E-14 -0.10390697711E+04  0.10423360150E+04  0.82452283662E+02 0.  0.
         66    2    3    3    0    0  0.52770508883E+01  0.22403010321E+02 -0.95185403943E+03  0.95213436789E+03  0.20000002835E+01 0.  0.
        -13    1    3    3    0    0 -0.52770508883E+01 -0.22403010321E+02 -0.87215731644E+02  0.90201647145E+02  0.10566000000E+00 0.  1.
         13    1    4    4    0    0  0.29523119385E+01  0.11768514250E+02 -0.49706359169E+03  0.49721166460E+03  0.10566000000E+00 0. -1.
        -13    1    4    4    0    0  0.12149897914E+01  0.44868648394E+01 -0.22026739691E+03  0.22031646662E+03  0.10566000000E+00 0.  1.
         14    1    4    4    0    0  0.11097491584E+01  0.61476312320E+01 -0.23452305083E+03  0.23460623667E+03  0.00000000000E+00 0. -1.
<mgrwt>
<rscale>  0 0.82452284E+02</rscale>
<asrwt>0</asrwt>
<pdfrwt beam="1">  1        2 0.16010761E+00 0.82452284E+02</pdfrwt>
<pdfrwt beam="2">  1       -1 0.25125037E-03 0.82452284E+02</pdfrwt>
<totfact> 0.32606745E+05</totfact>
</mgrwt>
</event>
<event>
 8    1  0.2389776E-016  0.7957652E+02  0.7818608E-02  0.1330258E+00
         -1   -1    0    0    0  501 -0.00000000000E+00  0.00000000000E+00  0.86167671722E+01  0.86167686462E+01  0.50400000000E-02 0.  1.
          2   -1    0    0  501    0  0.00000000000E+00 -0.00000000000E+00 -0.18372381362E+03  0.18372381364E+03  0.25500000000E-02 0. -1.
         24    2    1    2    0    0  0.00000000000E+00  0.00000000000E+00 -0.17510704645E+03  0.19234058228E+03  0.79576515867E+02 0.  0.
         66    2    3    3    0    0 -0.12139510051E+02  0.35360830253E+02 -0.12033670980E+03  0.12602650413E+03  0.19999995052E+01 0.  0.
        -13    1    3    3    0    0  0.12139510051E+02 -0.35360830253E+02 -0.54770336647E+02  0.66314078150E+02  0.10566000000E+00 0.  1.
         13    1    4    4    0    0 -0.42298263848E+01  0.13875944720E+02 -0.44753888379E+02  0.47046306573E+02  0.10566000000E+00 0. -1.
        -13    1    4    4    0    0 -0.62788510736E+01  0.17591696621E+02 -0.62740271108E+02  0.65461779258E+02  0.10566000000E+00 0.  1.
        -14    1    4    4    0    0 -0.16308325926E+01  0.38931889124E+01 -0.12842550311E+02  0.13518418300E+02  0.00000000000E+00 0.  1.
<mgrwt>
<rscale>  0 0.79576516E+02</rscale>
<asrwt>0</asrwt>
<pdfrwt beam="1">  1        2 0.28265199E-01 0.79576516E+02</pdfrwt>
<pdfrwt beam="2">  1       -1 0.13256567E-02 0.79576516E+02</pdfrwt>
<totfact> 0.21725741E+05</totfact>
</mgrwt>
</event>
<event>
 8    1  0.2389776E-016  0.7785103E+02  0.7818608E-02  0.1335263E+00
          2   -1    0    0  501    0  0.00000000000E+00  0.00000000000E+00  0.38728775351E+03  0.38728775351E+03  0.25500000000E-02 0. -1.
         -1   -1    0    0    0  501 -0.00000000000E+00 -0.00000000000E+00 -0.39123235787E+01  0.39123268251E+01  0.50400000000E-02 0.  1.
         24    2    1    2    0    0  0.00000000000E+00  0.88817841970E-15  0.38337542993E+03  0.39120008034E+03  0.77851028161E+02 0.  0.
         66    2    3    3    0    0  0.19805083292E+02 -0.55959334812E+01  0.35768663935E+03  0.35828380896E+03  0.20000006497E+01 0.  0.
        -13    1    3    3    0    0 -0.19805083292E+02  0.55959334812E+01  0.25688790579E+02  0.32916271375E+02  0.10566000000E+00 0.  1.
         13    1    4    4    0    0  0.66035983788E+01 -0.17358618079E+01  0.12256652242E+03  0.12275660598E+03  0.10566000000E+00 0. -1.
        -13    1    4    4    0    0  0.62287456395E+01 -0.18098600083E+01  0.12410420848E+03  0.12427364400E+03  0.10566000000E+00 0.  1.
         14    1    4    4    0    0  0.69727392740E+01 -0.20502116650E+01  0.11101590844E+03  0.11125355899E+03  0.00000000000E+00 0. -1.
<mgrwt>
<rscale>  0 0.77851028E+02</rscale>
<asrwt>0</asrwt>
<pdfrwt beam="1">  1        2 0.59582735E-01 0.77851028E+02</pdfrwt>
<pdfrwt beam="2">  1       -1 0.60189615E-03 0.77851028E+02</pdfrwt>
<totfact> 0.29992419E+05</totfact>
</mgrwt>
</event>
<event>
 8    1  0.2389776E-016  0.7969422E+02  0.7818608E-02  0.1329921E+00
         -1   -1    0    0    0  501 -0.00000000000E+00  0.00000000000E+00  0.16768419880E+01  0.16768495623E+01  0.50400000000E-02 0.  1.
          2   -1    0    0  501    0  0.00000000000E+00 -0.00000000000E+00 -0.94689217932E+03  0.94689217933E+03  0.25500000000E-02 0. -1.
         24    2    1    2    0    0 -0.35527136788E-14 -0.88817841970E-15 -0.94521533733E+03  0.94856902889E+03  0.79694219575E+02 0.  0.
         66    2    3    3    0    0  0.28681522165E+02  0.64216445168E+01 -0.79271051770E+03  0.79325773371E+03  0.19999993830E+01 0.  0.
        -13    1    3    3    0    0 -0.28681522165E+02 -0.64216445168E+01 -0.15250481964E+03  0.15531129518E+03  0.10566000000E+00 0.  1.
         13    1    4    4    0    0  0.16896315604E+02  0.30225226257E+01 -0.45843356803E+03  0.45875480225E+03  0.10566000000E+00 0. -1.
        -13    1    4    4    0    0  0.18703396933E+01  0.30631543188E+00 -0.56541190604E+02  0.56573044806E+02  0.10566000000E+00 0.  1.
         14    1    4    4    0    0  0.99148668678E+01  0.30928064592E+01 -0.27773575906E+03  0.27792988665E+03  0.00000000000E+00 0. -1.
<mgrwt>
<rscale>  0 0.79694220E+02</rscale>
<asrwt>0</asrwt>
<pdfrwt beam="1">  1        2 0.14567529E+00 0.79694220E+02</pdfrwt>
<pdfrwt beam="2">  1       -1 0.25797703E-03 0.79694220E+02</pdfrwt>
<totfact> 0.35465701E+05</totfact>
</mgrwt>
</event>
<event>
 8    1  0.2389776E-016  0.7815882E+02  0.7818608E-02  0.1334359E+00
          2   -1    0    0  501    0  0.00000000000E+00  0.00000000000E+00  0.61111992859E+03  0.61111992860E+03  0.25500000000E-02 0. -1.
         -1   -1    0    0    0  501 -0.00000000000E+00 -0.00000000000E+00 -0.24990166722E+01  0.24990217546E+01  0.50400000000E-02 0.  1.
         24    2    1    2    0    0 -0.71054273576E-14  0.17763568394E-14  0.60862091192E+03  0.61361895035E+03  0.78158824229E+02 0.  0.
         66    2    3    3    0    0  0.30762481615E+02 -0.11181599911E+02  0.47176093240E+03  0.47289928716E+03  0.20000006118E+01 0.  0.
        -13    1    3    3    0    0 -0.30762481615E+02  0.11181599911E+02  0.13685997952E+03  0.14071966320E+03  0.10566000000E+00 0.  1.
         13    1    4    4    0    0  0.18704426164E+02 -0.67089449896E+01  0.29197776862E+03  0.29265319755E+03  0.10566000000E+00 0. -1.
        -13    1    4    4    0    0  0.14980004065E+01 -0.74399150557E+00  0.19282916024E+02  0.19355607534E+02  0.10566000000E+00 0.  1.
         14    1    4    4    0    0  0.10560055044E+02 -0.37286634163E+01  0.16050024775E+03  0.16089048207E+03  0.00000000000E+00 0. -1.
<mgrwt>
<rscale>  0 0.78158824E+02</rscale>
<asrwt>0</asrwt>
<pdfrwt beam="1">  1        2 0.94018450E-01 0.78158824E+02</pdfrwt>
<pdfrwt beam="2">  1       -1 0.38446450E-03 0.78158824E+02</pdfrwt>
<totfact> 0.34343271E+05</totfact>
</mgrwt>
</event>
<event>
 8    1  0.2389776E-016  0.7799045E+02  0.7818608E-02  0.1334853E+00
         -1   -1    0    0    0  501 -0.00000000000E+00  0.00000000000E+00  0.70904238415E+01  0.70904256328E+01  0.50400000000E-02 0.  1.
          2   -1    0    0  501    0  0.00000000000E+00 -0.00000000000E+00 -0.21446212940E+03  0.21446212942E+03  0.25500000000E-02 0. -1.
         24    2    1    2    0    0  0.00000000000E+00  0.11102230246E-15 -0.20737170556E+03  0.22155255505E+03  0.77990450582E+02 0.  0.
         66    2    3    3    0    0  0.35506999541E+02 -0.32938157192E+00 -0.58144998770E+02  0.68159345643E+02  0.20000019735E+01 0.  0.
        -13    1    3    3    0    0 -0.35506999541E+02  0.32938157192E+00 -0.14922670679E+03  0.15339320941E+03  0.10566000000E+00 0.  1.
         13    1    4    4    0    0  0.10758415424E+02 -0.64954602343E+00 -0.17937957503E+02  0.20927180792E+02  0.10566000000E+00 0. -1.
        -13    1    4    4    0    0  0.19157721148E+02 -0.19361293526E+00 -0.31676492054E+02  0.37019820076E+02  0.10566000000E+00 0.  1.
        -14    1    4    4    0    0  0.55908629693E+01  0.51377738676E+00 -0.85305492134E+01  0.10212344776E+02  0.00000000000E+00 0.  1.
<mgrwt>
<rscale>  0 0.77990451E+02</rscale>
<asrwt>0</asrwt>
<pdfrwt beam="1">  1        2 0.32994169E-01 0.77990451E+02</pdfrwt>
<pdfrwt beam="2">  1       -1 0.10908347E-02 0.77990451E+02</pdfrwt>
<totfact> 0.24168701E+05</totfact>
</mgrwt>
</event>
<event>
 8    1  0.2389776E-016  0.7880596E+02  0.7818608E-02  0.1332475E+00
         -1   -1    0    0    0  501 -0.00000000000E+00  0.00000000000E+00  0.63497550208E+01  0.63497570210E+01  0.50400000000E-02 0.  1.
          2   -1    0    0  501    0  0.00000000000E+00 -0.00000000000E+00 -0.24451249392E+03  0.24451249394E+03  0.25500000000E-02 0. -1.
         24    2    1    2    0    0  0.00000000000E+00  0.00000000000E+00 -0.23816273890E+03  0.25086225096E+03  0.78805956336E+02 0.  0.
         66    2    3    3    0    0  0.32063741419E+02 -0.11076073186E+02 -0.18280988111E+03  0.18594143041E+03  0.19999999182E+01 0.  0.
        -13    1    3    3    0    0 -0.32063741419E+02  0.11076073186E+02 -0.55352857792E+02  0.64920820549E+02  0.10566000000E+00 0.  1.
         13    1    4    4    0    0  0.11458524627E+02 -0.42934043786E+01 -0.67622336849E+02  0.68720613448E+02  0.10566000000E+00 0. -1.
        -13    1    4    4    0    0  0.85615427466E+01 -0.31641347453E+01 -0.51735541416E+02  0.52534647353E+02  0.10566000000E+00 0.  1.
         14    1    4    4    0    0  0.12043674045E+02 -0.36185340619E+01 -0.63452002848E+02  0.64686169609E+02  0.00000000000E+00 0. -1.
<mgrwt>
<rscale>  0 0.78805956E+02</rscale>
<asrwt>0</asrwt>
<pdfrwt beam="1">  1        2 0.37617300E-01 0.78805956E+02</pdfrwt>
<pdfrwt beam="2">  1       -1 0.97688573E-03 0.78805956E+02</pdfrwt>
<totfact> 0.24634071E+05</totfact>
</mgrwt>
</event>
<event>
 8    1  0.2389776E-016  0.7968213E+02  0.7818608E-02  0.1329956E+00
         -1   -1    0    0    0  501 -0.00000000000E+00  0.00000000000E+00  0.42098638727E+02  0.42098639029E+02  0.50400000000E-02 0.  1.
          2   -1    0    0  501    0  0.00000000000E+00 -0.00000000000E+00 -0.37704553979E+02  0.37704554066E+02  0.25500000000E-02 0. -1.
         24    2    1    2    0    0  0.00000000000E+00  0.71054273576E-14  0.43940847479E+01  0.79803193095E+02  0.79682128783E+02 0.  0.
         66    2    3    3    0    0 -0.16051266992E+02 -0.35190148510E+02 -0.72666368315E+01  0.39405503606E+02  0.19999948458E+01 0.  0.
        -13    1    3    3    0    0  0.16051266992E+02  0.35190148510E+02  0.11660721579E+02  0.40397689489E+02  0.10566000000E+00 0.  1.
         13    1    4    4    0    0 -0.56535408779E+00 -0.18049114138E+01 -0.34298708081E+00  0.19251323668E+01  0.10566000000E+00 0. -1.
        -13    1    4    4    0    0 -0.13550159724E+00 -0.28378757835E+00  0.40341893095E-01  0.33419691264E+00  0.10566000000E+00 0.  1.
         14    1    4    4    0    0 -0.15350411307E+02 -0.33101449518E+02 -0.69639916438E+01  0.37146174327E+02  0.00000000000E+00 0. -1.
<mgrwt>
<rscale>  0 0.79682129E+02</rscale>
<asrwt>0</asrwt>
<pdfrwt beam="1">  1        2 0.58007006E-02 0.79682129E+02</pdfrwt>
<pdfrwt beam="2">  1       -1 0.64767137E-02 0.79682129E+02</pdfrwt>
<totfact> 0.14240338E+05</totfact>
</mgrwt>
</event>
<event>
 8    1  0.2389776E-016  0.8353079E+02  0.7818608E-02  0.1319320E+00
         -1   -1    0    0    0  501 -0.00000000000E+00  0.00000000000E+00  0.28993271341E+02  0.28993271779E+02  0.50400000000E-02 0.  1.
          2   -1    0    0  501    0  0.00000000000E+00 -0.00000000000E+00 -0.60163893948E+02  0.60163894002E+02  0.25500000000E-02 0. -1.
         24    2    1    2    0    0  0.00000000000E+00 -0.35527136788E-14 -0.31170622607E+02  0.89157165781E+02  0.83530787715E+02 0.  0.
         66    2    3    3    0    0  0.21473819472E+01 -0.21157305874E+02 -0.53931510949E+02  0.58007333627E+02  0.20000100639E+01 0.  0.
        -13    1    3    3    0    0 -0.21473819472E+01  0.21157305874E+02  0.22760888341E+02  0.31149832153E+02  0.10566000000E+00 0.  1.
         13    1    4    4    0    0  0.10732104950E+01 -0.11336182224E+02 -0.29831750155E+02  0.31931258815E+02  0.10566000000E+00 0. -1.
        -13    1    4    4    0    0 -0.14273644627E+00 -0.26973561883E+01 -0.74603309606E+01  0.79349736091E+01  0.10566000000E+00 0.  1.
        -14    1    4    4    0    0  0.12169078985E+01 -0.71237674613E+01 -0.16639429833E+02  0.18141101203E+02  0.00000000000E+00 0.  1.
<mgrwt>
<rscale>  0 0.83530788E+02</rscale>
<asrwt>0</asrwt>
<pdfrwt beam="1">  1        2 0.92559837E-02 0.83530788E+02</pdfrwt>
<pdfrwt beam="2">  1       -1 0.44605033E-02 0.83530788E+02</pdfrwt>
<totfact> 0.13844412E+05</totfact>
</mgrwt>
</event>
<event>
 8    1  0.2389776E-016  0.8025673E+02  0.7818608E-02  0.1328324E+00
          2   -1    0    0  501    0  0.00000000000E+00  0.00000000000E+00  0.13073246634E+04  0.13073246634E+04  0.25500000000E-02 0. -1.
         -1   -1    0    0    0  501 -0.00000000000E+00 -0.00000000000E+00 -0.12317359517E+01  0.12317462630E+01  0.50400000000E-02 0.  1.
         24    2    1    2    0    0  0.88817841970E-15 -0.17763568394E-14  0.13060929274E+04  0.13085564096E+04  0.80256726484E+02 0.  0.
         66    2    3    3    0    0 -0.44808733013E+01 -0.15833819822E+02  0.12497397231E+04  0.12498496564E+04  0.20000004850E+01 0.  0.
        -13    1    3    3    0    0  0.44808733013E+01  0.15833819822E+02  0.56353204262E+02  0.58706753192E+02  0.10566000000E+00 0.  1.
         13    1    4    4    0    0 -0.79163334796E+00 -0.29490737606E+01  0.23416789228E+03  0.23418782347E+03  0.10566000000E+00 0. -1.
        -13    1    4    4    0    0 -0.28062560973E+01 -0.10616766473E+02  0.77732300400E+03  0.77740057533E+03  0.10566000000E+00 0.  1.
        -14    1    4    4    0    0 -0.88298385602E+00 -0.22679795882E+01  0.23824882685E+03  0.23826125763E+03  0.00000000000E+00 0.  1.
<mgrwt>
<rscale>  0 0.80256726E+02</rscale>
<asrwt>0</asrwt>
<pdfrwt beam="1">  1        2 0.20112710E+00 0.80256726E+02</pdfrwt>
<pdfrwt beam="2">  1       -1 0.18949842E-03 0.80256726E+02</pdfrwt>
<totfact> 0.34292096E+05</totfact>
</mgrwt>
</event>
<event>
 8    1  0.2389776E-016  0.7622152E+02  0.7818608E-02  0.1340130E+00
         -1   -1    0    0    0  501 -0.00000000000E+00  0.00000000000E+00  0.13626700726E+02  0.13626701658E+02  0.50400000000E-02 0.  1.
          2   -1    0    0  501    0  0.00000000000E+00 -0.00000000000E+00 -0.10658706915E+03  0.10658706918E+03  0.25500000000E-02 0. -1.
         24    2    1    2    0    0  0.00000000000E+00  0.00000000000E+00 -0.92960368423E+02  0.12021377084E+03  0.76221523216E+02 0.  0.
         66    2    3    3    0    0 -0.16819512057E+02  0.19535416507E+02 -0.90726049342E+02  0.94338457704E+02  0.20000221656E+01 0.  0.
        -13    1    3    3    0    0  0.16819512057E+02 -0.19535416507E+02 -0.22343190802E+01  0.25875313133E+02  0.10566000000E+00 0.  1.
         13    1    4    4    0    0 -0.79913270673E+01  0.96980232584E+01 -0.42746783995E+02  0.44555714216E+02  0.10566000000E+00 0. -1.
        -13    1    4    4    0    0 -0.25428655386E+01  0.20428280138E+01 -0.11452241508E+02  0.11908161530E+02  0.10566000000E+00 0.  1.
        -14    1    4    4    0    0 -0.62853194509E+01  0.77945652350E+01 -0.36527023840E+02  0.37874581957E+02  0.00000000000E+00 0.  1.
<mgrwt>
<rscale>  0 0.76221523E+02</rscale>
<asrwt>0</asrwt>
<pdfrwt beam="1">  1        2 0.16398010E-01 0.76221523E+02</pdfrwt>
<pdfrwt beam="2">  1       -1 0.20964156E-02 0.76221523E+02</pdfrwt>
<totfact> 0.20535006E+05</totfact>
</mgrwt>
</event>
<event>
 8    1  0.2389776E-016  0.7969340E+02  0.7818608E-02  0.1329924E+00
          2   -1    0    0  501    0  0.00000000000E+00  0.00000000000E+00  0.28159520107E+03  0.28159520108E+03  0.25500000000E-02 0. -1.
         -1   -1    0    0    0  501 -0.00000000000E+00 -0.00000000000E+00 -0.56384452784E+01  0.56384475309E+01  0.50400000000E-02 0.  1.
         24    2    1    2    0    0  0.00000000000E+00  0.00000000000E+00  0.27595675579E+03  0.28723364861E+03  0.79693398899E+02 0.  0.
         66    2    3    3    0    0 -0.13159640187E+02 -0.31849481472E+02  0.20998633866E+03  0.21280467105E+03  0.19999996646E+01 0.  0.
        -13    1    3    3    0    0  0.13159640187E+02  0.31849481472E+02  0.65970417132E+02  0.74428977559E+02  0.10566000000E+00 0.  1.
         13    1    4    4    0    0 -0.10513357298E+02 -0.25711749570E+02  0.17099329651E+03  0.17323493690E+03  0.10566000000E+00 0. -1.
        -13    1    4    4    0    0 -0.24572561543E+01 -0.49587832324E+01  0.32414679900E+02  0.32883890828E+02  0.10566000000E+00 0.  1.
        -14    1    4    4    0    0 -0.18902673469E+00 -0.11789486694E+01  0.65783622455E+01  0.66858433203E+01  0.00000000000E+00 0.  1.
<mgrwt>
<rscale>  0 0.79693399E+02</rscale>
<asrwt>0</asrwt>
<pdfrwt beam="1">  1        2 0.43322340E-01 0.79693399E+02</pdfrwt>
<pdfrwt beam="2">  1       -1 0.86745326E-03 0.79693399E+02</pdfrwt>
<totfact> 0.25168697E+05</totfact>
</mgrwt>
</event>
<event>
 8    1  0.2389776E-016  0.8148333E+02  0.7818608E-02  0.1324894E+00
         -1   -1    0    0    0  501 -0.00000000000E+00  0.00000000000E+00  0.20785303442E+02  0.20785304053E+02  0.50400000000E-02 0.  1.
          2   -1    0    0  501    0  0.00000000000E+00 -0.00000000000E+00 -0.79858510033E+02  0.79858510074E+02  0.25500000000E-02 0. -1.
         24    2    1    2    0    0  0.00000000000E+00 -0.35527136788E-14 -0.59073206591E+02  0.10064381413E+03  0.81483333174E+02 0.  0.
         66    2    3    3    0    0  0.23768420412E+01  0.22457138031E+02 -0.71402035294E+02  0.74914772018E+02  0.19999989588E+01 0.  0.
        -13    1    3    3    0    0 -0.23768420412E+01 -0.22457138031E+02  0.12328828702E+02  0.25729042109E+02  0.10566000000E+00 0.  1.
         13    1    4    4    0    0  0.10740488549E+01  0.13976009350E+02 -0.46194237571E+02  0.48274228809E+02  0.10566000000E+00 0.  1.
        -13    1    4    4    0    0  0.50655200158E-01  0.26248148363E+00 -0.57810974590E+00  0.64562945445E+00  0.10566000000E+00 0. -1.
         14    1    4    4    0    0  0.12521379861E+01  0.82186471968E+01 -0.24629687977E+02  0.25994913755E+02  0.00000000000E+00 0. -1.
<mgrwt>
<rscale>  0 0.81483333E+02</rscale>
<asrwt>0</asrwt>
<pdfrwt beam="1">  1        2 0.12285924E-01 0.81483333E+02</pdfrwt>
<pdfrwt beam="2">  1       -1 0.31977391E-02 0.81483333E+02</pdfrwt>
<totfact> 0.15880717E+05</totfact>
</mgrwt>
</event>
<event>
 8    1  0.2389776E-016  0.7817960E+02  0.7818608E-02  0.1334298E+00
          2   -1    0    0  501    0  0.00000000000E+00  0.00000000000E+00  0.51253481992E+03  0.51253481992E+03  0.25500000000E-02 0. -1.
         -1   -1    0    0    0  501 -0.00000000000E+00 -0.00000000000E+00 -0.29812826996E+01  0.29812869598E+01  0.50400000000E-02 0.  1.
         24    2    1    2    0    0  0.17763568394E-14 -0.35527136788E-14  0.50955353722E+03  0.51551610688E+03  0.78179595581E+02 0.  0.
         66    2    3    3    0    0 -0.15665599968E+02 -0.18483276436E+02  0.45699984603E+03  0.45764604423E+03  0.19999990828E+01 0.  0.
        -13    1    3    3    0    0  0.15665599968E+02  0.18483276436E+02  0.52553691184E+02  0.57870062651E+02  0.10566000000E+00 0.  1.
         13    1    4    4    0    0 -0.47612146520E+01 -0.48237079832E+01  0.12426408580E+03  0.12444883088E+03  0.10566000000E+00 0. -1.
        -13    1    4    4    0    0 -0.45821594877E-01 -0.16812933736E+00  0.50793480300E+01  0.50834346202E+01  0.10566000000E+00 0. -1.
        -14    1    4    4    0    0 -0.10858563721E+02 -0.13491439115E+02  0.32765641221E+03  0.32811377873E+03  0.00000000000E+00 0.  1.
<mgrwt>
<rscale>  0 0.78179596E+02</rscale>
<asrwt>0</asrwt>
<pdfrwt beam="1">  1        2 0.78851557E-01 0.78179596E+02</pdfrwt>
<pdfrwt beam="2">  1       -1 0.45865894E-03 0.78179596E+02</pdfrwt>
<totfact> 0.32585621E+05</totfact>
</mgrwt>
</event>
<event>
 8    1  0.2389776E-016  0.8250556E+02  0.7818608E-02  0.1322088E+00
         -1   -1    0    0    0  501 -0.00000000000E+00  0.00000000000E+00  0.68189455053E+01  0.68189473678E+01  0.50400000000E-02 0.  1.
          2   -1    0    0  501    0  0.00000000000E+00 -0.00000000000E+00 -0.24956812525E+03  0.24956812526E+03  0.25500000000E-02 0. -1.
         24    2    1    2    0    0  0.00000000000E+00 -0.88817841970E-15 -0.24274917975E+03  0.25638707263E+03  0.82505555846E+02 0.  0.
         66    2    3    3    0    0 -0.20457294310E+02  0.77347610000E+01 -0.23005136375E+03  0.23109728985E+03  0.19999983885E+01 0.  0.
        -13    1    3    3    0    0  0.20457294310E+02 -0.77347610000E+01 -0.12697815998E+02  0.25289782786E+02  0.10566000000E+00 0.  1.
         13    1    4    4    0    0 -0.90446562664E+01  0.42879826262E+01 -0.10106959226E+03  0.10156409920E+03  0.10566000000E+00 0. -1.
        -13    1    4    4    0    0 -0.65523031916E+01  0.16507774143E+01 -0.72940795812E+02  0.73253181507E+02  0.10566000000E+00 0.  1.
         14    1    4    4    0    0 -0.48603348523E+01  0.17960009596E+01 -0.56040975674E+02  0.56280009141E+02  0.00000000000E+00 0. -1.
<mgrwt>
<rscale>  0 0.82505556E+02</rscale>
<asrwt>0</asrwt>
<pdfrwt beam="1">  1        2 0.38395089E-01 0.82505556E+02</pdfrwt>
<pdfrwt beam="2">  1       -1 0.10490689E-02 0.82505556E+02</pdfrwt>
<totfact> 0.21993144E+05</totfact>
</mgrwt>
</event>
<event>
 8    1  0.2389776E-016  0.7007041E+02  0.7818608E-02  0.1359854E+00
          2   -1    0    0  501    0  0.00000000000E+00  0.00000000000E+00  0.58207528213E+03  0.58207528214E+03  0.25500000000E-02 0. -1.
         -1   -1    0    0    0  501 -0.00000000000E+00 -0.00000000000E+00 -0.21087716135E+01  0.21087776364E+01  0.50400000000E-02 0.  1.
         24    2    1    2    0    0 -0.35527136788E-14  0.00000000000E+00  0.57996651052E+03  0.58418405977E+03  0.70070410096E+02 0.  0.
         66    2    3    3    0    0 -0.16535486575E+02  0.10176229404E+02  0.53306798705E+03  0.53342521199E+03  0.20000010628E+01 0.  0.
        -13    1    3    3    0    0  0.16535486575E+02 -0.10176229404E+02  0.46898523468E+02  0.50758847787E+02  0.10566000000E+00 0.  1.
         13    1    4    4    0    0 -0.71873029497E+01  0.45145165067E+01  0.25301683517E+03  0.25315917567E+03  0.10566000000E+00 0. -1.
        -13    1    4    4    0    0 -0.22696306979E+01  0.18703001957E+01  0.75212005893E+02  0.75269557198E+02  0.10566000000E+00 0.  1.
         14    1    4    4    0    0 -0.70785529272E+01  0.37914127012E+01  0.20483914598E+03  0.20499647911E+03  0.00000000000E+00 0. -1.
<mgrwt>
<rscale>  0 0.70070410E+02</rscale>
<asrwt>0</asrwt>
<pdfrwt beam="1">  1        2 0.89550143E-01 0.70070410E+02</pdfrwt>
<pdfrwt beam="2">  1       -1 0.32442651E-03 0.70070410E+02</pdfrwt>
<totfact> 0.44916328E+05</totfact>
</mgrwt>
</event>
<event>
 8    1  0.2389776E-016  0.7976590E+02  0.7818608E-02  0.1329717E+00
          2   -1    0    0  501    0  0.00000000000E+00  0.00000000000E+00  0.11371087136E+02  0.11371087422E+02  0.25500000000E-02 0. -1.
         -1   -1    0    0    0  501 -0.00000000000E+00 -0.00000000000E+00 -0.13988545601E+03  0.13988545610E+03  0.50400000000E-02 0.  1.
         24    2    1    2    0    0  0.00000000000E+00  0.00000000000E+00 -0.12851436887E+03  0.15125654352E+03  0.79765900931E+02 0.  0.
         66    2    3    3    0    0  0.20190904375E+02  0.14540707048E+02 -0.52529258179E+01  0.25508782950E+02  0.19999992459E+01 0.  0.
        -13    1    3    3    0    0 -0.20190904375E+02 -0.14540707048E+02 -0.12326144305E+03  0.12574776057E+03  0.10566000000E+00 0.  1.
         13    1    4    4    0    0  0.56808111906E+01  0.39108764061E+01 -0.83626518789E+00  0.69481705180E+01  0.10566000000E+00 0. -1.
        -13    1    4    4    0    0  0.53522093975E+00  0.54003583987E+00 -0.38498167521E+00  0.85876369773E+00  0.10566000000E+00 0.  1.
         14    1    4    4    0    0  0.13974872245E+02  0.10089794802E+02 -0.40316789548E+01  0.17701848734E+02  0.00000000000E+00 0. -1.
<mgrwt>
<rscale>  0 0.79765901E+02</rscale>
<asrwt>0</asrwt>
<pdfrwt beam="1">  1        2 0.17493981E-02 0.79765901E+02</pdfrwt>
<pdfrwt beam="2">  1       -1 0.21520838E-01 0.79765901E+02</pdfrwt>
<totfact> 0.11058936E+05</totfact>
</mgrwt>
</event>
<event>
 8    1  0.2389776E-016  0.7949485E+02  0.7818608E-02  0.1330491E+00
         -1   -1    0    0    0  501 -0.00000000000E+00  0.00000000000E+00  0.13003101073E+02  0.13003102050E+02  0.50400000000E-02 0.  1.
          2   -1    0    0  501    0  0.00000000000E+00 -0.00000000000E+00 -0.12149853892E+03  0.12149853895E+03  0.25500000000E-02 0. -1.
         24    2    1    2    0    0  0.00000000000E+00  0.00000000000E+00 -0.10849543785E+03  0.13450164100E+03  0.79494851388E+02 0.  0.
         66    2    3    3    0    0 -0.29046661493E+02 -0.87825081482E+01 -0.97650539923E+02  0.10227643397E+03  0.20000010661E+01 0.  0.
        -13    1    3    3    0    0  0.29046661493E+02  0.87825081482E+01 -0.10844897926E+02  0.32225207033E+02  0.10566000000E+00 0.  1.
         13    1    4    4    0    0 -0.85143072715E+01 -0.31727795406E+01 -0.30008785764E+02  0.31354399139E+02  0.10566000000E+00 0. -1.
        -13    1    4    4    0    0 -0.38621805872E+00 -0.66744735984E-01 -0.93358172230E+00  0.10180167565E+01  0.10566000000E+00 0. -1.
         14    1    4    4    0    0 -0.20146136163E+02 -0.55429838716E+01 -0.66708172436E+02  0.69904018069E+02  0.00000000000E+00 0. -1.
<mgrwt>
<rscale>  0 0.79494851E+02</rscale>
<asrwt>0</asrwt>
<pdfrwt beam="1">  1        2 0.18692082E-01 0.79494851E+02</pdfrwt>
<pdfrwt beam="2">  1       -1 0.20004773E-02 0.79494851E+02</pdfrwt>
<totfact> 0.19075508E+05</totfact>
</mgrwt>
</event>
<event>
 8    1  0.2968374E-016  0.8010328E+02  0.7818608E-02  0.1328759E+00
          2   -1    0    0  501    0  0.00000000000E+00  0.00000000000E+00  0.39013039952E+03  0.39013039953E+03  0.25500000000E-02 0. -1.
         -1   -1    0    0    0  501 -0.00000000000E+00 -0.00000000000E+00 -0.41117877713E+01  0.41117908602E+01  0.50400000000E-02 0.  1.
         24    2    1    2    0    0  0.35527136788E-14 -0.35527136788E-14  0.38601861175E+03  0.39424219039E+03  0.80103283740E+02 0.  0.
         66    2    3    3    0    0  0.20681240184E+02  0.17317603832E+02  0.33867407481E+03  0.33975247173E+03  0.19999990924E+01 0.  0.
        -13    1    3    3    0    0 -0.20681240184E+02 -0.17317603832E+02  0.47344536931E+02  0.54489718657E+02  0.10566000000E+00 0.  1.
         13    1    4    4    0    0  0.33073338466E+00  0.28481550456E+00  0.63939443961E+01  0.64096952673E+01  0.10566000000E+00 0. -1.
        -13    1    4    4    0    0  0.15409945082E+01  0.18601917440E+01  0.33151109980E+02  0.33239167173E+02  0.10566000000E+00 0.  1.
         14    1    4    4    0    0  0.18809512291E+02  0.15172596584E+02  0.29912902044E+03  0.30010360929E+03  0.00000000000E+00 0. -1.
<mgrwt>
<rscale>  0 0.80103284E+02</rscale>
<asrwt>0</asrwt>
<pdfrwt beam="1">  1        2 0.60020070E-01 0.80103284E+02</pdfrwt>
<pdfrwt beam="2">  1       -1 0.63258288E-03 0.80103284E+02</pdfrwt>
<totfact> 0.27912888E+05</totfact>
</mgrwt>
</event>
<event>
 8    1  0.2389776E-016  0.8040779E+02  0.7818608E-02  0.1327898E+00
          2   -1    0    0  501    0  0.00000000000E+00  0.00000000000E+00  0.24007440472E+03  0.24007440474E+03  0.25500000000E-02 0. -1.
         -1   -1    0    0    0  501 -0.00000000000E+00 -0.00000000000E+00 -0.67327174520E+01  0.67327193384E+01  0.50400000000E-02 0.  1.
         24    2    1    2    0    0  0.35527136788E-14  0.00000000000E+00  0.23334168727E+03  0.24680712407E+03  0.80407794869E+02 0.  0.
         66    2    3    3    0    0  0.23738176066E+02  0.18280158822E+01  0.21608593304E+03  0.21740278999E+03  0.19999977901E+01 0.  0.
        -13    1    3    3    0    0 -0.23738176066E+02 -0.18280158822E+01  0.17255754228E+02  0.29404334085E+02  0.10566000000E+00 0.  1.
         13    1    4    4    0    0  0.52003148894E+01  0.34416507176E+00  0.48528705463E+02  0.48807869678E+02  0.10566000000E+00 0. -1.
        -13    1    4    4    0    0  0.42608371939E+01  0.10662425328E+01  0.39723933788E+02  0.39966156763E+02  0.10566000000E+00 0.  1.
         14    1    4    4    0    0  0.14277023982E+02  0.41760827766E+00  0.12783329379E+03  0.12862876355E+03  0.00000000000E+00 0. -1.
<mgrwt>
<rscale>  0 0.80407795E+02</rscale>
<asrwt>0</asrwt>
<pdfrwt beam="1">  1        2 0.36934515E-01 0.80407795E+02</pdfrwt>
<pdfrwt beam="2">  1       -1 0.10358031E-02 0.80407795E+02</pdfrwt>
<totfact> 0.23212510E+05</totfact>
</mgrwt>
</event>
<event>
 8    1  0.2389776E-016  0.8014711E+02  0.7818608E-02  0.1328634E+00
         -1   -1    0    0    0  501 -0.00000000000E+00  0.00000000000E+00  0.52060798158E+01  0.52060822554E+01  0.50400000000E-02 0.  1.
          2   -1    0    0  501    0  0.00000000000E+00 -0.00000000000E+00 -0.30846424214E+03  0.30846424215E+03  0.25500000000E-02 0. -1.
         24    2    1    2    0    0  0.00000000000E+00  0.00000000000E+00 -0.30325816232E+03  0.31367032440E+03  0.80147110969E+02 0.  0.
         66    2    3    3    0    0  0.38413490243E+02  0.23186144654E+01 -0.10833381152E+03  0.11498342019E+03  0.19999987237E+01 0.  0.
        -13    1    3    3    0    0 -0.38413490243E+02 -0.23186144654E+01 -0.19492435080E+03  0.19868690421E+03  0.10566000000E+00 0.  1.
         13    1    4    4    0    0  0.90504884565E+01  0.89140182296E+00 -0.25776431936E+02  0.27333890062E+02  0.10566000000E+00 0. -1.
        -13    1    4    4    0    0  0.12878942898E+02 -0.14693556086E+00 -0.35794009291E+02  0.38040912521E+02  0.10566000000E+00 0.  1.
        -14    1    4    4    0    0  0.16484058888E+02  0.15741482033E+01 -0.46763370292E+02  0.49608617609E+02  0.00000000000E+00 0.  1.
<mgrwt>
<rscale>  0 0.80147111E+02</rscale>
<asrwt>0</asrwt>
<pdfrwt beam="1">  1        2 0.47456023E-01 0.80147111E+02</pdfrwt>
<pdfrwt beam="2">  1       -1 0.80093579E-03 0.80147111E+02</pdfrwt>
<totfact> 0.25628746E+05</totfact>
</mgrwt>
</event>
<event>
 8    1  0.2389776E-016  0.8149409E+02  0.7818608E-02  0.1324864E+00
         -1   -1    0    0    0  501 -0.00000000000E+00  0.00000000000E+00  0.71182791798E+01  0.71182809641E+01  0.50400000000E-02 0.  1.
          2   -1    0    0  501    0  0.00000000000E+00 -0.00000000000E+00 -0.23324759888E+03  0.23324759889E+03  0.25500000000E-02 0. -1.
         24    2    1    2    0    0  0.00000000000E+00 -0.17763568394E-14 -0.22612931970E+03  0.24036587985E+03  0.81494091637E+02 0.  0.
         66    2    3    3    0    0 -0.34051958648E+02  0.14964247990E+02 -0.16203114911E+03  0.16625750487E+03  0.20000098334E+01 0.  0.
        -13    1    3    3    0    0  0.34051958648E+02 -0.14964247990E+02 -0.64098170586E+02  0.74108374980E+02  0.10566000000E+00 0.  1.
         13    1    4    4    0    0 -0.16242179994E+02  0.65903255483E+01 -0.78352049780E+02  0.80288826561E+02  0.10566000000E+00 0. -1.
        -13    1    4    4    0    0 -0.10784055108E+02  0.53168158131E+01 -0.49089371424E+02  0.50540497878E+02  0.10566000000E+00 0.  1.
        -14    1    4    4    0    0 -0.70257235460E+01  0.30571066287E+01 -0.34589727905E+02  0.35428180433E+02  0.00000000000E+00 0.  1.
<mgrwt>
<rscale>  0 0.81494092E+02</rscale>
<asrwt>0</asrwt>
<pdfrwt beam="1">  1        2 0.35884240E-01 0.81494092E+02</pdfrwt>
<pdfrwt beam="2">  1       -1 0.10951202E-02 0.81494092E+02</pdfrwt>
<totfact> 0.22176835E+05</totfact>
</mgrwt>
</event>
<event>
 8    1  0.2389776E-016  0.8082772E+02  0.7818608E-02  0.1326719E+00
         -1   -1    0    0    0  501 -0.00000000000E+00  0.00000000000E+00  0.36388517905E+01  0.36388552809E+01  0.50400000000E-02 0.  1.
          2   -1    0    0  501    0  0.00000000000E+00 -0.00000000000E+00 -0.44884464854E+03  0.44884464855E+03  0.25500000000E-02 0. -1.
         24    2    1    2    0    0  0.00000000000E+00  0.44408920985E-15 -0.44520579675E+03  0.45248350383E+03  0.80827716640E+02 0.  0.
         66    2    3    3    0    0  0.25919147149E+02 -0.33187889829E+01 -0.39514449757E+03  0.39601261408E+03  0.20000006933E+01 0.  0.
        -13    1    3    3    0    0 -0.25919147149E+02  0.33187889829E+01 -0.50061299186E+02  0.56470889752E+02  0.10566000000E+00 0.  1.
         13    1    4    4    0    0  0.13254007252E+02 -0.22175768361E+01 -0.21224867441E+03  0.21267368739E+03  0.10566000000E+00 0. -1.
        -13    1    4    4    0    0  0.19590995072E+01  0.10601332296E+00 -0.28596566269E+02  0.28663985698E+02  0.10566000000E+00 0.  1.
         14    1    4    4    0    0  0.10706040390E+02 -0.12072254698E+01 -0.15429925689E+03  0.15467494099E+03  0.00000000000E+00 0. -1.
<mgrwt>
<rscale>  0 0.80827717E+02</rscale>
<asrwt>0</asrwt>
<pdfrwt beam="1">  1        2 0.69052979E-01 0.80827717E+02</pdfrwt>
<pdfrwt beam="2">  1       -1 0.55982398E-03 0.80827717E+02</pdfrwt>
<totfact> 0.28613871E+05</totfact>
</mgrwt>
</event>
<event>
 8    1  0.2389776E-016  0.8016858E+02  0.7818608E-02  0.1328574E+00
          2   -1    0    0  501    0  0.00000000000E+00  0.00000000000E+00  0.10934370935E+02  0.10934371233E+02  0.25500000000E-02 0. -1.
         -1   -1    0    0    0  501 -0.00000000000E+00 -0.00000000000E+00 -0.14694492304E+03  0.14694492313E+03  0.50400000000E-02 0.  1.
         24    2    1    2    0    0  0.35527136788E-14 -0.22204460493E-15 -0.13601055211E+03  0.15787929436E+03  0.80168580526E+02 0.  0.
         66    2    3    3    0    0 -0.31580923720E+02  0.16494626856E+01 -0.19621308960E+02  0.37270245967E+02  0.19999997354E+01 0.  0.
        -13    1    3    3    0    0  0.31580923720E+02 -0.16494626856E+01 -0.11638924315E+03  0.12060904839E+03  0.10566000000E+00 0.  1.
         13    1    4    4    0    0 -0.25118647374E+02  0.16489961416E+01 -0.15835410767E+02  0.29739486081E+02  0.10566000000E+00 0. -1.
        -13    1    4    4    0    0 -0.35246986600E+01  0.11111141704E+00 -0.24894526511E+01  0.43179144189E+01  0.10566000000E+00 0.  1.
        -14    1    4    4    0    0 -0.29375776862E+01 -0.11064487310E+00 -0.12964455425E+01  0.32128454670E+01  0.00000000000E+00 0.  1.
<mgrwt>
<rscale>  0 0.80168581E+02</rscale>
<asrwt>0</asrwt>
<pdfrwt beam="1">  1        2 0.16822110E-02 0.80168581E+02</pdfrwt>
<pdfrwt beam="2">  1       -1 0.22606910E-01 0.80168581E+02</pdfrwt>
<totfact> 0.10786184E+05</totfact>
</mgrwt>
</event>
<event>
 8    1  0.2389776E-016  0.7918091E+02  0.7818608E-02  0.1331392E+00
         -1   -1    0    0    0  501 -0.00000000000E+00  0.00000000000E+00  0.64100126575E+02  0.64100126773E+02  0.50400000000E-02 0.  1.
          2   -1    0    0  501    0  0.00000000000E+00 -0.00000000000E+00 -0.24452433147E+02  0.24452433280E+02  0.25500000000E-02 0. -1.
         24    2    1    2    0    0  0.00000000000E+00  0.35527136788E-14  0.39647693427E+02  0.88552560053E+02  0.79180908671E+02 0.  0.
         66    2    3    3    0    0 -0.32071226776E+02  0.23162754419E+02  0.19201503398E+02  0.44020160275E+02  0.19999996708E+01 0.  0.
        -13    1    3    3    0    0  0.32071226776E+02 -0.23162754419E+02  0.20446190029E+02  0.44532399778E+02  0.10566000000E+00 0.  1.
         13    1    4    4    0    0 -0.29629939802E+02  0.21444711001E+02  0.17734895385E+02  0.40649066913E+02  0.10566000000E+00 0. -1.
        -13    1    4    4    0    0 -0.61235244313E+00  0.64708712029E+00  0.26846227146E+00  0.93644715956E+00  0.10566000000E+00 0.  1.
         14    1    4    4    0    0 -0.18289345315E+01  0.10709562984E+01  0.11981457417E+01  0.24346462026E+01  0.00000000000E+00 0. -1.
<mgrwt>
<rscale>  0 0.79180909E+02</rscale>
<asrwt>0</asrwt>
<pdfrwt beam="1">  1        2 0.37619128E-02 0.79180909E+02</pdfrwt>
<pdfrwt beam="2">  1       -1 0.98615580E-02 0.79180909E+02</pdfrwt>
<totfact> 0.13306051E+05</totfact>
</mgrwt>
</event>
<event>
 8    1  0.2389776E-016  0.8443277E+02  0.7818608E-02  0.1316923E+00
          2   -1    0    0  501    0  0.00000000000E+00  0.00000000000E+00  0.13370798584E+04  0.13370798584E+04  0.25500000000E-02 0. -1.
         -1   -1    0    0    0  501 -0.00000000000E+00 -0.00000000000E+00 -0.13329172053E+01  0.13329267338E+01  0.50400000000E-02 0.  1.
         24    2    1    2    0    0  0.00000000000E+00 -0.35527136788E-14  0.13357469412E+04  0.13384127851E+04  0.84432769142E+02 0.  0.
         66    2    3    3    0    0 -0.70033520858E+01 -0.25890919663E+02  0.11845472970E+04  0.11848526007E+04  0.20000010211E+01 0.  0.
        -13    1    3    3    0    0  0.70033520858E+01  0.25890919663E+02  0.15119964425E+03  0.15356018445E+03  0.10566000000E+00 0.  1.
         13    1    4    4    0    0 -0.14104739432E+01 -0.60630591021E+01  0.28063023591E+03  0.28069928855E+03  0.10566000000E+00 0. -1.
        -13    1    4    4    0    0 -0.25574857006E+01 -0.83811382490E+01  0.41947867023E+03  0.41957019693E+03  0.10566000000E+00 0.  1.
        -14    1    4    4    0    0 -0.30353924420E+01 -0.11446722312E+02  0.48443839081E+03  0.48458311522E+03  0.00000000000E+00 0.  1.
<mgrwt>
<rscale>  0 0.84432769E+02</rscale>
<asrwt>0</asrwt>
<pdfrwt beam="1">  1        2 0.20570460E+00 0.84432769E+02</pdfrwt>
<pdfrwt beam="2">  1       -1 0.20506491E-03 0.84432769E+02</pdfrwt>
<totfact> 0.29903554E+05</totfact>
</mgrwt>
</event>
<event>
 8    1  0.2389776E-016  0.8073014E+02  0.7818608E-02  0.1326992E+00
          2   -1    0    0  501    0  0.00000000000E+00  0.00000000000E+00  0.47471768846E+01  0.47471775695E+01  0.25500000000E-02 0. -1.
         -1   -1    0    0    0  501 -0.00000000000E+00 -0.00000000000E+00 -0.34322271272E+03  0.34322271276E+03  0.50400000000E-02 0.  1.
         24    2    1    2    0    0  0.00000000000E+00 -0.71054273576E-14 -0.33847553584E+03  0.34796989033E+03  0.80730144400E+02 0.  0.
         66    2    3    3    0    0  0.95786523041E+01  0.37571481343E+02 -0.12135037970E+03  0.12740989536E+03  0.19999978089E+01 0.  0.
        -13    1    3    3    0    0 -0.95786523041E+01 -0.37571481343E+02 -0.21712515613E+03  0.22055999497E+03  0.10566000000E+00 0.  1.
         13    1    4    4    0    0  0.40958319555E+01  0.16117868078E+02 -0.52668245766E+02  0.55231483657E+02  0.10566000000E+00 0. -1.
        -13    1    4    4    0    0  0.52463251254E+00  0.15437686146E+01 -0.40310530801E+01  0.43495992665E+01  0.10566000000E+00 0.  1.
        -14    1    4    4    0    0  0.49581878360E+01  0.19909844650E+02 -0.64651080858E+02  0.67828812437E+02  0.00000000000E+00 0.  1.
<mgrwt>
<rscale>  0 0.80730144E+02</rscale>
<asrwt>0</asrwt>
<pdfrwt beam="1">  1        2 0.73033523E-03 0.80730144E+02</pdfrwt>
<pdfrwt beam="2">  1       -1 0.52803475E-01 0.80730144E+02</pdfrwt>
<totfact> 0.79715421E+04</totfact>
</mgrwt>
</event>
<event>
 8    1  0.2389776E-016  0.8146081E+02  0.7818608E-02  0.1324956E+00
         -1   -1    0    0    0  501 -0.00000000000E+00  0.00000000000E+00  0.24784338812E+01  0.24784390057E+01  0.50400000000E-02 0.  1.
          2   -1    0    0  501    0  0.00000000000E+00 -0.00000000000E+00 -0.66935991403E+03  0.66935991403E+03  0.25500000000E-02 0. -1.
         24    2    1    2    0    0  0.00000000000E+00  0.00000000000E+00 -0.66688148015E+03  0.67183835304E+03  0.81460812976E+02 0.  0.
         66    2    3    3    0    0  0.28379751207E+02 -0.12726065108E+02 -0.55021903067E+03  0.55110102951E+03  0.20000000334E+01 0.  0.
        -13    1    3    3    0    0 -0.28379751207E+02  0.12726065108E+02 -0.11666244948E+03  0.12073732353E+03  0.10566000000E+00 0.  1.
         13    1    4    4    0    0  0.21157430431E+02 -0.91823631471E+01 -0.40030736046E+03  0.40097125415E+03  0.10566000000E+00 0. -1.
        -13    1    4    4    0    0  0.25719221651E+01 -0.86098608256E+00 -0.47527945986E+02  0.47605387241E+02  0.10566000000E+00 0.  1.
         14    1    4    4    0    0  0.46503986108E+01 -0.26827158784E+01 -0.10238372423E+03  0.10252438812E+03  0.00000000000E+00 0. -1.
<mgrwt>
<rscale>  0 0.81460813E+02</rscale>
<asrwt>0</asrwt>
<pdfrwt beam="1">  1        2 0.10297830E+00 0.81460813E+02</pdfrwt>
<pdfrwt beam="2">  1       -1 0.38129845E-03 0.81460813E+02</pdfrwt>
<totfact> 0.31576266E+05</totfact>
</mgrwt>
</event>
<event>
 8    1  0.2389776E-016  0.7973659E+02  0.7818608E-02  0.1329801E+00
         -1   -1    0    0    0  501 -0.00000000000E+00  0.00000000000E+00  0.25923645975E+02  0.25923646465E+02  0.50400000000E-02 0.  1.
          2   -1    0    0  501    0  0.00000000000E+00 -0.00000000000E+00 -0.61313940439E+02  0.61313940492E+02  0.25500000000E-02 0. -1.
         24    2    1    2    0    0  0.35527136788E-14  0.00000000000E+00 -0.35390294464E+02  0.87237586958E+02  0.79736589066E+02 0.  0.
         66    2    3    3    0    0 -0.31907851444E+02 -0.15573040720E+02 -0.37485833095E+02  0.51670284175E+02  0.20000007053E+01 0.  0.
        -13    1    3    3    0    0  0.31907851444E+02  0.15573040720E+02  0.20955386312E+01  0.35567302783E+02  0.10566000000E+00 0.  1.
         13    1    4    4    0    0 -0.23347991162E+02 -0.11838145905E+02 -0.27884007845E+02  0.38246561248E+02  0.10566000000E+00 0. -1.
        -13    1    4    4    0    0 -0.36973688680E+01 -0.15715025464E+01 -0.47499184474E+01  0.62219808817E+01  0.10566000000E+00 0.  1.
         14    1    4    4    0    0 -0.48624914142E+01 -0.21633922686E+01 -0.48519068022E+01  0.72017420447E+01  0.00000000000E+00 0. -1.
<mgrwt>
<rscale>  0 0.79736589E+02</rscale>
<asrwt>0</asrwt>
<pdfrwt beam="1">  1        2 0.94329140E-02 0.79736589E+02</pdfrwt>
<pdfrwt beam="2">  1       -1 0.39882533E-02 0.79736589E+02</pdfrwt>
<totfact> 0.15785438E+05</totfact>
</mgrwt>
</event>
<event>
 8    1  0.2389776E-016  0.7892733E+02  0.7818608E-02  0.1332123E+00
          2   -1    0    0  501    0  0.00000000000E+00  0.00000000000E+00  0.25021774312E+03  0.25021774313E+03  0.25500000000E-02 0. -1.
         -1   -1    0    0    0  501 -0.00000000000E+00 -0.00000000000E+00 -0.62241011988E+01  0.62241032394E+01  0.50400000000E-02 0.  1.
         24    2    1    2    0    0  0.00000000000E+00 -0.35527136788E-14  0.24399364192E+03  0.25644184637E+03  0.78927329062E+02 0.  0.
         66    2    3    3    0    0 -0.15561384760E+02 -0.27609218917E+02  0.19833860073E+03  0.20086469626E+03  0.19999993886E+01 0.  0.
        -13    1    3    3    0    0  0.15561384760E+02  0.27609218917E+02  0.45655041189E+02  0.55577150114E+02  0.10566000000E+00 0.  1.
         13    1    4    4    0    0 -0.10929942625E+02 -0.20234676122E+02  0.14405049405E+03  0.14587481538E+03  0.10566000000E+00 0. -1.
        -13    1    4    4    0    0 -0.21460928206E+00 -0.13189155510E+00  0.18318800176E+01  0.18521341638E+01  0.10566000000E+00 0.  1.
         14    1    4    4    0    0 -0.44168328523E+01 -0.72426512394E+01  0.52456226669E+02  0.53137746713E+02  0.00000000000E+00 0. -1.
<mgrwt>
<rscale>  0 0.78927329E+02</rscale>
<asrwt>0</asrwt>
<pdfrwt beam="1">  1        2 0.38495030E-01 0.78927329E+02</pdfrwt>
<pdfrwt beam="2">  1       -1 0.95755436E-03 0.78927329E+02</pdfrwt>
<totfact> 0.24737741E+05</totfact>
</mgrwt>
</event>
<event>
 8    1  0.2389776E-016  0.8113310E+02  0.7818608E-02  0.1325866E+00
          2   -1    0    0  501    0  0.00000000000E+00  0.00000000000E+00  0.48636376016E+03  0.48636376016E+03  0.25500000000E-02 0. -1.
         -1   -1    0    0    0  501 -0.00000000000E+00 -0.00000000000E+00 -0.33835659706E+01  0.33835697243E+01  0.50400000000E-02 0.  1.
         24    2    1    2    0    0  0.00000000000E+00  0.00000000000E+00  0.48298019419E+03  0.48974732989E+03  0.81133095320E+02 0.  0.
         66    2    3    3    0    0 -0.29352991909E+02 -0.63059787622E+01  0.40609512436E+03  0.40720831712E+03  0.20000005349E+01 0.  0.
        -13    1    3    3    0    0  0.29352991909E+02  0.63059787622E+01  0.76885069823E+02  0.82539012763E+02  0.10566000000E+00 0.  1.
         13    1    4    4    0    0 -0.11929324231E+02 -0.29995800513E+01  0.16124580229E+03  0.16171433510E+03  0.10566000000E+00 0. -1.
        -13    1    4    4    0    0 -0.11963664694E+01 -0.50112314605E+00  0.15905259350E+02  0.15958410201E+02  0.10566000000E+00 0.  1.
         14    1    4    4    0    0 -0.16227301208E+02 -0.28052755649E+01  0.22894406273E+03  0.22953557183E+03  0.00000000000E+00 0. -1.
<mgrwt>
<rscale>  0 0.81133095E+02</rscale>
<asrwt>0</asrwt>
<pdfrwt beam="1">  1        2 0.74825145E-01 0.81133095E+02</pdfrwt>
<pdfrwt beam="2">  1       -1 0.52054924E-03 0.81133095E+02</pdfrwt>
<totfact> 0.29094842E+05</totfact>
</mgrwt>
</event>
<event>
 8    1  0.2389776E-016  0.8507487E+02  0.7818608E-02  0.1315237E+00
          2   -1    0    0  501    0  0.00000000000E+00  0.00000000000E+00  0.21728042089E+02  0.21728042239E+02  0.25500000000E-02 0. -1.
         -1   -1    0    0    0  501 -0.00000000000E+00 -0.00000000000E+00 -0.83276414003E+02  0.83276414155E+02  0.50400000000E-02 0.  1.
         24    2    1    2    0    0  0.00000000000E+00  0.35527136788E-14 -0.61548371914E+02  0.10500445639E+03  0.85074871598E+02 0.  0.
         66    2    3    3    0    0 -0.55520753959E+01 -0.18019900383E+02  0.16238606735E+02  0.24964669023E+02  0.19999999398E+01 0.  0.
        -13    1    3    3    0    0  0.55520753959E+01  0.18019900383E+02 -0.77786978649E+02  0.80039787371E+02  0.10566000000E+00 0.  1.
         13    1    4    4    0    0  0.59197774293E-01 -0.30640347837E+00  0.24084025925E+00  0.40811215874E+00  0.10566000000E+00 0. -1.
        -13    1    4    4    0    0 -0.22164897596E+01 -0.67152622232E+01  0.52440819568E+01  0.88044950558E+01  0.10566000000E+00 0. -1.
         14    1    4    4    0    0 -0.33947834105E+01 -0.10998234681E+02  0.10753684519E+02  0.15752061809E+02  0.00000000000E+00 0. -1.
<mgrwt>
<rscale>  0 0.85074872E+02</rscale>
<asrwt>0</asrwt>
<pdfrwt beam="1">  1        2 0.33427758E-02 0.85074872E+02</pdfrwt>
<pdfrwt beam="2">  1       -1 0.12811756E-01 0.85074872E+02</pdfrwt>
<totfact> 0.10578833E+05</totfact>
</mgrwt>
</event>
<event>
 8    1  0.2389776E-016  0.8246219E+02  0.7818608E-02  0.1322206E+00
          2   -1    0    0  501    0  0.00000000000E+00  0.00000000000E+00  0.41615152874E+03  0.41615152875E+03  0.25500000000E-02 0. -1.
         -1   -1    0    0    0  501 -0.00000000000E+00 -0.00000000000E+00 -0.40850563405E+01  0.40850594496E+01  0.50400000000E-02 0.  1.
         24    2    1    2    0    0  0.00000000000E+00 -0.35527136788E-14  0.41206647240E+03  0.42023658820E+03  0.82462187601E+02 0.  0.
         66    2    3    3    0    0 -0.27512505925E+02 -0.19781012481E+02  0.32564371521E+03  0.32740808740E+03  0.19999995562E+01 0.  0.
        -13    1    3    3    0    0  0.27512505925E+02  0.19781012481E+02  0.86422757185E+02  0.92828500799E+02  0.10566000000E+00 0.  1.
         13    1    4    4    0    0 -0.21171114043E+02 -0.15916976283E+02  0.25620702403E+03  0.25757254615E+03  0.10566000000E+00 0. -1.
        -13    1    4    4    0    0 -0.61685658173E+01 -0.36224671217E+01  0.66358994674E+02  0.66743545084E+02  0.10566000000E+00 0.  1.
        -14    1    4    4    0    0 -0.17282606558E+00 -0.24156907569E+00  0.30776965140E+01  0.30919961675E+01  0.00000000000E+00 0.  1.
<mgrwt>
<rscale>  0 0.82462188E+02</rscale>
<asrwt>0</asrwt>
<pdfrwt beam="1">  1        2 0.64023299E-01 0.82462188E+02</pdfrwt>
<pdfrwt beam="2">  1       -1 0.62847058E-03 0.82462188E+02</pdfrwt>
<totfact> 0.26462042E+05</totfact>
</mgrwt>
</event>
<event>
 8    1  0.2389776E-016  0.8235881E+02  0.7818608E-02  0.1322488E+00
          2   -1    0    0  501    0  0.00000000000E+00  0.00000000000E+00  0.93334727377E+01  0.93334730860E+01  0.25500000000E-02 0. -1.
         -1   -1    0    0    0  501 -0.00000000000E+00 -0.00000000000E+00 -0.18168405509E+03  0.18168405516E+03  0.50400000000E-02 0.  1.
         24    2    1    2    0    0  0.00000000000E+00  0.00000000000E+00 -0.17235058235E+03  0.19101752824E+03  0.82358805600E+02 0.  0.
         66    2    3    3    0    0 -0.35662399172E+02 -0.10401330176E+02 -0.12730789268E+03  0.13263217528E+03  0.19999990188E+01 0.  0.
        -13    1    3    3    0    0  0.35662399172E+02  0.10401330176E+02 -0.45042689666E+02  0.58385352962E+02  0.10566000000E+00 0.  1.
         13    1    4    4    0    0 -0.28327929060E+02 -0.85137808444E+01 -0.99863274917E+02  0.10415200848E+03  0.10566000000E+00 0. -1.
        -13    1    4    4    0    0 -0.42304741263E+01 -0.14590824706E+01 -0.16278141801E+02  0.16882384236E+02  0.10566000000E+00 0.  1.
         14    1    4    4    0    0 -0.31039959860E+01 -0.42846686103E+00 -0.11166475964E+02  0.11597782564E+02  0.00000000000E+00 0. -1.
<mgrwt>
<rscale>  0 0.82358806E+02</rscale>
<asrwt>0</asrwt>
<pdfrwt beam="1">  1        2 0.14359190E-02 0.82358806E+02</pdfrwt>
<pdfrwt beam="2">  1       -1 0.27951391E-01 0.82358806E+02</pdfrwt>
<totfact> 0.95159748E+04</totfact>
</mgrwt>
</event>
<event>
 8    1  0.2389776E-016  0.8043044E+02  0.7818608E-02  0.1327834E+00
         -1   -1    0    0    0  501 -0.00000000000E+00  0.00000000000E+00  0.18401149801E+01  0.18401218822E+01  0.50400000000E-02 0.  1.
          2   -1    0    0  501    0  0.00000000000E+00 -0.00000000000E+00 -0.87889113499E+03  0.87889113499E+03  0.25500000000E-02 0. -1.
         24    2    1    2    0    0  0.00000000000E+00  0.00000000000E+00 -0.87705102001E+03  0.88073125688E+03  0.80430436638E+02 0.  0.
         66    2    3    3    0    0 -0.30212430965E+02  0.10989734143E+02 -0.70289694941E+03  0.70363462588E+03  0.19999997102E+01 0.  0.
        -13    1    3    3    0    0  0.30212430965E+02 -0.10989734143E+02 -0.17415407060E+03  0.17709663100E+03  0.10566000000E+00 0.  1.
         13    1    4    4    0    0 -0.26001176387E+02  0.92155760946E+01 -0.59069461698E+03  0.59133842231E+03  0.10566000000E+00 0. -1.
        -13    1    4    4    0    0 -0.37974350548E+01  0.17275911469E+01 -0.10265155699E+03  0.10273635385E+03  0.10566000000E+00 0.  1.
         14    1    4    4    0    0 -0.41381952348E+00  0.46566901098E-01 -0.95507754442E+01  0.95598497195E+01  0.00000000000E+00 0. -1.
<mgrwt>
<rscale>  0 0.80430437E+02</rscale>
<asrwt>0</asrwt>
<pdfrwt beam="1">  1        2 0.13521369E+00 0.80430437E+02</pdfrwt>
<pdfrwt beam="2">  1       -1 0.28309585E-03 0.80430437E+02</pdfrwt>
<totfact> 0.34367370E+05</totfact>
</mgrwt>
</event>
<event>
 8    1  0.2389776E-016  0.8078239E+02  0.7818608E-02  0.1326846E+00
         -1   -1    0    0    0  501 -0.00000000000E+00  0.00000000000E+00  0.24158752313E+02  0.24158752839E+02  0.50400000000E-02 0.  1.
          2   -1    0    0  501    0  0.00000000000E+00 -0.00000000000E+00 -0.67530333024E+02  0.67530333072E+02  0.25500000000E-02 0. -1.
         24    2    1    2    0    0 -0.35527136788E-14  0.00000000000E+00 -0.43371580711E+02  0.91689085911E+02  0.80782389553E+02 0.  0.
         66    2    3    3    0    0  0.13270891959E+02  0.59684924557E+01 -0.64435034256E+02  0.66087919631E+02  0.20000015202E+01 0.  0.
        -13    1    3    3    0    0 -0.13270891959E+02 -0.59684924557E+01  0.21063453545E+02  0.25601166279E+02  0.10566000000E+00 0.  1.
         13    1    4    4    0    0  0.10779234680E+01  0.59589720411E+00 -0.70175224672E+01  0.71255735274E+01  0.10566000000E+00 0. -1.
        -13    1    4    4    0    0  0.19390509506E+01  0.63016564704E+00 -0.11160673520E+02  0.11345872588E+02  0.10566000000E+00 0.  1.
         14    1    4    4    0    0  0.10253917540E+02  0.47424296045E+01 -0.46256838269E+02  0.47616473516E+02  0.00000000000E+00 0. -1.
<mgrwt>
<rscale>  0 0.80782390E+02</rscale>
<asrwt>0</asrwt>
<pdfrwt beam="1">  1        2 0.10389282E-01 0.80782390E+02</pdfrwt>
<pdfrwt beam="2">  1       -1 0.37167312E-02 0.80782390E+02</pdfrwt>
<totfact> 0.15589522E+05</totfact>
</mgrwt>
</event>
<event>
 8    1  0.2389776E-016  0.7974055E+02  0.7818608E-02  0.1329789E+00
         -1   -1    0    0    0  501 -0.00000000000E+00  0.00000000000E+00  0.17681245951E+01  0.17681317783E+01  0.50400000000E-02 0.  1.
          2   -1    0    0  501    0  0.00000000000E+00 -0.00000000000E+00 -0.89905190057E+03  0.89905190057E+03  0.25500000000E-02 0. -1.
         24    2    1    2    0    0  0.35527136788E-14 -0.71054273576E-14 -0.89728377597E+03  0.90082003235E+03  0.79740554667E+02 0.  0.
         66    2    3    3    0    0 -0.23787200506E+02  0.21589462718E+02 -0.71522770136E+03  0.71595153510E+03  0.20000023543E+01 0.  0.
        -13    1    3    3    0    0  0.23787200506E+02 -0.21589462718E+02 -0.18205607461E+03  0.18486849725E+03  0.10566000000E+00 0.  1.
         13    1    4    4    0    0 -0.79148961776E-01  0.11737073465E+00 -0.41419943757E+01  0.41457595072E+01  0.10566000000E+00 0. -1.
        -13    1    4    4    0    0 -0.54154261941E+00  0.39844538770E+00 -0.12658709900E+02  0.12676992053E+02  0.10566000000E+00 0.  1.
         14    1    4    4    0    0 -0.23166508924E+02  0.21073646595E+02 -0.69842699708E+03  0.69912878354E+03  0.00000000000E+00 0. -1.
<mgrwt>
<rscale>  0 0.79740555E+02</rscale>
<asrwt>0</asrwt>
<pdfrwt beam="1">  1        2 0.13831531E+00 0.79740555E+02</pdfrwt>
<pdfrwt beam="2">  1       -1 0.27202044E-03 0.79740555E+02</pdfrwt>
<totfact> 0.35238422E+05</totfact>
</mgrwt>
</event>
<event>
 8    1  0.2389776E-016  0.7901220E+02  0.7818608E-02  0.1331878E+00
          2   -1    0    0  501    0  0.00000000000E+00  0.00000000000E+00  0.51101284362E+02  0.51101284426E+02  0.25500000000E-02 0. -1.
         -1   -1    0    0    0  501 -0.00000000000E+00 -0.00000000000E+00 -0.30541929322E+02  0.30541929738E+02  0.50400000000E-02 0.  1.
         24    2    1    2    0    0 -0.35527136788E-14  0.35527136788E-14  0.20559355040E+02  0.81643214163E+02  0.79012197408E+02 0.  0.
         66    2    3    3    0    0 -0.26750997474E+02  0.29033235926E+02  0.10727309645E+02  0.40958758472E+02  0.20000172854E+01 0.  0.
        -13    1    3    3    0    0  0.26750997474E+02 -0.29033235926E+02  0.98320453949E+01  0.40684455691E+02  0.10566000000E+00 0.  1.
         13    1    4    4    0    0 -0.76575667475E+01  0.83955374747E+01  0.29304298741E+01  0.11735500043E+02  0.10566000000E+00 0. -1.
        -13    1    4    4    0    0 -0.11363527320E+02  0.11150870795E+02  0.46946281379E+01  0.16598866528E+02  0.10566000000E+00 0.  1.
        -14    1    4    4    0    0 -0.77299034068E+01  0.94868276568E+01  0.31022516334E+01  0.12624391901E+02  0.00000000000E+00 0.  1.
<mgrwt>
<rscale>  0 0.79012197E+02</rscale>
<asrwt>0</asrwt>
<pdfrwt beam="1">  1        2 0.78617359E-02 0.79012197E+02</pdfrwt>
<pdfrwt beam="2">  1       -1 0.46987585E-02 0.79012197E+02</pdfrwt>
<totfact> 0.15533150E+05</totfact>
</mgrwt>
</event>
<event>
 8    1  0.2389776E-016  0.7896453E+02  0.7818608E-02  0.1332016E+00
          2   -1    0    0  501    0  0.00000000000E+00  0.00000000000E+00  0.63363585598E+02  0.63363585649E+02  0.25500000000E-02 0. -1.
         -1   -1    0    0    0  501 -0.00000000000E+00 -0.00000000000E+00 -0.24601656452E+02  0.24601656968E+02  0.50400000000E-02 0.  1.
         24    2    1    2    0    0  0.00000000000E+00  0.00000000000E+00  0.38761929146E+02  0.87965242617E+02  0.78964528477E+02 0.  0.
         66    2    3    3    0    0  0.34105399362E+02  0.19184821572E+02  0.13756052603E+02  0.41526673839E+02  0.20000031452E+01 0.  0.
        -13    1    3    3    0    0 -0.34105399362E+02 -0.19184821572E+02  0.25005876544E+02  0.46438568778E+02  0.10566000000E+00 0.  1.
         13    1    4    4    0    0  0.24896481636E+02  0.13701173427E+02  0.10407643626E+02  0.30263627691E+02  0.10566000000E+00 0. -1.
        -13    1    4    4    0    0  0.19479421276E+01  0.10139474323E+01  0.35865384823E+00  0.22276365382E+01  0.10566000000E+00 0.  1.
        -14    1    4    4    0    0  0.72609755982E+01  0.44697007131E+01  0.29897551281E+01  0.90354096104E+01  0.00000000000E+00 0.  1.
<mgrwt>
<rscale>  0 0.78964528E+02</rscale>
<asrwt>0</asrwt>
<pdfrwt beam="1">  1        2 0.97482440E-02 0.78964528E+02</pdfrwt>
<pdfrwt beam="2">  1       -1 0.37848703E-02 0.78964528E+02</pdfrwt>
<totfact> 0.16332693E+05</totfact>
</mgrwt>
</event>
<event>
 8    1  0.2389776E-016  0.7996966E+02  0.7818608E-02  0.1329138E+00
         -1   -1    0    0    0  501 -0.00000000000E+00  0.00000000000E+00  0.34611406172E+01  0.34611442867E+01  0.50400000000E-02 0.  1.
          2   -1    0    0  501    0  0.00000000000E+00 -0.00000000000E+00 -0.46192451751E+03  0.46192451751E+03  0.25500000000E-02 0. -1.
         24    2    1    2    0    0 -0.17763568394E-14  0.35527136788E-14 -0.45846337689E+03  0.46538566180E+03  0.79969658374E+02 0.  0.
         66    2    3    3    0    0  0.10955408559E+02 -0.25442002872E+02 -0.39697960945E+03  0.39794990490E+03  0.19999999879E+01 0.  0.
        -13    1    3    3    0    0 -0.10955408559E+02  0.25442002872E+02 -0.61483767438E+02  0.67435756904E+02  0.10566000000E+00 0.  1.
         13    1    4    4    0    0  0.11125480871E+01 -0.28957037373E+01 -0.42701739503E+02  0.42814396924E+02  0.10566000000E+00 0. -1.
        -13    1    4    4    0    0  0.92758552958E+01 -0.21420350098E+02 -0.32967633901E+03  0.33050169826E+03  0.10566000000E+00 0.  1.
        -14    1    4    4    0    0  0.56700517599E+00 -0.11259490368E+01 -0.24601530943E+02  0.24633809710E+02  0.00000000000E+00 0.  1.
<mgrwt>
<rscale>  0 0.79969658E+02</rscale>
<asrwt>0</asrwt>
<pdfrwt beam="1">  1        2 0.71065262E-01 0.79969658E+02</pdfrwt>
<pdfrwt beam="2">  1       -1 0.53248382E-03 0.79969658E+02</pdfrwt>
<totfact> 0.29705784E+05</totfact>
</mgrwt>
</event>
<event>
 8    1  0.2389776E-016  0.7745090E+02  0.7818608E-02  0.1336445E+00
          2   -1    0    0  501    0  0.00000000000E+00  0.00000000000E+00  0.32719841156E+02  0.32719841255E+02  0.25500000000E-02 0. -1.
         -1   -1    0    0    0  501 -0.00000000000E+00 -0.00000000000E+00 -0.45833361203E+02  0.45833361480E+02  0.50400000000E-02 0.  1.
         24    2    1    2    0    0  0.00000000000E+00 -0.35527136788E-14 -0.13113520047E+02  0.78553202736E+02  0.77450895747E+02 0.  0.
         66    2    3    3    0    0  0.14764967287E+02  0.18765378949E+02  0.24327403516E+02  0.34146248017E+02  0.19999964247E+01 0.  0.
        -13    1    3    3    0    0 -0.14764967287E+02 -0.18765378949E+02 -0.37440923563E+02  0.44406954719E+02  0.10566000000E+00 0.  1.
         13    1    4    4    0    0  0.70442340380E+01  0.91133163395E+01  0.12600632519E+02  0.17072225157E+02  0.10566000000E+00 0. -1.
        -13    1    4    4    0    0  0.68632144200E+01  0.84631451336E+01  0.10785831084E+02  0.15332118377E+02  0.10566000000E+00 0.  1.
        -14    1    4    4    0    0  0.85751882937E+00  0.11889174764E+01  0.94093991306E+00  0.17419044831E+01  0.00000000000E+00 0.  1.
<mgrwt>
<rscale>  0 0.77450896E+02</rscale>
<asrwt>0</asrwt>
<pdfrwt beam="1">  1        2 0.50338217E-02 0.77450896E+02</pdfrwt>
<pdfrwt beam="2">  1       -1 0.70512864E-02 0.77450896E+02</pdfrwt>
<totfact> 0.14979528E+05</totfact>
</mgrwt>
</event>
<event>
 8    1  0.2389776E-016  0.8022200E+02  0.7818608E-02  0.1328423E+00
         -1   -1    0    0    0  501 -0.00000000000E+00  0.00000000000E+00  0.10158488721E+03  0.10158488733E+03  0.50400000000E-02 0.  1.
          2   -1    0    0  501    0  0.00000000000E+00 -0.00000000000E+00 -0.15837911365E+02  0.15837911570E+02  0.25500000000E-02 0. -1.
         24    2    1    2    0    0  0.35527136788E-14 -0.71054273576E-14  0.85746975845E+02  0.11742279890E+03  0.80222003440E+02 0.  0.
         66    2    3    3    0    0  0.21919965226E+02 -0.33157530546E+02  0.35297039729E+02  0.53195749108E+02  0.20000005037E+01 0.  0.
        -13    1    3    3    0    0 -0.21919965226E+02  0.33157530546E+02  0.50449936115E+02  0.64227049796E+02  0.10566000000E+00 0.  1.
         13    1    4    4    0    0  0.12605804645E+02 -0.19743258407E+02  0.20142959285E+02  0.30894215252E+02  0.10566000000E+00 0. -1.
        -13    1    4    4    0    0  0.11317502286E+01 -0.13897280479E+01  0.13180972359E+01  0.22272734421E+01  0.10566000000E+00 0. -1.
         14    1    4    4    0    0  0.81824103526E+01 -0.12024544092E+02  0.13835983209E+02  0.20074260414E+02  0.00000000000E+00 0. -1.
<mgrwt>
<rscale>  0 0.80222003E+02</rscale>
<asrwt>0</asrwt>
<pdfrwt beam="1">  1        2 0.24366018E-02 0.80222003E+02</pdfrwt>
<pdfrwt beam="2">  1       -1 0.15628444E-01 0.80222003E+02</pdfrwt>
<totfact> 0.11731661E+05</totfact>
</mgrwt>
</event>
<event>
 8    1  0.2389776E-016  0.7607078E+02  0.7818608E-02  0.1340587E+00
          2   -1    0    0  501    0  0.00000000000E+00  0.00000000000E+00  0.35542879695E+03  0.35542879695E+03  0.25500000000E-02 0. -1.
         -1   -1    0    0    0  501 -0.00000000000E+00 -0.00000000000E+00 -0.40702677917E+01  0.40702709121E+01  0.50400000000E-02 0.  1.
         24    2    1    2    0    0 -0.35527136788E-14  0.00000000000E+00  0.35135852915E+03  0.35949906787E+03  0.76070781434E+02 0.  0.
         66    2    3    3    0    0 -0.31539312158E+02 -0.20963250891E+02  0.16048690738E+03  0.16490674206E+03  0.20000094712E+01 0.  0.
        -13    1    3    3    0    0  0.31539312158E+02  0.20963250891E+02  0.19087162178E+03  0.19459232581E+03  0.10566000000E+00 0.  1.
         13    1    4    4    0    0 -0.21805136852E+02 -0.14177778613E+02  0.11246006429E+03  0.11542855203E+03  0.10566000000E+00 0. -1.
        -13    1    4    4    0    0 -0.68945982964E+01 -0.52538732900E+01  0.34751822970E+02  0.35816742370E+02  0.10566000000E+00 0.  1.
        -14    1    4    4    0    0 -0.28395770104E+01 -0.15315989881E+01  0.13275020115E+02  0.13661447658E+02  0.00000000000E+00 0.  1.
<mgrwt>
<rscale>  0 0.76070781E+02</rscale>
<asrwt>0</asrwt>
<pdfrwt beam="1">  1        2 0.54681357E-01 0.76070781E+02</pdfrwt>
<pdfrwt beam="2">  1       -1 0.62619525E-03 0.76070781E+02</pdfrwt>
<totfact> 0.30903616E+05</totfact>
</mgrwt>
</event>
<event>
 8    1  0.2389776E-016  0.7937027E+02  0.7818608E-02  0.1330848E+00
         -1   -1    0    0    0  501 -0.00000000000E+00  0.00000000000E+00  0.19990940909E+02  0.19990941544E+02  0.50400000000E-02 0.  1.
          2   -1    0    0  501    0  0.00000000000E+00 -0.00000000000E+00 -0.78781170303E+02  0.78781170345E+02  0.25500000000E-02 0. -1.
         24    2    1    2    0    0  0.00000000000E+00  0.00000000000E+00 -0.58790229395E+02  0.98772111889E+02  0.79370265306E+02 0.  0.
         66    2    3    3    0    0  0.14074070169E+01  0.21892131984E+02 -0.70530585100E+02  0.73890525254E+02  0.20000126210E+01 0.  0.
        -13    1    3    3    0    0 -0.14074070169E+01 -0.21892131984E+02  0.11740355706E+02  0.24881586634E+02  0.10566000000E+00 0.  1.
         13    1    4    4    0    0  0.13717216887E+00  0.36576402224E+01 -0.11126042070E+02  0.11713117620E+02  0.10566000000E+00 0.  1.
        -13    1    4    4    0    0 -0.18074432646E+00  0.98206307055E+01 -0.31639557737E+02  0.33129295703E+02  0.10566000000E+00 0. -1.
         14    1    4    4    0    0  0.14509791745E+01  0.84138610561E+01 -0.27764985293E+02  0.29048111931E+02  0.00000000000E+00 0. -1.
<mgrwt>
<rscale>  0 0.79370265E+02</rscale>
<asrwt>0</asrwt>
<pdfrwt beam="1">  1        2 0.12120180E-01 0.79370265E+02</pdfrwt>
<pdfrwt beam="2">  1       -1 0.30755295E-02 0.79370265E+02</pdfrwt>
<totfact> 0.16988222E+05</totfact>
</mgrwt>
</event>
<event>
 8    1  0.2389776E-016  0.8125622E+02  0.7818608E-02  0.1325524E+00
         -1   -1    0    0    0  501 -0.00000000000E+00  0.00000000000E+00  0.39103850999E+01  0.39103883479E+01  0.50400000000E-02 0.  1.
          2   -1    0    0  501    0  0.00000000000E+00 -0.00000000000E+00 -0.42211766356E+03  0.42211766356E+03  0.25500000000E-02 0. -1.
         24    2    1    2    0    0  0.00000000000E+00  0.00000000000E+00 -0.41820727846E+03  0.42602805191E+03  0.81256219836E+02 0.  0.
         66    2    3    3    0    0  0.20664900254E+02  0.34933671339E+02 -0.21506562143E+03  0.21887124300E+03  0.19999987225E+01 0.  0.
        -13    1    3    3    0    0 -0.20664900254E+02 -0.34933671339E+02 -0.20314165703E+03  0.20715680891E+03  0.10566000000E+00 0.  1.
         13    1    4    4    0    0  0.16071447966E+02  0.28170024900E+02 -0.17047303610E+03  0.17353071470E+03  0.10566000000E+00 0. -1.
        -13    1    4    4    0    0  0.38907726201E+01  0.54358928299E+01 -0.35352506449E+02  0.35979131711E+02  0.10566000000E+00 0.  1.
         14    1    4    4    0    0  0.70267966806E+00  0.13277536093E+01 -0.92400788820E+01  0.93613965897E+01  0.00000000000E+00 0. -1.
<mgrwt>
<rscale>  0 0.81256220E+02</rscale>
<asrwt>0</asrwt>
<pdfrwt beam="1">  1        2 0.64941143E-01 0.81256220E+02</pdfrwt>
<pdfrwt beam="2">  1       -1 0.60159829E-03 0.81256220E+02</pdfrwt>
<totfact> 0.27637606E+05</totfact>
</mgrwt>
</event>
<event>
 8    1  0.2389776E-016  0.7716792E+02  0.7818608E-02  0.1337286E+00
          2   -1    0    0  501    0  0.00000000000E+00  0.00000000000E+00  0.12942734315E+03  0.12942734318E+03  0.25500000000E-02 0. -1.
         -1   -1    0    0    0  501 -0.00000000000E+00 -0.00000000000E+00 -0.11502376183E+02  0.11502377287E+02  0.50400000000E-02 0.  1.
         24    2    1    2    0    0  0.00000000000E+00  0.88817841970E-15  0.11792496697E+03  0.14092972047E+03  0.77167922582E+02 0.  0.
         66    2    3    3    0    0 -0.35451694934E+02  0.68086926577E+01  0.83743513547E+02  0.91214894795E+02  0.20000004452E+01 0.  0.
        -13    1    3    3    0    0  0.35451694934E+02 -0.68086926577E+01  0.34181453424E+02  0.49714825672E+02  0.10566000000E+00 0.  1.
         13    1    4    4    0    0 -0.19862353222E+02  0.31020144925E+01  0.45635327061E+02  0.49867121527E+02  0.10566000000E+00 0. -1.
        -13    1    4    4    0    0 -0.53846686456E+01  0.12278654097E+01  0.14093219181E+02  0.15137116661E+02  0.10566000000E+00 0.  1.
         14    1    4    4    0    0 -0.10204673066E+02  0.24788127555E+01  0.24014967306E+02  0.26210656607E+02  0.00000000000E+00 0. -1.
<mgrwt>
<rscale>  0 0.77167923E+02</rscale>
<asrwt>0</asrwt>
<pdfrwt beam="1">  1        2 0.19911900E-01 0.77167923E+02</pdfrwt>
<pdfrwt beam="2">  1       -1 0.17695963E-02 0.77167923E+02</pdfrwt>
<totfact> 0.21041821E+05</totfact>
</mgrwt>
</event>
<event>
 8    1  0.2389776E-016  0.7434004E+02  0.7818608E-02  0.1345927E+00
          2   -1    0    0  501    0  0.00000000000E+00  0.00000000000E+00  0.79215228098E+03  0.79215228098E+03  0.25500000000E-02 0. -1.
         -1   -1    0    0    0  501 -0.00000000000E+00 -0.00000000000E+00 -0.17441187309E+01  0.17441260130E+01  0.50400000000E-02 0.  1.
         24    2    1    2    0    0  0.00000000000E+00  0.00000000000E+00  0.79040816225E+03  0.79389640700E+03  0.74340043671E+02 0.  0.
         66    2    3    3    0    0 -0.12688790401E+02 -0.11072316809E+02  0.74903628761E+03  0.74922824410E+03  0.20000000610E+01 0.  0.
        -13    1    3    3    0    0  0.12688790401E+02  0.11072316809E+02  0.41371874639E+02  0.44668162897E+02  0.10566000000E+00 0.  1.
         13    1    4    4    0    0 -0.80328163787E+01 -0.73696623588E+01  0.49847644777E+03  0.49859564600E+03  0.10566000000E+00 0. -1.
        -13    1    4    4    0    0 -0.30334982001E+01 -0.20249405295E+01  0.13568763124E+03  0.13573668233E+03  0.10566000000E+00 0.  1.
        -14    1    4    4    0    0 -0.16224758225E+01 -0.16777139202E+01  0.11487220859E+03  0.11489591576E+03  0.00000000000E+00 0.  1.
<mgrwt>
<rscale>  0 0.74340044E+02</rscale>
<asrwt>0</asrwt>
<pdfrwt beam="1">  1        2 0.12186933E+00 0.74340044E+02</pdfrwt>
<pdfrwt beam="2">  1       -1 0.26832707E-03 0.74340044E+02</pdfrwt>
<totfact> 0.41480873E+05</totfact>
</mgrwt>
</event>
<event>
 8    1  0.2389776E-016  0.7997257E+02  0.7818608E-02  0.1329129E+00
          2   -1    0    0  501    0  0.00000000000E+00  0.00000000000E+00  0.15472565633E+02  0.15472565843E+02  0.25500000000E-02 0. -1.
         -1   -1    0    0    0  501 -0.00000000000E+00 -0.00000000000E+00 -0.10333793138E+03  0.10333793150E+03  0.50400000000E-02 0.  1.
         24    2    1    2    0    0  0.00000000000E+00 -0.44408920985E-15 -0.87865365745E+02  0.11881049734E+03  0.79972568932E+02 0.  0.
         66    2    3    3    0    0  0.39039354782E+02 -0.28371828376E+01 -0.32003014843E+02  0.50599543380E+02  0.20000007459E+01 0.  0.
        -13    1    3    3    0    0 -0.39039354782E+02  0.28371828376E+01 -0.55862350902E+02  0.68210953964E+02  0.10566000000E+00 0.  1.
         13    1    4    4    0    0  0.95576409359E+01 -0.71909742448E+00 -0.74192640226E+01  0.12121148627E+02  0.10566000000E+00 0. -1.
        -13    1    4    4    0    0  0.16219830057E+02 -0.19019183934E+01 -0.13956163755E+02  0.21482221753E+02  0.10566000000E+00 0.  1.
        -14    1    4    4    0    0  0.13261883789E+02 -0.21616701977E+00 -0.10627587065E+02  0.16996173000E+02  0.00000000000E+00 0.  1.
<mgrwt>
<rscale>  0 0.79972569E+02</rscale>
<asrwt>0</asrwt>
<pdfrwt beam="1">  1        2 0.23803948E-02 0.79972569E+02</pdfrwt>
<pdfrwt beam="2">  1       -1 0.15898143E-01 0.79972569E+02</pdfrwt>
<totfact> 0.11779540E+05</totfact>
</mgrwt>
</event>
<event>
 8    1  0.2389776E-016  0.8014975E+02  0.7818608E-02  0.1328627E+00
          2   -1    0    0  501    0  0.00000000000E+00  0.00000000000E+00  0.85131343122E+03  0.85131343122E+03  0.25500000000E-02 0. -1.
         -1   -1    0    0    0  501 -0.00000000000E+00 -0.00000000000E+00 -0.18864880911E+01  0.18864948236E+01  0.50400000000E-02 0.  1.
         24    2    1    2    0    0  0.00000000000E+00 -0.35527136788E-14  0.84942694313E+03  0.85319992605E+03  0.80149747934E+02 0.  0.
         66    2    3    3    0    0  0.14390260363E+01 -0.27167999371E+02  0.73784448449E+03  0.73834859943E+03  0.20000006224E+01 0.  0.
        -13    1    3    3    0    0 -0.14390260363E+01  0.27167999371E+02  0.11158245864E+03  0.11485132662E+03  0.10566000000E+00 0.  1.
         13    1    4    4    0    0 -0.20048674108E+00 -0.40599305854E+01  0.96544369597E+02  0.96629962724E+02  0.10566000000E+00 0. -1.
        -13    1    4    4    0    0  0.37738164065E+00 -0.34628966673E+01  0.93504501843E+02  0.93569423955E+02  0.10566000000E+00 0. -1.
         14    1    4    4    0    0  0.12621311368E+01 -0.19645172119E+02  0.54779561305E+03  0.54814921275E+03  0.00000000000E+00 0. -1.
<mgrwt>
<rscale>  0 0.80149748E+02</rscale>
<asrwt>0</asrwt>
<pdfrwt beam="1">  1        2 0.13097177E+00 0.80149748E+02</pdfrwt>
<pdfrwt beam="2">  1       -1 0.29022842E-03 0.80149748E+02</pdfrwt>
<totfact> 0.34534746E+05</totfact>
</mgrwt>
</event>
<event>
 8    1  0.2389776E-016  0.7904699E+02  0.7818608E-02  0.1331778E+00
          2   -1    0    0  501    0  0.00000000000E+00  0.00000000000E+00  0.79145113003E+02  0.79145113044E+02  0.25500000000E-02 0. -1.
         -1   -1    0    0    0  501 -0.00000000000E+00 -0.00000000000E+00 -0.19737246912E+02  0.19737247555E+02  0.50400000000E-02 0.  1.
         24    2    1    2    0    0  0.44408920985E-15  0.00000000000E+00  0.59407866091E+02  0.98882360599E+02  0.79046990355E+02 0.  0.
         66    2    3    3    0    0  0.30342860932E+01 -0.15033612147E+02  0.75255514577E+02  0.76828437754E+02  0.19999968051E+01 0.  0.
        -13    1    3    3    0    0 -0.30342860932E+01  0.15033612147E+02 -0.15847648486E+02  0.22053922845E+02  0.10566000000E+00 0.  1.
         13    1    4    4    0    0  0.16094939398E+01 -0.64049246161E+01  0.36610790293E+02  0.37201809902E+02  0.10566000000E+00 0. -1.
        -13    1    4    4    0    0  0.95060750727E+00 -0.69016944345E+01  0.31410155022E+02  0.32173685572E+02  0.10566000000E+00 0.  1.
         14    1    4    4    0    0  0.47418464618E+00 -0.17269930965E+01  0.72345692618E+01  0.74529422806E+01  0.00000000000E+00 0. -1.
<mgrwt>
<rscale>  0 0.79046990E+02</rscale>
<asrwt>0</asrwt>
<pdfrwt beam="1">  1        2 0.12176171E-01 0.79046990E+02</pdfrwt>
<pdfrwt beam="2">  1       -1 0.30364996E-02 0.79046990E+02</pdfrwt>
<totfact> 0.17196191E+05</totfact>
</mgrwt>
</event>
<event>
 8    1  0.2389776E-016  0.8540262E+02  0.7818608E-02  0.1314383E+00
          2   -1    0    0  501    0  0.00000000000E+00  0.00000000000E+00  0.25487903577E+03  0.25487903578E+03  0.25500000000E-02 0. -1.
         -1   -1    0    0    0  501 -0.00000000000E+00 -0.00000000000E+00 -0.71539880840E+01  0.71539898594E+01  0.50400000000E-02 0.  1.
         24    2    1    2    0    0 -0.71054273576E-14 -0.17763568394E-14  0.24772504769E+03  0.26203302564E+03  0.85402618673E+02 0.  0.
         66    2    3    3    0    0 -0.31657556758E+02 -0.85500868120E+01  0.20773740101E+03  0.21031912098E+03  0.19999970696E+01 0.  0.
        -13    1    3    3    0    0  0.31657556758E+02  0.85500868120E+01  0.39987646676E+02  0.51713904659E+02  0.10566000000E+00 0.  1.
         13    1    4    4    0    0 -0.19299172688E+02 -0.57533549540E+01  0.13266471047E+03  0.13418455845E+03  0.10566000000E+00 0. -1.
        -13    1    4    4    0    0 -0.12191301468E+02 -0.27583327175E+01  0.74061294881E+02  0.75108739800E+02  0.10566000000E+00 0.  1.
         14    1    4    4    0    0 -0.16708260173E+00 -0.38399140488E-01  0.10113956638E+01  0.10258227326E+01  0.00000000000E+00 0. -1.
<mgrwt>
<rscale>  0 0.85402619E+02</rscale>
<asrwt>0</asrwt>
<pdfrwt beam="1">  1        2 0.39212166E-01 0.85402619E+02</pdfrwt>
<pdfrwt beam="2">  1       -1 0.11006135E-02 0.85402619E+02</pdfrwt>
<totfact> 0.20229928E+05</totfact>
</mgrwt>
</event>
<event>
 8    1  0.2389776E-016  0.7939293E+02  0.7818608E-02  0.1330783E+00
         -1   -1    0    0    0  501 -0.00000000000E+00  0.00000000000E+00  0.13053486906E+01  0.13053584204E+01  0.50400000000E-02 0.  1.
          2   -1    0    0  501    0  0.00000000000E+00 -0.00000000000E+00 -0.12071895992E+04  0.12071895992E+04  0.25500000000E-02 0. -1.
         24    2    1    2    0    0  0.00000000000E+00  0.00000000000E+00 -0.12058842505E+04  0.12084949576E+04  0.79392927731E+02 0.  0.
         66    2    3    3    0    0 -0.37260770242E+01 -0.10409986506E+02 -0.11832588517E+04  0.11833121996E+04  0.19999988783E+01 0.  0.
        -13    1    3    3    0    0  0.37260770242E+01  0.10409986506E+02 -0.22625398793E+02  0.25182758062E+02  0.10566000000E+00 0.  1.
         13    1    4    4    0    0 -0.17556813293E+01 -0.67059129031E+01 -0.77851654068E+03  0.77854740830E+03  0.10566000000E+00 0. -1.
        -13    1    4    4    0    0 -0.25001451782E+00 -0.39683105507E+00 -0.28975061869E+02  0.28979050304E+02  0.10566000000E+00 0.  1.
         14    1    4    4    0    0 -0.17203811771E+01 -0.33072425474E+01 -0.37576724918E+03  0.37578574098E+03  0.00000000000E+00 0. -1.
<mgrwt>
<rscale>  0 0.79392928E+02</rscale>
<asrwt>0</asrwt>
<pdfrwt beam="1">  1        2 0.18572059E+00 0.79392928E+02</pdfrwt>
<pdfrwt beam="2">  1       -1 0.20082459E-03 0.79392928E+02</pdfrwt>
<totfact> 0.35713501E+05</totfact>
</mgrwt>
</event>
<event>
 8    1  0.2389776E-016  0.7419301E+02  0.7818608E-02  0.1346388E+00
          2   -1    0    0  501    0  0.00000000000E+00  0.00000000000E+00  0.18176465678E+03  0.18176465680E+03  0.25500000000E-02 0. -1.
         -1   -1    0    0    0  501 -0.00000000000E+00 -0.00000000000E+00 -0.75710574456E+01  0.75710591232E+01  0.50400000000E-02 0.  1.
         24    2    1    2    0    0  0.00000000000E+00  0.00000000000E+00  0.17419359933E+03  0.18933571592E+03  0.74193013648E+02 0.  0.
         66    2    3    3    0    0  0.25164689370E+02 -0.10797302978E+02  0.15092267378E+03  0.15339979402E+03  0.20000002990E+01 0.  0.
        -13    1    3    3    0    0 -0.25164689370E+02  0.10797302978E+02  0.23270925548E+02  0.35935921897E+02  0.10566000000E+00 0.  1.
         13    1    4    4    0    0  0.10762649465E+02 -0.43856796018E+01  0.64866601971E+02  0.65899590472E+02  0.10566000000E+00 0. -1.
        -13    1    4    4    0    0  0.27617607499E+01 -0.95627323535E+00  0.18879606775E+02  0.19104776810E+02  0.10566000000E+00 0.  1.
        -14    1    4    4    0    0  0.11640279155E+02 -0.54553501404E+01  0.67176465038E+02  0.68395426740E+02  0.00000000000E+00 0.  1.
<mgrwt>
<rscale>  0 0.74193014E+02</rscale>
<asrwt>0</asrwt>
<pdfrwt beam="1">  1        2 0.27963791E-01 0.74193014E+02</pdfrwt>
<pdfrwt beam="2">  1       -1 0.11647783E-02 0.74193014E+02</pdfrwt>
<totfact> 0.26027286E+05</totfact>
</mgrwt>
</event>
<event>
 8    1  0.2389776E-016  0.8076889E+02  0.7818608E-02  0.1326883E+00
         -1   -1    0    0    0  501 -0.00000000000E+00  0.00000000000E+00  0.15784727138E+01  0.15784807601E+01  0.50400000000E-02 0.  1.
          2   -1    0    0  501    0  0.00000000000E+00 -0.00000000000E+00 -0.10332135712E+04  0.10332135712E+04  0.25500000000E-02 0. -1.
         24    2    1    2    0    0  0.17763568394E-14 -0.35527136788E-14 -0.10316350985E+04  0.10347920520E+04  0.80768894866E+02 0.  0.
         66    2    3    3    0    0  0.12670743777E+02 -0.25083193417E+02 -0.88727281609E+03  0.88771998092E+03  0.20000009215E+01 0.  0.
        -13    1    3    3    0    0 -0.12670743777E+02  0.25083193417E+02 -0.14436228242E+03  0.14707207107E+03  0.10566000000E+00 0.  1.
         13    1    4    4    0    0  0.57724007344E+01 -0.10157355560E+02 -0.36788670875E+03  0.36807218602E+03  0.10566000000E+00 0. -1.
        -13    1    4    4    0    0  0.12238831771E+01 -0.28545567637E+01 -0.84231888192E+02  0.84289195848E+02  0.10566000000E+00 0.  1.
        -14    1    4    4    0    0  0.56744598656E+01 -0.12071281093E+02 -0.43515421915E+03  0.43535859905E+03  0.00000000000E+00 0.  1.
<mgrwt>
<rscale>  0 0.80768895E+02</rscale>
<asrwt>0</asrwt>
<pdfrwt beam="1">  1        2 0.15895539E+00 0.80768895E+02</pdfrwt>
<pdfrwt beam="2">  1       -1 0.24284340E-03 0.80768895E+02</pdfrwt>
<totfact> 0.34400454E+05</totfact>
</mgrwt>
</event>
<event>
 8    1  0.2389776E-016  0.7990386E+02  0.7818608E-02  0.1329324E+00
          2   -1    0    0  501    0  0.00000000000E+00  0.00000000000E+00  0.42189115313E+02  0.42189115390E+02  0.25500000000E-02 0. -1.
         -1   -1    0    0    0  501 -0.00000000000E+00 -0.00000000000E+00 -0.37833378520E+02  0.37833378855E+02  0.50400000000E-02 0.  1.
         24    2    1    2    0    0  0.00000000000E+00  0.00000000000E+00  0.43557367938E+01  0.80022494246E+02  0.79903861873E+02 0.  0.
         66    2    3    3    0    0  0.36417129646E+02 -0.11187817729E+02  0.14145913400E+02  0.40687607450E+02  0.19999842254E+01 0.  0.
        -13    1    3    3    0    0 -0.36417129646E+02  0.11187817729E+02 -0.97901766059E+01  0.39334886796E+02  0.10566000000E+00 0.  1.
         13    1    4    4    0    0  0.79047633407E+00 -0.29287004118E+00  0.58237405679E+00  0.10300239188E+01  0.10566000000E+00 0. -1.
        -13    1    4    4    0    0  0.28859355357E+02 -0.88097162370E+01  0.10614103118E+02  0.31986619715E+02  0.10566000000E+00 0.  1.
        -14    1    4    4    0    0  0.67672979556E+01 -0.20852314507E+01  0.29494362249E+01  0.76709638161E+01  0.00000000000E+00 0.  1.
<mgrwt>
<rscale>  0 0.79903862E+02</rscale>
<asrwt>0</asrwt>
<pdfrwt beam="1">  1        2 0.64906331E-02 0.79903862E+02</pdfrwt>
<pdfrwt beam="2">  1       -1 0.58205198E-02 0.79903862E+02</pdfrwt>
<totfact> 0.14460962E+05</totfact>
</mgrwt>
</event>
<event>
 8    1  0.2389776E-016  0.8154067E+02  0.7818608E-02  0.1324735E+00
         -1   -1    0    0    0  501 -0.00000000000E+00  0.00000000000E+00  0.10174916924E+03  0.10174916936E+03  0.50400000000E-02 0.  1.
          2   -1    0    0  501    0  0.00000000000E+00 -0.00000000000E+00 -0.16336449759E+02  0.16336449958E+02  0.25500000000E-02 0. -1.
         24    2    1    2    0    0 -0.71054273576E-14  0.00000000000E+00  0.85412719477E+02  0.11808561932E+03  0.81540669860E+02 0.  0.
         66    2    3    3    0    0  0.32142893714E+02  0.16748701628E+02  0.69690344471E+02  0.78577533280E+02  0.20000003567E+01 0.  0.
        -13    1    3    3    0    0 -0.32142893714E+02 -0.16748701628E+02  0.15722375006E+02  0.39508086038E+02  0.10566000000E+00 0.  1.
         13    1    4    4    0    0  0.13225165542E+01  0.89336986504E+00  0.38289243640E+01  0.41495765534E+01  0.10566000000E+00 0.  1.
        -13    1    4    4    0    0  0.12929361329E+02  0.68730441729E+01  0.27223334003E+02  0.30911619156E+02  0.10566000000E+00 0. -1.
         14    1    4    4    0    0  0.17891015830E+02  0.89822875898E+01  0.38638086103E+02  0.43516337570E+02  0.00000000000E+00 0. -1.
<mgrwt>
<rscale>  0 0.81540670E+02</rscale>
<asrwt>0</asrwt>
<pdfrwt beam="1">  1        2 0.25133000E-02 0.81540670E+02</pdfrwt>
<pdfrwt beam="2">  1       -1 0.15653718E-01 0.81540670E+02</pdfrwt>
<totfact> 0.11260229E+05</totfact>
</mgrwt>
</event>
<event>
 8    1  0.2389776E-016  0.7829317E+02  0.7818608E-02  0.1333966E+00
          2   -1    0    0  501    0  0.00000000000E+00  0.00000000000E+00  0.81837837890E+03  0.81837837890E+03  0.25500000000E-02 0. -1.
         -1   -1    0    0    0  501 -0.00000000000E+00 -0.00000000000E+00 -0.18725476264E+01  0.18725544091E+01  0.50400000000E-02 0.  1.
         24    2    1    2    0    0 -0.17763568394E-14  0.44408920985E-15  0.81650583127E+03  0.82025093331E+03  0.78293174014E+02 0.  0.
         66    2    3    3    0    0  0.10779993626E+02 -0.33038142822E+01  0.80098477348E+03  0.80106662070E+03  0.20000004312E+01 0.  0.
        -13    1    3    3    0    0 -0.10779993626E+02  0.33038142822E+01  0.15521057798E+02  0.19184312617E+02  0.10566000000E+00 0.  1.
         13    1    4    4    0    0  0.24417405346E+01 -0.42399206008E+00  0.14656025534E+03  0.14658124530E+03  0.10566000000E+00 0. -1.
        -13    1    4    4    0    0  0.11205454585E+01 -0.82068643219E+00  0.85436214056E+02  0.85447568629E+02  0.10566000000E+00 0.  1.
         14    1    4    4    0    0  0.72177076331E+01 -0.20591357900E+01  0.56898830408E+03  0.56903780676E+03  0.00000000000E+00 0. -1.
<mgrwt>
<rscale>  0 0.78293174E+02</rscale>
<asrwt>0</asrwt>
<pdfrwt beam="1">  1        2 0.12590462E+00 0.78293174E+02</pdfrwt>
<pdfrwt beam="2">  1       -1 0.28808419E-03 0.78293174E+02</pdfrwt>
<totfact> 0.36481493E+05</totfact>
</mgrwt>
</event>
<event>
 8    1  0.2389776E-016  0.7996805E+02  0.7818608E-02  0.1329142E+00
          2   -1    0    0  501    0  0.00000000000E+00  0.00000000000E+00  0.18638128237E+04  0.18638128237E+04  0.25500000000E-02 0. -1.
         -1   -1    0    0    0  501 -0.00000000000E+00 -0.00000000000E+00 -0.85776228318E+00  0.85777708995E+00  0.50400000000E-02 0.  1.
         24    2    1    2    0    0  0.00000000000E+00  0.17763568394E-14  0.18629550614E+04  0.18646706008E+04  0.79968047358E+02 0.  0.
         66    2    3    3    0    0 -0.31467774694E+00 -0.10379434116E+02  0.18317970018E+04  0.18318275266E+04  0.19999983996E+01 0.  0.
        -13    1    3    3    0    0  0.31467774694E+00  0.10379434116E+02  0.31158059652E+02  0.32843074155E+02  0.10566000000E+00 0.  1.
         13    1    4    4    0    0 -0.45535377436E+00 -0.44868982353E+01  0.86855829204E+03  0.86857000722E+03  0.10566000000E+00 0. -1.
        -13    1    4    4    0    0 -0.27120101431E+00 -0.43274981387E+01  0.63429833283E+03  0.63431316160E+03  0.10566000000E+00 0.  1.
         14    1    4    4    0    0  0.41187704173E+00 -0.15650377422E+01  0.32894037689E+03  0.32894435781E+03  0.00000000000E+00 0. -1.
<mgrwt>
<rscale>  0 0.79968047E+02</rscale>
<asrwt>0</asrwt>
<pdfrwt beam="1">  1        2 0.28674036E+00 0.79968047E+02</pdfrwt>
<pdfrwt beam="2">  1       -1 0.13196460E-03 0.79968047E+02</pdfrwt>
<totfact> 0.29494078E+05</totfact>
</mgrwt>
</event>
<event>
 8    1  0.2389776E-016  0.8506251E+02  0.7818608E-02  0.1315269E+00
         -1   -1    0    0    0  501 -0.00000000000E+00  0.00000000000E+00  0.66932218373E+02  0.66932218562E+02  0.50400000000E-02 0.  1.
          2   -1    0    0  501    0  0.00000000000E+00 -0.00000000000E+00 -0.27025959719E+02  0.27025959839E+02  0.25500000000E-02 0. -1.
         24    2    1    2    0    0  0.00000000000E+00 -0.35527136788E-14  0.39906258654E+02  0.93958178402E+02  0.85062505305E+02 0.  0.
         66    2    3    3    0    0  0.10066480287E+02  0.25865257042E+02 -0.15598428578E+02  0.31900729082E+02  0.19999986610E+01 0.  0.
        -13    1    3    3    0    0 -0.10066480287E+02 -0.25865257042E+02  0.55504687232E+02  0.62057449319E+02  0.10566000000E+00 0.  1.
         13    1    4    4    0    0  0.25776549934E+01  0.67661693935E+01 -0.34715446973E+01  0.80304508060E+01  0.10566000000E+00 0.  1.
        -13    1    4    4    0    0  0.35650839936E+01  0.10491840538E+02 -0.60238511793E+01  0.12612949252E+02  0.10566000000E+00 0. -1.
         14    1    4    4    0    0  0.39237412997E+01  0.86072471105E+01 -0.61030327017E+01  0.11257329025E+02  0.00000000000E+00 0. -1.
<mgrwt>
<rscale>  0 0.85062505E+02</rscale>
<asrwt>0</asrwt>
<pdfrwt beam="1">  1        2 0.41578400E-02 0.85062505E+02</pdfrwt>
<pdfrwt beam="2">  1       -1 0.10297264E-01 0.85062505E+02</pdfrwt>
<totfact> 0.11076877E+05</totfact>
</mgrwt>
</event>
<event>
 8    1  0.2389776E-016  0.7943418E+02  0.7818608E-02  0.1330665E+00
          2   -1    0    0  501    0  0.00000000000E+00  0.00000000000E+00  0.83937522668E+01  0.83937526542E+01  0.25500000000E-02 0. -1.
         -1   -1    0    0    0  501 -0.00000000000E+00 -0.00000000000E+00 -0.18793112393E+03  0.18793112400E+03  0.50400000000E-02 0.  1.
         24    2    1    2    0    0  0.00000000000E+00  0.00000000000E+00 -0.17953737166E+03  0.19632487665E+03  0.79434182620E+02 0.  0.
         66    2    3    3    0    0  0.32281107447E+02  0.19657811408E+02 -0.59865402885E+02  0.70826308044E+02  0.20000002943E+01 0.  0.
        -13    1    3    3    0    0 -0.32281107447E+02 -0.19657811408E+02 -0.11967196878E+03  0.12549856861E+03  0.10566000000E+00 0.  1.
         13    1    4    4    0    0  0.32958921274E+01  0.15345950618E+01 -0.56943294511E+01  0.67568068532E+01  0.10566000000E+00 0. -1.
        -13    1    4    4    0    0  0.43673816040E+01  0.21917388653E+01 -0.76580956391E+01  0.90848959367E+01  0.10566000000E+00 0. -1.
         14    1    4    4    0    0  0.24617833715E+02  0.15931477481E+02 -0.46512977795E+02  0.54984605254E+02  0.00000000000E+00 0. -1.
<mgrwt>
<rscale>  0 0.79434183E+02</rscale>
<asrwt>0</asrwt>
<pdfrwt beam="1">  1        2 0.12913467E-02 0.79434183E+02</pdfrwt>
<pdfrwt beam="2">  1       -1 0.28912478E-01 0.79434183E+02</pdfrwt>
<totfact> 0.10330706E+05</totfact>
</mgrwt>
</event>
<event>
 8    1  0.2389776E-016  0.8159204E+02  0.7818608E-02  0.1324593E+00
          2   -1    0    0  501    0  0.00000000000E+00  0.00000000000E+00  0.27296046288E+03  0.27296046289E+03  0.25500000000E-02 0. -1.
         -1   -1    0    0    0  501 -0.00000000000E+00 -0.00000000000E+00 -0.60972742685E+01  0.60972763516E+01  0.50400000000E-02 0.  1.
         24    2    1    2    0    0 -0.35527136788E-14  0.00000000000E+00  0.26686318861E+03  0.27905773924E+03  0.81592036350E+02 0.  0.
         66    2    3    3    0    0  0.30960632067E+02  0.23534304582E+02  0.17538382818E+03  0.17965497882E+03  0.19999997042E+01 0.  0.
        -13    1    3    3    0    0 -0.30960632067E+02 -0.23534304582E+02  0.91479360434E+02  0.99402760422E+02  0.10566000000E+00 0.  1.
         13    1    4    4    0    0  0.94200303112E+01  0.68701240057E+01  0.55958610426E+02  0.57160413048E+02  0.10566000000E+00 0. -1.
        -13    1    4    4    0    0  0.10544042647E+01  0.97773745874E+00  0.57874876157E+01  0.59643872970E+01  0.10566000000E+00 0.  1.
         14    1    4    4    0    0  0.20486197491E+02  0.15686443118E+02  0.11363773013E+03  0.11653017848E+03  0.00000000000E+00 0. -1.
<mgrwt>
<rscale>  0 0.81592036E+02</rscale>
<asrwt>0</asrwt>
<pdfrwt beam="1">  1        2 0.41993926E-01 0.81592036E+02</pdfrwt>
<pdfrwt beam="2">  1       -1 0.93804216E-03 0.81592036E+02</pdfrwt>
<totfact> 0.23393627E+05</totfact>
</mgrwt>
</event>
<event>
 8    1  0.2389776E-016  0.7897890E+02  0.7818608E-02  0.1331974E+00
         -1   -1    0    0    0  501 -0.00000000000E+00  0.00000000000E+00  0.44420001703E+01  0.44420030296E+01  0.50400000000E-02 0.  1.
          2   -1    0    0  501    0  0.00000000000E+00 -0.00000000000E+00 -0.35106166644E+03  0.35106166645E+03  0.25500000000E-02 0. -1.
         24    2    1    2    0    0  0.00000000000E+00 -0.88817841970E-15 -0.34661966627E+03  0.35550366948E+03  0.78978895713E+02 0.  0.
         66    2    3    3    0    0 -0.35324429226E+02 -0.60098473657E+01 -0.24785857835E+03  0.25044322394E+03  0.19999977203E+01 0.  0.
        -13    1    3    3    0    0  0.35324429226E+02  0.60098473657E+01 -0.98761087926E+02  0.10506044554E+03  0.10566000000E+00 0.  1.
         13    1    4    4    0    0 -0.26012875062E+01 -0.89713299296E+00 -0.19113070317E+02  0.19310415979E+02  0.10566000000E+00 0.  1.
        -13    1    4    4    0    0 -0.17535357426E+02 -0.31102019055E+01 -0.12086858042E+03  0.12217359376E+03  0.10566000000E+00 0. -1.
         14    1    4    4    0    0 -0.15187784295E+02 -0.20025124672E+01 -0.10787692761E+03  0.10895921420E+03  0.00000000000E+00 0. -1.
<mgrwt>
<rscale>  0 0.78978896E+02</rscale>
<asrwt>0</asrwt>
<pdfrwt beam="1">  1        2 0.54009465E-01 0.78978896E+02</pdfrwt>
<pdfrwt beam="2">  1       -1 0.68338514E-03 0.78978896E+02</pdfrwt>
<totfact> 0.27900311E+05</totfact>
</mgrwt>
</event>
<event>
 8    1  0.2389776E-016  0.7427414E+02  0.7818608E-02  0.1346134E+00
         -1   -1    0    0    0  501 -0.00000000000E+00  0.00000000000E+00  0.27238418889E+01  0.27238465517E+01  0.50400000000E-02 0.  1.
          2   -1    0    0  501    0  0.00000000000E+00 -0.00000000000E+00 -0.50632919858E+03  0.50632919858E+03  0.25500000000E-02 0. -1.
         24    2    1    2    0    0  0.35527136788E-14 -0.17763568394E-14 -0.50360535669E+03  0.50905304513E+03  0.74274137332E+02 0.  0.
         66    2    3    3    0    0 -0.19707371312E+02 -0.14970541294E+02 -0.44150666399E+03  0.44220428756E+03  0.19999992849E+01 0.  0.
        -13    1    3    3    0    0  0.19707371312E+02  0.14970541294E+02 -0.62098692697E+02  0.66848757576E+02  0.10566000000E+00 0.  1.
         13    1    4    4    0    0 -0.16882933125E+02 -0.12755245109E+02 -0.38224461815E+03  0.38282984338E+03  0.10566000000E+00 0. -1.
        -13    1    4    4    0    0 -0.12027241754E+01 -0.12629695343E+01 -0.31934353054E+02  0.31982115417E+02  0.10566000000E+00 0.  1.
        -14    1    4    4    0    0 -0.16217140113E+01 -0.95232664977E+00 -0.27327692781E+02  0.27392328764E+02  0.00000000000E+00 0.  1.
<mgrwt>
<rscale>  0 0.74274137E+02</rscale>
<asrwt>0</asrwt>
<pdfrwt beam="1">  1        2 0.77896725E-01 0.74274137E+02</pdfrwt>
<pdfrwt beam="2">  1       -1 0.41905336E-03 0.74274137E+02</pdfrwt>
<totfact> 0.37073450E+05</totfact>
</mgrwt>
</event>
<event>
 8    1  0.2389776E-016  0.7991331E+02  0.7818608E-02  0.1329298E+00
         -1   -1    0    0    0  501 -0.00000000000E+00  0.00000000000E+00  0.16634023065E+03  0.16634023073E+03  0.50400000000E-02 0.  1.
          2   -1    0    0  501    0  0.00000000000E+00 -0.00000000000E+00 -0.95980034051E+01  0.95980037439E+01  0.25500000000E-02 0. -1.
         24    2    1    2    0    0 -0.35527136788E-14  0.17763568394E-14  0.15674222724E+03  0.17593823447E+03  0.79913306444E+02 0.  0.
         66    2    3    3    0    0 -0.21930703783E+02  0.15466115031E+02  0.13318800641E+02  0.30025771173E+02  0.20000003576E+01 0.  0.
        -13    1    3    3    0    0  0.21930703783E+02 -0.15466115031E+02  0.14342342660E+03  0.14591246330E+03  0.10566000000E+00 0.  1.
         13    1    4    4    0    0 -0.52065719116E+01  0.31965866480E+01  0.35419690027E+01  0.70628086284E+01  0.10566000000E+00 0. -1.
        -13    1    4    4    0    0 -0.66622952591E+01  0.42531503446E+01  0.40316995363E+01  0.88736255927E+01  0.10566000000E+00 0.  1.
         14    1    4    4    0    0 -0.10061836613E+02  0.80163780387E+01  0.57451321021E+01  0.14089336952E+02  0.00000000000E+00 0. -1.
<mgrwt>
<rscale>  0 0.79913306E+02</rscale>
<asrwt>0</asrwt>
<pdfrwt beam="1">  1        2 0.14766160E-02 0.79913306E+02</pdfrwt>
<pdfrwt beam="2">  1       -1 0.25590803E-01 0.79913306E+02</pdfrwt>
<totfact> 0.10527669E+05</totfact>
</mgrwt>
</event>
<event>
 8    1  0.2389776E-016  0.8060166E+02  0.7818608E-02  0.1327353E+00
          2   -1    0    0  501    0  0.00000000000E+00  0.00000000000E+00  0.48225336551E+03  0.48225336552E+03  0.25500000000E-02 0. -1.
         -1   -1    0    0    0  501 -0.00000000000E+00 -0.00000000000E+00 -0.33678477794E+01  0.33678515506E+01  0.50400000000E-02 0.  1.
         24    2    1    2    0    0  0.00000000000E+00  0.00000000000E+00  0.47888551773E+03  0.48562121707E+03  0.80601658630E+02 0.  0.
         66    2    3    3    0    0 -0.36441845637E+02 -0.95345247632E+00  0.34276165386E+03  0.34470054909E+03  0.19999996570E+01 0.  0.
        -13    1    3    3    0    0  0.36441845637E+02  0.95345247632E+00  0.13612386387E+03  0.14092066798E+03  0.10566000000E+00 0.  1.
         13    1    4    4    0    0 -0.24708088810E+01 -0.42517835126E+00  0.21867830356E+02  0.22011334391E+02  0.10566000000E+00 0. -1.
        -13    1    4    4    0    0 -0.84045355133E+01 -0.22810240582E+00  0.83740033821E+02  0.84161111425E+02  0.10566000000E+00 0.  1.
         14    1    4    4    0    0 -0.25566501243E+02 -0.30017171924E+00  0.23715378969E+03  0.23852810327E+03  0.00000000000E+00 0. -1.
<mgrwt>
<rscale>  0 0.80601659E+02</rscale>
<asrwt>0</asrwt>
<pdfrwt beam="1">  1        2 0.74192862E-01 0.80601659E+02</pdfrwt>
<pdfrwt beam="2">  1       -1 0.51813047E-03 0.80601659E+02</pdfrwt>
<totfact> 0.29516744E+05</totfact>
</mgrwt>
</event>
<event>
 8    1  0.2389776E-016  0.8046673E+02  0.7818608E-02  0.1327732E+00
          2   -1    0    0  501    0  0.00000000000E+00  0.00000000000E+00  0.11706510496E+03  0.11706510499E+03  0.25500000000E-02 0. -1.
         -1   -1    0    0    0  501 -0.00000000000E+00 -0.00000000000E+00 -0.13827550687E+02  0.13827551606E+02  0.50400000000E-02 0.  1.
         24    2    1    2    0    0  0.00000000000E+00  0.00000000000E+00  0.10323755427E+03  0.13089265659E+03  0.80466731870E+02 0.  0.
         66    2    3    3    0    0  0.15873718150E+02  0.20655064323E+02  0.10147316680E+03  0.10478268077E+03  0.20000000574E+01 0.  0.
        -13    1    3    3    0    0 -0.15873718150E+02 -0.20655064323E+02  0.17643874761E+01  0.26109975820E+02  0.10566000000E+00 0.  1.
         13    1    4    4    0    0  0.54623123835E+01  0.68067187874E+01  0.36146968343E+02  0.37185787092E+02  0.10566000000E+00 0. -1.
        -13    1    4    4    0    0  0.34920762204E+00  0.19860904099E+00  0.15988021379E+01  0.16518849313E+01  0.10566000000E+00 0.  1.
         14    1    4    4    0    0  0.10062198144E+02  0.13649736495E+02  0.63727396316E+02  0.65945008751E+02  0.00000000000E+00 0. -1.
<mgrwt>
<rscale>  0 0.80466732E+02</rscale>
<asrwt>0</asrwt>
<pdfrwt beam="1">  1        2 0.18010016E-01 0.80466732E+02</pdfrwt>
<pdfrwt beam="2">  1       -1 0.21273155E-02 0.80466732E+02</pdfrwt>
<totfact> 0.18263462E+05</totfact>
</mgrwt>
</event>
<event>
 8    1  0.2389776E-016  0.7729127E+02  0.7818608E-02  0.1336919E+00
          2   -1    0    0  501    0  0.00000000000E+00  0.00000000000E+00  0.15541714443E+03  0.15541714445E+03  0.25500000000E-02 0. -1.
         -1   -1    0    0    0  501 -0.00000000000E+00 -0.00000000000E+00 -0.96095243551E+01  0.96095256768E+01  0.50400000000E-02 0.  1.
         24    2    1    2    0    0  0.00000000000E+00 -0.71054273576E-14  0.14580762007E+03  0.16502667013E+03  0.77291265881E+02 0.  0.
         66    2    3    3    0    0 -0.24749800661E+02  0.22369375571E+02  0.11449365670E+03  0.11927170250E+03  0.19999991275E+01 0.  0.
        -13    1    3    3    0    0  0.24749800661E+02 -0.22369375571E+02  0.31313963370E+02  0.45754967623E+02  0.10566000000E+00 0.  1.
         13    1    4    4    0    0 -0.56977451441E+01  0.47009663200E+01  0.25151134610E+02  0.26213624707E+02  0.10566000000E+00 0. -1.
        -13    1    4    4    0    0 -0.41840095063E+00  0.46625490432E+00  0.15222425747E+01  0.16494967363E+01  0.10566000000E+00 0.  1.
        -14    1    4    4    0    0 -0.18633654566E+02  0.17202154347E+02  0.87820279518E+02  0.91408581059E+02  0.00000000000E+00 0.  1.
<mgrwt>
<rscale>  0 0.77291266E+02</rscale>
<asrwt>0</asrwt>
<pdfrwt beam="1">  1        2 0.23910329E-01 0.77291266E+02</pdfrwt>
<pdfrwt beam="2">  1       -1 0.14783885E-02 0.77291266E+02</pdfrwt>
<totfact> 0.22195450E+05</totfact>
</mgrwt>
</event>
<event>
 8    1  0.2389776E-016  0.8475659E+02  0.7818608E-02  0.1316070E+00
         -1   -1    0    0    0  501 -0.00000000000E+00  0.00000000000E+00  0.54404952420E+02  0.54404952654E+02  0.50400000000E-02 0.  1.
          2   -1    0    0  501    0  0.00000000000E+00 -0.00000000000E+00 -0.33010230864E+02  0.33010230962E+02  0.25500000000E-02 0. -1.
         24    2    1    2    0    0  0.35527136788E-14  0.00000000000E+00  0.21394721557E+02  0.87415183616E+02  0.84756593939E+02 0.  0.
         66    2    3    3    0    0  0.23905584488E+02  0.14937240725E+02 -0.21900257060E+02  0.35752194275E+02  0.20000015131E+01 0.  0.
        -13    1    3    3    0    0 -0.23905584488E+02 -0.14937240725E+02  0.43294978616E+02  0.51662989340E+02  0.10566000000E+00 0.  1.
         13    1    4    4    0    0  0.10910007462E+02  0.63255341963E+01 -0.93851129739E+01  0.15720437502E+02  0.10566000000E+00 0. -1.
        -13    1    4    4    0    0  0.82980404908E+01  0.60606750488E+01 -0.77554665813E+01  0.12874303242E+02  0.10566000000E+00 0.  1.
         14    1    4    4    0    0  0.46975365348E+01  0.25510314800E+01 -0.47596775046E+01  0.71574535314E+01  0.00000000000E+00 0. -1.
<mgrwt>
<rscale>  0 0.84756594E+02</rscale>
<asrwt>0</asrwt>
<pdfrwt beam="1">  1        2 0.50784971E-02 0.84756594E+02</pdfrwt>
<pdfrwt beam="2">  1       -1 0.83699927E-02 0.84756594E+02</pdfrwt>
<totfact> 0.11663175E+05</totfact>
</mgrwt>
</event>
<event>
 8    1  0.2389776E-016  0.8069491E+02  0.7818608E-02  0.1327091E+00
          2   -1    0    0  501    0  0.00000000000E+00  0.00000000000E+00  0.37030612101E+03  0.37030612102E+03  0.25500000000E-02 0. -1.
         -1   -1    0    0    0  501 -0.00000000000E+00 -0.00000000000E+00 -0.43961370759E+01  0.43961399650E+01  0.50400000000E-02 0.  1.
         24    2    1    2    0    0  0.71054273576E-14  0.88817841970E-15  0.36590998394E+03  0.37470226099E+03  0.80694907174E+02 0.  0.
         66    2    3    3    0    0 -0.32364390579E+02 -0.72779536327E+01  0.28951133027E+03  0.29141247870E+03  0.20000006831E+01 0.  0.
        -13    1    3    3    0    0  0.32364390579E+02  0.72779536327E+01  0.76398653666E+02  0.83289782282E+02  0.10566000000E+00 0.  1.
         13    1    4    4    0    0 -0.79272847604E+01 -0.13941658771E+01  0.67683383029E+02  0.68160377379E+02  0.10566000000E+00 0. -1.
        -13    1    4    4    0    0 -0.51138703518E+00 -0.30663641199E+00  0.47647895031E+01  0.48031162419E+01  0.10566000000E+00 0.  1.
        -14    1    4    4    0    0 -0.23925718783E+02 -0.55771513436E+01  0.21706315774E+03  0.21844898508E+03  0.00000000000E+00 0.  1.
<mgrwt>
<rscale>  0 0.80694907E+02</rscale>
<asrwt>0</asrwt>
<pdfrwt beam="1">  1        2 0.56970175E-01 0.80694907E+02</pdfrwt>
<pdfrwt beam="2">  1       -1 0.67632898E-03 0.80694907E+02</pdfrwt>
<totfact> 0.26880188E+05</totfact>
</mgrwt>
</event>
<event>
 8    1  0.2389776E-016  0.8090460E+02  0.7818608E-02  0.1326504E+00
          2   -1    0    0  501    0  0.00000000000E+00  0.00000000000E+00  0.97362135094E+02  0.97362135128E+02  0.25500000000E-02 0. -1.
         -1   -1    0    0    0  501 -0.00000000000E+00 -0.00000000000E+00 -0.16807237717E+02  0.16807238473E+02  0.50400000000E-02 0.  1.
         24    2    1    2    0    0 -0.35527136788E-14  0.00000000000E+00  0.80554897377E+02  0.11416937360E+03  0.80904600467E+02 0.  0.
         66    2    3    3    0    0 -0.29458902852E+02  0.23607029978E+02  0.60715823409E+02  0.71522933636E+02  0.20000005259E+01 0.  0.
        -13    1    3    3    0    0  0.29458902852E+02 -0.23607029978E+02  0.19839073969E+02  0.42646439964E+02  0.10566000000E+00 0.  1.
         13    1    4    4    0    0 -0.11737488498E+02  0.10263628488E+02  0.26225280738E+02  0.30510444438E+02  0.10566000000E+00 0. -1.
        -13    1    4    4    0    0 -0.55429741410E+01  0.38972907079E+01  0.10316607809E+02  0.12343297692E+02  0.10566000000E+00 0.  1.
         14    1    4    4    0    0 -0.12178440213E+02  0.94461107811E+01  0.24173934862E+02  0.28669191506E+02  0.00000000000E+00 0. -1.
<mgrwt>
<rscale>  0 0.80904600E+02</rscale>
<asrwt>0</asrwt>
<pdfrwt beam="1">  1        2 0.14978790E-01 0.80904600E+02</pdfrwt>
<pdfrwt beam="2">  1       -1 0.25857289E-02 0.80904600E+02</pdfrwt>
<totfact> 0.17071607E+05</totfact>
</mgrwt>
</event>
<event>
 8    1  0.2389776E-016  0.7938292E+02  0.7818608E-02  0.1330812E+00
          2   -1    0    0  501    0  0.00000000000E+00  0.00000000000E+00  0.15279893534E+03  0.15279893536E+03  0.25500000000E-02 0. -1.
         -1   -1    0    0    0  501 -0.00000000000E+00 -0.00000000000E+00 -0.10310357830E+02  0.10310359062E+02  0.50400000000E-02 0.  1.
         24    2    1    2    0    0  0.71054273576E-14  0.00000000000E+00  0.14248857751E+03  0.16310929442E+03  0.79382915078E+02 0.  0.
         66    2    3    3    0    0 -0.34540275265E+02  0.19419981250E+02  0.74988197007E+02  0.84837467951E+02  0.19999977377E+01 0.  0.
        -13    1    3    3    0    0  0.34540275265E+02 -0.19419981250E+02  0.67500380502E+02  0.78271826470E+02  0.10566000000E+00 0.  1.
         13    1    4    4    0    0 -0.55519463685E+01  0.35796289844E+01  0.12539530216E+02  0.14173525821E+02  0.10566000000E+00 0.  1.
        -13    1    4    4    0    0 -0.19781578004E+02  0.11599022482E+02  0.43105079724E+02  0.48825272277E+02  0.10566000000E+00 0. -1.
        -14    1    4    4    0    0 -0.92067508926E+01  0.42413297830E+01  0.19343587066E+02  0.21838669852E+02  0.00000000000E+00 0.  1.
<mgrwt>
<rscale>  0 0.79382915E+02</rscale>
<asrwt>0</asrwt>
<pdfrwt beam="1">  1        2 0.23507525E-01 0.79382915E+02</pdfrwt>
<pdfrwt beam="2">  1       -1 0.15862092E-02 0.79382915E+02</pdfrwt>
<totfact> 0.20567978E+05</totfact>
</mgrwt>
</event>
<event>
 8    1  0.2389776E-016  0.7667643E+02  0.7818608E-02  0.1338757E+00
         -1   -1    0    0    0  501 -0.00000000000E+00  0.00000000000E+00  0.64188659660E+01  0.64188679447E+01  0.50400000000E-02 0.  1.
          2   -1    0    0  501    0  0.00000000000E+00 -0.00000000000E+00 -0.22898412870E+03  0.22898412871E+03  0.25500000000E-02 0. -1.
         24    2    1    2    0    0  0.35527136788E-14  0.35527136788E-14 -0.22256526273E+03  0.23540299666E+03  0.76676428321E+02 0.  0.
         66    2    3    3    0    0 -0.29499819726E+02 -0.21848969369E+02 -0.77699472244E+02  0.85958273618E+02  0.19999975096E+01 0.  0.
        -13    1    3    3    0    0  0.29499819726E+02  0.21848969369E+02 -0.14486579049E+03  0.14944472304E+03  0.10566000000E+00 0.  1.
         13    1    4    4    0    0 -0.40031148209E+01 -0.26802864036E+01 -0.10150113783E+02  0.11235872788E+02  0.10566000000E+00 0. -1.
        -13    1    4    4    0    0 -0.23143283807E+02 -0.16858303051E+02 -0.59848383196E+02  0.66344962901E+02  0.10566000000E+00 0.  1.
        -14    1    4    4    0    0 -0.23534210979E+01 -0.23103799142E+01 -0.77009752651E+01  0.83774379285E+01  0.00000000000E+00 0.  1.
<mgrwt>
<rscale>  0 0.76676428E+02</rscale>
<asrwt>0</asrwt>
<pdfrwt beam="1">  1        2 0.35228321E-01 0.76676428E+02</pdfrwt>
<pdfrwt beam="2">  1       -1 0.98751818E-03 0.76676428E+02</pdfrwt>
<totfact> 0.25860297E+05</totfact>
</mgrwt>
</event>
<event>
 8    1  0.2389776E-016  0.7959792E+02  0.7818608E-02  0.1330196E+00
          2   -1    0    0  501    0  0.00000000000E+00  0.00000000000E+00  0.79264636447E+02  0.79264636488E+02  0.25500000000E-02 0. -1.
         -1   -1    0    0    0  501 -0.00000000000E+00 -0.00000000000E+00 -0.19983149923E+02  0.19983150559E+02  0.50400000000E-02 0.  1.
         24    2    1    2    0    0  0.00000000000E+00 -0.17763568394E-14  0.59281486524E+02  0.99247787047E+02  0.79597918247E+02 0.  0.
         66    2    3    3    0    0  0.17210635750E+02  0.12458154589E+02  0.71583354953E+02  0.74696641869E+02  0.20000003760E+01 0.  0.
        -13    1    3    3    0    0 -0.17210635750E+02 -0.12458154589E+02 -0.12301868429E+02  0.24551145178E+02  0.10566000000E+00 0.  1.
         13    1    4    4    0    0  0.74963196328E+01  0.52910044861E+01  0.30916939465E+02  0.32249927851E+02  0.10566000000E+00 0. -1.
        -13    1    4    4    0    0  0.55668103728E+01  0.31866292248E+01  0.21599226639E+02  0.22531793958E+02  0.10566000000E+00 0.  1.
        -14    1    4    4    0    0  0.41475057441E+01  0.39805208781E+01  0.19067188850E+02  0.19914920060E+02  0.00000000000E+00 0.  1.
<mgrwt>
<rscale>  0 0.79597918E+02</rscale>
<asrwt>0</asrwt>
<pdfrwt beam="1">  1        2 0.12194560E-01 0.79597918E+02</pdfrwt>
<pdfrwt beam="2">  1       -1 0.30743308E-02 0.79597918E+02</pdfrwt>
<totfact> 0.16883950E+05</totfact>
</mgrwt>
</event>
<event>
 8    1  0.2389776E-016  0.7988147E+02  0.7818608E-02  0.1329388E+00
          2   -1    0    0  501    0  0.00000000000E+00  0.00000000000E+00  0.20326746871E+04  0.20326746871E+04  0.25500000000E-02 0. -1.
         -1   -1    0    0    0  501 -0.00000000000E+00 -0.00000000000E+00 -0.78480142191E+00  0.78481760520E+00  0.50400000000E-02 0.  1.
         24    2    1    2    0    0  0.00000000000E+00  0.00000000000E+00  0.20318898857E+04  0.20334595047E+04  0.79881473206E+02 0.  0.
         66    2    3    3    0    0  0.19215256875E+01 -0.16713433388E+02  0.19380106137E+04  0.19380846653E+04  0.20000060706E+01 0.  0.
        -13    1    3    3    0    0 -0.19215256875E+01  0.16713433388E+02  0.93879271976E+02  0.95374839383E+02  0.10566000000E+00 0.  1.
         13    1    4    4    0    0  0.19176617402E+01 -0.12800234795E+02  0.14588476518E+04  0.14589050709E+04  0.10566000000E+00 0. -1.
        -13    1    4    4    0    0  0.29670356383E+00 -0.72276523614E+00  0.96564802299E+02  0.96568020740E+02  0.10566000000E+00 0.  1.
         14    1    4    4    0    0 -0.29283961645E+00 -0.31904333566E+01  0.38259815960E+03  0.38261157373E+03  0.00000000000E+00 0. -1.
<mgrwt>
<rscale>  0 0.79881473E+02</rscale>
<asrwt>0</asrwt>
<pdfrwt beam="1">  1        2 0.31271638E+00 0.79881473E+02</pdfrwt>
<pdfrwt beam="2">  1       -1 0.12074101E-03 0.79881473E+02</pdfrwt>
<totfact> 0.27444173E+05</totfact>
</mgrwt>
</event>
<event>
 8    1  0.2389776E-016  0.7918372E+02  0.7818608E-02  0.1331384E+00
         -1   -1    0    0    0  501 -0.00000000000E+00  0.00000000000E+00  0.18317616689E+02  0.18317617382E+02  0.50400000000E-02 0.  1.
          2   -1    0    0  501    0  0.00000000000E+00 -0.00000000000E+00 -0.85574198601E+02  0.85574198639E+02  0.25500000000E-02 0. -1.
         24    2    1    2    0    0  0.00000000000E+00  0.00000000000E+00 -0.67256581913E+02  0.10389181602E+03  0.79183720711E+02 0.  0.
         66    2    3    3    0    0 -0.12223556704E+02  0.93451396238E+01 -0.81476258789E+02  0.82940507051E+02  0.19999976027E+01 0.  0.
        -13    1    3    3    0    0  0.12223556704E+02 -0.93451396238E+01  0.14219676877E+02  0.20951308971E+02  0.10566000000E+00 0.  1.
         13    1    4    4    0    0 -0.64414330990E+01  0.52849623415E+01 -0.47487433254E+02  0.48212968882E+02  0.10566000000E+00 0. -1.
        -13    1    4    4    0    0 -0.22616706658E+01  0.21277018897E+01 -0.14445222941E+02  0.14775584570E+02  0.10566000000E+00 0.  1.
         14    1    4    4    0    0 -0.35204529389E+01  0.19324753925E+01 -0.19543602594E+02  0.19951953598E+02  0.00000000000E+00 0. -1.
<mgrwt>
<rscale>  0 0.79183721E+02</rscale>
<asrwt>0</asrwt>
<pdfrwt beam="1">  1        2 0.13165261E-01 0.79183721E+02</pdfrwt>
<pdfrwt beam="2">  1       -1 0.28180950E-02 0.79183721E+02</pdfrwt>
<totfact> 0.17465960E+05</totfact>
</mgrwt>
</event>
<event>
 8    1  0.2389776E-016  0.8009175E+02  0.7818608E-02  0.1328791E+00
         -1   -1    0    0    0  501 -0.00000000000E+00  0.00000000000E+00  0.99895975574E+02  0.99895975701E+02  0.50400000000E-02 0.  1.
          2   -1    0    0  501    0  0.00000000000E+00 -0.00000000000E+00 -0.16053419976E+02  0.16053420179E+02  0.25500000000E-02 0. -1.
         24    2    1    2    0    0  0.00000000000E+00 -0.17763568394E-14  0.83842555598E+02  0.11594939588E+03  0.80091749111E+02 0.  0.
         66    2    3    3    0    0 -0.18236272989E+02  0.13607151359E+02 -0.57161087393E+01  0.23545490429E+02  0.19999999491E+01 0.  0.
        -13    1    3    3    0    0  0.18236272989E+02 -0.13607151359E+02  0.89558664337E+02  0.92403905450E+02  0.10566000000E+00 0.  1.
         13    1    4    4    0    0 -0.76696317767E+01  0.53680996609E+01 -0.23380784389E+01  0.96497419852E+01  0.10566000000E+00 0. -1.
        -13    1    4    4    0    0 -0.36897450504E+01  0.31636095650E+01 -0.19117652665E+01  0.52238543707E+01  0.10566000000E+00 0.  1.
        -14    1    4    4    0    0 -0.68768961615E+01  0.50754421333E+01 -0.14662650339E+01  0.86718940730E+01  0.00000000000E+00 0.  1.
<mgrwt>
<rscale>  0 0.80091749E+02</rscale>
<asrwt>0</asrwt>
<pdfrwt beam="1">  1        2 0.24697569E-02 0.80091749E+02</pdfrwt>
<pdfrwt beam="2">  1       -1 0.15368612E-01 0.80091749E+02</pdfrwt>
<totfact> 0.11821821E+05</totfact>
</mgrwt>
</event>
<event>
 8    1  0.2389776E-016  0.8039824E+02  0.7818608E-02  0.1327925E+00
         -1   -1    0    0    0  501 -0.00000000000E+00  0.00000000000E+00  0.40732760628E+01  0.40732791809E+01  0.50400000000E-02 0.  1.
          2   -1    0    0  501    0  0.00000000000E+00 -0.00000000000E+00 -0.39672459039E+03  0.39672459039E+03  0.25500000000E-02 0. -1.
         24    2    1    2    0    0 -0.35527136788E-14  0.00000000000E+00 -0.39265131432E+03  0.40079786957E+03  0.80398243862E+02 0.  0.
         66    2    3    3    0    0  0.30762627906E+02 -0.41653405458E+01 -0.32357076637E+03  0.32506265579E+03  0.20000004946E+01 0.  0.
        -13    1    3    3    0    0 -0.30762627906E+02  0.41653405458E+01 -0.69080547950E+02  0.75735213783E+02  0.10566000000E+00 0.  1.
         13    1    4    4    0    0  0.13479430694E+02 -0.23050235973E+01 -0.14674471914E+03  0.14738056841E+03  0.10566000000E+00 0. -1.
        -13    1    4    4    0    0  0.11634484118E+02 -0.93180430263E+00 -0.12291650453E+03  0.12346946072E+03  0.10566000000E+00 0.  1.
         14    1    4    4    0    0  0.56487130944E+01 -0.92851264595E+00 -0.53909542707E+02  0.54212626668E+02  0.00000000000E+00 0. -1.
<mgrwt>
<rscale>  0 0.80398244E+02</rscale>
<asrwt>0</asrwt>
<pdfrwt beam="1">  1        2 0.61034522E-01 0.80398244E+02</pdfrwt>
<pdfrwt beam="2">  1       -1 0.62665841E-03 0.80398244E+02</pdfrwt>
<totfact> 0.27809239E+05</totfact>
</mgrwt>
</event>
<event>
 8    1  0.2389776E-016  0.8005049E+02  0.7818608E-02  0.1328908E+00
         -1   -1    0    0    0  501 -0.00000000000E+00  0.00000000000E+00  0.11840677590E+03  0.11840677601E+03  0.50400000000E-02 0.  1.
          2   -1    0    0  501    0  0.00000000000E+00 -0.00000000000E+00 -0.13529800249E+02  0.13529800489E+02  0.25500000000E-02 0. -1.
         24    2    1    2    0    0 -0.35527136788E-14  0.00000000000E+00  0.10487697565E+03  0.13193657649E+03  0.80050485295E+02 0.  0.
         66    2    3    3    0    0  0.25780216572E+02  0.26103924884E+02  0.26204669698E+02  0.45130025195E+02  0.19999998310E+01 0.  0.
        -13    1    3    3    0    0 -0.25780216572E+02 -0.26103924884E+02  0.78672305951E+02  0.86806551299E+02  0.10566000000E+00 0.  1.
         13    1    4    4    0    0  0.90483947777E+01  0.90158767867E+01  0.93641080320E+01  0.15838471061E+02  0.10566000000E+00 0. -1.
        -13    1    4    4    0    0  0.16134559766E+02  0.16548936245E+02  0.16584196233E+02  0.28447109492E+02  0.10566000000E+00 0.  1.
        -14    1    4    4    0    0  0.59726202825E+00  0.53911185204E+00  0.25636543264E+00  0.84444464262E+00  0.00000000000E+00 0.  1.
<mgrwt>
<rscale>  0 0.80050485E+02</rscale>
<asrwt>0</asrwt>
<pdfrwt beam="1">  1        2 0.20815078E-02 0.80050485E+02</pdfrwt>
<pdfrwt beam="2">  1       -1 0.18216427E-01 0.80050485E+02</pdfrwt>
<totfact> 0.11401205E+05</totfact>
</mgrwt>
</event>
<event>
 8    1  0.2389776E-016  0.7342757E+02  0.7818608E-02  0.1348811E+00
         -1   -1    0    0    0  501 -0.00000000000E+00  0.00000000000E+00  0.13160894620E+01  0.13160991123E+01  0.50400000000E-02 0.  1.
          2   -1    0    0  501    0  0.00000000000E+00 -0.00000000000E+00 -0.10241683167E+04  0.10241683167E+04  0.25500000000E-02 0. -1.
         24    2    1    2    0    0  0.00000000000E+00 -0.44408920985E-15 -0.10228522272E+04  0.10254844158E+04  0.73427571897E+02 0.  0.
         66    2    3    3    0    0 -0.12724074591E+02  0.34308155826E+01 -0.98996677055E+03  0.99005650315E+03  0.20000200710E+01 0.  0.
        -13    1    3    3    0    0  0.12724074591E+02 -0.34308155826E+01 -0.32885456695E+02  0.35427912665E+02  0.10566000000E+00 0.  1.
         13    1    4    4    0    0 -0.71330040864E+01  0.17313383387E+01 -0.49311472584E+03  0.49316936370E+03  0.10566000000E+00 0. -1.
        -13    1    4    4    0    0 -0.12516367832E+00 -0.18917270500E-01 -0.19832865935E+02  0.19833551347E+02  0.10566000000E+00 0. -1.
         14    1    4    4    0    0 -0.54659068265E+01  0.17183945144E+01 -0.47701917877E+03  0.47705358811E+03  0.00000000000E+00 0. -1.
<mgrwt>
<rscale>  0 0.73427572E+02</rscale>
<asrwt>0</asrwt>
<pdfrwt beam="1">  1        2 0.15756372E+00 0.73427572E+02</pdfrwt>
<pdfrwt beam="2">  1       -1 0.20247686E-03 0.73427572E+02</pdfrwt>
<totfact> 0.44005200E+05</totfact>
</mgrwt>
</event>
<event>
 8    1  0.2389776E-016  0.8036506E+02  0.7818608E-02  0.1328019E+00
         -1   -1    0    0    0  501 -0.00000000000E+00  0.00000000000E+00  0.39435989822E+02  0.39435990144E+02  0.50400000000E-02 0.  1.
          2   -1    0    0  501    0  0.00000000000E+00 -0.00000000000E+00 -0.40943201548E+02  0.40943201628E+02  0.25500000000E-02 0. -1.
         24    2    1    2    0    0 -0.71054273576E-14  0.17763568394E-14 -0.15072117263E+01  0.80379191771E+02  0.80365059464E+02 0.  0.
         66    2    3    3    0    0 -0.35636122973E+02  0.12055752796E+02 -0.14804897413E+02  0.40477887974E+02  0.19999978546E+01 0.  0.
        -13    1    3    3    0    0  0.35636122973E+02 -0.12055752796E+02  0.13297685687E+02  0.39901303797E+02  0.10566000000E+00 0.  1.
         13    1    4    4    0    0 -0.73899444133E+01  0.18170560643E+01 -0.31378805721E+01  0.82322797385E+01  0.10566000000E+00 0. -1.
        -13    1    4    4    0    0 -0.59939100609E+01  0.22703565413E+01 -0.20801011625E+01  0.67393962285E+01  0.10566000000E+00 0.  1.
         14    1    4    4    0    0 -0.22252268499E+02  0.79683401906E+01 -0.95869156784E+01  0.25506212008E+02  0.00000000000E+00 0. -1.
<mgrwt>
<rscale>  0 0.80365059E+02</rscale>
<asrwt>0</asrwt>
<pdfrwt beam="1">  1        2 0.62989541E-02 0.80365059E+02</pdfrwt>
<pdfrwt beam="2">  1       -1 0.60670754E-02 0.80365059E+02</pdfrwt>
<totfact> 0.14144824E+05</totfact>
</mgrwt>
</event>
<event>
 8    1  0.2389776E-016  0.8385944E+02  0.7818608E-02  0.1318442E+00
         -1   -1    0    0    0  501 -0.00000000000E+00  0.00000000000E+00  0.20206663237E+01  0.20206726091E+01  0.50400000000E-02 0.  1.
          2   -1    0    0  501    0  0.00000000000E+00 -0.00000000000E+00 -0.87005888477E+03  0.87005888477E+03  0.25500000000E-02 0. -1.
         24    2    1    2    0    0  0.00000000000E+00  0.00000000000E+00 -0.86803821844E+03  0.87207955738E+03  0.83859440265E+02 0.  0.
         66    2    3    3    0    0 -0.12846346311E+02 -0.20311104097E+02 -0.79126995042E+03  0.79163735637E+03  0.20000018687E+01 0.  0.
        -13    1    3    3    0    0  0.12846346311E+02  0.20311104097E+02 -0.76768268026E+02  0.80442201007E+02  0.10566000000E+00 0.  1.
         13    1    4    4    0    0 -0.77910666226E+00 -0.20469687390E+01 -0.78649509619E+02  0.78680071274E+02  0.10566000000E+00 0. -1.
        -13    1    4    4    0    0 -0.20638697682E+01 -0.28595980764E+01 -0.12575267914E+03  0.12580216347E+03  0.10566000000E+00 0.  1.
        -14    1    4    4    0    0 -0.10003369880E+02 -0.15404537282E+02 -0.58686776166E+03  0.58715512163E+03  0.00000000000E+00 0.  1.
<mgrwt>
<rscale>  0 0.83859440E+02</rscale>
<asrwt>0</asrwt>
<pdfrwt beam="1">  1        2 0.13385491E+00 0.83859440E+02</pdfrwt>
<pdfrwt beam="2">  1       -1 0.31087292E-03 0.83859440E+02</pdfrwt>
<totfact> 0.30788011E+05</totfact>
</mgrwt>
</event>
<event>
 8    1  0.2389776E-016  0.7456249E+02  0.7818608E-02  0.1345231E+00
          2   -1    0    0  501    0  0.00000000000E+00  0.00000000000E+00  0.51676060407E+01  0.51676066699E+01  0.25500000000E-02 0. -1.
         -1   -1    0    0    0  501 -0.00000000000E+00 -0.00000000000E+00 -0.26896226716E+03  0.26896226721E+03  0.50400000000E-02 0.  1.
         24    2    1    2    0    0  0.00000000000E+00  0.00000000000E+00 -0.26379466112E+03  0.27412987388E+03  0.74562487330E+02 0.  0.
         66    2    3    3    0    0  0.30403504986E+02 -0.21244355770E+02 -0.14482846584E+03  0.14951581949E+03  0.19999981737E+01 0.  0.
        -13    1    3    3    0    0 -0.30403504986E+02  0.21244355770E+02 -0.11896619528E+03  0.12461405439E+03  0.10566000000E+00 0.  1.
         13    1    4    4    0    0  0.24152055816E+01 -0.16264734668E+01 -0.12842301851E+02  0.13168694499E+02  0.10566000000E+00 0. -1.
        -13    1    4    4    0    0  0.10446912812E+02 -0.74676581444E+01 -0.46957811700E+02  0.48682144048E+02  0.10566000000E+00 0.  1.
         14    1    4    4    0    0  0.17541386592E+02 -0.12150224159E+02 -0.85028352289E+02  0.87664980942E+02  0.00000000000E+00 0. -1.
<mgrwt>
<rscale>  0 0.74562487E+02</rscale>
<asrwt>0</asrwt>
<pdfrwt beam="1">  1        2 0.79501657E-03 0.74562487E+02</pdfrwt>
<pdfrwt beam="2">  1       -1 0.41378800E-01 0.74562487E+02</pdfrwt>
<totfact> 0.10794596E+05</totfact>
</mgrwt>
</event>
<event>
 8    1  0.2389776E-016  0.7846175E+02  0.7818608E-02  0.1333474E+00
         -1   -1    0    0    0  501 -0.00000000000E+00  0.00000000000E+00  0.31739888698E+02  0.31739889098E+02  0.50400000000E-02 0.  1.
          2   -1    0    0  501    0  0.00000000000E+00 -0.00000000000E+00 -0.48489822371E+02  0.48489822438E+02  0.25500000000E-02 0. -1.
         24    2    1    2    0    0 -0.35527136788E-14  0.00000000000E+00 -0.16749933673E+02  0.80229711536E+02  0.78461750778E+02 0.  0.
         66    2    3    3    0    0 -0.19171760584E+02 -0.24237272101E+02 -0.33049828439E+02  0.45291201318E+02  0.19999985394E+01 0.  0.
        -13    1    3    3    0    0  0.19171760584E+02  0.24237272101E+02  0.16299894767E+02  0.34938510218E+02  0.10566000000E+00 0.  1.
         13    1    4    4    0    0 -0.33585733831E+00 -0.43411996948E+00 -0.90781982302E+00  0.10660962275E+01  0.10566000000E+00 0. -1.
        -13    1    4    4    0    0 -0.61515521811E+01 -0.86260840515E+01 -0.11438479126E+02  0.15591692950E+02  0.10566000000E+00 0. -1.
         14    1    4    4    0    0 -0.12684351065E+02 -0.15177068080E+02 -0.20703529491E+02  0.28633412141E+02  0.00000000000E+00 0. -1.
<mgrwt>
<rscale>  0 0.78461751E+02</rscale>
<asrwt>0</asrwt>
<pdfrwt beam="1">  1        2 0.74599727E-02 0.78461751E+02</pdfrwt>
<pdfrwt beam="2">  1       -1 0.48830599E-02 0.78461751E+02</pdfrwt>
<totfact> 0.15654678E+05</totfact>
</mgrwt>
</event>
<event>
 8    1  0.2389776E-016  0.8106276E+02  0.7818608E-02  0.1326062E+00
         -1   -1    0    0    0  501 -0.00000000000E+00  0.00000000000E+00  0.26864804068E+02  0.26864804541E+02  0.50400000000E-02 0.  1.
          2   -1    0    0  501    0  0.00000000000E+00 -0.00000000000E+00 -0.61150376014E+02  0.61150376067E+02  0.25500000000E-02 0. -1.
         24    2    1    2    0    0  0.00000000000E+00  0.00000000000E+00 -0.34285571946E+02  0.88015180608E+02  0.81062763176E+02 0.  0.
         66    2    3    3    0    0 -0.12706081731E+02  0.15261337061E+02 -0.55486032156E+02  0.58966538661E+02  0.19999988387E+01 0.  0.
        -13    1    3    3    0    0  0.12706081731E+02 -0.15261337061E+02  0.21200460210E+02  0.29048641947E+02  0.10566000000E+00 0.  1.
         13    1    4    4    0    0 -0.64339173631E+01  0.89311567435E+01 -0.28880513895E+02  0.30907217608E+02  0.10566000000E+00 0. -1.
        -13    1    4    4    0    0 -0.30039957412E+01  0.31696191467E+01 -0.13013613520E+02  0.13727191148E+02  0.10566000000E+00 0.  1.
         14    1    4    4    0    0 -0.32681686268E+01  0.31605611705E+01 -0.13591904742E+02  0.14332129904E+02  0.00000000000E+00 0. -1.
<mgrwt>
<rscale>  0 0.81062763E+02</rscale>
<asrwt>0</asrwt>
<pdfrwt beam="1">  1        2 0.94077501E-02 0.81062763E+02</pdfrwt>
<pdfrwt beam="2">  1       -1 0.41330468E-02 0.81062763E+02</pdfrwt>
<totfact> 0.15083307E+05</totfact>
</mgrwt>
</event>
<event>
 8    1  0.2389776E-016  0.8023099E+02  0.7818608E-02  0.1328397E+00
          2   -1    0    0  501    0  0.00000000000E+00  0.00000000000E+00  0.75241093526E+03  0.75241093526E+03  0.25500000000E-02 0. -1.
         -1   -1    0    0    0  501 -0.00000000000E+00 -0.00000000000E+00 -0.21387920654E+01  0.21387980037E+01  0.50400000000E-02 0.  1.
         24    2    1    2    0    0  0.00000000000E+00 -0.17763568394E-14  0.75027214319E+03  0.75454973327E+03  0.80230986040E+02 0.  0.
         66    2    3    3    0    0 -0.19755844113E+02  0.11185518456E+02  0.68612842743E+03  0.68650683036E+03  0.20000016177E+01 0.  0.
        -13    1    3    3    0    0  0.19755844113E+02 -0.11185518456E+02  0.64143715764E+02  0.68042902905E+02  0.10566000000E+00 0.  1.
         13    1    4    4    0    0 -0.48384282679E+01  0.34015954521E+01  0.16195787385E+03  0.16206586718E+03  0.10566000000E+00 0. -1.
        -13    1    4    4    0    0 -0.10109149970E+02  0.50667828351E+01  0.35961291567E+03  0.35979067175E+03  0.10566000000E+00 0.  1.
         14    1    4    4    0    0 -0.48082658750E+01  0.27171401684E+01  0.16455763791E+03  0.16465029143E+03  0.00000000000E+00 0. -1.
<mgrwt>
<rscale>  0 0.80230986E+02</rscale>
<asrwt>0</asrwt>
<pdfrwt beam="1">  1        2 0.11575578E+00 0.80230986E+02</pdfrwt>
<pdfrwt beam="2">  1       -1 0.32904467E-03 0.80230986E+02</pdfrwt>
<totfact> 0.33721056E+05</totfact>
</mgrwt>
</event>
<event>
 8    1  0.2389776E-016  0.7960167E+02  0.7818608E-02  0.1330186E+00
          2   -1    0    0  501    0  0.00000000000E+00  0.00000000000E+00  0.18769110152E+03  0.18769110154E+03  0.25500000000E-02 0. -1.
         -1   -1    0    0    0  501 -0.00000000000E+00 -0.00000000000E+00 -0.84399640134E+01  0.84399655183E+01  0.50400000000E-02 0.  1.
         24    2    1    2    0    0  0.00000000000E+00  0.00000000000E+00  0.17925113751E+03  0.19613106706E+03  0.79601665605E+02 0.  0.
         66    2    3    3    0    0 -0.85021336877E+01  0.18674097502E+02  0.17363915402E+03  0.17485869724E+03  0.19999999125E+01 0.  0.
        -13    1    3    3    0    0  0.85021336877E+01 -0.18674097502E+02  0.56119834930E+01  0.21272369814E+02  0.10566000000E+00 0.  1.
         13    1    4    4    0    0 -0.65742036583E+01  0.13733453584E+02  0.12869229949E+03  0.12958991864E+03  0.10566000000E+00 0. -1.
        -13    1    4    4    0    0 -0.12099358908E+01  0.39616748715E+01  0.36667307961E+02  0.36900697145E+02  0.10566000000E+00 0.  1.
        -14    1    4    4    0    0 -0.71799413852E+00  0.97896904584E+00  0.82795465614E+01  0.83680814551E+01  0.00000000000E+00 0.  1.
<mgrwt>
<rscale>  0 0.79601666E+02</rscale>
<asrwt>0</asrwt>
<pdfrwt beam="1">  1        2 0.28875553E-01 0.79601666E+02</pdfrwt>
<pdfrwt beam="2">  1       -1 0.12984562E-02 0.79601666E+02</pdfrwt>
<totfact> 0.21866681E+05</totfact>
</mgrwt>
</event>
<event>
 8    1  0.2389776E-016  0.7962440E+02  0.7818608E-02  0.1330121E+00
         -1   -1    0    0    0  501 -0.00000000000E+00  0.00000000000E+00  0.13491044292E+02  0.13491045233E+02  0.50400000000E-02 0.  1.
          2   -1    0    0  501    0  0.00000000000E+00 -0.00000000000E+00 -0.11748618855E+03  0.11748618858E+03  0.25500000000E-02 0. -1.
         24    2    1    2    0    0  0.00000000000E+00  0.00000000000E+00 -0.10399514426E+03  0.13097723381E+03  0.79624404222E+02 0.  0.
         66    2    3    3    0    0 -0.17633051280E+02  0.28904042230E+02 -0.86402740859E+02  0.92821343362E+02  0.20000002453E+01 0.  0.
        -13    1    3    3    0    0  0.17633051280E+02 -0.28904042230E+02 -0.17592403402E+02  0.38155890452E+02  0.10566000000E+00 0.  1.
         13    1    4    4    0    0 -0.12465963671E+02  0.19638812301E+02 -0.57628913929E+02  0.62146488907E+02  0.10566000000E+00 0. -1.
        -13    1    4    4    0    0 -0.29830222077E+01  0.59889770231E+01 -0.17850009726E+02  0.19063060576E+02  0.10566000000E+00 0.  1.
        -14    1    4    4    0    0 -0.21840654021E+01  0.32762529053E+01 -0.10923817204E+02  0.11611793879E+02  0.00000000000E+00 0.  1.
<mgrwt>
<rscale>  0 0.79624404E+02</rscale>
<asrwt>0</asrwt>
<pdfrwt beam="1">  1        2 0.18074798E-01 0.79624404E+02</pdfrwt>
<pdfrwt beam="2">  1       -1 0.20755454E-02 0.79624404E+02</pdfrwt>
<totfact> 0.18803608E+05</totfact>
</mgrwt>
</event>
<event>
 8    1  0.2389776E-016  0.7474937E+02  0.7818608E-02  0.1344649E+00
          2   -1    0    0  501    0  0.00000000000E+00  0.00000000000E+00  0.30099249954E+03  0.30099249955E+03  0.25500000000E-02 0. -1.
         -1   -1    0    0    0  501 -0.00000000000E+00 -0.00000000000E+00 -0.46408684772E+01  0.46408712139E+01  0.50400000000E-02 0.  1.
         24    2    1    2    0    0 -0.88817841970E-15  0.00000000000E+00  0.29635163107E+03  0.30563337077E+03  0.74749368502E+02 0.  0.
         66    2    3    3    0    0 -0.47014526057E+01 -0.25079919592E+02  0.25979023763E+03  0.26104802926E+03  0.19999973565E+01 0.  0.
        -13    1    3    3    0    0  0.47014526057E+01  0.25079919592E+02  0.36561393435E+02  0.44585341507E+02  0.10566000000E+00 0.  1.
         13    1    4    4    0    0 -0.21195706276E+01 -0.74969189175E+01  0.79149877461E+02  0.79532450226E+02  0.10566000000E+00 0. -1.
        -13    1    4    4    0    0 -0.68963590169E+00 -0.31205114486E+01  0.29287459582E+02  0.29461494228E+02  0.10566000000E+00 0. -1.
         14    1    4    4    0    0 -0.18922460764E+01 -0.14462489226E+02  0.15135290059E+03  0.15205408481E+03  0.00000000000E+00 0. -1.
<mgrwt>
<rscale>  0 0.74749369E+02</rscale>
<asrwt>0</asrwt>
<pdfrwt beam="1">  1        2 0.46306549E-01 0.74749369E+02</pdfrwt>
<pdfrwt beam="2">  1       -1 0.71397981E-03 0.74749369E+02</pdfrwt>
<totfact> 0.30477828E+05</totfact>
</mgrwt>
</event>
<event>
 8    1  0.2389776E-016  0.7779583E+02  0.7818608E-02  0.1335426E+00
         -1   -1    0    0    0  501 -0.00000000000E+00  0.00000000000E+00  0.22411283705E+01  0.22411340376E+01  0.50400000000E-02 0.  1.
          2   -1    0    0  501    0  0.00000000000E+00 -0.00000000000E+00 -0.67512678232E+03  0.67512678232E+03  0.25500000000E-02 0. -1.
         24    2    1    2    0    0  0.00000000000E+00  0.00000000000E+00 -0.67288565395E+03  0.67736791636E+03  0.77795827819E+02 0.  0.
         66    2    3    3    0    0  0.91210472789E+01 -0.84801246254E+01 -0.65728266586E+03  0.65740368789E+03  0.19999986622E+01 0.  0.
        -13    1    3    3    0    0 -0.91210472789E+01  0.84801246254E+01 -0.15602988089E+02  0.19964228472E+02  0.10566000000E+00 0.  1.
         13    1    4    4    0    0  0.54675590454E+01 -0.48951287767E+01 -0.39296321767E+03  0.39303175202E+03  0.10566000000E+00 0. -1.
        -13    1    4    4    0    0  0.16828736482E+01 -0.11393589944E+01 -0.80854876909E+02  0.80880482730E+02  0.10566000000E+00 0.  1.
        -14    1    4    4    0    0  0.19706145852E+01 -0.24456368543E+01 -0.18346457127E+03  0.18349145314E+03  0.00000000000E+00 0.  1.
<mgrwt>
<rscale>  0 0.77795828E+02</rscale>
<asrwt>0</asrwt>
<pdfrwt beam="1">  1        2 0.10386550E+00 0.77795828E+02</pdfrwt>
<pdfrwt beam="2">  1       -1 0.34478995E-03 0.77795828E+02</pdfrwt>
<totfact> 0.35663516E+05</totfact>
</mgrwt>
</event>
<event>
 8    1  0.2389776E-016  0.7944497E+02  0.7818608E-02  0.1330634E+00
         -1   -1    0    0    0  501 -0.00000000000E+00  0.00000000000E+00  0.20679502610E+03  0.20679502616E+03  0.50400000000E-02 0.  1.
          2   -1    0    0  501    0  0.00000000000E+00 -0.00000000000E+00 -0.76301435542E+01  0.76301439803E+01  0.25500000000E-02 0. -1.
         24    2    1    2    0    0  0.00000000000E+00  0.00000000000E+00  0.19916488255E+03  0.21442517014E+03  0.79444969323E+02 0.  0.
         66    2    3    3    0    0  0.35945616923E+01 -0.36220699108E+02  0.14240714639E+03  0.14699882740E+03  0.19999992658E+01 0.  0.
        -13    1    3    3    0    0 -0.35945616923E+01  0.36220699108E+02  0.56757736153E+02  0.67426342737E+02  0.10566000000E+00 0.  1.
         13    1    4    4    0    0  0.21849537813E+01 -0.20978835639E+02  0.81387709065E+02  0.84076488501E+02  0.10566000000E+00 0. -1.
        -13    1    4    4    0    0  0.65018574761E+00 -0.77233322246E+01  0.28378501083E+02  0.29418074205E+02  0.10566000000E+00 0.  1.
         14    1    4    4    0    0  0.75942216340E+00 -0.75185312440E+01  0.32640936244E+02  0.33504264698E+02  0.00000000000E+00 0. -1.
<mgrwt>
<rscale>  0 0.79444969E+02</rscale>
<asrwt>0</asrwt>
<pdfrwt beam="1">  1        2 0.11738684E-02 0.79444969E+02</pdfrwt>
<pdfrwt beam="2">  1       -1 0.31814615E-01 0.79444969E+02</pdfrwt>
<totfact> 0.10035487E+05</totfact>
</mgrwt>
</event>
<event>
 8    1  0.2389776E-016  0.8085191E+02  0.7818608E-02  0.1326651E+00
         -1   -1    0    0    0  501 -0.00000000000E+00  0.00000000000E+00  0.83613600430E+01  0.83613615620E+01  0.50400000000E-02 0.  1.
          2   -1    0    0  501    0  0.00000000000E+00 -0.00000000000E+00 -0.19545356996E+03  0.19545356998E+03  0.25500000000E-02 0. -1.
         24    2    1    2    0    0  0.00000000000E+00  0.00000000000E+00 -0.18709220992E+03  0.20381493154E+03  0.80851909727E+02 0.  0.
         66    2    3    3    0    0  0.20584672831E+02 -0.20301928049E+01 -0.18108776843E+03  0.18227624727E+03  0.20000013476E+01 0.  0.
        -13    1    3    3    0    0 -0.20584672831E+02  0.20301928049E+01 -0.60044414854E+01  0.21538684267E+02  0.10566000000E+00 0.  1.
         13    1    4    4    0    0  0.11677027666E+02 -0.21124133866E+01 -0.10237692250E+03  0.10306241163E+03  0.10566000000E+00 0. -1.
        -13    1    4    4    0    0  0.41257345566E+01 -0.50280263680E-01 -0.35741894849E+02  0.35979416687E+02  0.10566000000E+00 0.  1.
         14    1    4    4    0    0  0.47819106086E+01  0.13250084535E+00 -0.42968951077E+02  0.43234418953E+02  0.00000000000E+00 0. -1.
<mgrwt>
<rscale>  0 0.80851910E+02</rscale>
<asrwt>0</asrwt>
<pdfrwt beam="1">  1        2 0.30069777E-01 0.80851910E+02</pdfrwt>
<pdfrwt beam="2">  1       -1 0.12863634E-02 0.80851910E+02</pdfrwt>
<totfact> 0.21279754E+05</totfact>
</mgrwt>
</event>
<event>
 8    1  0.2389776E-016  0.7392232E+02  0.7818608E-02  0.1347241E+00
          2   -1    0    0  501    0  0.00000000000E+00  0.00000000000E+00  0.33074604067E+03  0.33074604068E+03  0.25500000000E-02 0. -1.
         -1   -1    0    0    0  501 -0.00000000000E+00 -0.00000000000E+00 -0.41304409724E+01  0.41304440474E+01  0.50400000000E-02 0.  1.
         24    2    1    2    0    0  0.00000000000E+00  0.71054273576E-14  0.32661559970E+03  0.33487648473E+03  0.73922324486E+02 0.  0.
         66    2    3    3    0    0  0.10440917550E+02  0.35012187710E+02  0.18793010875E+03  0.19145911266E+03  0.19999994726E+01 0.  0.
        -13    1    3    3    0    0 -0.10440917550E+02 -0.35012187710E+02  0.13868549095E+03  0.14341737207E+03  0.10566000000E+00 0.  1.
         13    1    4    4    0    0  0.62940526651E+01  0.19944738680E+02  0.11008850325E+03  0.11205756294E+03  0.10566000000E+00 0. -1.
        -13    1    4    4    0    0  0.41014628878E+01  0.13975562395E+02  0.72825847815E+02  0.74268119783E+02  0.10566000000E+00 0.  1.
        -14    1    4    4    0    0  0.45401996923E-01  0.10918866351E+01  0.50157576771E+01  0.51334299294E+01  0.00000000000E+00 0.  1.
<mgrwt>
<rscale>  0 0.73922324E+02</rscale>
<asrwt>0</asrwt>
<pdfrwt beam="1">  1        2 0.50884007E-01 0.73922324E+02</pdfrwt>
<pdfrwt beam="2">  1       -1 0.63545269E-03 0.73922324E+02</pdfrwt>
<totfact> 0.32449739E+05</totfact>
</mgrwt>
</event>
<event>
 8    1  0.2389776E-016  0.7923105E+02  0.7818608E-02  0.1331248E+00
          2   -1    0    0  501    0  0.00000000000E+00  0.00000000000E+00  0.14426729337E+02  0.14426729562E+02  0.25500000000E-02 0. -1.
         -1   -1    0    0    0  501 -0.00000000000E+00 -0.00000000000E+00 -0.10878346522E+03  0.10878346534E+03  0.50400000000E-02 0.  1.
         24    2    1    2    0    0  0.00000000000E+00 -0.55511151231E-16 -0.94356735882E+02  0.12321019490E+03  0.79231045180E+02 0.  0.
         66    2    3    3    0    0  0.26960249595E+02  0.34113555038E+00 -0.21269135002E+01  0.27120014690E+02  0.20000010077E+01 0.  0.
        -13    1    3    3    0    0 -0.26960249595E+02 -0.34113555038E+00 -0.92229822382E+02  0.96090180208E+02  0.10566000000E+00 0.  1.
         13    1    4    4    0    0  0.15445389984E+02  0.40038213249E-02 -0.89113155388E+00  0.15471437143E+02  0.10566000000E+00 0. -1.
        -13    1    4    4    0    0  0.23951988678E+01  0.28871645363E+00  0.17112288794E+00  0.24209051789E+01  0.10566000000E+00 0.  1.
         14    1    4    4    0    0  0.91196607437E+01  0.48415275426E-01 -0.14069048343E+01  0.92276723680E+01  0.00000000000E+00 0. -1.
<mgrwt>
<rscale>  0 0.79231045E+02</rscale>
<asrwt>0</asrwt>
<pdfrwt beam="1">  1        2 0.22194969E-02 0.79231045E+02</pdfrwt>
<pdfrwt beam="2">  1       -1 0.16735917E-01 0.79231045E+02</pdfrwt>
<totfact> 0.11922701E+05</totfact>
</mgrwt>
</event>
<event>
 8    1  0.2389776E-016  0.8039792E+02  0.7818608E-02  0.1327926E+00
         -1   -1    0    0    0  501 -0.00000000000E+00  0.00000000000E+00  0.91344023535E+01  0.91344037439E+01  0.50400000000E-02 0.  1.
          2   -1    0    0  501    0  0.00000000000E+00 -0.00000000000E+00 -0.17690881300E+03  0.17690881301E+03  0.25500000000E-02 0. -1.
         24    2    1    2    0    0  0.17763568394E-14 -0.17763568394E-14 -0.16777441064E+03  0.18604321676E+03  0.80397920591E+02 0.  0.
         66    2    3    3    0    0 -0.15616168715E+02 -0.14516319629E+02 -0.16273036468E+03  0.16413335997E+03  0.20000009844E+01 0.  0.
        -13    1    3    3    0    0  0.15616168715E+02  0.14516319629E+02 -0.50440459610E+01  0.21909856791E+02  0.10566000000E+00 0.  1.
         13    1    4    4    0    0 -0.31845410171E+01 -0.32134514447E+01 -0.31071757131E+02  0.31399567304E+02  0.10566000000E+00 0. -1.
        -13    1    4    4    0    0 -0.49797769140E+01 -0.43983961645E+01 -0.46843378610E+02  0.47312338248E+02  0.10566000000E+00 0.  1.
        -14    1    4    4    0    0 -0.74518507841E+01 -0.69044720196E+01 -0.84815228941E+02  0.85421454415E+02  0.00000000000E+00 0.  1.
<mgrwt>
<rscale>  0 0.80397921E+02</rscale>
<asrwt>0</asrwt>
<pdfrwt beam="1">  1        2 0.27216738E-01 0.80397921E+02</pdfrwt>
<pdfrwt beam="2">  1       -1 0.14052929E-02 0.80397921E+02</pdfrwt>
<totfact> 0.20874113E+05</totfact>
</mgrwt>
</event>
<event>
 8    1  0.2389776E-016  0.8558011E+02  0.7818608E-02  0.1313922E+00
         -1   -1    0    0    0  501 -0.00000000000E+00  0.00000000000E+00  0.18832576742E+01  0.18832644182E+01  0.50400000000E-02 0.  1.
          2   -1    0    0  501    0  0.00000000000E+00 -0.00000000000E+00 -0.97224370999E+03  0.97224370999E+03  0.25500000000E-02 0. -1.
         24    2    1    2    0    0 -0.44408920985E-15 -0.35527136788E-14 -0.97036045231E+03  0.97412697441E+03  0.85580107839E+02 0.  0.
         66    2    3    3    0    0 -0.32160992907E+01 -0.23680171513E+02 -0.88914939447E+03  0.88947273118E+03  0.19999997082E+01 0.  0.
        -13    1    3    3    0    0  0.32160992907E+01  0.23680171513E+02 -0.81211057839E+02  0.84654243231E+02  0.10566000000E+00 0.  1.
         13    1    4    4    0    0 -0.11470080756E+01 -0.13899422091E+02 -0.51299860826E+03  0.51318816511E+03  0.10566000000E+00 0. -1.
        -13    1    4    4    0    0 -0.16863311352E+01 -0.78664752481E+01 -0.28944831074E+03  0.28956011621E+03  0.10566000000E+00 0.  1.
         14    1    4    4    0    0 -0.38276007997E+00 -0.19142741744E+01 -0.86702475470E+02  0.86724449860E+02  0.00000000000E+00 0. -1.
<mgrwt>
<rscale>  0 0.85580108E+02</rscale>
<asrwt>0</asrwt>
<pdfrwt beam="1">  1        2 0.14957555E+00 0.85580108E+02</pdfrwt>
<pdfrwt beam="2">  1       -1 0.28973325E-03 0.85580108E+02</pdfrwt>
<totfact> 0.29512777E+05</totfact>
</mgrwt>
</event>
<event>
 8    1  0.2389776E-016  0.8100655E+02  0.7818608E-02  0.1326219E+00
          2   -1    0    0  501    0  0.00000000000E+00  0.00000000000E+00  0.40073516056E+03  0.40073516056E+03  0.25500000000E-02 0. -1.
         -1   -1    0    0    0  501 -0.00000000000E+00 -0.00000000000E+00 -0.40937622863E+01  0.40937653888E+01  0.50400000000E-02 0.  1.
         24    2    1    2    0    0  0.00000000000E+00  0.35527136788E-14  0.39664139827E+03  0.40482892595E+03  0.81006545827E+02 0.  0.
         66    2    3    3    0    0  0.70760487593E+01  0.30839598212E+02  0.32460757078E+03  0.32615215206E+03  0.19999998418E+01 0.  0.
        -13    1    3    3    0    0 -0.70760487593E+01 -0.30839598212E+02  0.72033827491E+02  0.78676773898E+02  0.10566000000E+00 0.  1.
         13    1    4    4    0    0  0.47973256934E+01  0.21984646199E+02  0.22633013834E+03  0.22744599730E+03  0.10566000000E+00 0. -1.
        -13    1    4    4    0    0  0.50572791239E+00  0.18917514636E+01  0.17397225676E+02  0.17507401565E+02  0.10566000000E+00 0.  1.
         14    1    4    4    0    0  0.17729951535E+01  0.69632005494E+01  0.80880206765E+02  0.81198753193E+02  0.00000000000E+00 0. -1.
<mgrwt>
<rscale>  0 0.81006546E+02</rscale>
<asrwt>0</asrwt>
<pdfrwt beam="1">  1        2 0.61651577E-01 0.81006546E+02</pdfrwt>
<pdfrwt beam="2">  1       -1 0.62980968E-03 0.81006546E+02</pdfrwt>
<totfact> 0.27362747E+05</totfact>
</mgrwt>
</event>
<event>
 8    1  0.2389776E-016  0.7611143E+02  0.7818608E-02  0.1340463E+00
          2   -1    0    0  501    0  0.00000000000E+00  0.00000000000E+00  0.17547533257E+03  0.17547533259E+03  0.25500000000E-02 0. -1.
         -1   -1    0    0    0  501 -0.00000000000E+00 -0.00000000000E+00 -0.82532243543E+01  0.82532258932E+01  0.50400000000E-02 0.  1.
         24    2    1    2    0    0  0.00000000000E+00  0.17763568394E-14  0.16722210822E+03  0.18372855848E+03  0.76111429666E+02 0.  0.
         66    2    3    3    0    0  0.10769360528E+02  0.14395616429E+02  0.16456339940E+03  0.16555459922E+03  0.20000008497E+01 0.  0.
        -13    1    3    3    0    0 -0.10769360528E+02 -0.14395616429E+02  0.26587088170E+01  0.18173959260E+02  0.10566000000E+00 0.  1.
         13    1    4    4    0    0  0.31021770241E+01  0.50650219099E+01  0.57017459591E+02  0.57326083169E+02  0.10566000000E+00 0. -1.
        -13    1    4    4    0    0  0.20514254170E+01  0.20234742442E+01  0.29393357640E+02  0.29534444834E+02  0.10566000000E+00 0.  1.
         14    1    4    4    0    0  0.56157580872E+01  0.73071202748E+01  0.78152582170E+02  0.78694071222E+02  0.00000000000E+00 0. -1.
<mgrwt>
<rscale>  0 0.76111430E+02</rscale>
<asrwt>0</asrwt>
<pdfrwt beam="1">  1        2 0.26996203E-01 0.76111430E+02</pdfrwt>
<pdfrwt beam="2">  1       -1 0.12697270E-02 0.76111430E+02</pdfrwt>
<totfact> 0.24055062E+05</totfact>
</mgrwt>
</event>
<event>
 8    1  0.2389776E-016  0.7628552E+02  0.7818608E-02  0.1339936E+00
         -1   -1    0    0    0  501 -0.00000000000E+00  0.00000000000E+00  0.31426320155E+01  0.31426360570E+01  0.50400000000E-02 0.  1.
          2   -1    0    0  501    0  0.00000000000E+00 -0.00000000000E+00 -0.46294605238E+03  0.46294605239E+03  0.25500000000E-02 0. -1.
         24    2    1    2    0    0  0.00000000000E+00 -0.17763568394E-14 -0.45980342037E+03  0.46608868845E+03  0.76285517083E+02 0.  0.
         66    2    3    3    0    0  0.34184158178E+02  0.11105091925E+02 -0.30758035201E+03  0.30967975827E+03  0.19999995633E+01 0.  0.
        -13    1    3    3    0    0 -0.34184158178E+02 -0.11105091925E+02 -0.15222306835E+03  0.15640893018E+03  0.10566000000E+00 0.  1.
         13    1    4    4    0    0  0.62268677331E+01  0.14961590018E+01 -0.54551276917E+02  0.54925998860E+02  0.10566000000E+00 0. -1.
        -13    1    4    4    0    0  0.33367693433E+01  0.15819550814E+01 -0.30401363411E+02  0.30625000780E+02  0.10566000000E+00 0.  1.
         14    1    4    4    0    0  0.24620521102E+02  0.80269778422E+01 -0.22262771169E+03  0.22412875863E+03  0.00000000000E+00 0. -1.
<mgrwt>
<rscale>  0 0.76285517E+02</rscale>
<asrwt>0</asrwt>
<pdfrwt beam="1">  1        2 0.71222416E-01 0.76285517E+02</pdfrwt>
<pdfrwt beam="2">  1       -1 0.48348253E-03 0.76285517E+02</pdfrwt>
<totfact> 0.33609040E+05</totfact>
</mgrwt>
</event>
<event>
 8    1  0.2389776E-016  0.8006565E+02  0.7818608E-02  0.1328865E+00
         -1   -1    0    0    0  501 -0.00000000000E+00  0.00000000000E+00  0.19869526146E+01  0.19869590067E+01  0.50400000000E-02 0.  1.
          2   -1    0    0  501    0  0.00000000000E+00 -0.00000000000E+00 -0.80657413868E+03  0.80657413868E+03  0.25500000000E-02 0. -1.
         24    2    1    2    0    0 -0.17763568394E-14  0.17763568394E-14 -0.80458718606E+03  0.80856109769E+03  0.80065652550E+02 0.  0.
         66    2    3    3    0    0  0.11269724000E+02  0.11461186008E+02 -0.77252914943E+03  0.77269894019E+03  0.19999963132E+01 0.  0.
        -13    1    3    3    0    0 -0.11269724000E+02 -0.11461186008E+02 -0.32058036632E+02  0.35862157499E+02  0.10566000000E+00 0.  1.
         13    1    4    4    0    0  0.54920772086E+01  0.47390808167E+01 -0.35790785782E+03  0.35798137892E+03  0.10566000000E+00 0. -1.
        -13    1    4    4    0    0  0.17525509318E+01  0.26824367619E+01 -0.16494628451E+03  0.16497743737E+03  0.10566000000E+00 0.  1.
        -14    1    4    4    0    0  0.40250958599E+01  0.40396684298E+01 -0.24967500710E+03  0.24974012390E+03  0.00000000000E+00 0.  1.
<mgrwt>
<rscale>  0 0.80065653E+02</rscale>
<asrwt>0</asrwt>
<pdfrwt beam="1">  1        2 0.12408807E+00 0.80065653E+02</pdfrwt>
<pdfrwt beam="2">  1       -1 0.30568615E-03 0.80065653E+02</pdfrwt>
<totfact> 0.34340364E+05</totfact>
</mgrwt>
</event>
<event>
 8    1  0.2389776E-016  0.8001116E+02  0.7818608E-02  0.1329020E+00
         -1   -1    0    0    0  501 -0.00000000000E+00  0.00000000000E+00  0.25035153476E+02  0.25035153984E+02  0.50400000000E-02 0.  1.
          2   -1    0    0  501    0  0.00000000000E+00 -0.00000000000E+00 -0.63927958773E+02  0.63927958824E+02  0.25500000000E-02 0. -1.
         24    2    1    2    0    0  0.00000000000E+00  0.00000000000E+00 -0.38892805297E+02  0.88963112808E+02  0.80011156326E+02 0.  0.
         66    2    3    3    0    0 -0.72392260418E+01 -0.23406718707E+02 -0.54587019073E+02  0.59866714673E+02  0.20000000504E+01 0.  0.
        -13    1    3    3    0    0  0.72392260418E+01  0.23406718707E+02  0.15694213776E+02  0.29096398134E+02  0.10566000000E+00 0.  1.
         13    1    4    4    0    0 -0.24430800599E+00 -0.89008462003E+00 -0.22389038121E+01  0.24240031658E+01  0.10566000000E+00 0. -1.
        -13    1    4    4    0    0 -0.26677943396E+01 -0.70877229378E+01 -0.15060558420E+02  0.16857773490E+02  0.10566000000E+00 0.  1.
        -14    1    4    4    0    0 -0.43271236962E+01 -0.15428911149E+02 -0.37287556840E+02  0.40584938017E+02  0.00000000000E+00 0.  1.
<mgrwt>
<rscale>  0 0.80011156E+02</rscale>
<asrwt>0</asrwt>
<pdfrwt beam="1">  1        2 0.98350705E-02 0.80011156E+02</pdfrwt>
<pdfrwt beam="2">  1       -1 0.38515622E-02 0.80011156E+02</pdfrwt>
<totfact> 0.15792467E+05</totfact>
</mgrwt>
</event>
<event>
 8    1  0.2389776E-016  0.7678445E+02  0.7818608E-02  0.1338433E+00
          2   -1    0    0  501    0  0.00000000000E+00  0.00000000000E+00  0.12670431329E+03  0.12670431331E+03  0.25500000000E-02 0. -1.
         -1   -1    0    0    0  501 -0.00000000000E+00 -0.00000000000E+00 -0.11633091142E+02  0.11633092234E+02  0.50400000000E-02 0.  1.
         24    2    1    2    0    0  0.35527136788E-14  0.35527136788E-14  0.11507122214E+03  0.13833740554E+03  0.76784448994E+02 0.  0.
         66    2    3    3    0    0 -0.29401248628E+02 -0.22098541051E+02  0.77242814528E+02  0.85575880508E+02  0.19999977520E+01 0.  0.
        -13    1    3    3    0    0  0.29401248628E+02  0.22098541051E+02  0.37828407615E+02  0.52761525037E+02  0.10566000000E+00 0.  1.
         13    1    4    4    0    0 -0.13583596859E+02 -0.94637743322E+01  0.33457352696E+02  0.37329381748E+02  0.10566000000E+00 0. -1.
        -13    1    4    4    0    0 -0.15296045681E+01 -0.14100978041E+01  0.49651303054E+01  0.53843986607E+01  0.10566000000E+00 0.  1.
         14    1    4    4    0    0 -0.14288047201E+02 -0.11224668915E+02  0.38820331527E+02  0.42862100099E+02  0.00000000000E+00 0. -1.
<mgrwt>
<rscale>  0 0.76784449E+02</rscale>
<asrwt>0</asrwt>
<pdfrwt beam="1">  1        2 0.19492971E-01 0.76784449E+02</pdfrwt>
<pdfrwt beam="2">  1       -1 0.17897065E-02 0.76784449E+02</pdfrwt>
<totfact> 0.21184068E+05</totfact>
</mgrwt>
</event>
<event>
 8    1  0.2389776E-016  0.6980237E+02  0.7818608E-02  0.1360766E+00
         -1   -1    0    0    0  501 -0.00000000000E+00  0.00000000000E+00  0.33367214180E+02  0.33367214561E+02  0.50400000000E-02 0.  1.
          2   -1    0    0  501    0  0.00000000000E+00 -0.00000000000E+00 -0.36505672094E+02  0.36505672183E+02  0.25500000000E-02 0. -1.
         24    2    1    2    0    0  0.35527136788E-14  0.88817841970E-15 -0.31384579140E+01  0.69872886744E+02  0.69802366606E+02 0.  0.
         66    2    3    3    0    0 -0.20689152912E+02 -0.53446041250E+01 -0.29157056082E+02  0.36204140760E+02  0.20000118338E+01 0.  0.
        -13    1    3    3    0    0  0.20689152912E+02  0.53446041250E+01  0.26018598168E+02  0.33668745984E+02  0.10566000000E+00 0.  1.
         13    1    4    4    0    0 -0.10132355370E+02 -0.24518308118E+01 -0.15599060251E+02  0.18762141254E+02  0.10566000000E+00 0. -1.
        -13    1    4    4    0    0 -0.83837156012E+01 -0.21824943632E+01 -0.11168884108E+02  0.14135243372E+02  0.10566000000E+00 0.  1.
        -14    1    4    4    0    0 -0.21730819405E+01 -0.71027894998E+00 -0.23891117228E+01  0.33067561341E+01  0.00000000000E+00 0.  1.
<mgrwt>
<rscale>  0 0.69802367E+02</rscale>
<asrwt>0</asrwt>
<pdfrwt beam="1">  1        2 0.56162572E-02 0.69802367E+02</pdfrwt>
<pdfrwt beam="2">  1       -1 0.51334176E-02 0.69802367E+02</pdfrwt>
<totfact> 0.20339051E+05</totfact>
</mgrwt>
</event>
<event>
 8    1  0.2389776E-016  0.8162910E+02  0.7818608E-02  0.1324491E+00
         -1   -1    0    0    0  501 -0.00000000000E+00  0.00000000000E+00  0.63450905864E+01  0.63450925881E+01  0.50400000000E-02 0.  1.
          2   -1    0    0  501    0  0.00000000000E+00 -0.00000000000E+00 -0.26253797358E+03  0.26253797359E+03  0.25500000000E-02 0. -1.
         24    2    1    2    0    0 -0.71054273576E-14  0.88817841970E-15 -0.25619288299E+03  0.26888306618E+03  0.81629100093E+02 0.  0.
         66    2    3    3    0    0 -0.35220337995E+02  0.50384398062E+01 -0.19388450085E+03  0.19713208198E+03  0.19999980765E+01 0.  0.
        -13    1    3    3    0    0  0.35220337995E+02 -0.50384398062E+01 -0.62308382143E+02  0.71750984198E+02  0.10566000000E+00 0.  1.
         13    1    4    4    0    0 -0.46230105652E+01  0.70758840113E+00 -0.25619971207E+02  0.26043559602E+02  0.10566000000E+00 0. -1.
        -13    1    4    4    0    0 -0.30340329826E+02  0.42754805013E+01 -0.16557582812E+03  0.16838699882E+03  0.10566000000E+00 0.  1.
        -14    1    4    4    0    0 -0.25699760383E+00  0.55370903777E-01 -0.26887015173E+01  0.27015235617E+01  0.00000000000E+00 0.  1.
<mgrwt>
<rscale>  0 0.81629100E+02</rscale>
<asrwt>0</asrwt>
<pdfrwt beam="1">  1        2 0.40390449E-01 0.81629100E+02</pdfrwt>
<pdfrwt beam="2">  1       -1 0.97616815E-03 0.81629100E+02</pdfrwt>
<totfact> 0.23038152E+05</totfact>
</mgrwt>
</event>
<event>
 8    1  0.2389776E-016  0.7696882E+02  0.7818608E-02  0.1337880E+00
         -1   -1    0    0    0  501 -0.00000000000E+00  0.00000000000E+00  0.71372924898E+01  0.71372942693E+01  0.50400000000E-02 0.  1.
          2   -1    0    0  501    0  0.00000000000E+00 -0.00000000000E+00 -0.20750859380E+03  0.20750859382E+03  0.25500000000E-02 0. -1.
         24    2    1    2    0    0 -0.71054273576E-14  0.00000000000E+00 -0.20037130131E+03  0.21464588808E+03  0.76968817602E+02 0.  0.
         66    2    3    3    0    0  0.33031519137E+02 -0.14403145947E+02 -0.13772122919E+03  0.14237158718E+03  0.19999997065E+01 0.  0.
        -13    1    3    3    0    0 -0.33031519137E+02  0.14403145947E+02 -0.62650072122E+02  0.72274300900E+02  0.10566000000E+00 0.  1.
         13    1    4    4    0    0  0.22800210634E+02 -0.99984302074E+01 -0.93884268471E+02  0.97129219300E+02  0.10566000000E+00 0.  1.
        -13    1    4    4    0    0  0.31321665828E+01 -0.15015841648E+01 -0.11874905226E+02  0.12372944705E+02  0.10566000000E+00 0. -1.
        -14    1    4    4    0    0  0.70991419199E+01 -0.29031315744E+01 -0.31962055491E+02  0.32869423180E+02  0.00000000000E+00 0.  1.
<mgrwt>
<rscale>  0 0.76968818E+02</rscale>
<asrwt>0</asrwt>
<pdfrwt beam="1">  1        2 0.31924395E-01 0.76968818E+02</pdfrwt>
<pdfrwt beam="2">  1       -1 0.10980453E-02 0.76968818E+02</pdfrwt>
<totfact> 0.24734459E+05</totfact>
</mgrwt>
</event>
<event>
 8    1  0.2389776E-016  0.7740357E+02  0.7818608E-02  0.1336585E+00
          2   -1    0    0  501    0  0.00000000000E+00  0.00000000000E+00  0.75992579171E+01  0.75992583450E+01  0.25500000000E-02 0. -1.
         -1   -1    0    0    0  501 -0.00000000000E+00 -0.00000000000E+00 -0.19710188768E+03  0.19710188774E+03  0.50400000000E-02 0.  1.
         24    2    1    2    0    0 -0.17763568394E-14  0.00000000000E+00 -0.18950262976E+03  0.20470114609E+03  0.77403569189E+02 0.  0.
         66    2    3    3    0    0 -0.93763305454E+01 -0.37432356729E+02 -0.87955602267E+02  0.96069167086E+02  0.19999974296E+01 0.  0.
        -13    1    3    3    0    0  0.93763305454E+01  0.37432356729E+02 -0.10154702750E+03  0.10863197900E+03  0.10566000000E+00 0.  1.
         13    1    4    4    0    0 -0.10620022312E+01 -0.53321183603E+01 -0.11558480827E+02  0.12773761310E+02  0.10566000000E+00 0.  1.
        -13    1    4    4    0    0 -0.62241347131E+00 -0.42574141363E+01 -0.10086926606E+02  0.10966778289E+02  0.10566000000E+00 0.  1.
         14    1    4    4    0    0 -0.76919148429E+01 -0.27842824233E+02 -0.66310194834E+02  0.72328627487E+02  0.00000000000E+00 0. -1.
<mgrwt>
<rscale>  0 0.77403569E+02</rscale>
<asrwt>0</asrwt>
<pdfrwt beam="1">  1        2 0.11691168E-02 0.77403569E+02</pdfrwt>
<pdfrwt beam="2">  1       -1 0.30323364E-01 0.77403569E+02</pdfrwt>
<totfact> 0.10879877E+05</totfact>
</mgrwt>
</event>
<event>
 8    1  0.2389776E-016  0.7953380E+02  0.7818608E-02  0.1330380E+00
          2   -1    0    0  501    0  0.00000000000E+00  0.00000000000E+00  0.89907368117E+03  0.89907368117E+03  0.25500000000E-02 0. -1.
         -1   -1    0    0    0  501 -0.00000000000E+00 -0.00000000000E+00 -0.17589249954E+01  0.17589322161E+01  0.50400000000E-02 0.  1.
         24    2    1    2    0    0 -0.17763568394E-14  0.00000000000E+00  0.89731475617E+03  0.90083261339E+03  0.79533802235E+02 0.  0.
         66    2    3    3    0    0 -0.13986657909E+02  0.17092250892E+02  0.82316292985E+03  0.82346158424E+03  0.20000008595E+01 0.  0.
        -13    1    3    3    0    0  0.13986657909E+02 -0.17092250892E+02  0.74151826324E+02  0.77371029147E+02  0.10566000000E+00 0.  1.
         13    1    4    4    0    0 -0.10164161368E+01  0.10667367981E+01  0.40644471333E+02  0.40671307369E+02  0.10566000000E+00 0. -1.
        -13    1    4    4    0    0 -0.12309674791E+01  0.17945457071E+01  0.84108292721E+02  0.84136506605E+02  0.10566000000E+00 0.  1.
         14    1    4    4    0    0 -0.11739274294E+02  0.14230968387E+02  0.69841016580E+03  0.69865377027E+03  0.00000000000E+00 0. -1.
<mgrwt>
<rscale>  0 0.79533802E+02</rscale>
<asrwt>0</asrwt>
<pdfrwt beam="1">  1        2 0.13831901E+00 0.79533802E+02</pdfrwt>
<pdfrwt beam="2">  1       -1 0.27060443E-03 0.79533802E+02</pdfrwt>
<totfact> 0.35476773E+05</totfact>
</mgrwt>
</event>
<event>
 8    1  0.2389776E-016  0.8058310E+02  0.7818608E-02  0.1327405E+00
         -1   -1    0    0    0  501 -0.00000000000E+00  0.00000000000E+00  0.14683032798E+03  0.14683032806E+03  0.50400000000E-02 0.  1.
          2   -1    0    0  501    0  0.00000000000E+00 -0.00000000000E+00 -0.11056359936E+02  0.11056360230E+02  0.25500000000E-02 0. -1.
         24    2    1    2    0    0  0.00000000000E+00  0.00000000000E+00  0.13577396804E+03  0.15788668829E+03  0.80583099609E+02 0.  0.
         66    2    3    3    0    0  0.20291798608E+02  0.32512896954E+02  0.92128925620E+02  0.99802727933E+02  0.20000019874E+01 0.  0.
        -13    1    3    3    0    0 -0.20291798608E+02 -0.32512896954E+02  0.43645042420E+02  0.58083960359E+02  0.10566000000E+00 0.  1.
         13    1    4    4    0    0  0.31432665022E+01  0.49490338791E+01  0.13066857521E+02  0.14322255065E+02  0.10566000000E+00 0. -1.
        -13    1    4    4    0    0  0.89215745435E+01  0.14692069106E+02  0.43758923095E+02  0.47013890516E+02  0.10566000000E+00 0.  1.
        -14    1    4    4    0    0  0.82269575624E+01  0.12871793969E+02  0.35303145003E+02  0.38466582352E+02  0.00000000000E+00 0.  1.
<mgrwt>
<rscale>  0 0.80583100E+02</rscale>
<asrwt>0</asrwt>
<pdfrwt beam="1">  1        2 0.17009786E-02 0.80583100E+02</pdfrwt>
<pdfrwt beam="2">  1       -1 0.22589280E-01 0.80583100E+02</pdfrwt>
<totfact> 0.10648670E+05</totfact>
</mgrwt>
</event>
<event>
 8    1  0.2389776E-016  0.7870176E+02  0.7818608E-02  0.1332777E+00
         -1   -1    0    0    0  501 -0.00000000000E+00  0.00000000000E+00  0.11481215967E+02  0.11481217073E+02  0.50400000000E-02 0.  1.
          2   -1    0    0  501    0  0.00000000000E+00 -0.00000000000E+00 -0.13487175538E+03  0.13487175540E+03  0.25500000000E-02 0. -1.
         24    2    1    2    0    0  0.35527136788E-14  0.17763568394E-14 -0.12339053941E+03  0.14635297247E+03  0.78701761963E+02 0.  0.
         66    2    3    3    0    0 -0.23762775734E+02  0.13584052477E+02 -0.11424300307E+03  0.11749323274E+03  0.19999991586E+01 0.  0.
        -13    1    3    3    0    0  0.23762775734E+02 -0.13584052477E+02 -0.91475363344E+01  0.28859739730E+02  0.10566000000E+00 0.  1.
         13    1    4    4    0    0 -0.10859433406E+02  0.64178724219E+01 -0.53405058043E+02  0.54874655069E+02  0.10566000000E+00 0. -1.
        -13    1    4    4    0    0 -0.66983464223E+01  0.32035923317E+01 -0.32805930955E+02  0.33635860603E+02  0.10566000000E+00 0.  1.
        -14    1    4    4    0    0 -0.62049959053E+01  0.39625877238E+01 -0.28032014076E+02  0.28982717071E+02  0.00000000000E+00 0.  1.
<mgrwt>
<rscale>  0 0.78701762E+02</rscale>
<asrwt>0</asrwt>
<pdfrwt beam="1">  1        2 0.20749500E-01 0.78701762E+02</pdfrwt>
<pdfrwt beam="2">  1       -1 0.17663411E-02 0.78701762E+02</pdfrwt>
<totfact> 0.20226564E+05</totfact>
</mgrwt>
</event>
<event>
 8    1  0.2389776E-016  0.7979796E+02  0.7818608E-02  0.1329626E+00
         -1   -1    0    0    0  501 -0.00000000000E+00  0.00000000000E+00  0.13658295575E+02  0.13658296505E+02  0.50400000000E-02 0.  1.
          2   -1    0    0  501    0  0.00000000000E+00 -0.00000000000E+00 -0.11655398025E+03  0.11655398028E+03  0.25500000000E-02 0. -1.
         24    2    1    2    0    0  0.00000000000E+00  0.00000000000E+00 -0.10289568468E+03  0.13021227678E+03  0.79797964260E+02 0.  0.
         66    2    3    3    0    0  0.45413976314E+01 -0.39480022927E+02 -0.56799584273E+02  0.69350481384E+02  0.19999979729E+01 0.  0.
        -13    1    3    3    0    0 -0.45413976314E+01  0.39480022927E+02 -0.46096100403E+02  0.60861795399E+02  0.10566000000E+00 0.  1.
         13    1    4    4    0    0  0.40058211567E+01 -0.34294778450E+02 -0.48760456813E+02  0.59747566852E+02  0.10566000000E+00 0. -1.
        -13    1    4    4    0    0  0.11886900301E+00 -0.20244474314E+01 -0.26103020443E+01  0.33071676765E+01  0.10566000000E+00 0.  1.
        -14    1    4    4    0    0  0.41670747164E+00 -0.31607970459E+01 -0.54288254156E+01  0.62957468560E+01  0.00000000000E+00 0.  1.
<mgrwt>
<rscale>  0 0.79797964E+02</rscale>
<asrwt>0</asrwt>
<pdfrwt beam="1">  1        2 0.17931381E-01 0.79797964E+02</pdfrwt>
<pdfrwt beam="2">  1       -1 0.21012764E-02 0.79797964E+02</pdfrwt>
<totfact> 0.18650655E+05</totfact>
</mgrwt>
</event>
<event>
 8    1  0.2389776E-016  0.7789361E+02  0.7818608E-02  0.1335138E+00
         -1   -1    0    0    0  501 -0.00000000000E+00  0.00000000000E+00  0.24267708822E+01  0.24267761158E+01  0.50400000000E-02 0.  1.
          2   -1    0    0  501    0  0.00000000000E+00 -0.00000000000E+00 -0.62504949710E+03  0.62504949710E+03  0.25500000000E-02 0. -1.
         24    2    1    2    0    0  0.17763568394E-14  0.00000000000E+00 -0.62262272621E+03  0.62747627322E+03  0.77893608547E+02 0.  0.
         66    2    3    3    0    0  0.15237387505E+02 -0.12764844891E+01 -0.59983753359E+03  0.60003572735E+03  0.19999998833E+01 0.  0.
        -13    1    3    3    0    0 -0.15237387505E+02  0.12764844891E+01 -0.22785192620E+02  0.27440545865E+02  0.10566000000E+00 0.  1.
         13    1    4    4    0    0  0.61338179605E+01 -0.63194878956E+00 -0.26611033447E+03  0.26618178818E+03  0.10566000000E+00 0. -1.
        -13    1    4    4    0    0  0.98136575729E+00 -0.18451412177E+00 -0.50250903267E+02  0.50260934804E+02  0.10566000000E+00 0.  1.
         14    1    4    4    0    0  0.81222037876E+01 -0.46002157777E+00 -0.28347629586E+03  0.28359300437E+03  0.00000000000E+00 0. -1.
<mgrwt>
<rscale>  0 0.77893609E+02</rscale>
<asrwt>0</asrwt>
<pdfrwt beam="1">  1        2 0.96161333E-01 0.77893609E+02</pdfrwt>
<pdfrwt beam="2">  1       -1 0.37335027E-03 0.77893609E+02</pdfrwt>
<totfact> 0.34858536E+05</totfact>
</mgrwt>
</event>
<event>
 8    1  0.2389776E-016  0.8307489E+02  0.7818608E-02  0.1320545E+00
         -1   -1    0    0    0  501 -0.00000000000E+00  0.00000000000E+00  0.15105348911E+02  0.15105349752E+02  0.50400000000E-02 0.  1.
          2   -1    0    0  501    0  0.00000000000E+00 -0.00000000000E+00 -0.11422173171E+03  0.11422173174E+03  0.25500000000E-02 0. -1.
         24    2    1    2    0    0 -0.35527136788E-14  0.00000000000E+00 -0.99116382799E+02  0.12932708149E+03  0.83074885901E+02 0.  0.
         66    2    3    3    0    0  0.17931485772E+02 -0.36496490750E+02 -0.36578660204E+02  0.54731438652E+02  0.19999938892E+01 0.  0.
        -13    1    3    3    0    0 -0.17931485772E+02  0.36496490750E+02 -0.62537722595E+02  0.74595642838E+02  0.10566000000E+00 0.  1.
         13    1    4    4    0    0  0.14391832135E+02 -0.28433283277E+02 -0.28152342694E+02  0.42522252919E+02  0.10566000000E+00 0. -1.
        -13    1    4    4    0    0  0.28141687307E+01 -0.57969842473E+01 -0.64184547838E+01  0.90957296495E+01  0.10566000000E+00 0.  1.
        -14    1    4    4    0    0  0.72548490626E+00 -0.22662232251E+01 -0.20078627257E+01  0.31134560829E+01  0.00000000000E+00 0.  1.
<mgrwt>
<rscale>  0 0.83074886E+02</rscale>
<asrwt>0</asrwt>
<pdfrwt beam="1">  1        2 0.17572574E-01 0.83074886E+02</pdfrwt>
<pdfrwt beam="2">  1       -1 0.23239000E-02 0.83074886E+02</pdfrwt>
<totfact> 0.16647361E+05</totfact>
</mgrwt>
</event>
<event>
 8    1  0.2389776E-016  0.7676328E+02  0.7818608E-02  0.1338496E+00
          2   -1    0    0  501    0  0.00000000000E+00  0.00000000000E+00  0.11680753032E+03  0.11680753035E+03  0.25500000000E-02 0. -1.
         -1   -1    0    0    0  501 -0.00000000000E+00 -0.00000000000E+00 -0.12611774836E+02  0.12611775843E+02  0.50400000000E-02 0.  1.
         24    2    1    2    0    0 -0.35527136788E-14  0.35527136788E-14  0.10419575548E+03  0.12941930619E+03  0.76763281287E+02 0.  0.
         66    2    3    3    0    0 -0.25652622332E+02  0.27759338052E+02  0.63125190939E+02  0.73603176643E+02  0.19999997987E+01 0.  0.
        -13    1    3    3    0    0  0.25652622332E+02 -0.27759338052E+02  0.41070564545E+02  0.55816129548E+02  0.10566000000E+00 0.  1.
         13    1    4    4    0    0 -0.15423273972E+02  0.16522089161E+02  0.35907397327E+02  0.42428871739E+02  0.10566000000E+00 0. -1.
        -13    1    4    4    0    0 -0.48205465713E+01  0.54328681817E+01  0.12766634576E+02  0.14688493740E+02  0.10566000000E+00 0.  1.
        -14    1    4    4    0    0 -0.54088017891E+01  0.58043807100E+01  0.14451159037E+02  0.16485811164E+02  0.00000000000E+00 0.  1.
<mgrwt>
<rscale>  0 0.76763281E+02</rscale>
<asrwt>0</asrwt>
<pdfrwt beam="1">  1        2 0.17970389E-01 0.76763281E+02</pdfrwt>
<pdfrwt beam="2">  1       -1 0.19402731E-02 0.76763281E+02</pdfrwt>
<totfact> 0.20691529E+05</totfact>
</mgrwt>
</event>
<event>
 8    1  0.2389776E-016  0.8034265E+02  0.7818608E-02  0.1328082E+00
          2   -1    0    0  501    0  0.00000000000E+00  0.00000000000E+00  0.35422530117E+02  0.35422530208E+02  0.25500000000E-02 0. -1.
         -1   -1    0    0    0  501 -0.00000000000E+00 -0.00000000000E+00 -0.45556748330E+02  0.45556748608E+02  0.50400000000E-02 0.  1.
         24    2    1    2    0    0  0.11102230246E-15  0.00000000000E+00 -0.10134218213E+02  0.80979278817E+02  0.80342648817E+02 0.  0.
         66    2    3    3    0    0  0.82765336398E+00  0.33447701974E+02  0.17293331009E+02  0.37715952572E+02  0.20000009001E+01 0.  0.
        -13    1    3    3    0    0 -0.82765336398E+00 -0.33447701974E+02 -0.27427549222E+02  0.43263326245E+02  0.10566000000E+00 0.  1.
         13    1    4    4    0    0  0.39180396051E+00  0.72491476741E+01  0.33703592669E+01  0.80046322818E+01  0.10566000000E+00 0. -1.
        -13    1    4    4    0    0  0.12624824337E+00  0.22648144431E+01  0.75779407905E+00  0.23938961929E+01  0.10566000000E+00 0.  1.
         14    1    4    4    0    0  0.30960116010E+00  0.23933739856E+02  0.13165177663E+02  0.27317424097E+02  0.00000000000E+00 0. -1.
<mgrwt>
<rscale>  0 0.80342649E+02</rscale>
<asrwt>0</asrwt>
<pdfrwt beam="1">  1        2 0.54496200E-02 0.80342649E+02</pdfrwt>
<pdfrwt beam="2">  1       -1 0.70087306E-02 0.80342649E+02</pdfrwt>
<totfact> 0.13743173E+05</totfact>
</mgrwt>
</event>
<event>
 8    1  0.2389776E-016  0.8092050E+02  0.7818608E-02  0.1326459E+00
         -1   -1    0    0    0  501 -0.00000000000E+00  0.00000000000E+00  0.26454292487E+02  0.26454292967E+02  0.50400000000E-02 0.  1.
          2   -1    0    0  501    0  0.00000000000E+00 -0.00000000000E+00 -0.61881512899E+02  0.61881512951E+02  0.25500000000E-02 0. -1.
         24    2    1    2    0    0  0.00000000000E+00  0.00000000000E+00 -0.35427220412E+02  0.88335805919E+02  0.80920495928E+02 0.  0.
         66    2    3    3    0    0  0.35611994203E+02  0.13844987910E+02 -0.32780845114E+01  0.38401089293E+02  0.19999998579E+01 0.  0.
        -13    1    3    3    0    0 -0.35611994203E+02 -0.13844987910E+02 -0.32149135900E+02  0.49934716626E+02  0.10566000000E+00 0.  1.
         13    1    4    4    0    0  0.27913198975E+02  0.11397041850E+02 -0.27406642303E+01  0.30274769105E+02  0.10566000000E+00 0. -1.
        -13    1    4    4    0    0  0.91422818742E+00  0.42323106209E+00 -0.23365424438E+00  0.10395653188E+01  0.10566000000E+00 0.  1.
         14    1    4    4    0    0  0.67845670412E+01  0.20247149985E+01 -0.30376603671E+00  0.70867548685E+01  0.00000000000E+00 0. -1.
<mgrwt>
<rscale>  0 0.80920496E+02</rscale>
<asrwt>0</asrwt>
<pdfrwt beam="1">  1        2 0.95202327E-02 0.80920496E+02</pdfrwt>
<pdfrwt beam="2">  1       -1 0.40698912E-02 0.80920496E+02</pdfrwt>
<totfact> 0.15197855E+05</totfact>
</mgrwt>
</event>
<event>
 8    1  0.2389776E-016  0.8019916E+02  0.7818608E-02  0.1328487E+00
          2   -1    0    0  501    0  0.00000000000E+00  0.00000000000E+00  0.20810599912E+03  0.20810599914E+03  0.25500000000E-02 0. -1.
         -1   -1    0    0    0  501 -0.00000000000E+00 -0.00000000000E+00 -0.77267165333E+01  0.77267181771E+01  0.50400000000E-02 0.  1.
         24    2    1    2    0    0 -0.35527136788E-14 -0.35527136788E-14  0.20037928259E+03  0.21583271732E+03  0.80199158180E+02 0.  0.
         66    2    3    3    0    0 -0.29307991470E+02 -0.18425562836E+02  0.15457898862E+03  0.15842071664E+03  0.20000020616E+01 0.  0.
        -13    1    3    3    0    0  0.29307991470E+02  0.18425562836E+02  0.45800293971E+02  0.57412000677E+02  0.10566000000E+00 0.  1.
         13    1    4    4    0    0 -0.10363498071E+02 -0.73136274867E+01  0.57840132466E+02  0.59214722215E+02  0.10566000000E+00 0. -1.
        -13    1    4    4    0    0 -0.16087719408E+02 -0.95947709648E+01  0.80919205520E+02  0.83059035220E+02  0.10566000000E+00 0.  1.
        -14    1    4    4    0    0 -0.28567739906E+01 -0.15171643841E+01  0.15819650632E+02  0.16146959204E+02  0.00000000000E+00 0.  1.
<mgrwt>
<rscale>  0 0.80199158E+02</rscale>
<asrwt>0</asrwt>
<pdfrwt beam="1">  1        2 0.32016310E-01 0.80199158E+02</pdfrwt>
<pdfrwt beam="2">  1       -1 0.11887257E-02 0.80199158E+02</pdfrwt>
<totfact> 0.22219966E+05</totfact>
</mgrwt>
</event>
<event>
 8    1  0.2389776E-016  0.7978430E+02  0.7818608E-02  0.1329665E+00
         -1   -1    0    0    0  501 -0.00000000000E+00  0.00000000000E+00  0.33330079845E+02  0.33330080226E+02  0.50400000000E-02 0.  1.
          2   -1    0    0  501    0  0.00000000000E+00 -0.00000000000E+00 -0.47746165416E+02  0.47746165485E+02  0.25500000000E-02 0. -1.
         24    2    1    2    0    0  0.00000000000E+00  0.00000000000E+00 -0.14416085572E+02  0.81076245710E+02  0.79784297298E+02 0.  0.
         66    2    3    3    0    0 -0.14851986382E+02 -0.35782008377E+02 -0.16769364262E+02  0.42262811083E+02  0.19999999650E+01 0.  0.
        -13    1    3    3    0    0  0.14851986382E+02  0.35782008377E+02  0.23532786904E+01  0.38813434628E+02  0.10566000000E+00 0.  1.
         13    1    4    4    0    0 -0.24410156686E+01 -0.59069948335E+01 -0.26163238164E+01  0.69070586942E+01  0.10566000000E+00 0. -1.
        -13    1    4    4    0    0 -0.76107588315E+00 -0.30075418662E+01 -0.10918088636E+01  0.32905554557E+01  0.10566000000E+00 0.  1.
        -14    1    4    4    0    0 -0.11649894830E+02 -0.26867471677E+02 -0.13061231582E+02  0.32065196933E+02  0.00000000000E+00 0.  1.
<mgrwt>
<rscale>  0 0.79784297E+02</rscale>
<asrwt>0</asrwt>
<pdfrwt beam="1">  1        2 0.73455639E-02 0.79784297E+02</pdfrwt>
<pdfrwt beam="2">  1       -1 0.51277046E-02 0.79784297E+02</pdfrwt>
<totfact> 0.14904727E+05</totfact>
</mgrwt>
</event>
<event>
 8    1  0.2389776E-016  0.8114909E+02  0.7818608E-02  0.1325822E+00
         -1   -1    0    0    0  501 -0.00000000000E+00  0.00000000000E+00  0.32153737958E+01  0.32153777458E+01  0.50400000000E-02 0.  1.
          2   -1    0    0  501    0  0.00000000000E+00 -0.00000000000E+00 -0.51200657735E+03  0.51200657736E+03  0.25500000000E-02 0. -1.
         24    2    1    2    0    0  0.35527136788E-14  0.00000000000E+00 -0.50879120355E+03  0.51522195510E+03  0.81149086287E+02 0.  0.
         66    2    3    3    0    0 -0.17146336833E+02 -0.28418998939E+02 -0.40245083423E+03  0.40382212709E+03  0.19999983799E+01 0.  0.
        -13    1    3    3    0    0  0.17146336833E+02  0.28418998939E+02 -0.10634036933E+03  0.11139982801E+03  0.10566000000E+00 0.  1.
         13    1    4    4    0    0 -0.12837855375E+02 -0.19958993716E+02 -0.28448393638E+03  0.28547205325E+03  0.10566000000E+00 0. -1.
        -13    1    4    4    0    0 -0.62080642045E+00 -0.16509458843E+01 -0.20417943920E+02  0.20494258242E+02  0.10566000000E+00 0.  1.
         14    1    4    4    0    0 -0.36876750370E+01 -0.68090593386E+01 -0.97548953925E+02  0.97855815607E+02  0.00000000000E+00 0. -1.
<mgrwt>
<rscale>  0 0.81149086E+02</rscale>
<asrwt>0</asrwt>
<pdfrwt beam="1">  1        2 0.78770178E-01 0.81149086E+02</pdfrwt>
<pdfrwt beam="2">  1       -1 0.49467360E-03 0.81149086E+02</pdfrwt>
<totfact> 0.29560897E+05</totfact>
</mgrwt>
</event>
<event>
 8    1  0.2389776E-016  0.7889054E+02  0.7818608E-02  0.1332230E+00
          2   -1    0    0  501    0  0.00000000000E+00  0.00000000000E+00  0.28414234078E+03  0.28414234079E+03  0.25500000000E-02 0. -1.
         -1   -1    0    0    0  501 -0.00000000000E+00 -0.00000000000E+00 -0.54758787316E+01  0.54758810510E+01  0.50400000000E-02 0.  1.
         24    2    1    2    0    0  0.35527136788E-14 -0.35527136788E-14  0.27866646204E+03  0.28961822184E+03  0.78890540323E+02 0.  0.
         66    2    3    3    0    0  0.25915350206E+02 -0.26504356327E+02  0.18865388913E+03  0.19227162084E+03  0.20000033409E+01 0.  0.
        -13    1    3    3    0    0 -0.25915350206E+02  0.26504356327E+02  0.90012572912E+02  0.97346601003E+02  0.10566000000E+00 0.  1.
         13    1    4    4    0    0  0.82845382043E+01 -0.77287915524E+01  0.57727944824E+02  0.58829368259E+02  0.10566000000E+00 0.  1.
        -13    1    4    4    0    0  0.88637703258E+01 -0.84542904306E+01  0.62527928077E+02  0.63716515949E+02  0.10566000000E+00 0. -1.
        -14    1    4    4    0    0  0.87670416754E+01 -0.10321274344E+02  0.68398016232E+02  0.69725736627E+02  0.00000000000E+00 0.  1.
<mgrwt>
<rscale>  0 0.78890540E+02</rscale>
<asrwt>0</asrwt>
<pdfrwt beam="1">  1        2 0.43714206E-01 0.78890540E+02</pdfrwt>
<pdfrwt beam="2">  1       -1 0.84244306E-03 0.78890540E+02</pdfrwt>
<totfact> 0.25930132E+05</totfact>
</mgrwt>
</event>
<event>
 8    1  0.2389776E-016  0.8122240E+02  0.7818608E-02  0.1325618E+00
         -1   -1    0    0    0  501 -0.00000000000E+00  0.00000000000E+00  0.35617066099E+01  0.35617101759E+01  0.50400000000E-02 0.  1.
          2   -1    0    0  501    0  0.00000000000E+00 -0.00000000000E+00 -0.46305572371E+03  0.46305572371E+03  0.25500000000E-02 0. -1.
         24    2    1    2    0    0 -0.35527136788E-14 -0.17763568394E-14 -0.45949401710E+03  0.46661743389E+03  0.81222397539E+02 0.  0.
         66    2    3    3    0    0  0.18082186320E+02  0.99468547857E+01 -0.43065963177E+03  0.43115846713E+03  0.19999904348E+01 0.  0.
        -13    1    3    3    0    0 -0.18082186320E+02 -0.99468547857E+01 -0.28834385325E+02  0.35458966756E+02  0.10566000000E+00 0.  1.
         13    1    4    4    0    0  0.59825881609E+01  0.25219254397E+01 -0.12761496947E+03  0.12778005738E+03  0.10566000000E+00 0.  1.
        -13    1    4    4    0    0  0.10043055677E+02  0.58034733745E+01 -0.25102497786E+03  0.25129284499E+03  0.10566000000E+00 0. -1.
        -14    1    4    4    0    0  0.20565424825E+01  0.16214559716E+01 -0.52019684444E+02  0.52085564757E+02  0.00000000000E+00 0.  1.
<mgrwt>
<rscale>  0 0.81222398E+02</rscale>
<asrwt>0</asrwt>
<pdfrwt beam="1">  1        2 0.71239294E-01 0.81222398E+02</pdfrwt>
<pdfrwt beam="2">  1       -1 0.54795551E-03 0.81222398E+02</pdfrwt>
<totfact> 0.28547890E+05</totfact>
</mgrwt>
</event>
<event>
 8    1  0.2389776E-016  0.7161270E+02  0.7818608E-02  0.1354693E+00
          2   -1    0    0  501    0  0.00000000000E+00  0.00000000000E+00  0.98969478376E+02  0.98969478409E+02  0.25500000000E-02 0. -1.
         -1   -1    0    0    0  501 -0.00000000000E+00 -0.00000000000E+00 -0.12954445265E+02  0.12954446245E+02  0.50400000000E-02 0.  1.
         24    2    1    2    0    0  0.35527136788E-14  0.00000000000E+00  0.86015033111E+02  0.11192392465E+03  0.71612701310E+02 0.  0.
         66    2    3    3    0    0  0.25793935854E+02 -0.18947806127E+01  0.81678983679E+02  0.85699321528E+02  0.20000037685E+01 0.  0.
        -13    1    3    3    0    0 -0.25793935854E+02  0.18947806127E+01  0.43360494319E+01  0.26224603126E+02  0.10566000000E+00 0.  1.
         13    1    4    4    0    0  0.10595100376E+02 -0.15850783189E+01  0.33856959868E+02  0.35511596990E+02  0.10566000000E+00 0. -1.
        -13    1    4    4    0    0  0.88778644017E+01  0.20824301875E+00  0.27335547910E+02  0.28742010804E+02  0.10566000000E+00 0.  1.
         14    1    4    4    0    0  0.63209710767E+01 -0.51794531254E+00  0.20486475901E+02  0.21445713734E+02  0.00000000000E+00 0. -1.
<mgrwt>
<rscale>  0 0.71612701E+02</rscale>
<asrwt>0</asrwt>
<pdfrwt beam="1">  1        2 0.15226074E-01 0.71612701E+02</pdfrwt>
<pdfrwt beam="2">  1       -1 0.19929916E-02 0.71612701E+02</pdfrwt>
<totfact> 0.23728938E+05</totfact>
</mgrwt>
</event>
<event>
 8    1  0.2389776E-016  0.8051937E+02  0.7818608E-02  0.1327584E+00
          2   -1    0    0  501    0  0.00000000000E+00  0.00000000000E+00  0.19221187835E+04  0.19221187835E+04  0.25500000000E-02 0. -1.
         -1   -1    0    0    0  501 -0.00000000000E+00 -0.00000000000E+00 -0.84325047846E+00  0.84326554004E+00  0.50400000000E-02 0.  1.
         24    2    1    2    0    0  0.00000000000E+00 -0.35527136788E-14  0.19212755330E+04  0.19229620490E+04  0.80519365792E+02 0.  0.
         66    2    3    3    0    0  0.21799978614E+01 -0.18857123057E+02  0.18084481603E+04  0.18085488913E+04  0.20000003180E+01 0.  0.
        -13    1    3    3    0    0 -0.21799978614E+01  0.18857123057E+02  0.11282737266E+03  0.11441315775E+03  0.10566000000E+00 0.  1.
         13    1    4    4    0    0  0.12604620384E+01 -0.12036862398E+02  0.11395342535E+04  0.11395985262E+04  0.10566000000E+00 0. -1.
        -13    1    4    4    0    0 -0.16625775113E+00 -0.84377420030E+00  0.11135391242E+03  0.11135728342E+03  0.10566000000E+00 0.  1.
        -14    1    4    4    0    0  0.10857935742E+01 -0.59764864589E+01  0.55755999443E+03  0.55759308167E+03  0.00000000000E+00 0.  1.
<mgrwt>
<rscale>  0 0.80519366E+02</rscale>
<asrwt>0</asrwt>
<pdfrwt beam="1">  1        2 0.29571147E+00 0.80519366E+02</pdfrwt>
<pdfrwt beam="2">  1       -1 0.12973161E-03 0.80519366E+02</pdfrwt>
<totfact> 0.28267170E+05</totfact>
</mgrwt>
</event>
<event>
 8    1  0.2389776E-016  0.7951566E+02  0.7818608E-02  0.1330432E+00
         -1   -1    0    0    0  501 -0.00000000000E+00  0.00000000000E+00  0.10783295541E+01  0.10783413322E+01  0.50400000000E-02 0.  1.
          2   -1    0    0  501    0  0.00000000000E+00 -0.00000000000E+00 -0.14658565727E+04  0.14658565727E+04  0.25500000000E-02 0. -1.
         24    2    1    2    0    0  0.00000000000E+00  0.00000000000E+00 -0.14647782431E+04  0.14669349140E+04  0.79515661473E+02 0.  0.
         66    2    3    3    0    0 -0.17228136779E+02 -0.14981493388E+02 -0.13327571922E+04  0.13329542329E+04  0.19999993470E+01 0.  0.
        -13    1    3    3    0    0  0.17228136779E+02  0.14981493388E+02 -0.13202105096E+03  0.13398068108E+03  0.10566000000E+00 0.  1.
         13    1    4    4    0    0 -0.55715796908E+01 -0.43383448491E+01 -0.43125592699E+03  0.43131374829E+03  0.10566000000E+00 0. -1.
        -13    1    4    4    0    0 -0.10392162385E+01 -0.10859311403E+01 -0.10997600351E+03  0.10998632519E+03  0.10566000000E+00 0.  1.
         14    1    4    4    0    0 -0.10617340849E+02 -0.95572173983E+01 -0.79152526167E+03  0.79165415946E+03  0.00000000000E+00 0. -1.
<mgrwt>
<rscale>  0 0.79515661E+02</rscale>
<asrwt>0</asrwt>
<pdfrwt beam="1">  1        2 0.22551480E+00 0.79515661E+02</pdfrwt>
<pdfrwt beam="2">  1       -1 0.16589893E-03 0.79515661E+02</pdfrwt>
<totfact> 0.34061613E+05</totfact>
</mgrwt>
</event>
<event>
 8    1  0.2389776E-016  0.8184800E+02  0.7818608E-02  0.1323887E+00
          2   -1    0    0  501    0  0.00000000000E+00  0.00000000000E+00  0.12184853150E+02  0.12184853417E+02  0.25500000000E-02 0. -1.
         -1   -1    0    0    0  501 -0.00000000000E+00 -0.00000000000E+00 -0.13744719490E+03  0.13744719499E+03  0.50400000000E-02 0.  1.
         24    2    1    2    0    0  0.00000000000E+00 -0.17763568394E-14 -0.12526234175E+03  0.14963204841E+03  0.81848003338E+02 0.  0.
         66    2    3    3    0    0  0.19941659948E+02 -0.14648693256E+02 -0.31331118828E+01  0.25021398914E+02  0.19999994859E+01 0.  0.
        -13    1    3    3    0    0 -0.19941659948E+02  0.14648693256E+02 -0.12212922987E+03  0.12461064950E+03  0.10566000000E+00 0.  1.
         13    1    4    4    0    0  0.18473482376E+02 -0.13801965337E+02 -0.26793440639E+01  0.23215379534E+02  0.10566000000E+00 0. -1.
        -13    1    4    4    0    0  0.13136279611E+01 -0.59693088453E+00 -0.43904423600E+00  0.15119089847E+01  0.10566000000E+00 0.  1.
         14    1    4    4    0    0  0.15454961082E+00 -0.24979703422E+00 -0.14723582836E-01  0.29411039492E+00  0.00000000000E+00 0. -1.
<mgrwt>
<rscale>  0 0.81848003E+02</rscale>
<asrwt>0</asrwt>
<pdfrwt beam="1">  1        2 0.18745929E-02 0.81848003E+02</pdfrwt>
<pdfrwt beam="2">  1       -1 0.21145721E-01 0.81848003E+02</pdfrwt>
<totfact> 0.10408009E+05</totfact>
</mgrwt>
</event>
<event>
 8    1  0.2389776E-016  0.7971098E+02  0.7818608E-02  0.1329874E+00
         -1   -1    0    0    0  501 -0.00000000000E+00  0.00000000000E+00  0.18649087377E+01  0.18649155481E+01  0.50400000000E-02 0.  1.
          2   -1    0    0  501    0  0.00000000000E+00 -0.00000000000E+00 -0.85176127102E+03  0.85176127103E+03  0.25500000000E-02 0. -1.
         24    2    1    2    0    0  0.71054273576E-14 -0.88817841970E-15 -0.84989636229E+03  0.85362618658E+03  0.79710976538E+02 0.  0.
         66    2    3    3    0    0 -0.32892182609E+02  0.52502570133E+01 -0.65910197152E+03  0.65994611123E+03  0.19999964408E+01 0.  0.
        -13    1    3    3    0    0  0.32892182609E+02 -0.52502570133E+01 -0.19079439076E+03  0.19368007535E+03  0.10566000000E+00 0.  1.
         13    1    4    4    0    0 -0.18847515684E+02  0.36364282091E+01 -0.38348695632E+03  0.38396706798E+03  0.10566000000E+00 0. -1.
        -13    1    4    4    0    0 -0.46295537086E+01  0.83894894498E-01 -0.90601590661E+02  0.90719894181E+02  0.10566000000E+00 0.  1.
        -14    1    4    4    0    0 -0.94151132162E+01  0.15299339097E+01 -0.18501342454E+03  0.18525914907E+03  0.00000000000E+00 0.  1.
<mgrwt>
<rscale>  0 0.79710977E+02</rscale>
<asrwt>0</asrwt>
<pdfrwt beam="1">  1        2 0.13103989E+00 0.79710977E+02</pdfrwt>
<pdfrwt beam="2">  1       -1 0.28691024E-03 0.79710977E+02</pdfrwt>
<totfact> 0.35033134E+05</totfact>
</mgrwt>
</event>
<event>
 8    1  0.2389776E-016  0.7947931E+02  0.7818608E-02  0.1330536E+00
          2   -1    0    0  501    0  0.00000000000E+00  0.00000000000E+00  0.73039692073E+02  0.73039692118E+02  0.25500000000E-02 0. -1.
         -1   -1    0    0    0  501 -0.00000000000E+00 -0.00000000000E+00 -0.21621668088E+02  0.21621668675E+02  0.50400000000E-02 0.  1.
         24    2    1    2    0    0  0.88817841970E-15 -0.17763568394E-14  0.51418023985E+02  0.94661360793E+02  0.79479305713E+02 0.  0.
         66    2    3    3    0    0 -0.50515602714E+01  0.88663509761E+01  0.71437798587E+02  0.72190646965E+02  0.20000003698E+01 0.  0.
        -13    1    3    3    0    0  0.50515602714E+01 -0.88663509761E+01 -0.20019774601E+02  0.22470713828E+02  0.10566000000E+00 0.  1.
         13    1    4    4    0    0 -0.17003532364E+01  0.31238982418E+01  0.24153456141E+02  0.24414146493E+02  0.10566000000E+00 0. -1.
        -13    1    4    4    0    0 -0.22606310913E+01  0.25042968201E+01  0.20683152015E+02  0.20956762555E+02  0.10566000000E+00 0.  1.
         14    1    4    4    0    0 -0.10905759437E+01  0.32381559142E+01  0.26601190431E+02  0.26819737917E+02  0.00000000000E+00 0. -1.
<mgrwt>
<rscale>  0 0.79479306E+02</rscale>
<asrwt>0</asrwt>
<pdfrwt beam="1">  1        2 0.11236876E-01 0.79479306E+02</pdfrwt>
<pdfrwt beam="2">  1       -1 0.33264106E-02 0.79479306E+02</pdfrwt>
<totfact> 0.16606804E+05</totfact>
</mgrwt>
</event>
<event>
 8    1  0.2389776E-016  0.7897836E+02  0.7818608E-02  0.1331976E+00
          2   -1    0    0  501    0  0.00000000000E+00  0.00000000000E+00  0.65572912313E+03  0.65572912314E+03  0.25500000000E-02 0. -1.
         -1   -1    0    0    0  501 -0.00000000000E+00 -0.00000000000E+00 -0.23781063754E+01  0.23781117161E+01  0.50400000000E-02 0.  1.
         24    2    1    2    0    0 -0.35527136788E-14  0.00000000000E+00  0.65335101676E+03  0.65810723485E+03  0.78978360764E+02 0.  0.
         66    2    3    3    0    0 -0.28586589908E+02  0.38976912081E+01  0.55125149510E+03  0.55200959772E+03  0.20000005974E+01 0.  0.
        -13    1    3    3    0    0  0.28586589908E+02 -0.38976912081E+01  0.10209952166E+03  0.10609763714E+03  0.10566000000E+00 0.  1.
         13    1    4    4    0    0 -0.17998513369E+02  0.22417330422E+01  0.33755138221E+03  0.33803833902E+03  0.10566000000E+00 0. -1.
        -13    1    4    4    0    0 -0.33538709030E+01  0.96374046446E+00  0.65080297963E+02  0.65173872009E+02  0.10566000000E+00 0.  1.
         14    1    4    4    0    0 -0.72342056355E+01  0.69221770143E+00  0.14861981492E+03  0.14879738669E+03  0.00000000000E+00 0. -1.
<mgrwt>
<rscale>  0 0.78978361E+02</rscale>
<asrwt>0</asrwt>
<pdfrwt beam="1">  1        2 0.10088142E+00 0.78978361E+02</pdfrwt>
<pdfrwt beam="2">  1       -1 0.36586288E-03 0.78978361E+02</pdfrwt>
<totfact> 0.34048902E+05</totfact>
</mgrwt>
</event>
<event>
 8    1  0.2389776E-016  0.7908709E+02  0.7818608E-02  0.1331662E+00
          2   -1    0    0  501    0  0.00000000000E+00  0.00000000000E+00  0.35504405417E+03  0.35504405418E+03  0.25500000000E-02 0. -1.
         -1   -1    0    0    0  501 -0.00000000000E+00 -0.00000000000E+00 -0.44042176441E+01  0.44042205279E+01  0.50400000000E-02 0.  1.
         24    2    1    2    0    0  0.00000000000E+00 -0.35527136788E-14  0.35063983653E+03  0.35944827471E+03  0.79087086373E+02 0.  0.
         66    2    3    3    0    0 -0.11352290112E+02 -0.27059539182E+02  0.29573125838E+03  0.29719029313E+03  0.19999996744E+01 0.  0.
        -13    1    3    3    0    0  0.11352290112E+02  0.27059539182E+02  0.54908578149E+02  0.62257981576E+02  0.10566000000E+00 0.  1.
         13    1    4    4    0    0 -0.94013970206E+01 -0.23078276299E+02  0.24859804976E+03  0.24984394051E+03  0.10566000000E+00 0. -1.
        -13    1    4    4    0    0 -0.80606063390E+00 -0.23997709918E+01  0.27206294565E+02  0.27324023543E+02  0.10566000000E+00 0.  1.
         14    1    4    4    0    0 -0.11448324574E+01 -0.15814918906E+01  0.19926914052E+02  0.20022329076E+02  0.00000000000E+00 0. -1.
<mgrwt>
<rscale>  0 0.79087086E+02</rscale>
<asrwt>0</asrwt>
<pdfrwt beam="1">  1        2 0.54622138E-01 0.79087086E+02</pdfrwt>
<pdfrwt beam="2">  1       -1 0.67757247E-03 0.79087086E+02</pdfrwt>
<totfact> 0.27912611E+05</totfact>
</mgrwt>
</event>
<event>
 8    1  0.2389776E-016  0.7721713E+02  0.7818608E-02  0.1337140E+00
          2   -1    0    0  501    0  0.00000000000E+00  0.00000000000E+00  0.79479555431E+01  0.79479559522E+01  0.25500000000E-02 0. -1.
         -1   -1    0    0    0  501 -0.00000000000E+00 -0.00000000000E+00 -0.18754777553E+03  0.18754777560E+03  0.50400000000E-02 0.  1.
         24    2    1    2    0    0  0.00000000000E+00  0.00000000000E+00 -0.17959981999E+03  0.19549573155E+03  0.77217133558E+02 0.  0.
         66    2    3    3    0    0 -0.18527437366E+02  0.27085910090E+02 -0.38489203625E+02  0.50619475128E+02  0.20000014445E+01 0.  0.
        -13    1    3    3    0    0  0.18527437366E+02 -0.27085910090E+02 -0.14111061636E+03  0.14487625642E+03  0.10566000000E+00 0.  1.
         13    1    4    4    0    0 -0.11201326084E+02  0.15458151770E+02 -0.21723189878E+02  0.28919410518E+02  0.10566000000E+00 0. -1.
        -13    1    4    4    0    0 -0.49028054135E+01  0.70760034987E+01 -0.10896446033E+02  0.13887081286E+02  0.10566000000E+00 0.  1.
        -14    1    4    4    0    0 -0.24233058685E+01  0.45517548209E+01 -0.58695677140E+01  0.78129833246E+01  0.00000000000E+00 0.  1.
<mgrwt>
<rscale>  0 0.77217134E+02</rscale>
<asrwt>0</asrwt>
<pdfrwt beam="1">  1        2 0.12227626E-02 0.77217134E+02</pdfrwt>
<pdfrwt beam="2">  1       -1 0.28853501E-01 0.77217134E+02</pdfrwt>
<totfact> 0.11107371E+05</totfact>
</mgrwt>
</event>
<event>
 8    1  0.2389776E-016  0.8278438E+02  0.7818608E-02  0.1321330E+00
          2   -1    0    0  501    0  0.00000000000E+00  0.00000000000E+00  0.27289918594E+02  0.27289918713E+02  0.25500000000E-02 0. -1.
         -1   -1    0    0    0  501 -0.00000000000E+00 -0.00000000000E+00 -0.62781912714E+02  0.62781912916E+02  0.50400000000E-02 0.  1.
         24    2    1    2    0    0 -0.44408920985E-15 -0.71054273576E-14 -0.35491994120E+02  0.90071831629E+02  0.82784377792E+02 0.  0.
         66    2    3    3    0    0  0.32439600963E+01  0.37703762898E+02  0.42422722423E+00  0.37898245080E+02  0.19999994041E+01 0.  0.
        -13    1    3    3    0    0 -0.32439600963E+01 -0.37703762898E+02 -0.35916221345E+02  0.52173586550E+02  0.10566000000E+00 0.  1.
         13    1    4    4    0    0  0.43570949214E+00  0.74145358229E+01  0.53107328755E+00  0.74470388144E+01  0.10566000000E+00 0. -1.
        -13    1    4    4    0    0  0.11987427391E+01  0.12495503898E+02  0.63583040019E+00  0.12569409141E+02  0.10566000000E+00 0.  1.
        -14    1    4    4    0    0  0.16095078650E+01  0.17793723177E+02 -0.74267646351E+00  0.17881797124E+02  0.00000000000E+00 0.  1.
<mgrwt>
<rscale>  0 0.82784378E+02</rscale>
<asrwt>0</asrwt>
<pdfrwt beam="1">  1        2 0.41984491E-02 0.82784378E+02</pdfrwt>
<pdfrwt beam="2">  1       -1 0.96587558E-02 0.82784378E+02</pdfrwt>
<totfact> 0.11989412E+05</totfact>
</mgrwt>
</event>
<event>
 8    1  0.2389776E-016  0.7977460E+02  0.7818608E-02  0.1329692E+00
         -1   -1    0    0    0  501 -0.00000000000E+00  0.00000000000E+00  0.16656448712E+02  0.16656449474E+02  0.50400000000E-02 0.  1.
          2   -1    0    0  501    0  0.00000000000E+00 -0.00000000000E+00 -0.95518357303E+02  0.95518357337E+02  0.25500000000E-02 0. -1.
         24    2    1    2    0    0  0.35527136788E-14  0.00000000000E+00 -0.78861908591E+02  0.11217480681E+03  0.79774599069E+02 0.  0.
         66    2    3    3    0    0 -0.26316102751E+02 -0.19160739654E+02 -0.71806843785E+02  0.78866304721E+02  0.19999994729E+01 0.  0.
        -13    1    3    3    0    0  0.26316102751E+02  0.19160739654E+02 -0.70550648065E+01  0.33308502091E+02  0.10566000000E+00 0.  1.
         13    1    4    4    0    0 -0.65447384484E+01 -0.55896203895E+01 -0.19411245608E+02  0.21234054666E+02  0.10566000000E+00 0. -1.
        -13    1    4    4    0    0 -0.37358884496E+01 -0.21033669210E+01 -0.91629171091E+01  0.10116878417E+02  0.10566000000E+00 0.  1.
         14    1    4    4    0    0 -0.16035475853E+02 -0.11467752344E+02 -0.43232681067E+02  0.47515371638E+02  0.00000000000E+00 0. -1.
<mgrwt>
<rscale>  0 0.79774599E+02</rscale>
<asrwt>0</asrwt>
<pdfrwt beam="1">  1        2 0.14695132E-01 0.79774599E+02</pdfrwt>
<pdfrwt beam="2">  1       -1 0.25625307E-02 0.79774599E+02</pdfrwt>
<totfact> 0.17634664E+05</totfact>
</mgrwt>
</event>
<event>
 8    1  0.2389776E-016  0.7884968E+02  0.7818608E-02  0.1332348E+00
          2   -1    0    0  501    0  0.00000000000E+00  0.00000000000E+00  0.45020613753E+01  0.45020620975E+01  0.25500000000E-02 0. -1.
         -1   -1    0    0    0  501 -0.00000000000E+00 -0.00000000000E+00 -0.34524586257E+03  0.34524586260E+03  0.50400000000E-02 0.  1.
         24    2    1    2    0    0  0.71054273576E-14  0.00000000000E+00 -0.34074380119E+03  0.34974792470E+03  0.78849684732E+02 0.  0.
         66    2    3    3    0    0  0.39308453934E+02  0.26754670170E+01 -0.17058801499E+03  0.17509021541E+03  0.19999995375E+01 0.  0.
        -13    1    3    3    0    0 -0.39308453934E+02 -0.26754670170E+01 -0.17015578620E+03  0.17465770929E+03  0.10566000000E+00 0.  1.
         13    1    4    4    0    0  0.25999294838E+02  0.18994177930E+01 -0.10924033311E+03  0.11230775869E+03  0.10566000000E+00 0. -1.
        -13    1    4    4    0    0  0.26884366457E+01  0.30641126661E+00 -0.13251188742E+02  0.13525041463E+02  0.10566000000E+00 0.  1.
         14    1    4    4    0    0  0.10620722450E+02  0.46963795732E+00 -0.48096493144E+02  0.49257415259E+02  0.00000000000E+00 0. -1.
<mgrwt>
<rscale>  0 0.78849685E+02</rscale>
<asrwt>0</asrwt>
<pdfrwt beam="1">  1        2 0.69262516E-03 0.78849685E+02</pdfrwt>
<pdfrwt beam="2">  1       -1 0.53114727E-01 0.78849685E+02</pdfrwt>
<totfact> 0.84465118E+04</totfact>
</mgrwt>
</event>
<event>
 8    1  0.2389776E-016  0.7950095E+02  0.7818608E-02  0.1330474E+00
         -1   -1    0    0    0  501 -0.00000000000E+00  0.00000000000E+00  0.12510731888E+01  0.12510833407E+01  0.50400000000E-02 0.  1.
          2   -1    0    0  501    0  0.00000000000E+00 -0.00000000000E+00 -0.12629905939E+04  0.12629905940E+04  0.25500000000E-02 0. -1.
         24    2    1    2    0    0  0.00000000000E+00  0.00000000000E+00 -0.12617395208E+04  0.12642416773E+04  0.79500945620E+02 0.  0.
         66    2    3    3    0    0  0.20241384461E+02  0.30694678534E+01 -0.11726351883E+04  0.11728155951E+04  0.19999987789E+01 0.  0.
        -13    1    3    3    0    0 -0.20241384461E+02 -0.30694678534E+01 -0.89104332500E+02  0.91426082231E+02  0.10566000000E+00 0.  1.
         13    1    4    4    0    0  0.82556984097E+01  0.70744464235E+00 -0.47536755700E+03  0.47543977794E+03  0.10566000000E+00 0. -1.
        -13    1    4    4    0    0  0.60441880065E+01  0.93179126799E+00 -0.31563481504E+03  0.31569407355E+03  0.10566000000E+00 0.  1.
        -14    1    4    4    0    0  0.59414980447E+01  0.14302319431E+01 -0.38163281622E+03  0.38168174357E+03  0.00000000000E+00 0.  1.
<mgrwt>
<rscale>  0 0.79500946E+02</rscale>
<asrwt>0</asrwt>
<pdfrwt beam="1">  1        2 0.19430523E+00 0.79500946E+02</pdfrwt>
<pdfrwt beam="2">  1       -1 0.19247459E-03 0.79500946E+02</pdfrwt>
<totfact> 0.35365149E+05</totfact>
</mgrwt>
</event>
<event>
 8    1  0.2389776E-016  0.8073943E+02  0.7818608E-02  0.1326966E+00
          2   -1    0    0  501    0  0.00000000000E+00  0.00000000000E+00  0.20110901444E+04  0.20110901444E+04  0.25500000000E-02 0. -1.
         -1   -1    0    0    0  501 -0.00000000000E+00 -0.00000000000E+00 -0.81035565562E+00  0.81037132859E+00  0.50400000000E-02 0.  1.
         24    2    1    2    0    0  0.00000000000E+00  0.00000000000E+00  0.20102797887E+04  0.20119005157E+04  0.80739433744E+02 0.  0.
         66    2    3    3    0    0  0.99723813071E+01  0.10908321821E+02  0.19411989064E+04  0.19412562000E+04  0.20000003107E+01 0.  0.
        -13    1    3    3    0    0 -0.99723813071E+01 -0.10908321821E+02  0.69080882365E+02  0.70644315739E+02  0.10566000000E+00 0.  1.
         13    1    4    4    0    0  0.17739669512E+01  0.12023586970E+01  0.32294246901E+03  0.32294959681E+03  0.10566000000E+00 0.  1.
        -13    1    4    4    0    0  0.44319884174E+01  0.45354370380E+01  0.82355592913E+03  0.82358034962E+03  0.10566000000E+00 0. -1.
        -14    1    4    4    0    0  0.37664259385E+01  0.51705260864E+01  0.79470050821E+03  0.79472625354E+03  0.00000000000E+00 0.  1.
<mgrwt>
<rscale>  0 0.80739434E+02</rscale>
<asrwt>0</asrwt>
<pdfrwt beam="1">  1        2 0.30939395E+00 0.80739434E+02</pdfrwt>
<pdfrwt beam="2">  1       -1 0.12467313E-03 0.80739434E+02</pdfrwt>
<totfact> 0.26963292E+05</totfact>
</mgrwt>
</event>
<event>
 8    1  0.2389776E-016  0.8057205E+02  0.7818608E-02  0.1327436E+00
          2   -1    0    0  501    0  0.00000000000E+00  0.00000000000E+00  0.75935669656E+01  0.75935673938E+01  0.25500000000E-02 0. -1.
         -1   -1    0    0    0  501 -0.00000000000E+00 -0.00000000000E+00 -0.21372878434E+03  0.21372878440E+03  0.50400000000E-02 0.  1.
         24    2    1    2    0    0  0.00000000000E+00 -0.35527136788E-14 -0.20613521737E+03  0.22132235179E+03  0.80572051986E+02 0.  0.
         66    2    3    3    0    0  0.23948929077E+02 -0.23973746215E+02 -0.43411103280E+02  0.55107309805E+02  0.19999985989E+01 0.  0.
        -13    1    3    3    0    0 -0.23948929077E+02  0.23973746215E+02 -0.16272411409E+03  0.16621504199E+03  0.10566000000E+00 0.  1.
         13    1    4    4    0    0  0.11899718253E+02 -0.11602310781E+02 -0.20545330157E+02  0.26426098184E+02  0.10566000000E+00 0. -1.
        -13    1    4    4    0    0  0.26653763395E+01 -0.20989274466E+01 -0.47951761364E+01  0.58749132480E+01  0.10566000000E+00 0.  1.
        -14    1    4    4    0    0  0.93838344841E+01 -0.10272507988E+02 -0.18070596987E+02  0.22806298372E+02  0.00000000000E+00 0.  1.
<mgrwt>
<rscale>  0 0.80572052E+02</rscale>
<asrwt>0</asrwt>
<pdfrwt beam="1">  1        2 0.11682413E-02 0.80572052E+02</pdfrwt>
<pdfrwt beam="2">  1       -1 0.32881347E-01 0.80572052E+02</pdfrwt>
<totfact> 0.95823424E+04</totfact>
</mgrwt>
</event>
<event>
 8    1  0.2389776E-016  0.8003757E+02  0.7818608E-02  0.1328945E+00
          2   -1    0    0  501    0  0.00000000000E+00  0.00000000000E+00  0.17899335943E+04  0.17899335943E+04  0.25500000000E-02 0. -1.
         -1   -1    0    0    0  501 -0.00000000000E+00 -0.00000000000E+00 -0.89472061328E+00  0.89473480844E+00  0.50400000000E-02 0.  1.
         24    2    1    2    0    0  0.35527136788E-14 -0.44408920985E-15  0.17890388737E+04  0.17908283291E+04  0.80037571062E+02 0.  0.
         66    2    3    3    0    0 -0.18296503242E+02  0.34003964226E+01  0.16871502458E+04  0.16872540641E+04  0.20000024455E+01 0.  0.
        -13    1    3    3    0    0  0.18296503242E+02 -0.34003964226E+01  0.10188862782E+03  0.10357426500E+03  0.10566000000E+00 0.  1.
         13    1    4    4    0    0 -0.43806358889E+01  0.71740998091E+00  0.42555043367E+03  0.42557359811E+03  0.10566000000E+00 0. -1.
        -13    1    4    4    0    0 -0.92598726766E+01  0.10842138717E+01  0.85625695803E+03  0.85630771928E+03  0.10566000000E+00 0.  1.
        -14    1    4    4    0    0 -0.46559946767E+01  0.15987725699E+01  0.40534285414E+03  0.40537274669E+03  0.00000000000E+00 0.  1.
<mgrwt>
<rscale>  0 0.80037571E+02</rscale>
<asrwt>0</asrwt>
<pdfrwt beam="1">  1        2 0.27537328E+00 0.80037571E+02</pdfrwt>
<pdfrwt beam="2">  1       -1 0.13765098E-03 0.80037571E+02</pdfrwt>
<totfact> 0.30298044E+05</totfact>
</mgrwt>
</event>
<event>
 8    1  0.2389776E-016  0.8019452E+02  0.7818608E-02  0.1328500E+00
         -1   -1    0    0    0  501 -0.00000000000E+00  0.00000000000E+00  0.55422525195E+02  0.55422525425E+02  0.50400000000E-02 0.  1.
          2   -1    0    0  501    0  0.00000000000E+00 -0.00000000000E+00 -0.29009688279E+02  0.29009688391E+02  0.25500000000E-02 0. -1.
         24    2    1    2    0    0  0.00000000000E+00 -0.17763568394E-14  0.26412836917E+02  0.84432213815E+02  0.80194518365E+02 0.  0.
         66    2    3    3    0    0 -0.37218685215E+02  0.14180386232E+02  0.85687994040E+01  0.40788947192E+02  0.20000017465E+01 0.  0.
        -13    1    3    3    0    0  0.37218685215E+02 -0.14180386232E+02  0.17844037513E+02  0.43643266624E+02  0.10566000000E+00 0.  1.
         13    1    4    4    0    0 -0.14102894020E+02  0.56217038366E+01  0.40833289039E+01  0.15721956390E+02  0.10566000000E+00 0. -1.
        -13    1    4    4    0    0 -0.11392154056E+02  0.38142716378E+01  0.20748798326E+01  0.12192052023E+02  0.10566000000E+00 0.  1.
         14    1    4    4    0    0 -0.11723637139E+02  0.47444107574E+01  0.24105906676E+01  0.12874938779E+02  0.00000000000E+00 0. -1.
<mgrwt>
<rscale>  0 0.80194518E+02</rscale>
<asrwt>0</asrwt>
<pdfrwt beam="1">  1        2 0.44630290E-02 0.80194518E+02</pdfrwt>
<pdfrwt beam="2">  1       -1 0.85265423E-02 0.80194518E+02</pdfrwt>
<totfact> 0.13275596E+05</totfact>
</mgrwt>
</event>
<event>
 8    1  0.2389776E-016  0.7588859E+02  0.7818608E-02  0.1341141E+00
          2   -1    0    0  501    0  0.00000000000E+00  0.00000000000E+00  0.30337855801E+03  0.30337855802E+03  0.25500000000E-02 0. -1.
         -1   -1    0    0    0  501 -0.00000000000E+00 -0.00000000000E+00 -0.47457838543E+01  0.47457865305E+01  0.50400000000E-02 0.  1.
         24    2    1    2    0    0  0.00000000000E+00  0.00000000000E+00  0.29863277415E+03  0.30812434455E+03  0.75888588768E+02 0.  0.
         66    2    3    3    0    0  0.15712633971E+02  0.91400332250E+01  0.28453044329E+03  0.28511752005E+03  0.20000017351E+01 0.  0.
        -13    1    3    3    0    0 -0.15712633971E+02 -0.91400332250E+01  0.14102330861E+02  0.23006824496E+02  0.10566000000E+00 0.  1.
         13    1    4    4    0    0  0.23377874282E+01  0.13616855601E+01  0.36535610795E+02  0.36635794762E+02  0.10566000000E+00 0. -1.
        -13    1    4    4    0    0  0.92412087342E+00  0.27024919086E+00  0.20376931645E+02  0.20399939738E+02  0.10566000000E+00 0.  1.
        -14    1    4    4    0    0  0.12450725669E+02  0.75080984740E+01  0.22761790085E+03  0.22808178555E+03  0.00000000000E+00 0.  1.
<mgrwt>
<rscale>  0 0.75888589E+02</rscale>
<asrwt>0</asrwt>
<pdfrwt beam="1">  1        2 0.46673629E-01 0.75888589E+02</pdfrwt>
<pdfrwt beam="2">  1       -1 0.73012074E-03 0.75888589E+02</pdfrwt>
<totfact> 0.29384232E+05</totfact>
</mgrwt>
</event>
<event>
 8    1  0.2389776E-016  0.7841520E+02  0.7818608E-02  0.1333610E+00
          2   -1    0    0  501    0  0.00000000000E+00  0.00000000000E+00  0.11989273920E+03  0.11989273923E+03  0.25500000000E-02 0. -1.
         -1   -1    0    0    0  501 -0.00000000000E+00 -0.00000000000E+00 -0.12821759822E+02  0.12821760812E+02  0.50400000000E-02 0.  1.
         24    2    1    2    0    0  0.00000000000E+00 -0.35527136788E-14  0.10707097938E+03  0.13271450004E+03  0.78415201943E+02 0.  0.
         66    2    3    3    0    0  0.23322793932E+02 -0.20972461680E+02  0.93313611972E+02  0.98464344016E+02  0.19999993883E+01 0.  0.
        -13    1    3    3    0    0 -0.23322793932E+02  0.20972461680E+02  0.13757367408E+02  0.34250156025E+02  0.10566000000E+00 0.  1.
         13    1    4    4    0    0  0.99652795571E+01 -0.88409764673E+01  0.39927524682E+02  0.42091424932E+02  0.10566000000E+00 0. -1.
        -13    1    4    4    0    0  0.51325654110E+00 -0.83719721060E+00  0.24344976285E+01  0.26272179554E+01  0.10566000000E+00 0.  1.
        -14    1    4    4    0    0  0.12844257834E+02 -0.11294288002E+02  0.50951589661E+02  0.53745701128E+02  0.00000000000E+00 0.  1.
<mgrwt>
<rscale>  0 0.78415202E+02</rscale>
<asrwt>0</asrwt>
<pdfrwt beam="1">  1        2 0.18445038E-01 0.78415202E+02</pdfrwt>
<pdfrwt beam="2">  1       -1 0.19725784E-02 0.78415202E+02</pdfrwt>
<totfact> 0.19704257E+05</totfact>
</mgrwt>
</event>
<event>
 8    1  0.2389776E-016  0.7962057E+02  0.7818608E-02  0.1330132E+00
         -1   -1    0    0    0  501 -0.00000000000E+00  0.00000000000E+00  0.21975736308E+01  0.21975794103E+01  0.50400000000E-02 0.  1.
          2   -1    0    0  501    0  0.00000000000E+00 -0.00000000000E+00 -0.72118483697E+03  0.72118483698E+03  0.25500000000E-02 0. -1.
         24    2    1    2    0    0  0.00000000000E+00 -0.35527136788E-14 -0.71898726334E+03  0.72338241639E+03  0.79620572032E+02 0.  0.
         66    2    3    3    0    0 -0.17927534909E+02  0.20444168312E+02 -0.62358586708E+03  0.62418161953E+03  0.20000004203E+01 0.  0.
        -13    1    3    3    0    0  0.17927534909E+02 -0.20444168312E+02 -0.95401396257E+02  0.99200796860E+02  0.10566000000E+00 0.  1.
         13    1    4    4    0    0 -0.68158305837E+01  0.78230478272E+01 -0.22801472519E+03  0.22825069921E+03  0.10566000000E+00 0. -1.
        -13    1    4    4    0    0 -0.59778540539E+01  0.64094262305E+01 -0.22144812191E+03  0.22162151824E+03  0.10566000000E+00 0.  1.
        -14    1    4    4    0    0 -0.51338502717E+01  0.62116942543E+01 -0.17412301998E+03  0.17430940207E+03  0.00000000000E+00 0.  1.
<mgrwt>
<rscale>  0 0.79620572E+02</rscale>
<asrwt>0</asrwt>
<pdfrwt beam="1">  1        2 0.11095132E+00 0.79620572E+02</pdfrwt>
<pdfrwt beam="2">  1       -1 0.33808927E-03 0.79620572E+02</pdfrwt>
<totfact> 0.34093640E+05</totfact>
</mgrwt>
</event>
<event>
 8    1  0.2389776E-016  0.7852437E+02  0.7818608E-02  0.1333292E+00
          2   -1    0    0  501    0  0.00000000000E+00  0.00000000000E+00  0.38542987965E+03  0.38542987966E+03  0.25500000000E-02 0. -1.
         -1   -1    0    0    0  501 -0.00000000000E+00 -0.00000000000E+00 -0.39994781072E+01  0.39994812828E+01  0.50400000000E-02 0.  1.
         24    2    1    2    0    0  0.00000000000E+00  0.00000000000E+00  0.38143040155E+03  0.38942936094E+03  0.78524365276E+02 0.  0.
         66    2    3    3    0    0  0.37242019522E+02 -0.10079091599E+02  0.15543637806E+03  0.16016561344E+03  0.19999994723E+01 0.  0.
        -13    1    3    3    0    0 -0.37242019522E+02  0.10079091599E+02  0.22599402348E+03  0.22926374750E+03  0.10566000000E+00 0.  1.
         13    1    4    4    0    0  0.79736086494E+01 -0.28058464264E+01  0.33653503288E+02  0.34699000802E+02  0.10566000000E+00 0. -1.
        -13    1    4    4    0    0  0.15675962854E+02 -0.33535144015E+01  0.63944814007E+02  0.65923685218E+02  0.10566000000E+00 0.  1.
         14    1    4    4    0    0  0.13592448018E+02 -0.39197307708E+01  0.57838060769E+02  0.59542927422E+02  0.00000000000E+00 0. -1.
<mgrwt>
<rscale>  0 0.78524365E+02</rscale>
<asrwt>0</asrwt>
<pdfrwt beam="1">  1        2 0.59296894E-01 0.78524365E+02</pdfrwt>
<pdfrwt beam="2">  1       -1 0.61530468E-03 0.78524365E+02</pdfrwt>
<totfact> 0.29276883E+05</totfact>
</mgrwt>
</event>
<event>
 8    1  0.2389776E-016  0.7854917E+02  0.7818608E-02  0.1333220E+00
          2   -1    0    0  501    0  0.00000000000E+00  0.00000000000E+00  0.23284065115E+03  0.23284065116E+03  0.25500000000E-02 0. -1.
         -1   -1    0    0    0  501 -0.00000000000E+00 -0.00000000000E+00 -0.66246719121E+01  0.66246738293E+01  0.50400000000E-02 0.  1.
         24    2    1    2    0    0  0.00000000000E+00  0.00000000000E+00  0.22621597924E+03  0.23946532499E+03  0.78549173207E+02 0.  0.
         66    2    3    3    0    0 -0.63629791897E+01 -0.32806530791E+02  0.17593588792E+03  0.17909269284E+03  0.20000004535E+01 0.  0.
        -13    1    3    3    0    0  0.63629791897E+01  0.32806530791E+02  0.50280091315E+02  0.60372632156E+02  0.10566000000E+00 0.  1.
         13    1    4    4    0    0 -0.54381853524E+01 -0.26545813824E+02  0.13928038795E+03  0.14189183106E+03  0.10566000000E+00 0. -1.
        -13    1    4    4    0    0 -0.65094404580E+00 -0.50806943833E+01  0.28709712357E+02  0.29163263384E+02  0.10566000000E+00 0.  1.
        -14    1    4    4    0    0 -0.27384979150E+00 -0.11800225837E+01  0.79457876181E+01  0.80375983900E+01  0.00000000000E+00 0.  1.
<mgrwt>
<rscale>  0 0.78549173E+02</rscale>
<asrwt>0</asrwt>
<pdfrwt beam="1">  1        2 0.35821634E-01 0.78549173E+02</pdfrwt>
<pdfrwt beam="2">  1       -1 0.10191806E-02 0.78549173E+02</pdfrwt>
<totfact> 0.24417438E+05</totfact>
</mgrwt>
</event>
<event>
 8    1  0.2389776E-016  0.8115393E+02  0.7818608E-02  0.1325808E+00
          2   -1    0    0  501    0  0.00000000000E+00  0.00000000000E+00  0.16627170025E+02  0.16627170221E+02  0.25500000000E-02 0. -1.
         -1   -1    0    0    0  501 -0.00000000000E+00 -0.00000000000E+00 -0.99024083277E+02  0.99024083405E+02  0.50400000000E-02 0.  1.
         24    2    1    2    0    0  0.00000000000E+00  0.00000000000E+00 -0.82396913252E+02  0.11565125363E+03  0.81153934913E+02 0.  0.
         66    2    3    3    0    0 -0.31773671505E+02 -0.39058417700E+01 -0.57487094952E+01  0.32586338626E+02  0.20000008224E+01 0.  0.
        -13    1    3    3    0    0  0.31773671505E+02  0.39058417700E+01 -0.76648203757E+02  0.83064915001E+02  0.10566000000E+00 0.  1.
         13    1    4    4    0    0 -0.55983196494E+01 -0.76829082133E+00 -0.37676724284E+00  0.56643244322E+01  0.10566000000E+00 0. -1.
        -13    1    4    4    0    0 -0.11340197929E+02 -0.18295093399E+01 -0.24291432796E+01  0.11741341261E+02  0.10566000000E+00 0.  1.
         14    1    4    4    0    0 -0.14835153927E+02 -0.13080416088E+01 -0.29427989728E+01  0.15180672932E+02  0.00000000000E+00 0. -1.
<mgrwt>
<rscale>  0 0.81153935E+02</rscale>
<asrwt>0</asrwt>
<pdfrwt beam="1">  1        2 0.25580262E-02 0.81153935E+02</pdfrwt>
<pdfrwt beam="2">  1       -1 0.15234474E-01 0.81153935E+02</pdfrwt>
<totfact> 0.11461565E+05</totfact>
</mgrwt>
</event>
<event>
 8    1  0.2389776E-016  0.8041566E+02  0.7818608E-02  0.1327876E+00
          2   -1    0    0  501    0  0.00000000000E+00  0.00000000000E+00  0.31145647198E+02  0.31145647302E+02  0.25500000000E-02 0. -1.
         -1   -1    0    0    0  501 -0.00000000000E+00 -0.00000000000E+00 -0.51906755894E+02  0.51906756138E+02  0.50400000000E-02 0.  1.
         24    2    1    2    0    0  0.00000000000E+00  0.00000000000E+00 -0.20761108696E+02  0.83052403441E+02  0.80415658195E+02 0.  0.
         66    2    3    3    0    0  0.30771322484E+02  0.76206214964E+01  0.15115117835E+02  0.35176909151E+02  0.19999977152E+01 0.  0.
        -13    1    3    3    0    0 -0.30771322484E+02 -0.76206214964E+01 -0.35876226530E+02  0.47875494290E+02  0.10566000000E+00 0.  1.
         13    1    4    4    0    0  0.17538480418E+02  0.42043761040E+01  0.86640797190E+01  0.20008810939E+02  0.10566000000E+00 0. -1.
        -13    1    4    4    0    0  0.44984447476E+01  0.17938766869E+01  0.22900045721E+01  0.53581044868E+01  0.10566000000E+00 0.  1.
         14    1    4    4    0    0  0.87343973182E+01  0.16223687055E+01  0.41610335436E+01  0.98099937247E+01  0.00000000000E+00 0. -1.
<mgrwt>
<rscale>  0 0.80415658E+02</rscale>
<asrwt>0</asrwt>
<pdfrwt beam="1">  1        2 0.47916381E-02 0.80415658E+02</pdfrwt>
<pdfrwt beam="2">  1       -1 0.79856548E-02 0.80415658E+02</pdfrwt>
<totfact> 0.13360087E+05</totfact>
</mgrwt>
</event>
<event>
 8    1  0.2389776E-016  0.8230528E+02  0.7818608E-02  0.1322634E+00
          2   -1    0    0  501    0  0.00000000000E+00  0.00000000000E+00  0.48889658517E+02  0.48889658584E+02  0.25500000000E-02 0. -1.
         -1   -1    0    0    0  501 -0.00000000000E+00 -0.00000000000E+00 -0.34640042290E+02  0.34640042657E+02  0.50400000000E-02 0.  1.
         24    2    1    2    0    0 -0.71054273576E-14  0.00000000000E+00  0.14249616227E+02  0.83529701240E+02  0.82305281888E+02 0.  0.
         66    2    3    3    0    0  0.39412441720E+02 -0.17909706514E+01  0.18920223679E+02  0.43800947469E+02  0.19999992339E+01 0.  0.
        -13    1    3    3    0    0 -0.39412441720E+02  0.17909706514E+01 -0.46706074521E+01  0.39728753771E+02  0.10566000000E+00 0.  1.
         13    1    4    4    0    0  0.11126714174E+02  0.69068896632E-01  0.49489840168E+01  0.12178347410E+02  0.10566000000E+00 0. -1.
        -13    1    4    4    0    0  0.15818161726E+02 -0.14758470921E+01  0.74490166031E+01  0.17546833829E+02  0.10566000000E+00 0.  1.
         14    1    4    4    0    0  0.12467565820E+02 -0.38419245601E+00  0.65222230594E+01  0.14075766230E+02  0.00000000000E+00 0. -1.
<mgrwt>
<rscale>  0 0.82305282E+02</rscale>
<asrwt>0</asrwt>
<pdfrwt beam="1">  1        2 0.75214859E-02 0.82305282E+02</pdfrwt>
<pdfrwt beam="2">  1       -1 0.53292374E-02 0.82305282E+02</pdfrwt>
<totfact> 0.13753931E+05</totfact>
</mgrwt>
</event>
<event>
 8    1  0.2389776E-016  0.7893655E+02  0.7818608E-02  0.1332097E+00
         -1   -1    0    0    0  501 -0.00000000000E+00  0.00000000000E+00  0.17483516728E+03  0.17483516735E+03  0.50400000000E-02 0.  1.
          2   -1    0    0  501    0  0.00000000000E+00 -0.00000000000E+00 -0.89097897326E+01  0.89097900975E+01  0.25500000000E-02 0. -1.
         24    2    1    2    0    0  0.35527136788E-14  0.00000000000E+00  0.16592537754E+03  0.18374495745E+03  0.78936547138E+02 0.  0.
         66    2    3    3    0    0 -0.17694855917E+02  0.32586185784E+02  0.51718764282E+02  0.63669443262E+02  0.19999991434E+01 0.  0.
        -13    1    3    3    0    0  0.17694855917E+02 -0.32586185784E+02  0.11420661326E+03  0.12007551418E+03  0.10566000000E+00 0.  1.
         13    1    4    4    0    0 -0.48191312744E+01  0.95855129416E+01  0.15314200056E+02  0.18698715784E+02  0.10566000000E+00 0. -1.
        -13    1    4    4    0    0 -0.58322257916E+01  0.11170842891E+02  0.18506936605E+02  0.22390186581E+02  0.10566000000E+00 0.  1.
        -14    1    4    4    0    0 -0.70434988512E+01  0.11829829952E+02  0.17897627621E+02  0.22580540897E+02  0.00000000000E+00 0.  1.
<mgrwt>
<rscale>  0 0.78936547E+02</rscale>
<asrwt>0</asrwt>
<pdfrwt beam="1">  1        2 0.13707370E-02 0.78936547E+02</pdfrwt>
<pdfrwt beam="2">  1       -1 0.26897716E-01 0.78936547E+02</pdfrwt>
<totfact> 0.10714305E+05</totfact>
</mgrwt>
</event>
<event>
 8    1  0.2389776E-016  0.8602030E+02  0.7818608E-02  0.1312786E+00
         -1   -1    0    0    0  501 -0.00000000000E+00  0.00000000000E+00  0.57036031133E+01  0.57036053401E+01  0.50400000000E-02 0.  1.
          2   -1    0    0  501    0  0.00000000000E+00 -0.00000000000E+00 -0.32433405878E+03  0.32433405879E+03  0.25500000000E-02 0. -1.
         24    2    1    2    0    0  0.00000000000E+00  0.00000000000E+00 -0.31863045566E+03  0.33003766413E+03  0.86020302638E+02 0.  0.
         66    2    3    3    0    0  0.59403676451E+01  0.42409839272E+02 -0.17374951952E+03  0.17896026920E+03  0.19999963436E+01 0.  0.
        -13    1    3    3    0    0 -0.59403676451E+01 -0.42409839272E+02 -0.14488093614E+03  0.15107739492E+03  0.10566000000E+00 0.  1.
         13    1    4    4    0    0  0.19514628232E+01  0.14760018550E+02 -0.60213687745E+02  0.62027136889E+02  0.10566000000E+00 0. -1.
        -13    1    4    4    0    0  0.26854284028E+01  0.21526448803E+02 -0.90208957434E+02  0.92780745250E+02  0.10566000000E+00 0.  1.
        -14    1    4    4    0    0  0.13034764191E+01  0.61233719180E+01 -0.23326874340E+02  0.24152387064E+02  0.00000000000E+00 0.  1.
<mgrwt>
<rscale>  0 0.86020303E+02</rscale>
<asrwt>0</asrwt>
<pdfrwt beam="1">  1        2 0.49897533E-01 0.86020303E+02</pdfrwt>
<pdfrwt beam="2">  1       -1 0.87747783E-03 0.86020303E+02</pdfrwt>
<totfact> 0.21670041E+05</totfact>
</mgrwt>
</event>
<event>
 8    1  0.2389776E-016  0.8058961E+02  0.7818608E-02  0.1327386E+00
          2   -1    0    0  501    0  0.00000000000E+00  0.00000000000E+00  0.18489102144E+03  0.18489102145E+03  0.25500000000E-02 0. -1.
         -1   -1    0    0    0  501 -0.00000000000E+00 -0.00000000000E+00 -0.87817735435E+01  0.87817749897E+01  0.50400000000E-02 0.  1.
         24    2    1    2    0    0  0.00000000000E+00  0.71054273576E-14  0.17610924789E+03  0.19367279644E+03  0.80589607822E+02 0.  0.
         66    2    3    3    0    0  0.11508132790E+02  0.34926724658E+02  0.12754994064E+03  0.13276031250E+03  0.20000003680E+01 0.  0.
        -13    1    3    3    0    0 -0.11508132790E+02 -0.34926724658E+02  0.48559307255E+02  0.60912483948E+02  0.10566000000E+00 0.  1.
         13    1    4    4    0    0  0.52894837552E+01  0.15337293621E+02  0.57142981457E+02  0.59401537925E+02  0.10566000000E+00 0. -1.
        -13    1    4    4    0    0  0.57354357615E+01  0.16398121170E+02  0.59333124912E+02  0.61824141540E+02  0.10566000000E+00 0.  1.
        -14    1    4    4    0    0  0.48321327336E+00  0.31913098668E+01  0.11073834269E+02  0.11534633031E+02  0.00000000000E+00 0.  1.
<mgrwt>
<rscale>  0 0.80589608E+02</rscale>
<asrwt>0</asrwt>
<pdfrwt beam="1">  1        2 0.28444774E-01 0.80589608E+02</pdfrwt>
<pdfrwt beam="2">  1       -1 0.13510421E-02 0.80589608E+02</pdfrwt>
<totfact> 0.21056867E+05</totfact>
</mgrwt>
</event>
<event>
 8    1  0.2389776E-016  0.8964912E+02  0.7818608E-02  0.1303704E+00
         -1   -1    0    0    0  501 -0.00000000000E+00  0.00000000000E+00  0.30721742109E+01  0.30721783450E+01  0.50400000000E-02 0.  1.
          2   -1    0    0  501    0  0.00000000000E+00 -0.00000000000E+00 -0.65401238344E+03  0.65401238344E+03  0.25500000000E-02 0. -1.
         24    2    1    2    0    0 -0.17763568394E-14  0.88817841970E-15 -0.65094020923E+03  0.65708456179E+03  0.89649123540E+02 0.  0.
         66    2    3    3    0    0  0.13352444088E+02  0.65622859104E+01 -0.63537495778E+03  0.63555227031E+03  0.19999921143E+01 0.  0.
        -13    1    3    3    0    0 -0.13352444088E+02 -0.65622859104E+01 -0.15565251451E+02  0.21532291477E+02  0.10566000000E+00 0.  1.
         13    1    4    4    0    0  0.88753566649E+01  0.44899417265E+01 -0.45645966728E+03  0.45656803496E+03  0.10566000000E+00 0. -1.
        -13    1    4    4    0    0  0.31224539188E+01  0.16806108469E+01 -0.12282725536E+03  0.12287847653E+03  0.10566000000E+00 0.  1.
        -14    1    4    4    0    0  0.13546335044E+01  0.39173333698E+00 -0.56088035146E+02  0.56105758826E+02  0.00000000000E+00 0.  1.
<mgrwt>
<rscale>  0 0.89649124E+02</rscale>
<asrwt>0</asrwt>
<pdfrwt beam="1">  1        2 0.10061718E+00 0.89649124E+02</pdfrwt>
<pdfrwt beam="2">  1       -1 0.47264303E-03 0.89649124E+02</pdfrwt>
<totfact> 0.24432882E+05</totfact>
</mgrwt>
</event>
<event>
 8    1  0.2389776E-016  0.8904546E+02  0.7818608E-02  0.1305180E+00
          2   -1    0    0  501    0  0.00000000000E+00  0.00000000000E+00  0.85092631892E+03  0.85092631892E+03  0.25500000000E-02 0. -1.
         -1   -1    0    0    0  501 -0.00000000000E+00 -0.00000000000E+00 -0.23295449823E+01  0.23295504343E+01  0.50400000000E-02 0.  1.
         24    2    1    2    0    0 -0.17763568394E-14  0.17763568394E-14  0.84859677394E+03  0.85325586936E+03  0.89045459495E+02 0.  0.
         66    2    3    3    0    0  0.15899973483E+02  0.10272200624E+02  0.81042096059E+03  0.81064447239E+03  0.19999994115E+01 0.  0.
        -13    1    3    3    0    0 -0.15899973483E+02 -0.10272200624E+02  0.38175813349E+02  0.42611396965E+02  0.10566000000E+00 0.  1.
         13    1    4    4    0    0  0.23761049276E+01  0.15492003677E+01  0.12326474803E+03  0.12329742564E+03  0.10566000000E+00 0. -1.
        -13    1    4    4    0    0  0.58869750061E+01  0.45349956426E+01  0.34449928828E+03  0.34457944432E+03  0.10566000000E+00 0.  1.
        -14    1    4    4    0    0  0.76368935491E+01  0.41880046141E+01  0.34265692428E+03  0.34276760244E+03  0.00000000000E+00 0.  1.
<mgrwt>
<rscale>  0 0.89045459E+02</rscale>
<asrwt>0</asrwt>
<pdfrwt beam="1">  1        2 0.13091170E+00 0.89045459E+02</pdfrwt>
<pdfrwt beam="2">  1       -1 0.35839206E-03 0.89045459E+02</pdfrwt>
<totfact> 0.26234235E+05</totfact>
</mgrwt>
</event>
<event>
 8    1  0.2389776E-016  0.8014900E+02  0.7818608E-02  0.1328629E+00
          2   -1    0    0  501    0  0.00000000000E+00  0.00000000000E+00  0.60519904740E+01  0.60519910112E+01  0.25500000000E-02 0. -1.
         -1   -1    0    0    0  501 -0.00000000000E+00 -0.00000000000E+00 -0.26536152922E+03  0.26536152926E+03  0.50400000000E-02 0.  1.
         24    2    1    2    0    0  0.00000000000E+00  0.00000000000E+00 -0.25930953874E+03  0.27141352027E+03  0.80148999404E+02 0.  0.
         66    2    3    3    0    0 -0.35786481446E+02 -0.52000667702E+01 -0.71449741374E+02  0.80104797055E+02  0.20000050579E+01 0.  0.
        -13    1    3    3    0    0  0.35786481446E+02  0.52000667702E+01 -0.18785979737E+03  0.19130872322E+03  0.10566000000E+00 0.  1.
         13    1    4    4    0    0 -0.27393117004E+01  0.10546246445E+00 -0.54232780538E+01  0.60776689452E+01  0.10566000000E+00 0. -1.
        -13    1    4    4    0    0 -0.23997513298E+02 -0.37972337223E+01 -0.48395655339E+02  0.54152102897E+02  0.10566000000E+00 0.  1.
         14    1    4    4    0    0 -0.90496564473E+01 -0.15082955123E+01 -0.17630807981E+02  0.19875025213E+02  0.00000000000E+00 0. -1.
<mgrwt>
<rscale>  0 0.80148999E+02</rscale>
<asrwt>0</asrwt>
<pdfrwt beam="1">  1        2 0.93107570E-03 0.80148999E+02</pdfrwt>
<pdfrwt beam="2">  1       -1 0.40824842E-01 0.80148999E+02</pdfrwt>
<totfact> 0.90205156E+04</totfact>
</mgrwt>
</event>
<event>
 8    1  0.2389776E-016  0.7888606E+02  0.7818608E-02  0.1332243E+00
         -1   -1    0    0    0  501 -0.00000000000E+00  0.00000000000E+00  0.13113219801E+03  0.13113219811E+03  0.50400000000E-02 0.  1.
          2   -1    0    0  501    0  0.00000000000E+00 -0.00000000000E+00 -0.11864001188E+02  0.11864001462E+02  0.25500000000E-02 0. -1.
         24    2    1    2    0    0  0.00000000000E+00  0.00000000000E+00  0.11926819682E+03  0.14299619957E+03  0.78886059084E+02 0.  0.
         66    2    3    3    0    0 -0.25212225385E+02  0.68862170286E+01  0.61849383797E+01  0.26931946683E+02  0.19999988848E+01 0.  0.
        -13    1    3    3    0    0  0.25212225385E+02 -0.68862170286E+01  0.11308325844E+03  0.11606425288E+03  0.10566000000E+00 0.  1.
         13    1    4    4    0    0 -0.93247440622E+01  0.27263091024E+01  0.18462228558E+01  0.98895559059E+01  0.10566000000E+00 0. -1.
        -13    1    4    4    0    0 -0.22833536608E+01  0.77503999263E+00  0.11092878691E+01  0.26563272657E+01  0.10566000000E+00 0.  1.
        -14    1    4    4    0    0 -0.13604127662E+02  0.33848679336E+01  0.32294276548E+01  0.14386063511E+02  0.00000000000E+00 0.  1.
<mgrwt>
<rscale>  0 0.78886059E+02</rscale>
<asrwt>0</asrwt>
<pdfrwt beam="1">  1        2 0.18252310E-02 0.78886059E+02</pdfrwt>
<pdfrwt beam="2">  1       -1 0.20174184E-01 0.78886059E+02</pdfrwt>
<totfact> 0.11551263E+05</totfact>
</mgrwt>
</event>
<event>
 8    1  0.2389776E-016  0.8112936E+02  0.7818608E-02  0.1325877E+00
          2   -1    0    0  501    0  0.00000000000E+00  0.00000000000E+00  0.38733477425E+02  0.38733477509E+02  0.25500000000E-02 0. -1.
         -1   -1    0    0    0  501 -0.00000000000E+00 -0.00000000000E+00 -0.42482456548E+02  0.42482456847E+02  0.50400000000E-02 0.  1.
         24    2    1    2    0    0  0.00000000000E+00 -0.35527136788E-14 -0.37489791225E+01  0.81215934356E+02  0.81129360585E+02 0.  0.
         66    2    3    3    0    0 -0.28047990222E+02 -0.28638254722E+02  0.41846696695E+01  0.40352829528E+02  0.20000004175E+01 0.  0.
        -13    1    3    3    0    0  0.28047990222E+02  0.28638254722E+02 -0.79336487920E+01  0.40863104828E+02  0.10566000000E+00 0.  1.
         13    1    4    4    0    0 -0.30029553411E+01 -0.33228557061E+01  0.71257496543E-01  0.44805526992E+01  0.10566000000E+00 0. -1.
        -13    1    4    4    0    0 -0.58516094306E+01 -0.59706481586E+01  0.15270486578E+01  0.84990007649E+01  0.10566000000E+00 0.  1.
         14    1    4    4    0    0 -0.19193425450E+02 -0.19344750858E+02  0.25863635152E+01  0.27373276064E+02  0.00000000000E+00 0. -1.
<mgrwt>
<rscale>  0 0.81129361E+02</rscale>
<asrwt>0</asrwt>
<pdfrwt beam="1">  1        2 0.59589965E-02 0.81129361E+02</pdfrwt>
<pdfrwt beam="2">  1       -1 0.65357626E-02 0.81129361E+02</pdfrwt>
<totfact> 0.13621888E+05</totfact>
</mgrwt>
</event>
<event>
 8    1  0.2389776E-016  0.8142306E+02  0.7818608E-02  0.1325061E+00
         -1   -1    0    0    0  501 -0.00000000000E+00  0.00000000000E+00  0.36795457213E+02  0.36795457558E+02  0.50400000000E-02 0.  1.
          2   -1    0    0  501    0  0.00000000000E+00 -0.00000000000E+00 -0.45044382528E+02  0.45044382601E+02  0.25500000000E-02 0. -1.
         24    2    1    2    0    0  0.00000000000E+00  0.35527136788E-14 -0.82489253157E+01  0.81839840159E+02  0.81423059807E+02 0.  0.
         66    2    3    3    0    0 -0.20753844308E+02 -0.31477009439E+02 -0.19499001975E+02  0.42493943731E+02  0.19999997541E+01 0.  0.
        -13    1    3    3    0    0  0.20753844308E+02  0.31477009439E+02  0.11250076659E+02  0.39345896427E+02  0.10566000000E+00 0.  1.
         13    1    4    4    0    0 -0.14905499535E+02 -0.23270963040E+02 -0.13683617573E+02  0.30837707294E+02  0.10566000000E+00 0. -1.
        -13    1    4    4    0    0 -0.96904879311E+00 -0.14091838526E+01 -0.71029391560E+00  0.18548682368E+01  0.10566000000E+00 0.  1.
        -14    1    4    4    0    0 -0.48792959797E+01 -0.67968625465E+01 -0.51050904862E+01  0.98013682007E+01  0.00000000000E+00 0.  1.
<mgrwt>
<rscale>  0 0.81423060E+02</rscale>
<asrwt>0</asrwt>
<pdfrwt beam="1">  1        2 0.69299050E-02 0.81423060E+02</pdfrwt>
<pdfrwt beam="2">  1       -1 0.56608396E-02 0.81423060E+02</pdfrwt>
<totfact> 0.13919651E+05</totfact>
</mgrwt>
</event>
<event>
 8    1  0.2389776E-016  0.7967022E+02  0.7818608E-02  0.1329990E+00
         -1   -1    0    0    0  501 -0.00000000000E+00  0.00000000000E+00  0.10494963926E+02  0.10494965136E+02  0.50400000000E-02 0.  1.
          2   -1    0    0  501    0  0.00000000000E+00 -0.00000000000E+00 -0.15119974191E+03  0.15119974194E+03  0.25500000000E-02 0. -1.
         24    2    1    2    0    0  0.71054273576E-14 -0.17763568394E-14 -0.14070477799E+03  0.16169470707E+03  0.79670218692E+02 0.  0.
         66    2    3    3    0    0 -0.32338267066E+02  0.51357240529E+01 -0.11635109324E+03  0.12088720405E+03  0.20000062946E+01 0.  0.
        -13    1    3    3    0    0  0.32338267066E+02 -0.51357240529E+01 -0.24353684743E+02  0.40807503023E+02  0.10566000000E+00 0.  1.
         13    1    4    4    0    0 -0.10157556290E+02  0.92186996023E+00 -0.36293433156E+02  0.37699472785E+02  0.10566000000E+00 0. -1.
        -13    1    4    4    0    0 -0.96675559976E+00  0.12110437485E+00 -0.28305753286E+01  0.29954304174E+01  0.10566000000E+00 0.  1.
         14    1    4    4    0    0 -0.21213955176E+02  0.40927497178E+01 -0.77227084760E+02  0.80192300846E+02  0.00000000000E+00 0. -1.
<mgrwt>
<rscale>  0 0.79670219E+02</rscale>
<asrwt>0</asrwt>
<pdfrwt beam="1">  1        2 0.23261497E-01 0.79670219E+02</pdfrwt>
<pdfrwt beam="2">  1       -1 0.16146100E-02 0.79670219E+02</pdfrwt>
<totfact> 0.20302789E+05</totfact>
</mgrwt>
</event>
<event>
 8    1  0.2389776E-016  0.8014855E+02  0.7818608E-02  0.1328630E+00
         -1   -1    0    0    0  501 -0.00000000000E+00  0.00000000000E+00  0.16487753694E+01  0.16487830726E+01  0.50400000000E-02 0.  1.
          2   -1    0    0  501    0  0.00000000000E+00 -0.00000000000E+00 -0.97402214197E+03  0.97402214197E+03  0.25500000000E-02 0. -1.
         24    2    1    2    0    0  0.35527136788E-14 -0.35527136788E-14 -0.97237336660E+03  0.97567092505E+03  0.80148548994E+02 0.  0.
         66    2    3    3    0    0 -0.21369513251E+02  0.16470587033E+02 -0.84678610922E+03  0.84721818387E+03  0.19999969091E+01 0.  0.
        -13    1    3    3    0    0  0.21369513251E+02 -0.16470587033E+02 -0.12558725738E+03  0.12845274117E+03  0.10566000000E+00 0.  1.
         13    1    4    4    0    0 -0.25278921890E+01  0.20004379651E+01 -0.10331472188E+03  0.10336505653E+03  0.10566000000E+00 0. -1.
        -13    1    4    4    0    0 -0.18635018527E+02  0.14504748938E+02 -0.73803411533E+03  0.73841182155E+03  0.10566000000E+00 0.  1.
        -14    1    4    4    0    0 -0.20660253446E+00 -0.34599869812E-01 -0.54372720107E+01  0.54413057878E+01  0.00000000000E+00 0.  1.
<mgrwt>
<rscale>  0 0.80148549E+02</rscale>
<asrwt>0</asrwt>
<pdfrwt beam="1">  1        2 0.14984910E+00 0.80148549E+02</pdfrwt>
<pdfrwt beam="2">  1       -1 0.25365912E-03 0.80148549E+02</pdfrwt>
<totfact> 0.35014809E+05</totfact>
</mgrwt>
</event>
<event>
 8    1  0.2389776E-016  0.7809841E+02  0.7818608E-02  0.1334536E+00
          2   -1    0    0  501    0  0.00000000000E+00  0.00000000000E+00  0.54889536715E+03  0.54889536715E+03  0.25500000000E-02 0. -1.
         -1   -1    0    0    0  501 -0.00000000000E+00 -0.00000000000E+00 -0.27780140940E+01  0.27780186659E+01  0.50400000000E-02 0.  1.
         24    2    1    2    0    0  0.00000000000E+00  0.35527136788E-14  0.54611735305E+03  0.55167338582E+03  0.78098407892E+02 0.  0.
         66    2    3    3    0    0 -0.92874007472E+01  0.24024266436E+02  0.48031866214E+03  0.48101292955E+03  0.20000006498E+01 0.  0.
        -13    1    3    3    0    0  0.92874007472E+01 -0.24024266436E+02  0.65798690916E+02  0.70660456273E+02  0.10566000000E+00 0.  1.
         13    1    4    4    0    0 -0.55833115227E+01  0.13256561881E+02  0.28271293614E+03  0.28307865555E+03  0.10566000000E+00 0. -1.
        -13    1    4    4    0    0 -0.54770298242E+00  0.21670634274E+01  0.39525410320E+02  0.39588702523E+02  0.10566000000E+00 0.  1.
         14    1    4    4    0    0 -0.31563862420E+01  0.86006411276E+01  0.15808031568E+03  0.15834557148E+03  0.00000000000E+00 0. -1.
<mgrwt>
<rscale>  0 0.78098408E+02</rscale>
<asrwt>0</asrwt>
<pdfrwt beam="1">  1        2 0.84445409E-01 0.78098408E+02</pdfrwt>
<pdfrwt beam="2">  1       -1 0.42738730E-03 0.78098408E+02</pdfrwt>
<totfact> 0.33367961E+05</totfact>
</mgrwt>
</event>
<event>
 8    1  0.2389776E-016  0.7912999E+02  0.7818608E-02  0.1331539E+00
          2   -1    0    0  501    0  0.00000000000E+00  0.00000000000E+00  0.19176241058E+04  0.19176241058E+04  0.25500000000E-02 0. -1.
         -1   -1    0    0    0  501 -0.00000000000E+00 -0.00000000000E+00 -0.81630894473E+00  0.81632450339E+00  0.50400000000E-02 0.  1.
         24    2    1    2    0    0  0.00000000000E+00  0.00000000000E+00  0.19168077969E+04  0.19184404303E+04  0.79129985114E+02 0.  0.
         66    2    3    3    0    0 -0.83438404160E+01  0.10244763141E+02  0.18625150902E+04  0.18625630287E+04  0.20000000529E+01 0.  0.
        -13    1    3    3    0    0  0.83438404160E+01 -0.10244763141E+02  0.54292706711E+02  0.55877401611E+02  0.10566000000E+00 0.  1.
         13    1    4    4    0    0 -0.98083676088E+00  0.17439088830E+01  0.34026807774E+03  0.34027397660E+03  0.10566000000E+00 0. -1.
        -13    1    4    4    0    0 -0.14798440451E+01  0.11194510152E+01  0.22212238028E+03  0.22213015575E+03  0.10566000000E+00 0.  1.
         14    1    4    4    0    0 -0.58831596100E+01  0.73814032425E+01  0.13001246322E+04  0.13001588964E+04  0.00000000000E+00 0. -1.
<mgrwt>
<rscale>  0 0.79129985E+02</rscale>
<asrwt>0</asrwt>
<pdfrwt beam="1">  1        2 0.29501888E+00 0.79129985E+02</pdfrwt>
<pdfrwt beam="2">  1       -1 0.12558728E-03 0.79129985E+02</pdfrwt>
<totfact> 0.29636410E+05</totfact>
</mgrwt>
</event>
<event>
 8    1  0.2389776E-016  0.8225428E+02  0.7818608E-02  0.1322773E+00
         -1   -1    0    0    0  501 -0.00000000000E+00  0.00000000000E+00  0.54835114833E+01  0.54835137995E+01  0.50400000000E-02 0.  1.
          2   -1    0    0  501    0  0.00000000000E+00 -0.00000000000E+00 -0.30845951291E+03  0.30845951293E+03  0.25500000000E-02 0. -1.
         24    2    1    2    0    0  0.00000000000E+00  0.00000000000E+00 -0.30297600143E+03  0.31394302672E+03  0.82254280045E+02 0.  0.
         66    2    3    3    0    0  0.34835877450E+02 -0.12962918798E+02 -0.21854567708E+03  0.22169300529E+03  0.20000001246E+01 0.  0.
        -13    1    3    3    0    0 -0.34835877450E+02  0.12962918798E+02 -0.84430324351E+02  0.92250021439E+02  0.10566000000E+00 0.  1.
         13    1    4    4    0    0  0.25303543974E+01 -0.73677516814E+00 -0.16739886543E+02  0.16946400696E+02  0.10566000000E+00 0. -1.
        -13    1    4    4    0    0  0.32232836898E+01 -0.82385603195E+00 -0.17949246394E+02  0.18255270654E+02  0.10566000000E+00 0.  1.
        -14    1    4    4    0    0  0.29082239363E+02 -0.11402287598E+02 -0.18385654414E+03  0.18649133394E+03  0.00000000000E+00 0.  1.
<mgrwt>
<rscale>  0 0.82254280E+02</rscale>
<asrwt>0</asrwt>
<pdfrwt beam="1">  1        2 0.47455296E-01 0.82254280E+02</pdfrwt>
<pdfrwt beam="2">  1       -1 0.84361758E-03 0.82254280E+02</pdfrwt>
<totfact> 0.23941067E+05</totfact>
</mgrwt>
</event>
<event>
 8    1  0.2389776E-016  0.7914878E+02  0.7818608E-02  0.1331485E+00
          2   -1    0    0  501    0  0.00000000000E+00  0.00000000000E+00  0.12483143451E+02  0.12483143711E+02  0.25500000000E-02 0. -1.
         -1   -1    0    0    0  501 -0.00000000000E+00 -0.00000000000E+00 -0.12545976543E+03  0.12545976553E+03  0.50400000000E-02 0.  1.
         24    2    1    2    0    0 -0.17763568394E-14  0.00000000000E+00 -0.11297662198E+03  0.13794290924E+03  0.79148778235E+02 0.  0.
         66    2    3    3    0    0 -0.14547487983E+02 -0.35137538222E+02 -0.37604223357E+02  0.53519656302E+02  0.19999993380E+01 0.  0.
        -13    1    3    3    0    0  0.14547487983E+02  0.35137538222E+02 -0.75372398618E+02  0.84423252937E+02  0.10566000000E+00 0.  1.
         13    1    4    4    0    0 -0.11782496976E+02 -0.29623410837E+02 -0.31160219951E+02  0.44579638581E+02  0.10566000000E+00 0. -1.
        -13    1    4    4    0    0 -0.46255937887E+00 -0.12249396262E+01 -0.11240418624E+01  0.17288934064E+01  0.10566000000E+00 0. -1.
         14    1    4    4    0    0 -0.23024316286E+01 -0.42891877591E+01 -0.53199615444E+01  0.72111243139E+01  0.00000000000E+00 0. -1.
<mgrwt>
<rscale>  0 0.79148778E+02</rscale>
<asrwt>0</asrwt>
<pdfrwt beam="1">  1        2 0.19204837E-02 0.79148778E+02</pdfrwt>
<pdfrwt beam="2">  1       -1 0.19301502E-01 0.79148778E+02</pdfrwt>
<totfact> 0.11574856E+05</totfact>
</mgrwt>
</event>
<event>
 8    1  0.2389776E-016  0.8135066E+02  0.7818608E-02  0.1325262E+00
         -1   -1    0    0    0  501 -0.00000000000E+00  0.00000000000E+00  0.14811845766E+01  0.14811931514E+01  0.50400000000E-02 0.  1.
          2   -1    0    0  501    0  0.00000000000E+00 -0.00000000000E+00 -0.11169962785E+04  0.11169962785E+04  0.25500000000E-02 0. -1.
         24    2    1    2    0    0 -0.17763568394E-14  0.00000000000E+00 -0.11155150939E+04  0.11184774717E+04  0.81350659662E+02 0.  0.
         66    2    3    3    0    0 -0.12744306875E+02 -0.14637348926E+02 -0.10491811862E+04  0.10493625831E+04  0.20000002810E+01 0.  0.
        -13    1    3    3    0    0  0.12744306875E+02  0.14637348926E+02 -0.66333907698E+02  0.69114888525E+02  0.10566000000E+00 0.  1.
         13    1    4    4    0    0 -0.70327315454E+01 -0.82524446013E+01 -0.61059932572E+03  0.61069559511E+03  0.10566000000E+00 0. -1.
        -13    1    4    4    0    0 -0.38302850722E+01 -0.35495591158E+01 -0.25246258528E+03  0.25251661051E+03  0.10566000000E+00 0.  1.
        -14    1    4    4    0    0 -0.18812902571E+01 -0.28353452093E+01 -0.18611927524E+03  0.18615037752E+03  0.00000000000E+00 0.  1.
<mgrwt>
<rscale>  0 0.81350660E+02</rscale>
<asrwt>0</asrwt>
<pdfrwt beam="1">  1        2 0.17184491E+00 0.81350660E+02</pdfrwt>
<pdfrwt beam="2">  1       -1 0.22787610E-03 0.81350660E+02</pdfrwt>
<totfact> 0.33731479E+05</totfact>
</mgrwt>
</event>
<event>
 8    1  0.2389776E-016  0.7908487E+02  0.7818608E-02  0.1331669E+00
         -1   -1    0    0    0  501 -0.00000000000E+00  0.00000000000E+00  0.65212612817E+02  0.65212613012E+02  0.50400000000E-02 0.  1.
          2   -1    0    0  501    0  0.00000000000E+00 -0.00000000000E+00 -0.23977020336E+02  0.23977020472E+02  0.25500000000E-02 0. -1.
         24    2    1    2    0    0  0.00000000000E+00  0.00000000000E+00  0.41235592481E+02  0.89189633484E+02  0.79084869816E+02 0.  0.
         66    2    3    3    0    0 -0.20812086239E+02 -0.13653259385E+02 -0.13983449957E+02  0.28619771033E+02  0.19999989599E+01 0.  0.
        -13    1    3    3    0    0  0.20812086239E+02  0.13653259385E+02  0.55219042438E+02  0.60569862451E+02  0.10566000000E+00 0.  1.
         13    1    4    4    0    0 -0.10302313211E+02 -0.59708051509E+01 -0.58741035347E+01  0.13277967767E+02  0.10566000000E+00 0.  1.
        -13    1    4    4    0    0 -0.36890478551E+01 -0.26631008910E+01 -0.30119729147E+01  0.54575017460E+01  0.10566000000E+00 0. -1.
        -14    1    4    4    0    0 -0.68207251723E+01 -0.50193533433E+01 -0.50973735081E+01  0.98843015202E+01  0.00000000000E+00 0.  1.
<mgrwt>
<rscale>  0 0.79084870E+02</rscale>
<asrwt>0</asrwt>
<pdfrwt beam="1">  1        2 0.36887723E-02 0.79084870E+02</pdfrwt>
<pdfrwt beam="2">  1       -1 0.10032710E-01 0.79084870E+02</pdfrwt>
<totfact> 0.13300612E+05</totfact>
</mgrwt>
</event>
<event>
 8    1  0.2389776E-016  0.7958186E+02  0.7818608E-02  0.1330242E+00
         -1   -1    0    0    0  501 -0.00000000000E+00  0.00000000000E+00  0.22032482289E+02  0.22032482865E+02  0.50400000000E-02 0.  1.
          2   -1    0    0  501    0  0.00000000000E+00 -0.00000000000E+00 -0.71862895967E+02  0.71862896013E+02  0.25500000000E-02 0. -1.
         24    2    1    2    0    0 -0.35527136788E-14  0.00000000000E+00 -0.49830413679E+02  0.93895378878E+02  0.79581857525E+02 0.  0.
         66    2    3    3    0    0 -0.21596067546E+02 -0.21451782796E+02 -0.55121091908E+02  0.62999237391E+02  0.20000050468E+01 0.  0.
        -13    1    3    3    0    0  0.21596067546E+02  0.21451782796E+02  0.52906782290E+01  0.30896141486E+02  0.10566000000E+00 0.  1.
         13    1    4    4    0    0 -0.16165203573E+01 -0.17510371831E+01 -0.38566404693E+01  0.45347667004E+01  0.10566000000E+00 0. -1.
        -13    1    4    4    0    0 -0.32546532796E+01 -0.37962300786E+01 -0.10134227705E+02  0.11301232941E+02  0.10566000000E+00 0.  1.
         14    1    4    4    0    0 -0.16724893909E+02 -0.15904515535E+02 -0.41130223734E+02  0.47163237750E+02  0.00000000000E+00 0. -1.
<mgrwt>
<rscale>  0 0.79581858E+02</rscale>
<asrwt>0</asrwt>
<pdfrwt beam="1">  1        2 0.11055830E-01 0.79581858E+02</pdfrwt>
<pdfrwt beam="2">  1       -1 0.33896128E-02 0.79581858E+02</pdfrwt>
<totfact> 0.16482814E+05</totfact>
</mgrwt>
</event>
<event>
 8    1  0.2389776E-016  0.8186447E+02  0.7818608E-02  0.1323842E+00
          2   -1    0    0  501    0  0.00000000000E+00  0.00000000000E+00  0.18037648186E+03  0.18037648188E+03  0.25500000000E-02 0. -1.
         -1   -1    0    0    0  501 -0.00000000000E+00 -0.00000000000E+00 -0.92886151695E+01  0.92886165369E+01  0.50400000000E-02 0.  1.
         24    2    1    2    0    0 -0.88817841970E-15  0.00000000000E+00  0.17108786669E+03  0.18966509842E+03  0.81864469876E+02 0.  0.
         66    2    3    3    0    0  0.42890410708E+01  0.24597230308E+02  0.16066917145E+03  0.16260996976E+03  0.19999997348E+01 0.  0.
        -13    1    3    3    0    0 -0.42890410708E+01 -0.24597230308E+02  0.10418695245E+02  0.27055128659E+02  0.10566000000E+00 0.  1.
         13    1    4    4    0    0  0.14046333493E+01  0.12529255413E+02  0.79831380759E+02  0.80820886867E+02  0.10566000000E+00 0. -1.
        -13    1    4    4    0    0  0.23402602388E+01  0.10890792613E+02  0.72038509529E+02  0.72894747416E+02  0.10566000000E+00 0.  1.
        -14    1    4    4    0    0  0.54414748262E+00  0.11771822824E+01  0.87992811581E+01  0.88943354731E+01  0.00000000000E+00 0.  1.
<mgrwt>
<rscale>  0 0.81864470E+02</rscale>
<asrwt>0</asrwt>
<pdfrwt beam="1">  1        2 0.27750227E-01 0.81864470E+02</pdfrwt>
<pdfrwt beam="2">  1       -1 0.14290179E-02 0.81864470E+02</pdfrwt>
<totfact> 0.20030034E+05</totfact>
</mgrwt>
</event>
<event>
 8    1  0.2389776E-016  0.7932559E+02  0.7818608E-02  0.1330976E+00
          2   -1    0    0  501    0  0.00000000000E+00  0.00000000000E+00  0.14339319282E+03  0.14339319285E+03  0.25500000000E-02 0. -1.
         -1   -1    0    0    0  501 -0.00000000000E+00 -0.00000000000E+00 -0.10970794676E+02  0.10970795834E+02  0.50400000000E-02 0.  1.
         24    2    1    2    0    0 -0.44408920985E-15  0.00000000000E+00  0.13242239815E+03  0.15436398868E+03  0.79325591521E+02 0.  0.
         66    2    3    3    0    0  0.36137783391E+01  0.34131307848E+02  0.10483643965E+03  0.11032989008E+03  0.19999992448E+01 0.  0.
        -13    1    3    3    0    0 -0.36137783391E+01 -0.34131307848E+02  0.27585958495E+02  0.44034098599E+02  0.10566000000E+00 0.  1.
         13    1    4    4    0    0  0.26605011676E+01  0.18512653246E+02  0.58006994103E+02  0.60947675309E+02  0.10566000000E+00 0. -1.
        -13    1    4    4    0    0  0.70752809277E+00  0.69669250802E+01  0.21950954384E+02  0.23041141540E+02  0.10566000000E+00 0.  1.
        -14    1    4    4    0    0  0.24574907872E+00  0.86517295224E+01  0.24878491167E+02  0.26341073233E+02  0.00000000000E+00 0.  1.
<mgrwt>
<rscale>  0 0.79325592E+02</rscale>
<asrwt>0</asrwt>
<pdfrwt beam="1">  1        2 0.22060490E-01 0.79325592E+02</pdfrwt>
<pdfrwt beam="2">  1       -1 0.16878148E-02 0.79325592E+02</pdfrwt>
<totfact> 0.20192059E+05</totfact>
</mgrwt>
</event>
<event>
 8    1  0.2389776E-016  0.8324766E+02  0.7818608E-02  0.1320080E+00
         -1   -1    0    0    0  501 -0.00000000000E+00  0.00000000000E+00  0.83779996340E+02  0.83779996492E+02  0.50400000000E-02 0.  1.
          2   -1    0    0  501    0  0.00000000000E+00 -0.00000000000E+00 -0.20679678230E+02  0.20679678387E+02  0.25500000000E-02 0. -1.
         24    2    1    2    0    0  0.00000000000E+00  0.00000000000E+00  0.63100318110E+02  0.10445967488E+03  0.83247663812E+02 0.  0.
         66    2    3    3    0    0  0.34370278256E+01 -0.36422697646E+02  0.67208668618E+01  0.37250451172E+02  0.19999992637E+01 0.  0.
        -13    1    3    3    0    0 -0.34370278256E+01  0.36422697646E+02  0.56379451248E+02  0.67209223706E+02  0.10566000000E+00 0.  1.
         13    1    4    4    0    0 -0.84676483424E-02 -0.26836118305E+00  0.80252379059E-01  0.29948940813E+00  0.10566000000E+00 0. -1.
        -13    1    4    4    0    0  0.24862942652E+00 -0.95022855052E+01  0.16920149221E+01  0.96555333849E+01  0.10566000000E+00 0. -1.
         14    1    4    4    0    0  0.31968660475E+01 -0.26652050958E+02  0.49485995606E+01  0.27295428379E+02  0.00000000000E+00 0. -1.
<mgrwt>
<rscale>  0 0.83247664E+02</rscale>
<asrwt>0</asrwt>
<pdfrwt beam="1">  1        2 0.31814889E-02 0.83247664E+02</pdfrwt>
<pdfrwt beam="2">  1       -1 0.12889230E-01 0.83247664E+02</pdfrwt>
<totfact> 0.11147419E+05</totfact>
</mgrwt>
</event>
<event>
 8    1  0.2389776E-016  0.8101319E+02  0.7818608E-02  0.1326200E+00
         -1   -1    0    0    0  501 -0.00000000000E+00  0.00000000000E+00  0.14770254608E+02  0.14770255468E+02  0.50400000000E-02 0.  1.
          2   -1    0    0  501    0  0.00000000000E+00 -0.00000000000E+00 -0.11108706211E+03  0.11108706214E+03  0.25500000000E-02 0. -1.
         24    2    1    2    0    0  0.35527136788E-14 -0.35527136788E-14 -0.96316807507E+02  0.12585731761E+03  0.81013190211E+02 0.  0.
         66    2    3    3    0    0  0.30790542342E+02  0.19680983640E+02 -0.21128365424E+02  0.42258803261E+02  0.20000032080E+01 0.  0.
        -13    1    3    3    0    0 -0.30790542342E+02 -0.19680983640E+02 -0.75188442083E+02  0.83598514351E+02  0.10566000000E+00 0.  1.
         13    1    4    4    0    0  0.59692076273E+01  0.31125040460E+01 -0.39400274034E+01  0.78009038649E+01  0.10566000000E+00 0. -1.
        -13    1    4    4    0    0  0.65432453117E+01  0.48749726342E+01 -0.43917366526E+01  0.92670347067E+01  0.10566000000E+00 0.  1.
         14    1    4    4    0    0  0.18278089403E+02  0.11693506959E+02 -0.12796601368E+02  0.25190864690E+02  0.00000000000E+00 0. -1.
<mgrwt>
<rscale>  0 0.81013190E+02</rscale>
<asrwt>0</asrwt>
<pdfrwt beam="1">  1        2 0.17090317E-01 0.81013190E+02</pdfrwt>
<pdfrwt beam="2">  1       -1 0.22723470E-02 0.81013190E+02</pdfrwt>
<totfact> 0.17661452E+05</totfact>
</mgrwt>
</event>
<event>
 8    1  0.2389776E-016  0.8514418E+02  0.7818608E-02  0.1315056E+00
          2   -1    0    0  501    0  0.00000000000E+00  0.00000000000E+00  0.87713344033E+03  0.87713344034E+03  0.25500000000E-02 0. -1.
         -1   -1    0    0    0  501 -0.00000000000E+00 -0.00000000000E+00 -0.20662537851E+01  0.20662599319E+01  0.50400000000E-02 0.  1.
         24    2    1    2    0    0 -0.71054273576E-14  0.00000000000E+00  0.87506718655E+03  0.87919970027E+03  0.85144183475E+02 0.  0.
         66    2    3    3    0    0 -0.27426405026E+02  0.21853545287E+02  0.68658464664E+03  0.68748255407E+03  0.20000019225E+01 0.  0.
        -13    1    3    3    0    0  0.27426405026E+02 -0.21853545287E+02  0.18848253990E+03  0.19171714620E+03  0.10566000000E+00 0.  1.
         13    1    4    4    0    0 -0.17820063575E+02  0.14542376579E+02  0.46710248869E+03  0.46766845253E+03  0.10566000000E+00 0. -1.
        -13    1    4    4    0    0 -0.33064916503E+01  0.25261274085E+01  0.73670662822E+02  0.73788155766E+02  0.10566000000E+00 0.  1.
         14    1    4    4    0    0 -0.62998498009E+01  0.47850412991E+01  0.14581149513E+03  0.14602594577E+03  0.00000000000E+00 0. -1.
<mgrwt>
<rscale>  0 0.85144183E+02</rscale>
<asrwt>0</asrwt>
<pdfrwt beam="1">  1        2 0.13494354E+00 0.85144183E+02</pdfrwt>
<pdfrwt beam="2">  1       -1 0.31788583E-03 0.85144183E+02</pdfrwt>
<totfact> 0.29620227E+05</totfact>
</mgrwt>
</event>
<event>
 8    1  0.2389776E-016  0.8040621E+02  0.7818608E-02  0.1327903E+00
          2   -1    0    0  501    0  0.00000000000E+00  0.00000000000E+00  0.92155290719E+01  0.92155294247E+01  0.25500000000E-02 0. -1.
         -1   -1    0    0    0  501 -0.00000000000E+00 -0.00000000000E+00 -0.17538759639E+03  0.17538759646E+03  0.50400000000E-02 0.  1.
         24    2    1    2    0    0  0.35527136788E-14  0.00000000000E+00 -0.16617206732E+03  0.18460312589E+03  0.80406207039E+02 0.  0.
         66    2    3    3    0    0 -0.24311896166E+02 -0.31903822170E+02 -0.77820748606E+02  0.87572775757E+02  0.19999939490E+01 0.  0.
        -13    1    3    3    0    0  0.24311896166E+02  0.31903822170E+02 -0.88351318710E+02  0.97030350129E+02  0.10566000000E+00 0.  1.
         13    1    4    4    0    0 -0.12832935594E+02 -0.16036096944E+02 -0.41058297980E+02  0.45908992999E+02  0.10566000000E+00 0. -1.
        -13    1    4    4    0    0 -0.10034276930E+01 -0.17328751383E+01 -0.34287288878E+01  0.39720359013E+01  0.10566000000E+00 0.  1.
         14    1    4    4    0    0 -0.10475532879E+02 -0.14134850088E+02 -0.33333721739E+02  0.37691746856E+02  0.00000000000E+00 0. -1.
<mgrwt>
<rscale>  0 0.80406207E+02</rscale>
<asrwt>0</asrwt>
<pdfrwt beam="1">  1        2 0.14177739E-02 0.80406207E+02</pdfrwt>
<pdfrwt beam="2">  1       -1 0.26982705E-01 0.80406207E+02</pdfrwt>
<totfact> 0.10215392E+05</totfact>
</mgrwt>
</event>
<event>
 8    1  0.2389776E-016  0.8414217E+02  0.7818608E-02  0.1317691E+00
         -1   -1    0    0    0  501 -0.00000000000E+00  0.00000000000E+00  0.12856195657E+02  0.12856196644E+02  0.50400000000E-02 0.  1.
          2   -1    0    0  501    0  0.00000000000E+00 -0.00000000000E+00 -0.13767495029E+03  0.13767495031E+03  0.25500000000E-02 0. -1.
         24    2    1    2    0    0  0.00000000000E+00  0.00000000000E+00 -0.12481875463E+03  0.15053114695E+03  0.84142169547E+02 0.  0.
         66    2    3    3    0    0 -0.15652024270E+02  0.35004465266E+02 -0.93310668078E+02  0.10090182967E+03  0.20000001200E+01 0.  0.
        -13    1    3    3    0    0  0.15652024270E+02 -0.35004465266E+02 -0.31508086551E+02  0.49629317288E+02  0.10566000000E+00 0.  1.
         13    1    4    4    0    0 -0.11784922757E+02  0.25122084132E+02 -0.67378092580E+02  0.72868525711E+02  0.10566000000E+00 0. -1.
        -13    1    4    4    0    0 -0.59109447304E+00  0.17417140689E+01 -0.37494701718E+01  0.41776370329E+01  0.10566000000E+00 0.  1.
         14    1    4    4    0    0 -0.32760070400E+01  0.81406670652E+01 -0.22183105327E+02  0.23855666923E+02  0.00000000000E+00 0. -1.
<mgrwt>
<rscale>  0 0.84142170E+02</rscale>
<asrwt>0</asrwt>
<pdfrwt beam="1">  1        2 0.21180761E-01 0.84142170E+02</pdfrwt>
<pdfrwt beam="2">  1       -1 0.19778764E-02 0.84142170E+02</pdfrwt>
<totfact> 0.17037077E+05</totfact>
</mgrwt>
</event>
<event>
 8    1  0.2389776E-016  0.7873050E+02  0.7818608E-02  0.1332693E+00
          2   -1    0    0  501    0  0.00000000000E+00  0.00000000000E+00  0.73093550709E+03  0.73093550710E+03  0.25500000000E-02 0. -1.
         -1   -1    0    0    0  501 -0.00000000000E+00 -0.00000000000E+00 -0.21200511059E+01  0.21200570967E+01  0.50400000000E-02 0.  1.
         24    2    1    2    0    0  0.35527136788E-14  0.00000000000E+00  0.72881545599E+03  0.73305556419E+03  0.78730497968E+02 0.  0.
         66    2    3    3    0    0  0.26882801457E+02 -0.17604213396E+02  0.57594630010E+03  0.57684550264E+03  0.19999949085E+01 0.  0.
        -13    1    3    3    0    0 -0.26882801457E+02  0.17604213396E+02  0.15286915589E+03  0.15621006155E+03  0.10566000000E+00 0.  1.
         13    1    4    4    0    0  0.37573794691E+01 -0.29769022389E+01  0.78547182098E+02  0.78693397607E+02  0.10566000000E+00 0.  1.
        -13    1    4    4    0    0  0.90793499071E+01 -0.56771732433E+01  0.20291336024E+03  0.20319573770E+03  0.10566000000E+00 0.  1.
         14    1    4    4    0    0  0.14046072081E+02 -0.89501379137E+01  0.29448575776E+03  0.29495636733E+03  0.00000000000E+00 0. -1.
<mgrwt>
<rscale>  0 0.78730498E+02</rscale>
<asrwt>0</asrwt>
<pdfrwt beam="1">  1        2 0.11245189E+00 0.78730498E+02</pdfrwt>
<pdfrwt beam="2">  1       -1 0.32616138E-03 0.78730498E+02</pdfrwt>
<totfact> 0.35204784E+05</totfact>
</mgrwt>
</event>
<event>
 8    1  0.2389776E-016  0.7901623E+02  0.7818608E-02  0.1331867E+00
         -1   -1    0    0    0  501 -0.00000000000E+00  0.00000000000E+00  0.32684001528E+02  0.32684001916E+02  0.50400000000E-02 0.  1.
          2   -1    0    0  501    0  0.00000000000E+00 -0.00000000000E+00 -0.47757040904E+02  0.47757040972E+02  0.25500000000E-02 0. -1.
         24    2    1    2    0    0 -0.35527136788E-14  0.35527136788E-14 -0.15073039376E+02  0.80441042888E+02  0.79016231655E+02 0.  0.
         66    2    3    3    0    0 -0.19599484804E+02  0.25518137764E+02 -0.30835610950E+02  0.44611097505E+02  0.19999896084E+01 0.  0.
        -13    1    3    3    0    0  0.19599484804E+02 -0.25518137764E+02  0.15762571574E+02  0.35829945383E+02  0.10566000000E+00 0.  1.
         13    1    4    4    0    0 -0.11180976850E+02  0.15957632529E+02 -0.18253961707E+02  0.26699785791E+02  0.10566000000E+00 0. -1.
        -13    1    4    4    0    0 -0.13753876457E+01  0.16866234176E+01 -0.23449143286E+01  0.32009650065E+01  0.10566000000E+00 0. -1.
         14    1    4    4    0    0 -0.70431203085E+01  0.78738818175E+01 -0.10236734914E+02  0.14710346708E+02  0.00000000000E+00 0. -1.
<mgrwt>
<rscale>  0 0.79016232E+02</rscale>
<asrwt>0</asrwt>
<pdfrwt beam="1">  1        2 0.73472371E-02 0.79016232E+02</pdfrwt>
<pdfrwt beam="2">  1       -1 0.50283080E-02 0.79016232E+02</pdfrwt>
<totfact> 0.15305979E+05</totfact>
</mgrwt>
</event>
<event>
 8    1  0.2389776E-016  0.7331392E+02  0.7818608E-02  0.1349173E+00
          2   -1    0    0  501    0  0.00000000000E+00  0.00000000000E+00  0.11183489927E+03  0.11183489929E+03  0.25500000000E-02 0. -1.
         -1   -1    0    0    0  501 -0.00000000000E+00 -0.00000000000E+00 -0.12015323755E+02  0.12015324812E+02  0.50400000000E-02 0.  1.
         24    2    1    2    0    0 -0.35527136788E-14  0.00000000000E+00  0.99819575510E+02  0.12385022411E+03  0.73313916526E+02 0.  0.
         66    2    3    3    0    0  0.25464296391E+02  0.10821393047E+02  0.90497217810E+02  0.94653469916E+02  0.19999994103E+01 0.  0.
        -13    1    3    3    0    0 -0.25464296391E+02 -0.10821393047E+02  0.93223577000E+01  0.29196754191E+02  0.10566000000E+00 0.  1.
         13    1    4    4    0    0  0.13040409916E+02  0.53508833113E+01  0.46620281869E+02  0.48704682409E+02  0.10566000000E+00 0. -1.
        -13    1    4    4    0    0  0.11226536918E+02  0.51014583203E+01  0.38451335858E+02  0.40380396252E+02  0.10566000000E+00 0.  1.
        -14    1    4    4    0    0  0.11973495569E+01  0.36905141550E+00  0.54256000827E+01  0.55683912548E+01  0.00000000000E+00 0.  1.
<mgrwt>
<rscale>  0 0.73313917E+02</rscale>
<asrwt>0</asrwt>
<pdfrwt beam="1">  1        2 0.17205369E-01 0.73313917E+02</pdfrwt>
<pdfrwt beam="2">  1       -1 0.18485115E-02 0.73313917E+02</pdfrwt>
<totfact> 0.23076284E+05</totfact>
</mgrwt>
</event>
<event>
 8    1  0.2389776E-016  0.7776930E+02  0.7818608E-02  0.1335504E+00
          2   -1    0    0  501    0  0.00000000000E+00  0.00000000000E+00  0.17879493944E+02  0.17879494126E+02  0.25500000000E-02 0. -1.
         -1   -1    0    0    0  501 -0.00000000000E+00 -0.00000000000E+00 -0.84567038026E+02  0.84567038176E+02  0.50400000000E-02 0.  1.
         24    2    1    2    0    0  0.71054273576E-14  0.22204460493E-15 -0.66687544082E+02  0.10244653230E+03  0.77769296287E+02 0.  0.
         66    2    3    3    0    0  0.38118084885E+02  0.11599466220E+01 -0.23536357212E+02  0.44858599852E+02  0.19999996165E+01 0.  0.
        -13    1    3    3    0    0 -0.38118084885E+02 -0.11599466220E+01 -0.43151186870E+02  0.57587932450E+02  0.10566000000E+00 0.  1.
         13    1    4    4    0    0  0.15718375955E+02 -0.30231803113E-01 -0.10463348071E+02  0.18882824829E+02  0.10566000000E+00 0. -1.
        -13    1    4    4    0    0  0.36813031619E+01  0.48520170122E+00 -0.21657169332E+01  0.42998729669E+01  0.10566000000E+00 0.  1.
         14    1    4    4    0    0  0.18718405768E+02  0.70497672386E+00 -0.10907292208E+02  0.21675902057E+02  0.00000000000E+00 0. -1.
<mgrwt>
<rscale>  0 0.77769296E+02</rscale>
<asrwt>0</asrwt>
<pdfrwt beam="1">  1        2 0.27506914E-02 0.77769296E+02</pdfrwt>
<pdfrwt beam="2">  1       -1 0.13010313E-01 0.77769296E+02</pdfrwt>
<totfact> 0.13166141E+05</totfact>
</mgrwt>
</event>
<event>
 8    1  0.2389776E-016  0.7918434E+02  0.7818608E-02  0.1331382E+00
         -1   -1    0    0    0  501 -0.00000000000E+00  0.00000000000E+00  0.22504421846E+02  0.22504422411E+02  0.50400000000E-02 0.  1.
          2   -1    0    0  501    0  0.00000000000E+00 -0.00000000000E+00 -0.69654753713E+02  0.69654753760E+02  0.25500000000E-02 0. -1.
         24    2    1    2    0    0  0.00000000000E+00  0.00000000000E+00 -0.47150331867E+02  0.92159176171E+02  0.79184341617E+02 0.  0.
         66    2    3    3    0    0  0.13440292262E+02 -0.17067959069E+02 -0.62078064622E+02  0.65800021174E+02  0.19999990836E+01 0.  0.
        -13    1    3    3    0    0 -0.13440292262E+02  0.17067959069E+02  0.14927732756E+02  0.26359154997E+02  0.10566000000E+00 0.  1.
         13    1    4    4    0    0  0.99593450509E+00 -0.16321377442E+01 -0.51488091265E+01  0.54933740644E+01  0.10566000000E+00 0. -1.
        -13    1    4    4    0    0  0.27877403427E+01 -0.44195089531E+01 -0.13733928181E+02  0.14694744058E+02  0.10566000000E+00 0.  1.
         14    1    4    4    0    0  0.96566174142E+01 -0.11016312372E+02 -0.43195327315E+02  0.45611903052E+02  0.00000000000E+00 0. -1.
<mgrwt>
<rscale>  0 0.79184342E+02</rscale>
<asrwt>0</asrwt>
<pdfrwt beam="1">  1        2 0.10716116E-01 0.79184342E+02</pdfrwt>
<pdfrwt beam="2">  1       -1 0.34622188E-02 0.79184342E+02</pdfrwt>
<totfact> 0.16580436E+05</totfact>
</mgrwt>
</event>
<event>
 8    1  0.2389776E-016  0.7770412E+02  0.7818608E-02  0.1335696E+00
          2   -1    0    0  501    0  0.00000000000E+00  0.00000000000E+00  0.76088916414E+02  0.76088916457E+02  0.25500000000E-02 0. -1.
         -1   -1    0    0    0  501 -0.00000000000E+00 -0.00000000000E+00 -0.19838401423E+02  0.19838402064E+02  0.50400000000E-02 0.  1.
         24    2    1    2    0    0 -0.35527136788E-14  0.00000000000E+00  0.56250514990E+02  0.95927318520E+02  0.77704118307E+02 0.  0.
         66    2    3    3    0    0 -0.29815191009E+02  0.23958889167E+02  0.36379448465E+02  0.52824598955E+02  0.19999997919E+01 0.  0.
        -13    1    3    3    0    0  0.29815191009E+02 -0.23958889167E+02  0.19871066526E+02  0.43102719565E+02  0.10566000000E+00 0.  1.
         13    1    4    4    0    0 -0.27819651577E+01  0.15972580745E+01  0.28209162523E+01  0.42730897525E+01  0.10566000000E+00 0. -1.
        -13    1    4    4    0    0 -0.98544181473E+01  0.80959392849E+01  0.12496051471E+02  0.17855426523E+02  0.10566000000E+00 0.  1.
         14    1    4    4    0    0 -0.17178807704E+02  0.14265691807E+02  0.21062480741E+02  0.30696082679E+02  0.00000000000E+00 0. -1.
<mgrwt>
<rscale>  0 0.77704118E+02</rscale>
<asrwt>0</asrwt>
<pdfrwt beam="1">  1        2 0.11705987E-01 0.77704118E+02</pdfrwt>
<pdfrwt beam="2">  1       -1 0.30520618E-02 0.77704118E+02</pdfrwt>
<totfact> 0.17829733E+05</totfact>
</mgrwt>
</event>
<event>
 8    1  0.2389776E-016  0.8083404E+02  0.7818608E-02  0.1326701E+00
         -1   -1    0    0    0  501 -0.00000000000E+00  0.00000000000E+00  0.17488510162E+02  0.17488510888E+02  0.50400000000E-02 0.  1.
          2   -1    0    0  501    0  0.00000000000E+00 -0.00000000000E+00 -0.93406203784E+02  0.93406203819E+02  0.25500000000E-02 0. -1.
         24    2    1    2    0    0  0.00000000000E+00  0.35527136788E-14 -0.75917693622E+02  0.11089471471E+03  0.80834037046E+02 0.  0.
         66    2    3    3    0    0  0.33186983880E+01 -0.23083719151E+02 -0.83226214751E+02  0.86455044211E+02  0.19999997378E+01 0.  0.
        -13    1    3    3    0    0 -0.33186983880E+01  0.23083719151E+02  0.73085211290E+01  0.24439670496E+02  0.10566000000E+00 0.  1.
         13    1    4    4    0    0  0.17539811715E+01 -0.10994891045E+02 -0.38846725130E+02  0.40410930407E+02  0.10566000000E+00 0. -1.
        -13    1    4    4    0    0  0.90701945659E+00 -0.41068504001E+01 -0.17366491149E+02  0.17868829939E+02  0.10566000000E+00 0.  1.
         14    1    4    4    0    0  0.65769775993E+00 -0.79819777063E+01 -0.27012998472E+02  0.28175283866E+02  0.00000000000E+00 0. -1.
<mgrwt>
<rscale>  0 0.80834037E+02</rscale>
<asrwt>0</asrwt>
<pdfrwt beam="1">  1        2 0.14370185E-01 0.80834037E+02</pdfrwt>
<pdfrwt beam="2">  1       -1 0.26905401E-02 0.80834037E+02</pdfrwt>
<totfact> 0.16917078E+05</totfact>
</mgrwt>
</event>
<event>
 8    1  0.2389776E-016  0.7928956E+02  0.7818608E-02  0.1331080E+00
         -1   -1    0    0    0  501 -0.00000000000E+00  0.00000000000E+00  0.42049657045E+01  0.42049687249E+01  0.50400000000E-02 0.  1.
          2   -1    0    0  501    0  0.00000000000E+00 -0.00000000000E+00 -0.37377425256E+03  0.37377425257E+03  0.25500000000E-02 0. -1.
         24    2    1    2    0    0  0.00000000000E+00  0.00000000000E+00 -0.36956928685E+03  0.37797922129E+03  0.79289557590E+02 0.  0.
         66    2    3    3    0    0 -0.21885348227E+02  0.26187126832E+02 -0.28083379186E+03  0.28290696817E+03  0.19999768149E+01 0.  0.
        -13    1    3    3    0    0  0.21885348227E+02 -0.26187126832E+02 -0.88735494991E+02  0.95072253124E+02  0.10566000000E+00 0.  1.
         13    1    4    4    0    0 -0.10730049462E+02  0.13014344033E+02 -0.13517254008E+03  0.13622090100E+03  0.10566000000E+00 0. -1.
        -13    1    4    4    0    0 -0.24654855495E+01  0.32299411450E+01 -0.38648786935E+02  0.38861948412E+02  0.10566000000E+00 0.  1.
        -14    1    4    4    0    0 -0.86898132156E+01  0.99428416537E+01 -0.10701246484E+03  0.10782411876E+03  0.00000000000E+00 0.  1.
<mgrwt>
<rscale>  0 0.79289558E+02</rscale>
<asrwt>0</asrwt>
<pdfrwt beam="1">  1        2 0.57503705E-01 0.79289558E+02</pdfrwt>
<pdfrwt beam="2">  1       -1 0.64691833E-03 0.79289558E+02</pdfrwt>
<totfact> 0.28236827E+05</totfact>
</mgrwt>
</event>
<event>
 8    1  0.2389776E-016  0.8054378E+02  0.7818608E-02  0.1327515E+00
          2   -1    0    0  501    0  0.00000000000E+00  0.00000000000E+00  0.66326363313E+03  0.66326363314E+03  0.25500000000E-02 0. -1.
         -1   -1    0    0    0  501 -0.00000000000E+00 -0.00000000000E+00 -0.24452168965E+01  0.24452220906E+01  0.50400000000E-02 0.  1.
         24    2    1    2    0    0  0.00000000000E+00  0.00000000000E+00  0.66081841624E+03  0.66570885523E+03  0.80543781214E+02 0.  0.
         66    2    3    3    0    0 -0.13759896059E+02  0.19692713618E+02  0.59749994459E+03  0.59798605460E+03  0.20000005996E+01 0.  0.
        -13    1    3    3    0    0  0.13759896059E+02 -0.19692713618E+02  0.63318471643E+02  0.67722800625E+02  0.10566000000E+00 0.  1.
         13    1    4    4    0    0 -0.36544533049E+01  0.62906515529E+01  0.19404921860E+03  0.19418557549E+03  0.10566000000E+00 0. -1.
        -13    1    4    4    0    0 -0.43825535346E+00  0.62955915088E+00  0.21774699181E+02  0.21788462564E+02  0.10566000000E+00 0. -1.
         14    1    4    4    0    0 -0.96671874005E+01  0.12772502914E+02  0.38167602682E+03  0.38201201655E+03  0.00000000000E+00 0. -1.
<mgrwt>
<rscale>  0 0.80543781E+02</rscale>
<asrwt>0</asrwt>
<pdfrwt beam="1">  1        2 0.10204064E+00 0.80543781E+02</pdfrwt>
<pdfrwt beam="2">  1       -1 0.37618731E-03 0.80543781E+02</pdfrwt>
<totfact> 0.32447589E+05</totfact>
</mgrwt>
</event>
<event>
 8    1  0.2389776E-016  0.7783867E+02  0.7818608E-02  0.1335299E+00
          2   -1    0    0  501    0  0.00000000000E+00  0.00000000000E+00  0.49979402195E+03  0.49979402196E+03  0.25500000000E-02 0. -1.
         -1   -1    0    0    0  501 -0.00000000000E+00 -0.00000000000E+00 -0.30306754433E+01  0.30306796340E+01  0.50400000000E-02 0.  1.
         24    2    1    2    0    0  0.00000000000E+00  0.17763568394E-14  0.49676334651E+03  0.50282470159E+03  0.77838667107E+02 0.  0.
         66    2    3    3    0    0  0.77074256674E+01 -0.15377512525E+02  0.47388476953E+03  0.47420106188E+03  0.19999978321E+01 0.  0.
        -13    1    3    3    0    0 -0.77074256674E+01  0.15377512525E+02  0.22878576973E+02  0.28623639710E+02  0.10566000000E+00 0.  1.
         13    1    4    4    0    0  0.46732927056E+01 -0.88245819911E+01  0.27108564136E+03  0.27126951364E+03  0.10566000000E+00 0. -1.
        -13    1    4    4    0    0  0.18831237981E+01 -0.30015923546E+01  0.86790591269E+02  0.86862958785E+02  0.10566000000E+00 0.  1.
        -14    1    4    4    0    0  0.11510091637E+01 -0.35513381791E+01  0.11600853690E+03  0.11606858946E+03  0.00000000000E+00 0.  1.
<mgrwt>
<rscale>  0 0.77838667E+02</rscale>
<asrwt>0</asrwt>
<pdfrwt beam="1">  1        2 0.76891387E-01 0.77838667E+02</pdfrwt>
<pdfrwt beam="2">  1       -1 0.46625809E-03 0.77838667E+02</pdfrwt>
<totfact> 0.32696972E+05</totfact>
</mgrwt>
</event>
<event>
 8    1  0.2389776E-016  0.7959621E+02  0.7818608E-02  0.1330201E+00
          2   -1    0    0  501    0  0.00000000000E+00  0.00000000000E+00  0.34854262225E+01  0.34854271553E+01  0.25500000000E-02 0. -1.
         -1   -1    0    0    0  501 -0.00000000000E+00 -0.00000000000E+00 -0.45443192750E+03  0.45443192753E+03  0.50400000000E-02 0.  1.
         24    2    1    2    0    0  0.00000000000E+00  0.00000000000E+00 -0.45094650128E+03  0.45791735469E+03  0.79596210372E+02 0.  0.
         66    2    3    3    0    0 -0.39008904697E+02 -0.48078869848E+01 -0.26064425097E+03  0.26359862667E+03  0.19999980977E+01 0.  0.
        -13    1    3    3    0    0  0.39008904697E+02  0.48078869848E+01 -0.19030225031E+03  0.19431872802E+03  0.10566000000E+00 0.  1.
         13    1    4    4    0    0 -0.60150775479E+01 -0.37451021929E+00 -0.37365158893E+02  0.37848218967E+02  0.10566000000E+00 0.  1.
        -13    1    4    4    0    0 -0.20831101797E+02 -0.30269421223E+01 -0.14472983469E+03  0.14625263551E+03  0.10566000000E+00 0. -1.
         14    1    4    4    0    0 -0.12162725352E+02 -0.14064346433E+01 -0.78549257389E+02  0.79497772187E+02  0.00000000000E+00 0. -1.
<mgrwt>
<rscale>  0 0.79596210E+02</rscale>
<asrwt>0</asrwt>
<pdfrwt beam="1">  1        2 0.53621985E-03 0.79596210E+02</pdfrwt>
<pdfrwt beam="2">  1       -1 0.69912557E-01 0.79596210E+02</pdfrwt>
<totfact> 0.71650183E+04</totfact>
</mgrwt>
</event>
<event>
 8    1  0.2389776E-016  0.7976022E+02  0.7818608E-02  0.1329733E+00
          2   -1    0    0  501    0  0.00000000000E+00  0.00000000000E+00  0.19812495652E+03  0.19812495653E+03  0.25500000000E-02 0. -1.
         -1   -1    0    0    0  501 -0.00000000000E+00 -0.00000000000E+00 -0.80273731400E+01  0.80273747222E+01  0.50400000000E-02 0.  1.
         24    2    1    2    0    0  0.00000000000E+00  0.00000000000E+00  0.19009758338E+03  0.20615233126E+03  0.79760218633E+02 0.  0.
         66    2    3    3    0    0 -0.10723216782E+01 -0.25539192156E+02  0.17414201084E+03  0.17601943115E+03  0.19999983315E+01 0.  0.
        -13    1    3    3    0    0  0.10723216782E+01  0.25539192156E+02  0.15955572537E+02  0.30132900105E+02  0.10566000000E+00 0.  1.
         13    1    4    4    0    0 -0.31450229806E+00 -0.80018297213E+01  0.51635670788E+02  0.52253055914E+02  0.10566000000E+00 0.  1.
        -13    1    4    4    0    0 -0.15140815214E+00 -0.15004181447E+02  0.10546799150E+03  0.10653007454E+03  0.10566000000E+00 0. -1.
        -14    1    4    4    0    0 -0.60641122803E+00 -0.25331809871E+01  0.17038348551E+02  0.17236300701E+02  0.00000000000E+00 0.  1.
<mgrwt>
<rscale>  0 0.79760219E+02</rscale>
<asrwt>0</asrwt>
<pdfrwt beam="1">  1        2 0.30480761E-01 0.79760219E+02</pdfrwt>
<pdfrwt beam="2">  1       -1 0.12349807E-02 0.79760219E+02</pdfrwt>
<totfact> 0.22161428E+05</totfact>
</mgrwt>
</event>
<event>
 8    1  0.2389776E-016  0.7495044E+02  0.7818608E-02  0.1344025E+00
         -1   -1    0    0    0  501 -0.00000000000E+00  0.00000000000E+00  0.35102107843E+02  0.35102108205E+02  0.50400000000E-02 0.  1.
          2   -1    0    0  501    0  0.00000000000E+00 -0.00000000000E+00 -0.40008768740E+02  0.40008768821E+02  0.25500000000E-02 0. -1.
         24    2    1    2    0    0 -0.17763568394E-14  0.00000000000E+00 -0.49066608961E+01  0.75110877026E+02  0.74950440469E+02 0.  0.
         66    2    3    3    0    0  0.14344370016E+02  0.23893705827E+02 -0.27522956341E+02  0.39219678760E+02  0.19999867358E+01 0.  0.
        -13    1    3    3    0    0 -0.14344370016E+02 -0.23893705827E+02  0.22616295445E+02  0.35891198266E+02  0.10566000000E+00 0.  1.
         13    1    4    4    0    0  0.32292114832E+01  0.52189046660E+01 -0.64395483008E+01  0.88962755729E+01  0.10566000000E+00 0.  1.
        -13    1    4    4    0    0  0.50298990236E+01  0.82624725509E+01 -0.10514361346E+02  0.14287452376E+02  0.10566000000E+00 0. -1.
         14    1    4    4    0    0  0.60852595093E+01  0.10412328610E+02 -0.10569046695E+02  0.16035950811E+02  0.00000000000E+00 0. -1.
<mgrwt>
<rscale>  0 0.74950440E+02</rscale>
<asrwt>0</asrwt>
<pdfrwt beam="1">  1        2 0.61551952E-02 0.74950440E+02</pdfrwt>
<pdfrwt beam="2">  1       -1 0.54003243E-02 0.74950440E+02</pdfrwt>
<totfact> 0.17055470E+05</totfact>
</mgrwt>
</event>
<event>
 8    1  0.2389776E-016  0.7648132E+02  0.7818608E-02  0.1339344E+00
         -1   -1    0    0    0  501 -0.00000000000E+00  0.00000000000E+00  0.14867804879E+02  0.14867805733E+02  0.50400000000E-02 0.  1.
          2   -1    0    0  501    0  0.00000000000E+00 -0.00000000000E+00 -0.98356681678E+02  0.98356681711E+02  0.25500000000E-02 0. -1.
         24    2    1    2    0    0  0.17763568394E-14 -0.71054273576E-14 -0.83488876799E+02  0.11322448744E+03  0.76481318031E+02 0.  0.
         66    2    3    3    0    0  0.13166445042E+02 -0.35162439745E+02 -0.31243103824E+02  0.48886439590E+02  0.19999988381E+01 0.  0.
        -13    1    3    3    0    0 -0.13166445042E+02  0.35162439745E+02 -0.52245772976E+02  0.64338047854E+02  0.10566000000E+00 0.  1.
         13    1    4    4    0    0  0.73414788026E+01 -0.21059122833E+02 -0.18022193466E+02  0.28673935671E+02  0.10566000000E+00 0. -1.
        -13    1    4    4    0    0  0.16268963307E+01 -0.51079754926E+01 -0.47069643437E+01  0.71347657756E+01  0.10566000000E+00 0.  1.
         14    1    4    4    0    0  0.41980699086E+01 -0.89953414195E+01 -0.85139460144E+01  0.13077738143E+02  0.00000000000E+00 0. -1.
<mgrwt>
<rscale>  0 0.76481318E+02</rscale>
<asrwt>0</asrwt>
<pdfrwt beam="1">  1        2 0.15131797E-01 0.76481318E+02</pdfrwt>
<pdfrwt beam="2">  1       -1 0.22873547E-02 0.76481318E+02</pdfrwt>
<totfact> 0.19898177E+05</totfact>
</mgrwt>
</event>
<event>
 8    1  0.2389776E-016  0.7936477E+02  0.7818608E-02  0.1330864E+00
          2   -1    0    0  501    0  0.00000000000E+00  0.00000000000E+00  0.13721371351E+03  0.13721371353E+03  0.25500000000E-02 0. -1.
         -1   -1    0    0    0  501 -0.00000000000E+00 -0.00000000000E+00 -0.11476196259E+02  0.11476197366E+02  0.50400000000E-02 0.  1.
         24    2    1    2    0    0 -0.35527136788E-14  0.00000000000E+00  0.12573751725E+03  0.14868991090E+03  0.79364767744E+02 0.  0.
         66    2    3    3    0    0 -0.20731797545E+02  0.25099563962E+02  0.10533791717E+03  0.11027181116E+03  0.20000003180E+01 0.  0.
        -13    1    3    3    0    0  0.20731797545E+02 -0.25099563962E+02  0.20399600082E+02  0.38418099746E+02  0.10566000000E+00 0.  1.
         13    1    4    4    0    0 -0.97038309823E+00  0.95471531979E+00  0.43962295031E+01  0.46033816460E+01  0.10566000000E+00 0.  1.
        -13    1    4    4    0    0 -0.10694756961E+02  0.12336638758E+02  0.50273641819E+02  0.52858497028E+02  0.10566000000E+00 0.  1.
         14    1    4    4    0    0 -0.90666574854E+01  0.11808209884E+02  0.50668045848E+02  0.52809932481E+02  0.00000000000E+00 0. -1.
<mgrwt>
<rscale>  0 0.79364768E+02</rscale>
<asrwt>0</asrwt>
<pdfrwt beam="1">  1        2 0.21109801E-01 0.79364768E+02</pdfrwt>
<pdfrwt beam="2">  1       -1 0.17655688E-02 0.79364768E+02</pdfrwt>
<totfact> 0.19887502E+05</totfact>
</mgrwt>
</event>
<event>
 8    1  0.2389776E-016  0.8094988E+02  0.7818608E-02  0.1326377E+00
          2   -1    0    0  501    0  0.00000000000E+00  0.00000000000E+00  0.51714566183E+02  0.51714566246E+02  0.25500000000E-02 0. -1.
         -1   -1    0    0    0  501 -0.00000000000E+00 -0.00000000000E+00 -0.31678129493E+02  0.31678129894E+02  0.50400000000E-02 0.  1.
         24    2    1    2    0    0 -0.35527136788E-14  0.22204460493E-15  0.20036436690E+02  0.83392696140E+02  0.80949879396E+02 0.  0.
         66    2    3    3    0    0  0.19678155013E+02 -0.11619831853E+01  0.46412109886E+02  0.50464481942E+02  0.20000010010E+01 0.  0.
        -13    1    3    3    0    0 -0.19678155013E+02  0.11619831853E+01 -0.26375673196E+02  0.32928214198E+02  0.10566000000E+00 0.  1.
         13    1    4    4    0    0  0.81791006680E+01 -0.86894901090E+00  0.19123818016E+02  0.20817885091E+02  0.10566000000E+00 0. -1.
        -13    1    4    4    0    0  0.83102892631E+01 -0.76598989083E+00  0.18933060086E+02  0.20691050635E+02  0.10566000000E+00 0.  1.
        -14    1    4    4    0    0  0.31887650823E+01  0.47295571640E+00  0.83552317844E+01  0.89555462163E+01  0.00000000000E+00 0.  1.
<mgrwt>
<rscale>  0 0.80949879E+02</rscale>
<asrwt>0</asrwt>
<pdfrwt beam="1">  1        2 0.79560871E-02 0.80949879E+02</pdfrwt>
<pdfrwt beam="2">  1       -1 0.48735585E-02 0.80949879E+02</pdfrwt>
<totfact> 0.14574899E+05</totfact>
</mgrwt>
</event>
<event>
 8    1  0.2389776E-016  0.8229950E+02  0.7818608E-02  0.1322650E+00
          2   -1    0    0  501    0  0.00000000000E+00  0.00000000000E+00  0.59634011772E+02  0.59634011826E+02  0.25500000000E-02 0. -1.
         -1   -1    0    0    0  501 -0.00000000000E+00 -0.00000000000E+00 -0.28394901352E+02  0.28394901799E+02  0.50400000000E-02 0.  1.
         24    2    1    2    0    0  0.00000000000E+00  0.00000000000E+00  0.31239110420E+02  0.88028913625E+02  0.82299499477E+02 0.  0.
         66    2    3    3    0    0 -0.85208059139E+01  0.60021079588E+01  0.58181048640E+02  0.59141050560E+02  0.20000017873E+01 0.  0.
        -13    1    3    3    0    0  0.85208059139E+01 -0.60021079588E+01 -0.26941938220E+02  0.28887863065E+02  0.10566000000E+00 0.  1.
         13    1    4    4    0    0 -0.38226932132E+01  0.27088889178E+01  0.24987176752E+02  0.25422848555E+02  0.10566000000E+00 0. -1.
        -13    1    4    4    0    0 -0.15437592304E+01  0.67950767769E+00  0.67192969729E+01  0.69285668858E+01  0.10566000000E+00 0.  1.
         14    1    4    4    0    0 -0.31543534703E+01  0.26137113634E+01  0.26474574915E+02  0.26789635120E+02  0.00000000000E+00 0. -1.
<mgrwt>
<rscale>  0 0.82299499E+02</rscale>
<asrwt>0</asrwt>
<pdfrwt beam="1">  1        2 0.91744633E-02 0.82299499E+02</pdfrwt>
<pdfrwt beam="2">  1       -1 0.43684464E-02 0.82299499E+02</pdfrwt>
<totfact> 0.14388329E+05</totfact>
</mgrwt>
</event>
<event>
 8    1  0.2389776E-016  0.7844698E+02  0.7818608E-02  0.1333517E+00
         -1   -1    0    0    0  501 -0.00000000000E+00  0.00000000000E+00  0.11558231277E+01  0.11558341161E+01  0.50400000000E-02 0.  1.
          2   -1    0    0  501    0  0.00000000000E+00 -0.00000000000E+00 -0.13310642915E+04  0.13310642915E+04  0.25500000000E-02 0. -1.
         24    2    1    2    0    0  0.88817841970E-15  0.35527136788E-14 -0.13299084684E+04  0.13322201257E+04  0.78446981172E+02 0.  0.
         66    2    3    3    0    0 -0.79621757996E+01 -0.12778264828E+02 -0.12799982499E+04  0.12800883564E+04  0.20000034534E+01 0.  0.
        -13    1    3    3    0    0  0.79621757996E+01  0.12778264828E+02 -0.49910218504E+02  0.52131769303E+02  0.10566000000E+00 0.  1.
         13    1    4    4    0    0 -0.42792609214E+01 -0.78145444273E+01 -0.70319476738E+03  0.70325121486E+03  0.10566000000E+00 0. -1.
        -13    1    4    4    0    0 -0.25870282626E+01 -0.39798084107E+01 -0.42534273733E+03  0.42536923602E+03  0.10566000000E+00 0.  1.
        -14    1    4    4    0    0 -0.10958866157E+01 -0.98391199018E+00 -0.15146074520E+03  0.15146790547E+03  0.00000000000E+00 0.  1.
<mgrwt>
<rscale>  0 0.78446981E+02</rscale>
<asrwt>0</asrwt>
<pdfrwt beam="1">  1        2 0.20477790E+00 0.78446981E+02</pdfrwt>
<pdfrwt beam="2">  1       -1 0.17782085E-03 0.78446981E+02</pdfrwt>
<totfact> 0.36245515E+05</totfact>
</mgrwt>
</event>
<event>
 8    1  0.2389776E-016  0.7888232E+02  0.7818608E-02  0.1332254E+00
         -1   -1    0    0    0  501 -0.00000000000E+00  0.00000000000E+00  0.95189372788E+00  0.95190707045E+00  0.50400000000E-02 0.  1.
          2   -1    0    0  501    0  0.00000000000E+00 -0.00000000000E+00 -0.16342097930E+04  0.16342097930E+04  0.25500000000E-02 0. -1.
         24    2    1    2    0    0  0.00000000000E+00 -0.35527136788E-14 -0.16332578993E+04  0.16351617001E+04  0.78882316454E+02 0.  0.
         66    2    3    3    0    0  0.64262504698E+01  0.18241901067E+02 -0.15290815007E+04  0.15292051201E+04  0.20000005157E+01 0.  0.
        -13    1    3    3    0    0 -0.64262504698E+01 -0.18241901067E+02 -0.10417639864E+03  0.10595658001E+03  0.10566000000E+00 0.  1.
         13    1    4    4    0    0  0.52646385973E+00  0.18570171275E+01 -0.13003120069E+03  0.13004556891E+03  0.10566000000E+00 0. -1.
        -13    1    4    4    0    0  0.12973857957E+00  0.31982504946E+00 -0.49222366213E+02  0.49223689620E+02  0.10566000000E+00 0.  1.
         14    1    4    4    0    0  0.57700480305E+01  0.16065058891E+02 -0.13498279338E+04  0.13499358616E+04  0.00000000000E+00 0. -1.
<mgrwt>
<rscale>  0 0.78882316E+02</rscale>
<asrwt>0</asrwt>
<pdfrwt beam="1">  1        2 0.25141465E+00 0.78882316E+02</pdfrwt>
<pdfrwt beam="2">  1       -1 0.14644752E-03 0.78882316E+02</pdfrwt>
<totfact> 0.33208852E+05</totfact>
</mgrwt>
</event>
<event>
 8    1  0.2389776E-016  0.8018955E+02  0.7818608E-02  0.1328514E+00
         -1   -1    0    0    0  501 -0.00000000000E+00  0.00000000000E+00  0.16845731807E+02  0.16845732561E+02  0.50400000000E-02 0.  1.
          2   -1    0    0  501    0  0.00000000000E+00 -0.00000000000E+00 -0.95430159164E+02  0.95430159198E+02  0.25500000000E-02 0. -1.
         24    2    1    2    0    0  0.00000000000E+00  0.00000000000E+00 -0.78584427357E+02  0.11227589176E+03  0.80189548242E+02 0.  0.
         66    2    3    3    0    0 -0.20194508680E+02  0.31282080949E+02 -0.60046057555E+02  0.70681792559E+02  0.20000005075E+01 0.  0.
        -13    1    3    3    0    0  0.20194508680E+02 -0.31282080949E+02 -0.18538369802E+02  0.41594099200E+02  0.10566000000E+00 0.  1.
         13    1    4    4    0    0 -0.54378751239E+00  0.63282150285E+00 -0.14084543238E+01  0.16404497954E+01  0.10566000000E+00 0. -1.
        -13    1    4    4    0    0 -0.17653326713E+01  0.19850542081E+01 -0.44346196370E+01  0.51704791857E+01  0.10566000000E+00 0. -1.
         14    1    4    4    0    0 -0.17885388496E+02  0.28664205238E+02 -0.54202983594E+02  0.63870863578E+02  0.00000000000E+00 0. -1.
<mgrwt>
<rscale>  0 0.80189548E+02</rscale>
<asrwt>0</asrwt>
<pdfrwt beam="1">  1        2 0.14681563E-01 0.80189548E+02</pdfrwt>
<pdfrwt beam="2">  1       -1 0.25916512E-02 0.80189548E+02</pdfrwt>
<totfact> 0.17386567E+05</totfact>
</mgrwt>
</event>
<event>
 8    1  0.2389776E-016  0.8335404E+02  0.7818608E-02  0.1319794E+00
         -1   -1    0    0    0  501 -0.00000000000E+00  0.00000000000E+00  0.14485309610E+02  0.14485310487E+02  0.50400000000E-02 0.  1.
          2   -1    0    0  501    0  0.00000000000E+00 -0.00000000000E+00 -0.11991279082E+03  0.11991279084E+03  0.25500000000E-02 0. -1.
         24    2    1    2    0    0  0.00000000000E+00  0.00000000000E+00 -0.10542748121E+03  0.13439810133E+03  0.83354039179E+02 0.  0.
         66    2    3    3    0    0 -0.29967262448E+02 -0.54838819943E+01 -0.69440171400E+01  0.31310208544E+02  0.20000011721E+01 0.  0.
        -13    1    3    3    0    0  0.29967262448E+02  0.54838819943E+01 -0.98483464065E+02  0.10308789278E+03  0.10566000000E+00 0.  1.
         13    1    4    4    0    0 -0.14034837678E+02 -0.25520881217E+01 -0.27624688532E+01  0.14530389555E+02  0.10566000000E+00 0. -1.
        -13    1    4    4    0    0 -0.14731425663E+01 -0.55616251780E+00 -0.16883583277E+00  0.15871784213E+01  0.10566000000E+00 0.  1.
        -14    1    4    4    0    0 -0.14459282204E+02 -0.23756313549E+01 -0.40127124540E+01  0.15192640568E+02  0.00000000000E+00 0.  1.
<mgrwt>
<rscale>  0 0.83354039E+02</rscale>
<asrwt>0</asrwt>
<pdfrwt beam="1">  1        2 0.18448121E-01 0.83354039E+02</pdfrwt>
<pdfrwt beam="2">  1       -1 0.22285093E-02 0.83354039E+02</pdfrwt>
<totfact> 0.16739956E+05</totfact>
</mgrwt>
</event>
<event>
 8    1  0.2389776E-016  0.8089067E+02  0.7818608E-02  0.1326543E+00
         -1   -1    0    0    0  501 -0.00000000000E+00  0.00000000000E+00  0.12883990666E+01  0.12884089243E+01  0.50400000000E-02 0.  1.
          2   -1    0    0  501    0  0.00000000000E+00 -0.00000000000E+00 -0.12696521655E+04  0.12696521655E+04  0.25500000000E-02 0. -1.
         24    2    1    2    0    0 -0.35527136788E-14  0.00000000000E+00 -0.12683637664E+04  0.12709405744E+04  0.80890665242E+02 0.  0.
         66    2    3    3    0    0  0.19946483163E+02 -0.67552763355E+01 -0.11766435541E+04  0.11768336965E+04  0.19999962269E+01 0.  0.
        -13    1    3    3    0    0 -0.19946483163E+02  0.67552763355E+01 -0.91720212334E+02  0.94106877876E+02  0.10566000000E+00 0.  1.
         13    1    4    4    0    0  0.53033784571E+01 -0.17655354465E+01 -0.27438511878E+03  0.27444206586E+03  0.10566000000E+00 0. -1.
        -13    1    4    4    0    0  0.13820332525E+02 -0.45638589991E+01 -0.85873108188E+03  0.85885441872E+03  0.10566000000E+00 0.  1.
        -14    1    4    4    0    0  0.82277218075E+00 -0.42588188999E+00 -0.43527353438E+02  0.43537211977E+02  0.00000000000E+00 0.  1.
<mgrwt>
<rscale>  0 0.80890665E+02</rscale>
<asrwt>0</asrwt>
<pdfrwt beam="1">  1        2 0.19533010E+00 0.80890665E+02</pdfrwt>
<pdfrwt beam="2">  1       -1 0.19821702E-03 0.80890665E+02</pdfrwt>
<totfact> 0.33779269E+05</totfact>
</mgrwt>
</event>
<event>
 8    1  0.2389776E-016  0.7865433E+02  0.7818608E-02  0.1332914E+00
          2   -1    0    0  501    0  0.00000000000E+00  0.00000000000E+00  0.21935266759E+03  0.21935266760E+03  0.25500000000E-02 0. -1.
         -1   -1    0    0    0  501 -0.00000000000E+00 -0.00000000000E+00 -0.70508635163E+01  0.70508653176E+01  0.50400000000E-02 0.  1.
         24    2    1    2    0    0  0.00000000000E+00  0.00000000000E+00  0.21230180407E+03  0.22640353292E+03  0.78654330502E+02 0.  0.
         66    2    3    3    0    0  0.24166904148E+02 -0.23744354226E+02  0.16355694075E+03  0.16704103231E+03  0.19999989993E+01 0.  0.
        -13    1    3    3    0    0 -0.24166904148E+02  0.23744354226E+02  0.48744863322E+02  0.59362500604E+02  0.10566000000E+00 0.  1.
         13    1    4    4    0    0  0.34850283985E+01 -0.33833531271E+01  0.24535919885E+02  0.25012297574E+02  0.10566000000E+00 0. -1.
        -13    1    4    4    0    0  0.13076934747E+02 -0.11976424185E+02  0.87513881864E+02  0.89292394086E+02  0.10566000000E+00 0.  1.
         14    1    4    4    0    0  0.76049410027E+01 -0.83845769136E+01  0.51507138999E+02  0.52736340653E+02  0.00000000000E+00 0. -1.
<mgrwt>
<rscale>  0 0.78654331E+02</rscale>
<asrwt>0</asrwt>
<pdfrwt beam="1">  1        2 0.33746568E-01 0.78654331E+02</pdfrwt>
<pdfrwt beam="2">  1       -1 0.10847483E-02 0.78654331E+02</pdfrwt>
<totfact> 0.23823931E+05</totfact>
</mgrwt>
</event>
<event>
 8    1  0.2389776E-016  0.7959939E+02  0.7818608E-02  0.1330192E+00
          2   -1    0    0  501    0  0.00000000000E+00  0.00000000000E+00  0.55334131359E+03  0.55334131359E+03  0.25500000000E-02 0. -1.
         -1   -1    0    0    0  501 -0.00000000000E+00 -0.00000000000E+00 -0.28626351421E+01  0.28626395789E+01  0.50400000000E-02 0.  1.
         24    2    1    2    0    0  0.44408920985E-15 -0.71054273576E-14  0.55047867844E+03  0.55620395317E+03  0.79599385057E+02 0.  0.
         66    2    3    3    0    0 -0.26134225026E+01 -0.35761322359E+02  0.39569342644E+03  0.39731975775E+03  0.20000032175E+01 0.  0.
        -13    1    3    3    0    0  0.26134225026E+01  0.35761322359E+02  0.15478525200E+03  0.15888419542E+03  0.10566000000E+00 0.  1.
         13    1    4    4    0    0 -0.23900582435E+01 -0.32088750580E+02  0.35866001315E+03  0.36010056441E+03  0.10566000000E+00 0. -1.
        -13    1    4    4    0    0 -0.13791655303E+00 -0.19535402759E+01  0.17281965590E+02  0.17392896231E+02  0.10566000000E+00 0.  1.
        -14    1    4    4    0    0 -0.85447706136E-01 -0.17190315033E+01  0.19751447705E+02  0.19826297109E+02  0.00000000000E+00 0.  1.
<mgrwt>
<rscale>  0 0.79599385E+02</rscale>
<asrwt>0</asrwt>
<pdfrwt beam="1">  1        2 0.85129484E-01 0.79599385E+02</pdfrwt>
<pdfrwt beam="2">  1       -1 0.44040549E-03 0.79599385E+02</pdfrwt>
<totfact> 0.31833353E+05</totfact>
</mgrwt>
</event>
<event>
 8    1  0.2389776E-016  0.8110720E+02  0.7818608E-02  0.1325938E+00
          2   -1    0    0  501    0  0.00000000000E+00  0.00000000000E+00  0.95526316677E+01  0.95526320081E+01  0.25500000000E-02 0. -1.
         -1   -1    0    0    0  501 -0.00000000000E+00 -0.00000000000E+00 -0.17216140866E+03  0.17216140873E+03  0.50400000000E-02 0.  1.
         24    2    1    2    0    0  0.00000000000E+00  0.00000000000E+00 -0.16260877699E+03  0.18171404074E+03  0.81107202194E+02 0.  0.
         66    2    3    3    0    0 -0.52593820683E+01  0.34361818962E+02 -0.34669380951E+02  0.49136154480E+02  0.19999998608E+01 0.  0.
        -13    1    3    3    0    0  0.52593820683E+01 -0.34361818962E+02 -0.12793939604E+03  0.13257788626E+03  0.10566000000E+00 0.  1.
         13    1    4    4    0    0 -0.39426429546E+01  0.23541619113E+02 -0.24767336164E+02  0.34397447124E+02  0.10566000000E+00 0. -1.
        -13    1    4    4    0    0 -0.11660330385E+01  0.10403285145E+02 -0.95808878714E+01  0.14191284343E+02  0.10566000000E+00 0.  1.
         14    1    4    4    0    0 -0.15070607515E+00  0.41691470364E+00 -0.32115691564E+00  0.54742301346E+00  0.00000000000E+00 0. -1.
<mgrwt>
<rscale>  0 0.81107202E+02</rscale>
<asrwt>0</asrwt>
<pdfrwt beam="1">  1        2 0.14696358E-02 0.81107202E+02</pdfrwt>
<pdfrwt beam="2">  1       -1 0.26486368E-01 0.81107202E+02</pdfrwt>
<totfact> 0.10044370E+05</totfact>
</mgrwt>
</event>
<event>
 8    1  0.2389776E-016  0.7876621E+02  0.7818608E-02  0.1332590E+00
         -1   -1    0    0    0  501 -0.00000000000E+00  0.00000000000E+00  0.27344652079E+01  0.27344698526E+01  0.50400000000E-02 0.  1.
          2   -1    0    0  501    0  0.00000000000E+00 -0.00000000000E+00 -0.56721426483E+03  0.56721426483E+03  0.25500000000E-02 0. -1.
         24    2    1    2    0    0  0.00000000000E+00 -0.35527136788E-14 -0.56447979962E+03  0.56994873469E+03  0.78766210976E+02 0.  0.
         66    2    3    3    0    0 -0.36514450673E+01  0.23351448652E+02 -0.51014144890E+03  0.51069258962E+03  0.20000002750E+01 0.  0.
        -13    1    3    3    0    0  0.36514450673E+01 -0.23351448652E+02 -0.54338350723E+02  0.59256145070E+02  0.10566000000E+00 0.  1.
         13    1    4    4    0    0 -0.31274188481E+01  0.15318258150E+02 -0.33972196032E+03  0.34008153621E+03  0.10566000000E+00 0.  1.
        -13    1    4    4    0    0 -0.42850708082E+00  0.62174747771E+01 -0.13785669608E+03  0.13799753777E+03  0.10566000000E+00 0. -1.
        -14    1    4    4    0    0 -0.95519138299E-01  0.18157157247E+01 -0.32562792491E+02  0.32613515639E+02  0.00000000000E+00 0.  1.
<mgrwt>
<rscale>  0 0.78766211E+02</rscale>
<asrwt>0</asrwt>
<pdfrwt beam="1">  1        2 0.87263639E-01 0.78766211E+02</pdfrwt>
<pdfrwt beam="2">  1       -1 0.42068777E-03 0.78766211E+02</pdfrwt>
<totfact> 0.32957029E+05</totfact>
</mgrwt>
</event>
<event>
 8    1  0.2389776E-016  0.7920458E+02  0.7818608E-02  0.1331324E+00
          2   -1    0    0  501    0  0.00000000000E+00  0.00000000000E+00  0.11832722637E+02  0.11832722912E+02  0.25500000000E-02 0. -1.
         -1   -1    0    0    0  501 -0.00000000000E+00 -0.00000000000E+00 -0.13254273699E+03  0.13254273709E+03  0.50400000000E-02 0.  1.
         24    2    1    2    0    0  0.71054273576E-14 -0.35527136788E-14 -0.12071001435E+03  0.14437546000E+03  0.79204582472E+02 0.  0.
         66    2    3    3    0    0  0.30794624187E+02 -0.20257527388E+02 -0.34125822605E+02  0.50271742116E+02  0.19999980562E+01 0.  0.
        -13    1    3    3    0    0 -0.30794624187E+02  0.20257527388E+02 -0.86584191747E+02  0.94103717882E+02  0.10566000000E+00 0.  1.
         13    1    4    4    0    0  0.39506340729E+00 -0.41911592103E+00 -0.59098884551E+00  0.83196460391E+00  0.10566000000E+00 0. -1.
        -13    1    4    4    0    0  0.34489396380E+01 -0.20007589063E+01 -0.31837612191E+01  0.51035007949E+01  0.10566000000E+00 0.  1.
         14    1    4    4    0    0  0.26950621141E+02 -0.17837652560E+02 -0.30351072540E+02  0.44336276717E+02  0.00000000000E+00 0. -1.
<mgrwt>
<rscale>  0 0.79204582E+02</rscale>
<asrwt>0</asrwt>
<pdfrwt beam="1">  1        2 0.18204190E-02 0.79204582E+02</pdfrwt>
<pdfrwt beam="2">  1       -1 0.20391189E-01 0.79204582E+02</pdfrwt>
<totfact> 0.11405581E+05</totfact>
</mgrwt>
</event>
<event>
 8    1  0.2389776E-016  0.7809498E+02  0.7818608E-02  0.1334546E+00
         -1   -1    0    0    0  501 -0.00000000000E+00  0.00000000000E+00  0.57863061307E+02  0.57863061527E+02  0.50400000000E-02 0.  1.
          2   -1    0    0  501    0  0.00000000000E+00 -0.00000000000E+00 -0.26350252815E+02  0.26350252938E+02  0.25500000000E-02 0. -1.
         24    2    1    2    0    0  0.00000000000E+00  0.88817841970E-15  0.31512808493E+02  0.84213314465E+02  0.78094975729E+02 0.  0.
         66    2    3    3    0    0 -0.38530363211E+02 -0.61030611694E+01  0.14763713647E+02  0.41758873154E+02  0.20000004076E+01 0.  0.
        -13    1    3    3    0    0  0.38530363211E+02  0.61030611694E+01  0.16749094846E+02  0.42454441311E+02  0.10566000000E+00 0.  1.
         13    1    4    4    0    0 -0.17622583274E+02 -0.27558157423E+01  0.69589748313E+01  0.19146499847E+02  0.10566000000E+00 0. -1.
        -13    1    4    4    0    0 -0.40462477482E+01 -0.11997184794E+01  0.17135872666E+01  0.45562035321E+01  0.10566000000E+00 0.  1.
        -14    1    4    4    0    0 -0.16861532189E+02 -0.21475269478E+01  0.60911515489E+01  0.18056169775E+02  0.00000000000E+00 0.  1.
<mgrwt>
<rscale>  0 0.78094976E+02</rscale>
<asrwt>0</asrwt>
<pdfrwt beam="1">  1        2 0.40538851E-02 0.78094976E+02</pdfrwt>
<pdfrwt beam="2">  1       -1 0.89020094E-02 0.78094976E+02</pdfrwt>
<totfact> 0.14037085E+05</totfact>
</mgrwt>
</event>
<event>
 8    1  0.2389776E-016  0.7883317E+02  0.7818608E-02  0.1332396E+00
          2   -1    0    0  501    0  0.00000000000E+00  0.00000000000E+00  0.16292196677E+03  0.16292196679E+03  0.25500000000E-02 0. -1.
         -1   -1    0    0    0  501 -0.00000000000E+00 -0.00000000000E+00 -0.95362655861E+01  0.95362669179E+01  0.50400000000E-02 0.  1.
         24    2    1    2    0    0  0.71054273576E-14  0.00000000000E+00  0.15338570118E+03  0.17245823370E+03  0.78833172243E+02 0.  0.
         66    2    3    3    0    0 -0.36303912185E+02 -0.10392592497E+02  0.10126724333E+03  0.10809733850E+03  0.20000001145E+01 0.  0.
        -13    1    3    3    0    0  0.36303912185E+02  0.10392592497E+02  0.52118457853E+02  0.64360895206E+02  0.10566000000E+00 0.  1.
         13    1    4    4    0    0 -0.16891456448E+02 -0.44097640852E+01  0.48746852436E+02  0.51778703216E+02  0.10566000000E+00 0. -1.
        -13    1    4    4    0    0 -0.16586102575E+02 -0.50640205625E+01  0.45640924258E+02  0.48824668294E+02  0.10566000000E+00 0.  1.
         14    1    4    4    0    0 -0.28263531616E+01 -0.91880784905E+00  0.68794666333E+01  0.74939669879E+01  0.00000000000E+00 0. -1.
<mgrwt>
<rscale>  0 0.78833172E+02</rscale>
<asrwt>0</asrwt>
<pdfrwt beam="1">  1        2 0.25064918E-01 0.78833172E+02</pdfrwt>
<pdfrwt beam="2">  1       -1 0.14671179E-02 0.78833172E+02</pdfrwt>
<totfact> 0.21393058E+05</totfact>
</mgrwt>
</event>
<event>
 8    1  0.2389776E-016  0.7997931E+02  0.7818608E-02  0.1329110E+00
         -1   -1    0    0    0  501 -0.00000000000E+00  0.00000000000E+00  0.98973994579E+02  0.98973994707E+02  0.50400000000E-02 0.  1.
          2   -1    0    0  501    0  0.00000000000E+00 -0.00000000000E+00 -0.16157501139E+02  0.16157501340E+02  0.25500000000E-02 0. -1.
         24    2    1    2    0    0  0.00000000000E+00  0.35527136788E-14  0.82816493441E+02  0.11513149605E+03  0.79979308551E+02 0.  0.
         66    2    3    3    0    0  0.10766537487E+02 -0.17047497901E+02 -0.82372031894E+01  0.21872060341E+02  0.19999982637E+01 0.  0.
        -13    1    3    3    0    0 -0.10766537487E+02  0.17047497901E+02  0.91053696630E+02  0.93259435706E+02  0.10566000000E+00 0.  1.
         13    1    4    4    0    0  0.58580772064E+01 -0.90468470356E+01 -0.35477055235E+01  0.11347241443E+02  0.10566000000E+00 0. -1.
        -13    1    4    4    0    0  0.46289078855E+01 -0.75345731009E+01 -0.41869510382E+01  0.97845951912E+01  0.10566000000E+00 0.  1.
        -14    1    4    4    0    0  0.27955239481E+00 -0.46607776470E+00 -0.50254662769E+00  0.74022370753E+00  0.00000000000E+00 0.  1.
<mgrwt>
<rscale>  0 0.79979309E+02</rscale>
<asrwt>0</asrwt>
<pdfrwt beam="1">  1        2 0.24857694E-02 0.79979309E+02</pdfrwt>
<pdfrwt beam="2">  1       -1 0.15226768E-01 0.79979309E+02</pdfrwt>
<totfact> 0.11886839E+05</totfact>
</mgrwt>
</event>
<event>
 8    1  0.2389776E-016  0.7288518E+02  0.7818608E-02  0.1350548E+00
          2   -1    0    0  501    0  0.00000000000E+00  0.00000000000E+00  0.44253771794E+03  0.44253771795E+03  0.25500000000E-02 0. -1.
         -1   -1    0    0    0  501 -0.00000000000E+00 -0.00000000000E+00 -0.30010129084E+01  0.30010171406E+01  0.50400000000E-02 0.  1.
         24    2    1    2    0    0  0.00000000000E+00  0.00000000000E+00  0.43953670503E+03  0.44553873509E+03  0.72885179520E+02 0.  0.
         66    2    3    3    0    0 -0.33631800819E+02 -0.13952077879E+02  0.22327598351E+03  0.22623422227E+03  0.20000030354E+01 0.  0.
        -13    1    3    3    0    0  0.33631800819E+02  0.13952077879E+02  0.21626072152E+03  0.21930451282E+03  0.10566000000E+00 0.  1.
         13    1    4    4    0    0 -0.35636410001E+01 -0.12196172886E+01  0.21676010684E+02  0.22001081944E+02  0.10566000000E+00 0. -1.
        -13    1    4    4    0    0 -0.89466271488E+01 -0.45353567876E+01  0.60735289442E+02  0.61558087577E+02  0.10566000000E+00 0.  1.
         14    1    4    4    0    0 -0.21121532670E+02 -0.81971038028E+01  0.14086468338E+03  0.14267505275E+03  0.00000000000E+00 0. -1.
<mgrwt>
<rscale>  0 0.72885180E+02</rscale>
<asrwt>0</asrwt>
<pdfrwt beam="1">  1        2 0.68082686E-01 0.72885180E+02</pdfrwt>
<pdfrwt beam="2">  1       -1 0.46169489E-03 0.72885180E+02</pdfrwt>
<totfact> 0.37256550E+05</totfact>
</mgrwt>
</event>
<event>
 8    1  0.2389776E-016  0.8105902E+02  0.7818608E-02  0.1326073E+00
         -1   -1    0    0    0  501 -0.00000000000E+00  0.00000000000E+00  0.31048457514E+01  0.31048498420E+01  0.50400000000E-02 0.  1.
          2   -1    0    0  501    0  0.00000000000E+00 -0.00000000000E+00 -0.52905694090E+03  0.52905694090E+03  0.25500000000E-02 0. -1.
         24    2    1    2    0    0  0.00000000000E+00 -0.17763568394E-14 -0.52595209515E+03  0.53216179075E+03  0.81059022576E+02 0.  0.
         66    2    3    3    0    0 -0.35721159434E+02  0.10805029153E+02 -0.36649954888E+03  0.36840014822E+03  0.19999991529E+01 0.  0.
        -13    1    3    3    0    0  0.35721159434E+02 -0.10805029153E+02 -0.15945254627E+03  0.16376164252E+03  0.10566000000E+00 0.  1.
         13    1    4    4    0    0 -0.10789565831E+02  0.35789289037E+01 -0.11830365168E+03  0.11884859539E+03  0.10566000000E+00 0. -1.
        -13    1    4    4    0    0 -0.88278243713E+01  0.21254474457E+01 -0.84841379821E+02  0.85325956800E+02  0.10566000000E+00 0.  1.
        -14    1    4    4    0    0 -0.16103769231E+02  0.51006528035E+01 -0.16335451738E+03  0.16422559603E+03  0.00000000000E+00 0.  1.
<mgrwt>
<rscale>  0 0.81059023E+02</rscale>
<asrwt>0</asrwt>
<pdfrwt beam="1">  1        2 0.81393304E-01 0.81059023E+02</pdfrwt>
<pdfrwt beam="2">  1       -1 0.47766931E-03 0.81059023E+02</pdfrwt>
<totfact> 0.29950538E+05</totfact>
</mgrwt>
</event>
<event>
 8    1  0.2389776E-016  0.8034278E+02  0.7818608E-02  0.1328081E+00
         -1   -1    0    0    0  501 -0.00000000000E+00  0.00000000000E+00  0.26781010829E+01  0.26781058253E+01  0.50400000000E-02 0.  1.
          2   -1    0    0  501    0  0.00000000000E+00 -0.00000000000E+00 -0.60256848265E+03  0.60256848265E+03  0.25500000000E-02 0. -1.
         24    2    1    2    0    0  0.00000000000E+00  0.00000000000E+00 -0.59989038156E+03  0.60524658848E+03  0.80342784186E+02 0.  0.
         66    2    3    3    0    0 -0.80163312804E+01 -0.32113624436E+02 -0.47128569742E+03  0.47245079642E+03  0.19999997630E+01 0.  0.
        -13    1    3    3    0    0  0.80163312804E+01  0.32113624436E+02 -0.12860468414E+03  0.13279579206E+03  0.10566000000E+00 0.  1.
         13    1    4    4    0    0 -0.45583541703E+01 -0.16799025773E+02 -0.24470617678E+03  0.24532449934E+03  0.10566000000E+00 0. -1.
        -13    1    4    4    0    0 -0.23207222855E+01 -0.86185901420E+01 -0.13581436771E+03  0.13610738220E+03  0.10566000000E+00 0.  1.
         14    1    4    4    0    0 -0.11372548246E+01 -0.66960085213E+01 -0.90765152936E+02  0.91018914881E+02  0.00000000000E+00 0. -1.
<mgrwt>
<rscale>  0 0.80342784E+02</rscale>
<asrwt>0</asrwt>
<pdfrwt beam="1">  1        2 0.92702736E-01 0.80342784E+02</pdfrwt>
<pdfrwt beam="2">  1       -1 0.41201640E-03 0.80342784E+02</pdfrwt>
<totfact> 0.31845342E+05</totfact>
</mgrwt>
</event>
<event>
 8    1  0.2389776E-016  0.8085626E+02  0.7818608E-02  0.1326639E+00
         -1   -1    0    0    0  501 -0.00000000000E+00  0.00000000000E+00  0.72749919202E+01  0.72749936660E+01  0.50400000000E-02 0.  1.
          2   -1    0    0  501    0  0.00000000000E+00 -0.00000000000E+00 -0.22466467199E+03  0.22466467200E+03  0.25500000000E-02 0. -1.
         24    2    1    2    0    0  0.00000000000E+00 -0.14210854715E-13 -0.21738968007E+03  0.23193966567E+03  0.80856264509E+02 0.  0.
         66    2    3    3    0    0 -0.16103260881E+01  0.38734852416E+02 -0.14139793622E+03  0.14663000479E+03  0.19999990642E+01 0.  0.
        -13    1    3    3    0    0  0.16103260881E+01 -0.38734852416E+02 -0.75991743848E+02  0.85309660876E+02  0.10566000000E+00 0.  1.
         13    1    4    4    0    0 -0.79637665834E+00  0.12839001002E+02 -0.45754083814E+02  0.47528112862E+02  0.10566000000E+00 0. -1.
        -13    1    4    4    0    0 -0.36686621934E+00  0.21642718627E+01 -0.91644992135E+01  0.94243234977E+01  0.10566000000E+00 0.  1.
        -14    1    4    4    0    0 -0.44708321045E+00  0.23731579551E+02 -0.86479353190E+02  0.89677568430E+02  0.00000000000E+00 0.  1.
<mgrwt>
<rscale>  0 0.80856265E+02</rscale>
<asrwt>0</asrwt>
<pdfrwt beam="1">  1        2 0.34563790E-01 0.80856265E+02</pdfrwt>
<pdfrwt beam="2">  1       -1 0.11192298E-02 0.80856265E+02</pdfrwt>
<totfact> 0.22341361E+05</totfact>
</mgrwt>
</event>
<event>
 8    1  0.2389776E-016  0.8970636E+02  0.7818608E-02  0.1303564E+00
         -1   -1    0    0    0  501 -0.00000000000E+00  0.00000000000E+00  0.21792589184E+02  0.21792589766E+02  0.50400000000E-02 0.  1.
          2   -1    0    0  501    0  0.00000000000E+00 -0.00000000000E+00 -0.92316131354E+02  0.92316131389E+02  0.25500000000E-02 0. -1.
         24    2    1    2    0    0  0.00000000000E+00  0.00000000000E+00 -0.70523542170E+02  0.11410872116E+03  0.89706355647E+02 0.  0.
         66    2    3    3    0    0 -0.44203842095E+02  0.50182763490E+01 -0.28238189867E+02  0.52730997697E+02  0.19999994324E+01 0.  0.
        -13    1    3    3    0    0  0.44203842095E+02 -0.50182763490E+01 -0.42285352303E+02  0.61377723458E+02  0.10566000000E+00 0.  1.
         13    1    4    4    0    0 -0.28085267022E+02  0.36965576576E+01 -0.17720584397E+02  0.33413725288E+02  0.10566000000E+00 0. -1.
        -13    1    4    4    0    0 -0.14381993012E+02  0.11832237637E+01 -0.90045733368E+01  0.17009857333E+02  0.10566000000E+00 0.  1.
        -14    1    4    4    0    0 -0.17365820608E+01  0.13849492773E+00 -0.15130321331E+01  0.23074150764E+01  0.00000000000E+00 0.  1.
<mgrwt>
<rscale>  0 0.89706356E+02</rscale>
<asrwt>0</asrwt>
<pdfrwt beam="1">  1        2 0.14202481E-01 0.89706356E+02</pdfrwt>
<pdfrwt beam="2">  1       -1 0.33527061E-02 0.89706356E+02</pdfrwt>
<totfact> 0.12722447E+05</totfact>
</mgrwt>
</event>
<event>
 8    1  0.2389776E-016  0.7987876E+02  0.7818608E-02  0.1329396E+00
         -1   -1    0    0    0  501 -0.00000000000E+00  0.00000000000E+00  0.10225042405E+01  0.10225166616E+01  0.50400000000E-02 0.  1.
          2   -1    0    0  501    0  0.00000000000E+00 -0.00000000000E+00 -0.15600367372E+04  0.15600367372E+04  0.25500000000E-02 0. -1.
         24    2    1    2    0    0  0.17763568394E-14  0.00000000000E+00 -0.15590142329E+04  0.15610592538E+04  0.79878755016E+02 0.  0.
         66    2    3    3    0    0 -0.15886686913E+02  0.12844635951E+02 -0.14501114610E+04  0.14502567431E+04  0.19999996676E+01 0.  0.
        -13    1    3    3    0    0  0.15886686913E+02 -0.12844635951E+02 -0.10890277191E+03  0.11080251074E+03  0.10566000000E+00 0.  1.
         13    1    4    4    0    0 -0.56515099412E+01  0.50608405722E+01 -0.53670256105E+03  0.53675618476E+03  0.10566000000E+00 0. -1.
        -13    1    4    4    0    0 -0.12905581122E+01  0.44258483417E+00 -0.98778719588E+02  0.98788197823E+02  0.10566000000E+00 0.  1.
        -14    1    4    4    0    0 -0.89446188598E+01  0.73412105444E+01 -0.81463018036E+03  0.81471236049E+03  0.00000000000E+00 0.  1.
<mgrwt>
<rscale>  0 0.79878755E+02</rscale>
<asrwt>0</asrwt>
<pdfrwt beam="1">  1        2 0.24000375E+00 0.79878755E+02</pdfrwt>
<pdfrwt beam="2">  1       -1 0.15731055E-03 0.79878755E+02</pdfrwt>
<totfact> 0.32856096E+05</totfact>
</mgrwt>
</event>
<event>
 8    1  0.2389776E-016  0.7854400E+02  0.7818608E-02  0.1333235E+00
         -1   -1    0    0    0  501 -0.00000000000E+00  0.00000000000E+00  0.22370564802E+03  0.22370564807E+03  0.50400000000E-02 0.  1.
          2   -1    0    0  501    0  0.00000000000E+00 -0.00000000000E+00 -0.68942827444E+01  0.68942832160E+01  0.25500000000E-02 0. -1.
         24    2    1    2    0    0  0.00000000000E+00  0.00000000000E+00  0.21681136527E+03  0.23059993129E+03  0.78544001677E+02 0.  0.
         66    2    3    3    0    0  0.28363690408E+02 -0.17587171662E+02  0.47844841281E+02  0.58368967365E+02  0.19999933485E+01 0.  0.
        -13    1    3    3    0    0 -0.28363690408E+02  0.17587171662E+02  0.16896652399E+03  0.17223096393E+03  0.10566000000E+00 0.  1.
         13    1    4    4    0    0  0.10387113294E+02 -0.66435271629E+01  0.17245373570E+02  0.21200062485E+02  0.10566000000E+00 0. -1.
        -13    1    4    4    0    0  0.55015598997E+01 -0.41684565881E+01  0.98975018226E+01  0.12067099818E+02  0.10566000000E+00 0.  1.
         14    1    4    4    0    0  0.12475017215E+02 -0.67751879107E+01  0.20701965888E+02  0.25101805062E+02  0.00000000000E+00 0. -1.
<mgrwt>
<rscale>  0 0.78544002E+02</rscale>
<asrwt>0</asrwt>
<pdfrwt beam="1">  1        2 0.10606590E-02 0.78544002E+02</pdfrwt>
<pdfrwt beam="2">  1       -1 0.34416250E-01 0.78544002E+02</pdfrwt>
<totfact> 0.10077316E+05</totfact>
</mgrwt>
</event>
<event>
 8    1  0.2389776E-016  0.7787450E+02  0.7818608E-02  0.1335194E+00
          2   -1    0    0  501    0  0.00000000000E+00  0.00000000000E+00  0.92828205605E+02  0.92828205640E+02  0.25500000000E-02 0. -1.
         -1   -1    0    0    0  501 -0.00000000000E+00 -0.00000000000E+00 -0.16332421573E+02  0.16332422351E+02  0.50400000000E-02 0.  1.
         24    2    1    2    0    0  0.17763568394E-14 -0.35527136788E-14  0.76495784031E+02  0.10916062799E+03  0.77874499862E+02 0.  0.
         66    2    3    3    0    0  0.13029536143E+02 -0.21023733451E+02  0.80380161402E+02  0.84123341158E+02  0.20000000566E+01 0.  0.
        -13    1    3    3    0    0 -0.13029536143E+02  0.21023733451E+02 -0.38843773711E+01  0.25037286833E+02  0.10566000000E+00 0.  1.
         13    1    4    4    0    0  0.10113850409E+02 -0.16445634868E+02  0.61490222908E+02  0.64450039206E+02  0.10566000000E+00 0. -1.
        -13    1    4    4    0    0  0.26462737162E+01 -0.38395840812E+01  0.16951757139E+02  0.17581763411E+02  0.10566000000E+00 0.  1.
         14    1    4    4    0    0  0.26941201761E+00 -0.73851450231E+00  0.19381813544E+01  0.20915385409E+01  0.00000000000E+00 0. -1.
<mgrwt>
<rscale>  0 0.77874500E+02</rscale>
<asrwt>0</asrwt>
<pdfrwt beam="1">  1        2 0.14281262E-01 0.77874500E+02</pdfrwt>
<pdfrwt beam="2">  1       -1 0.25126803E-02 0.77874500E+02</pdfrwt>
<totfact> 0.18664907E+05</totfact>
</mgrwt>
</event>
<event>
 8    1  0.2389776E-016  0.7632866E+02  0.7818608E-02  0.1339805E+00
          2   -1    0    0  501    0  0.00000000000E+00  0.00000000000E+00  0.36706714289E+03  0.36706714289E+03  0.25500000000E-02 0. -1.
         -1   -1    0    0    0  501 -0.00000000000E+00 -0.00000000000E+00 -0.39679815562E+01  0.39679847570E+01  0.50400000000E-02 0.  1.
         24    2    1    2    0    0 -0.35527136788E-14  0.00000000000E+00  0.36309916133E+03  0.37103512765E+03  0.76328664296E+02 0.  0.
         66    2    3    3    0    0 -0.17685051480E+02  0.74733525521E+01  0.34185898904E+03  0.34240353448E+03  0.19999995298E+01 0.  0.
        -13    1    3    3    0    0  0.17685051480E+02 -0.74733525521E+01  0.21240172294E+02  0.28631593168E+02  0.10566000000E+00 0.  1.
         13    1    4    4    0    0 -0.11360691107E+02  0.42072029555E+01  0.22346087244E+03  0.22378904919E+03  0.10566000000E+00 0. -1.
        -13    1    4    4    0    0 -0.38004786783E+01  0.17451571405E+01  0.63943463960E+02  0.64080160416E+02  0.10566000000E+00 0.  1.
         14    1    4    4    0    0 -0.25238816954E+01  0.15209924561E+01  0.54454652630E+02  0.54534324879E+02  0.00000000000E+00 0. -1.
<mgrwt>
<rscale>  0 0.76328664E+02</rscale>
<asrwt>0</asrwt>
<pdfrwt beam="1">  1        2 0.56471894E-01 0.76328664E+02</pdfrwt>
<pdfrwt beam="2">  1       -1 0.61045868E-03 0.76328664E+02</pdfrwt>
<totfact> 0.30983630E+05</totfact>
</mgrwt>
</event>
<event>
 8    1  0.2389776E-016  0.7975866E+02  0.7818608E-02  0.1329738E+00
          2   -1    0    0  501    0  0.00000000000E+00  0.00000000000E+00  0.10662026444E+02  0.10662026749E+02  0.25500000000E-02 0. -1.
         -1   -1    0    0    0  501 -0.00000000000E+00 -0.00000000000E+00 -0.14916124024E+03  0.14916124033E+03  0.50400000000E-02 0.  1.
         24    2    1    2    0    0  0.00000000000E+00  0.00000000000E+00 -0.13849921380E+03  0.15982326708E+03  0.79758663957E+02 0.  0.
         66    2    3    3    0    0 -0.42525537478E+01 -0.36744838852E+02 -0.99020712301E+02  0.10572307632E+03  0.20000014687E+01 0.  0.
        -13    1    3    3    0    0  0.42525537478E+01  0.36744838852E+02 -0.39478501497E+02  0.54100190758E+02  0.10566000000E+00 0.  1.
         13    1    4    4    0    0 -0.28855424761E+01 -0.31066115325E+02 -0.83204291140E+02  0.88861662740E+02  0.10566000000E+00 0. -1.
        -13    1    4    4    0    0 -0.54109921180E+00 -0.23805464127E+01 -0.66539775622E+01  0.70884674658E+01  0.10566000000E+00 0.  1.
         14    1    4    4    0    0 -0.82591205991E+00 -0.32981771139E+01 -0.91624435981E+01  0.97729461112E+01  0.00000000000E+00 0. -1.
<mgrwt>
<rscale>  0 0.79758664E+02</rscale>
<asrwt>0</asrwt>
<pdfrwt beam="1">  1        2 0.16403119E-02 0.79758664E+02</pdfrwt>
<pdfrwt beam="2">  1       -1 0.22947882E-01 0.79758664E+02</pdfrwt>
<totfact> 0.10885458E+05</totfact>
</mgrwt>
</event>
<event>
 8    1  0.2389776E-016  0.7969266E+02  0.7818608E-02  0.1329926E+00
         -1   -1    0    0    0  501 -0.00000000000E+00  0.00000000000E+00  0.15642992767E+01  0.15643073958E+01  0.50400000000E-02 0.  1.
          2   -1    0    0  501    0  0.00000000000E+00 -0.00000000000E+00 -0.10149757311E+04  0.10149757311E+04  0.25500000000E-02 0. -1.
         24    2    1    2    0    0  0.00000000000E+00  0.00000000000E+00 -0.10134114318E+04  0.10165400385E+04  0.79692657888E+02 0.  0.
         66    2    3    3    0    0  0.28876531039E+01 -0.17073493391E+02 -0.96443514842E+03  0.96459265919E+03  0.19999841053E+01 0.  0.
        -13    1    3    3    0    0 -0.28876531039E+01  0.17073493391E+02 -0.48976283385E+02  0.51947379291E+02  0.10566000000E+00 0.  1.
         13    1    4    4    0    0  0.72738490685E+00 -0.58521247455E+01 -0.29806227796E+03  0.29812062853E+03  0.10566000000E+00 0. -1.
        -13    1    4    4    0    0  0.23193410365E+00 -0.25120422972E+00 -0.20270057106E+02  0.20273215732E+02  0.10566000000E+00 0. -1.
         14    1    4    4    0    0  0.19283340934E+01 -0.10970164416E+02 -0.64610281336E+03  0.64619881493E+03  0.00000000000E+00 0. -1.
<mgrwt>
<rscale>  0 0.79692658E+02</rscale>
<asrwt>0</asrwt>
<pdfrwt beam="1">  1        2 0.15614959E+00 0.79692658E+02</pdfrwt>
<pdfrwt beam="2">  1       -1 0.24066286E-03 0.79692658E+02</pdfrwt>
<totfact> 0.35604285E+05</totfact>
</mgrwt>
</event>
<event>
 8    1  0.2389776E-016  0.8040566E+02  0.7818608E-02  0.1327904E+00
          2   -1    0    0  501    0  0.00000000000E+00  0.00000000000E+00  0.45717851233E+02  0.45717851304E+02  0.25500000000E-02 0. -1.
         -1   -1    0    0    0  501 -0.00000000000E+00 -0.00000000000E+00 -0.35353096018E+02  0.35353096377E+02  0.50400000000E-02 0.  1.
         24    2    1    2    0    0  0.00000000000E+00  0.00000000000E+00  0.10364755215E+02  0.81070947681E+02  0.80405661537E+02 0.  0.
         66    2    3    3    0    0 -0.13738874578E+02 -0.37724841833E+02  0.36424647062E+01  0.40363200019E+02  0.20000001546E+01 0.  0.
        -13    1    3    3    0    0  0.13738874578E+02  0.37724841833E+02  0.67222905089E+01  0.40707747662E+02  0.10566000000E+00 0.  1.
         13    1    4    4    0    0 -0.66860678928E+01 -0.19305889454E+02  0.13212328952E+01  0.20473829439E+02  0.10566000000E+00 0. -1.
        -13    1    4    4    0    0 -0.57764045192E+01 -0.16099115343E+02  0.20871696416E+01  0.17231245026E+02  0.10566000000E+00 0.  1.
        -14    1    4    4    0    0 -0.12764021661E+01 -0.23198370363E+01  0.23406216939E+00  0.26581255545E+01  0.00000000000E+00 0.  1.
<mgrwt>
<rscale>  0 0.80405662E+02</rscale>
<asrwt>0</asrwt>
<pdfrwt beam="1">  1        2 0.70335155E-02 0.80405662E+02</pdfrwt>
<pdfrwt beam="2">  1       -1 0.54389380E-02 0.80405662E+02</pdfrwt>
<totfact> 0.14455802E+05</totfact>
</mgrwt>
</event>
<event>
 8    1  0.2389776E-016  0.8098563E+02  0.7818608E-02  0.1326277E+00
          2   -1    0    0  501    0  0.00000000000E+00  0.00000000000E+00  0.11113682781E+04  0.11113682781E+04  0.25500000000E-02 0. -1.
         -1   -1    0    0    0  501 -0.00000000000E+00 -0.00000000000E+00 -0.14753554280E+01  0.14753640366E+01  0.50400000000E-02 0.  1.
         24    2    1    2    0    0  0.35527136788E-14 -0.35527136788E-14  0.11098929227E+04  0.11128436422E+04  0.80985628684E+02 0.  0.
         66    2    3    3    0    0  0.20952990607E+02 -0.20129224550E+02  0.94235070104E+03  0.94280064555E+03  0.19999999794E+01 0.  0.
        -13    1    3    3    0    0 -0.20952990607E+02  0.20129224550E+02  0.16754222166E+03  0.17004299662E+03  0.10566000000E+00 0.  1.
         13    1    4    4    0    0  0.16121946156E+02 -0.15595304409E+02  0.72819993994E+03  0.72854532760E+03  0.10566000000E+00 0. -1.
        -13    1    4    4    0    0  0.49890062679E+00 -0.90806784520E+00  0.31477763908E+02  0.31494988073E+02  0.10566000000E+00 0.  1.
         14    1    4    4    0    0  0.43321438248E+01 -0.36258522955E+01  0.18267299719E+03  0.18276032988E+03  0.00000000000E+00 0. -1.
<mgrwt>
<rscale>  0 0.80985629E+02</rscale>
<asrwt>0</asrwt>
<pdfrwt beam="1">  1        2 0.17098017E+00 0.80985629E+02</pdfrwt>
<pdfrwt beam="2">  1       -1 0.22697785E-03 0.80985629E+02</pdfrwt>
<totfact> 0.34135540E+05</totfact>
</mgrwt>
</event>
<event>
 8    1  0.2389776E-016  0.7976164E+02  0.7818608E-02  0.1329729E+00
         -1   -1    0    0    0  501 -0.00000000000E+00  0.00000000000E+00  0.22441153844E+01  0.22441210440E+01  0.50400000000E-02 0.  1.
          2   -1    0    0  501    0  0.00000000000E+00 -0.00000000000E+00 -0.70873267925E+03  0.70873267925E+03  0.25500000000E-02 0. -1.
         24    2    1    2    0    0  0.00000000000E+00  0.35527136788E-14 -0.70648856386E+03  0.71097680029E+03  0.79761642973E+02 0.  0.
         66    2    3    3    0    0 -0.21883720231E+02  0.27129508596E+02 -0.52575013687E+03  0.52690806965E+03  0.19999973656E+01 0.  0.
        -13    1    3    3    0    0  0.21883720231E+02 -0.27129508596E+02 -0.18073842699E+03  0.18406873064E+03  0.10566000000E+00 0.  1.
         13    1    4    4    0    0 -0.13718479532E+02  0.17954175241E+02 -0.34302211736E+03  0.34376552074E+03  0.10566000000E+00 0. -1.
        -13    1    4    4    0    0 -0.58828742735E+01  0.67515242603E+01 -0.13871632058E+03  0.13900510799E+03  0.10566000000E+00 0.  1.
        -14    1    4    4    0    0 -0.22823664253E+01  0.24238090941E+01 -0.44011698938E+02  0.44137440914E+02  0.00000000000E+00 0.  1.
<mgrwt>
<rscale>  0 0.79761643E+02</rscale>
<asrwt>0</asrwt>
<pdfrwt beam="1">  1        2 0.10903562E+00 0.79761643E+02</pdfrwt>
<pdfrwt beam="2">  1       -1 0.34524952E-03 0.79761643E+02</pdfrwt>
<totfact> 0.33806930E+05</totfact>
</mgrwt>
</event>
<event>
 8    1  0.2389776E-016  0.8009657E+02  0.7818608E-02  0.1328778E+00
          2   -1    0    0  501    0  0.00000000000E+00  0.00000000000E+00  0.27904103988E+03  0.27904103989E+03  0.25500000000E-02 0. -1.
         -1   -1    0    0    0  501 -0.00000000000E+00 -0.00000000000E+00 -0.57477734740E+01  0.57477756837E+01  0.50400000000E-02 0.  1.
         24    2    1    2    0    0  0.00000000000E+00  0.00000000000E+00  0.27329326640E+03  0.28478881557E+03  0.80096566805E+02 0.  0.
         66    2    3    3    0    0 -0.31393261698E+02  0.29422173469E+01  0.22437952745E+03  0.22659295192E+03  0.20000004808E+01 0.  0.
        -13    1    3    3    0    0  0.31393261698E+02 -0.29422173469E+01  0.48913738956E+02  0.58195863647E+02  0.10566000000E+00 0.  1.
         13    1    4    4    0    0 -0.18124502549E+02  0.16055484687E+01  0.12333250446E+03  0.12466753066E+03  0.10566000000E+00 0. -1.
        -13    1    4    4    0    0 -0.12704270697E+02  0.11447897054E+01  0.96430759460E+02  0.97270815621E+02  0.10566000000E+00 0.  1.
         14    1    4    4    0    0 -0.56448845262E+00  0.19187917286E+00  0.46162635224E+01  0.46546056480E+01  0.00000000000E+00 0. -1.
<mgrwt>
<rscale>  0 0.80096567E+02</rscale>
<asrwt>0</asrwt>
<pdfrwt beam="1">  1        2 0.42929389E-01 0.80096567E+02</pdfrwt>
<pdfrwt beam="2">  1       -1 0.88427304E-03 0.80096567E+02</pdfrwt>
<totfact> 0.24755789E+05</totfact>
</mgrwt>
</event>
<event>
 8    1  0.2389776E-016  0.7371773E+02  0.7818608E-02  0.1347888E+00
         -1   -1    0    0    0  501 -0.00000000000E+00  0.00000000000E+00  0.30737304426E+01  0.30737345747E+01  0.50400000000E-02 0.  1.
          2   -1    0    0  501    0  0.00000000000E+00 -0.00000000000E+00 -0.44199551839E+03  0.44199551840E+03  0.25500000000E-02 0. -1.
         24    2    1    2    0    0  0.00000000000E+00 -0.17763568394E-14 -0.43892178795E+03  0.44506925297E+03  0.73717731965E+02 0.  0.
         66    2    3    3    0    0 -0.31904673305E+02 -0.15889594379E+02 -0.27567104321E+03  0.27797286100E+03  0.20000001481E+01 0.  0.
        -13    1    3    3    0    0  0.31904673305E+02  0.15889594379E+02 -0.16325074473E+03  0.16709639197E+03  0.10566000000E+00 0.  1.
         13    1    4    4    0    0 -0.52214607178E+01 -0.28518541742E+01 -0.41858244724E+02  0.42279079220E+02  0.10566000000E+00 0. -1.
        -13    1    4    4    0    0 -0.54570629196E+00 -0.24107986407E+00 -0.39856331563E+01  0.40314204135E+01  0.10566000000E+00 0.  1.
         14    1    4    4    0    0 -0.26137506295E+02 -0.12796660340E+02 -0.22982716533E+03  0.23166236137E+03  0.00000000000E+00 0. -1.
<mgrwt>
<rscale>  0 0.73717732E+02</rscale>
<asrwt>0</asrwt>
<pdfrwt beam="1">  1        2 0.67999260E-01 0.73717732E+02</pdfrwt>
<pdfrwt beam="2">  1       -1 0.47288228E-03 0.73717732E+02</pdfrwt>
<totfact> 0.36163955E+05</totfact>
</mgrwt>
</event>
<event>
 8    1  0.2389776E-016  0.7923528E+02  0.7818608E-02  0.1331236E+00
          2   -1    0    0  501    0  0.00000000000E+00  0.00000000000E+00  0.51557559347E+03  0.51557559348E+03  0.25500000000E-02 0. -1.
         -1   -1    0    0    0  501 -0.00000000000E+00 -0.00000000000E+00 -0.30442793781E+01  0.30442835501E+01  0.50400000000E-02 0.  1.
         24    2    1    2    0    0  0.00000000000E+00 -0.17763568394E-14  0.51253131409E+03  0.51861987703E+03  0.79235275744E+02 0.  0.
         66    2    3    3    0    0  0.19629590054E+02  0.15211102549E+02  0.45825928512E+03  0.45893602042E+03  0.19999988179E+01 0.  0.
        -13    1    3    3    0    0 -0.19629590054E+02 -0.15211102549E+02  0.54272028971E+02  0.59683856604E+02  0.10566000000E+00 0.  1.
         13    1    4    4    0    0  0.35258010326E+01  0.31347044035E+01  0.76850160556E+02  0.76994908833E+02  0.10566000000E+00 0. -1.
        -13    1    4    4    0    0  0.70291893742E+01  0.46895164419E+01  0.15930117243E+03  0.15952515717E+03  0.10566000000E+00 0.  1.
         14    1    4    4    0    0  0.90745996475E+01  0.73868817037E+01  0.22210795213E+03  0.22241595442E+03  0.00000000000E+00 0. -1.
<mgrwt>
<rscale>  0 0.79235276E+02</rscale>
<asrwt>0</asrwt>
<pdfrwt beam="1">  1        2 0.79319323E-01 0.79235276E+02</pdfrwt>
<pdfrwt beam="2">  1       -1 0.46835099E-03 0.79235276E+02</pdfrwt>
<totfact> 0.31526578E+05</totfact>
</mgrwt>
</event>
<event>
 8    1  0.2389776E-016  0.7903173E+02  0.7818608E-02  0.1331822E+00
         -1   -1    0    0    0  501 -0.00000000000E+00  0.00000000000E+00  0.19267411992E+01  0.19267477910E+01  0.50400000000E-02 0.  1.
          2   -1    0    0  501    0  0.00000000000E+00 -0.00000000000E+00 -0.81043622747E+03  0.81043622747E+03  0.25500000000E-02 0. -1.
         24    2    1    2    0    0 -0.17763568394E-14  0.00000000000E+00 -0.80850948627E+03  0.81236297526E+03  0.79031729018E+02 0.  0.
         66    2    3    3    0    0  0.12223237862E+02 -0.15967283205E+02 -0.75386662831E+03  0.75413742446E+03  0.20000023669E+01 0.  0.
        -13    1    3    3    0    0 -0.12223237862E+02  0.15967283205E+02 -0.54642857955E+02  0.58225550803E+02  0.10566000000E+00 0.  1.
         13    1    4    4    0    0  0.60525249595E+00 -0.57271306500E+00 -0.23901275119E+02  0.23916029085E+02  0.10566000000E+00 0. -1.
        -13    1    4    4    0    0  0.86474861584E+00 -0.14473577826E+01 -0.77463197373E+02  0.77481615535E+02  0.10566000000E+00 0.  1.
         14    1    4    4    0    0  0.10753236750E+02 -0.13947212357E+02 -0.65250215582E+03  0.65273977984E+03  0.00000000000E+00 0. -1.
<mgrwt>
<rscale>  0 0.79031729E+02</rscale>
<asrwt>0</asrwt>
<pdfrwt beam="1">  1        2 0.12468222E+00 0.79031729E+02</pdfrwt>
<pdfrwt beam="2">  1       -1 0.29642288E-03 0.79031729E+02</pdfrwt>
<totfact> 0.35547250E+05</totfact>
</mgrwt>
</event>
<event>
 8    1  0.2389776E-016  0.7805402E+02  0.7818608E-02  0.1334666E+00
         -1   -1    0    0    0  501 -0.00000000000E+00  0.00000000000E+00  0.64566892002E+01  0.64566911672E+01  0.50400000000E-02 0.  1.
          2   -1    0    0  501    0  0.00000000000E+00 -0.00000000000E+00 -0.23589602655E+03  0.23589602656E+03  0.25500000000E-02 0. -1.
         24    2    1    2    0    0  0.00000000000E+00  0.35527136788E-14 -0.22943933735E+03  0.24235271773E+03  0.78054021473E+02 0.  0.
         66    2    3    3    0    0 -0.24003772870E+02 -0.28082168715E+02 -0.75975217386E+02  0.84504573643E+02  0.19999995004E+01 0.  0.
        -13    1    3    3    0    0  0.24003772870E+02  0.28082168715E+02 -0.15346411996E+03  0.15784814409E+03  0.10566000000E+00 0.  1.
         13    1    4    4    0    0 -0.11732918732E+02 -0.13406157845E+02 -0.36210712507E+02  0.40356081505E+02  0.10566000000E+00 0. -1.
        -13    1    4    4    0    0 -0.11225739711E+01 -0.20030727442E+01 -0.45255297483E+01  0.50758305998E+01  0.10566000000E+00 0.  1.
        -14    1    4    4    0    0 -0.11148280167E+02 -0.12672938126E+02 -0.35238975131E+02  0.39072661538E+02  0.00000000000E+00 0.  1.
<mgrwt>
<rscale>  0 0.78054021E+02</rscale>
<asrwt>0</asrwt>
<pdfrwt beam="1">  1        2 0.36291690E-01 0.78054021E+02</pdfrwt>
<pdfrwt beam="2">  1       -1 0.99333714E-03 0.78054021E+02</pdfrwt>
<totfact> 0.24941427E+05</totfact>
</mgrwt>
</event>
<event>
 8    1  0.2389776E-016  0.8305851E+02  0.7818608E-02  0.1320589E+00
         -1   -1    0    0    0  501 -0.00000000000E+00  0.00000000000E+00  0.24208655329E+01  0.24208707793E+01  0.50400000000E-02 0.  1.
          2   -1    0    0  501    0  0.00000000000E+00 -0.00000000000E+00 -0.71242176979E+03  0.71242176980E+03  0.25500000000E-02 0. -1.
         24    2    1    2    0    0  0.00000000000E+00 -0.35527136788E-14 -0.71000090426E+03  0.71484264057E+03  0.83058513933E+02 0.  0.
         66    2    3    3    0    0  0.99471078238E+01  0.17387218668E+02 -0.66806260151E+03  0.66836584283E+03  0.20000001593E+01 0.  0.
        -13    1    3    3    0    0 -0.99471078238E+01 -0.17387218668E+02 -0.41938302749E+02  0.46476797745E+02  0.10566000000E+00 0.  1.
         13    1    4    4    0    0  0.14520985275E+01  0.20214679747E+01 -0.84113740995E+02  0.84150623950E+02  0.10566000000E+00 0. -1.
        -13    1    4    4    0    0  0.55093442783E+01  0.11196944283E+02 -0.39736278323E+03  0.39755869641E+03  0.10566000000E+00 0.  1.
        -14    1    4    4    0    0  0.29856650180E+01  0.41688064105E+01 -0.18658607729E+03  0.18665652247E+03  0.00000000000E+00 0.  1.
<mgrwt>
<rscale>  0 0.83058514E+02</rscale>
<asrwt>0</asrwt>
<pdfrwt beam="1">  1        2 0.10960318E+00 0.83058514E+02</pdfrwt>
<pdfrwt beam="2">  1       -1 0.37244182E-03 0.83058514E+02</pdfrwt>
<totfact> 0.30458558E+05</totfact>
</mgrwt>
</event>
<event>
 8    1  0.2389776E-016  0.8050123E+02  0.7818608E-02  0.1327635E+00
         -1   -1    0    0    0  501 -0.00000000000E+00  0.00000000000E+00  0.28810340221E+02  0.28810340661E+02  0.50400000000E-02 0.  1.
          2   -1    0    0  501    0  0.00000000000E+00 -0.00000000000E+00 -0.56233703487E+02  0.56233703544E+02  0.25500000000E-02 0. -1.
         24    2    1    2    0    0  0.71054273576E-14  0.22204460493E-15 -0.27423363266E+02  0.85044044206E+02  0.80501233544E+02 0.  0.
         66    2    3    3    0    0 -0.37423848180E+02 -0.10398558558E+01 -0.29263725843E+02  0.47560396955E+02  0.19999988701E+01 0.  0.
        -13    1    3    3    0    0  0.37423848180E+02  0.10398558558E+01  0.18403625775E+01  0.37483647251E+02  0.10566000000E+00 0.  1.
         13    1    4    4    0    0 -0.11271445013E+02 -0.84425156698E+00 -0.81744066572E+01  0.13949563492E+02  0.10566000000E+00 0. -1.
        -13    1    4    4    0    0 -0.13375401630E+02  0.36934140929E+00 -0.10909366499E+02  0.17264507618E+02  0.10566000000E+00 0.  1.
         14    1    4    4    0    0 -0.12777001537E+02 -0.56494569813E+00 -0.10179952687E+02  0.16346325845E+02  0.00000000000E+00 0. -1.
<mgrwt>
<rscale>  0 0.80501234E+02</rscale>
<asrwt>0</asrwt>
<pdfrwt beam="1">  1        2 0.86513390E-02 0.80501234E+02</pdfrwt>
<pdfrwt beam="2">  1       -1 0.44323601E-02 0.80501234E+02</pdfrwt>
<totfact> 0.15078206E+05</totfact>
</mgrwt>
</event>
<event>
 8    1  0.2389776E-016  0.9004557E+02  0.7818608E-02  0.1302741E+00
          2   -1    0    0  501    0  0.00000000000E+00  0.00000000000E+00  0.19290703839E+04  0.19290703839E+04  0.25500000000E-02 0. -1.
         -1   -1    0    0    0  501 -0.00000000000E+00 -0.00000000000E+00 -0.10507857380E+01  0.10507978249E+01  0.50400000000E-02 0.  1.
         24    2    1    2    0    0  0.00000000000E+00  0.00000000000E+00  0.19280195981E+04  0.19301211817E+04  0.90045573201E+02 0.  0.
         66    2    3    3    0    0  0.21647477137E+02  0.71533748340E+01  0.17961104785E+04  0.17962562832E+04  0.19999979460E+01 0.  0.
        -13    1    3    3    0    0 -0.21647477137E+02 -0.71533748340E+01  0.13190911960E+03  0.13386489844E+03  0.10566000000E+00 0.  1.
         13    1    4    4    0    0  0.32367705154E+01  0.49947796077E+00  0.28909531500E+03  0.28911388497E+03  0.10566000000E+00 0. -1.
        -13    1    4    4    0    0  0.14263088784E+01  0.58450303290E+00  0.11326438318E+03  0.11327492071E+03  0.10566000000E+00 0.  1.
         14    1    4    4    0    0  0.16984397743E+02  0.60693938403E+01  0.13937507803E+04  0.13938674776E+04  0.00000000000E+00 0. -1.
<mgrwt>
<rscale>  0 0.90045573E+02</rscale>
<asrwt>0</asrwt>
<pdfrwt beam="1">  1        2 0.29677629E+00 0.90045573E+02</pdfrwt>
<pdfrwt beam="2">  1       -1 0.16166233E-03 0.90045573E+02</pdfrwt>
<totfact> 0.21016072E+05</totfact>
</mgrwt>
</event>
<event>
 8    1  0.2389776E-016  0.7958685E+02  0.7818608E-02  0.1330228E+00
         -1   -1    0    0    0  501 -0.00000000000E+00  0.00000000000E+00  0.22388006811E+01  0.22388063542E+01  0.50400000000E-02 0.  1.
          2   -1    0    0  501    0  0.00000000000E+00 -0.00000000000E+00 -0.70730481402E+03  0.70730481403E+03  0.25500000000E-02 0. -1.
         24    2    1    2    0    0  0.00000000000E+00  0.00000000000E+00 -0.70506601334E+03  0.70954362038E+03  0.79586845990E+02 0.  0.
         66    2    3    3    0    0 -0.24569176602E+02 -0.20821665829E+02 -0.56075680881E+03  0.56168441748E+03  0.20000008664E+01 0.  0.
        -13    1    3    3    0    0  0.24569176602E+02  0.20821665829E+02 -0.14430920453E+03  0.14785920290E+03  0.10566000000E+00 0.  1.
         13    1    4    4    0    0 -0.18721048695E+02 -0.15595366182E+02 -0.41784043909E+03  0.41855027991E+03  0.10566000000E+00 0. -1.
        -13    1    4    4    0    0 -0.10559515787E+01 -0.57061461820E+00 -0.19853616808E+02  0.19890145781E+02  0.10566000000E+00 0.  1.
        -14    1    4    4    0    0 -0.47921763281E+01 -0.46556850288E+01 -0.12306275292E+03  0.12324399179E+03  0.00000000000E+00 0.  1.
<mgrwt>
<rscale>  0 0.79586846E+02</rscale>
<asrwt>0</asrwt>
<pdfrwt beam="1">  1        2 0.10881595E+00 0.79586846E+02</pdfrwt>
<pdfrwt beam="2">  1       -1 0.34443188E-03 0.79586846E+02</pdfrwt>
<totfact> 0.33984801E+05</totfact>
</mgrwt>
</event>
<event>
 8    1  0.2389776E-016  0.7976310E+02  0.7818608E-02  0.1329725E+00
         -1   -1    0    0    0  501 -0.00000000000E+00  0.00000000000E+00  0.22904030727E+01  0.22904086179E+01  0.50400000000E-02 0.  1.
          2   -1    0    0  501    0  0.00000000000E+00 -0.00000000000E+00 -0.69443506699E+03  0.69443506700E+03  0.25500000000E-02 0. -1.
         24    2    1    2    0    0 -0.35527136788E-14  0.35527136788E-14 -0.69214466392E+03  0.69672547562E+03  0.79763102864E+02 0.  0.
         66    2    3    3    0    0 -0.29066993714E+02  0.22874795420E+02 -0.47596316672E+03  0.47740243240E+03  0.19999997966E+01 0.  0.
        -13    1    3    3    0    0  0.29066993714E+02 -0.22874795420E+02 -0.21618149720E+03  0.21932304322E+03  0.10566000000E+00 0.  1.
         13    1    4    4    0    0 -0.91020029144E+01  0.68932019970E+01 -0.14949796294E+03  0.14993336779E+03  0.10566000000E+00 0. -1.
        -13    1    4    4    0    0 -0.10225454571E+02  0.88019896282E+01 -0.16429098804E+03  0.16484409258E+03  0.10566000000E+00 0.  1.
        -14    1    4    4    0    0 -0.97395362283E+01  0.71796037952E+01 -0.16217421574E+03  0.16262497203E+03  0.00000000000E+00 0.  1.
<mgrwt>
<rscale>  0 0.79763103E+02</rscale>
<asrwt>0</asrwt>
<pdfrwt beam="1">  1        2 0.10683600E+00 0.79763103E+02</pdfrwt>
<pdfrwt beam="2">  1       -1 0.35237068E-03 0.79763103E+02</pdfrwt>
<totfact> 0.33648637E+05</totfact>
</mgrwt>
</event>
<event>
 8    1  0.2389776E-016  0.8041719E+02  0.7818608E-02  0.1327872E+00
         -1   -1    0    0    0  501 -0.00000000000E+00  0.00000000000E+00  0.75690820336E+01  0.75690837115E+01  0.50400000000E-02 0.  1.
          2   -1    0    0  501    0  0.00000000000E+00 -0.00000000000E+00 -0.21359667950E+03  0.21359667951E+03  0.25500000000E-02 0. -1.
         24    2    1    2    0    0  0.00000000000E+00 -0.35527136788E-14 -0.20602759746E+03  0.22116576322E+03  0.80417186632E+02 0.  0.
         66    2    3    3    0    0  0.36121047248E+02 -0.16260962861E+02 -0.12164435383E+03  0.12794724608E+03  0.19999986324E+01 0.  0.
        -13    1    3    3    0    0 -0.36121047248E+02  0.16260962861E+02 -0.84383243636E+02  0.93218517141E+02  0.10566000000E+00 0.  1.
         13    1    4    4    0    0  0.10525794239E+02 -0.44536504371E+01 -0.33522555467E+02  0.35417513121E+02  0.10566000000E+00 0. -1.
        -13    1    4    4    0    0  0.68033172358E+01 -0.25297102136E+01 -0.22163136842E+02  0.23321671422E+02  0.10566000000E+00 0.  1.
         14    1    4    4    0    0  0.18791935774E+02 -0.92776022098E+01 -0.65958661517E+02  0.69208061539E+02  0.00000000000E+00 0. -1.
<mgrwt>
<rscale>  0 0.80417187E+02</rscale>
<asrwt>0</asrwt>
<pdfrwt beam="1">  1        2 0.32861023E-01 0.80417187E+02</pdfrwt>
<pdfrwt beam="2">  1       -1 0.11644745E-02 0.80417187E+02</pdfrwt>
<totfact> 0.22263852E+05</totfact>
</mgrwt>
</event>
<event>
 8    1  0.2389776E-016  0.7682352E+02  0.7818608E-02  0.1338315E+00
          2   -1    0    0  501    0  0.00000000000E+00  0.00000000000E+00  0.10102782400E+04  0.10102782400E+04  0.25500000000E-02 0. -1.
         -1   -1    0    0    0  501 -0.00000000000E+00 -0.00000000000E+00 -0.14604482567E+01  0.14604569532E+01  0.50400000000E-02 0.  1.
         24    2    1    2    0    0 -0.35527136788E-14  0.00000000000E+00  0.10088177917E+04  0.10117386969E+04  0.76823524919E+02 0.  0.
         66    2    3    3    0    0 -0.21355109465E+02 -0.31733008735E+01  0.92273789484E+03  0.92299259646E+03  0.20000006179E+01 0.  0.
        -13    1    3    3    0    0  0.21355109465E+02  0.31733008735E+01  0.86079896872E+02  0.88746100468E+02  0.10566000000E+00 0.  1.
         13    1    4    4    0    0 -0.81547735053E+01 -0.94863388742E+00  0.31736758267E+03  0.31747376888E+03  0.10566000000E+00 0. -1.
        -13    1    4    4    0    0 -0.77492470296E+01 -0.16077753337E+01  0.34631762368E+03  0.34640805910E+03  0.10566000000E+00 0.  1.
         14    1    4    4    0    0 -0.54510889305E+01 -0.61689165236E+00  0.25905268849E+03  0.25911076848E+03  0.00000000000E+00 0. -1.
<mgrwt>
<rscale>  0 0.76823525E+02</rscale>
<asrwt>0</asrwt>
<pdfrwt beam="1">  1        2 0.15542735E+00 0.76823525E+02</pdfrwt>
<pdfrwt beam="2">  1       -1 0.22468512E-03 0.76823525E+02</pdfrwt>
<totfact> 0.39145583E+05</totfact>
</mgrwt>
</event>
<event>
 8    1  0.2389776E-016  0.7774342E+02  0.7818608E-02  0.1335580E+00
         -1   -1    0    0    0  501 -0.00000000000E+00  0.00000000000E+00  0.15122780637E+03  0.15122780645E+03  0.50400000000E-02 0.  1.
          2   -1    0    0  501    0  0.00000000000E+00 -0.00000000000E+00 -0.99916124613E+01  0.99916127867E+01  0.25500000000E-02 0. -1.
         24    2    1    2    0    0  0.00000000000E+00  0.00000000000E+00  0.14123619391E+03  0.16121941924E+03  0.77743415608E+02 0.  0.
         66    2    3    3    0    0 -0.54609839974E+01 -0.29629341575E+02  0.19814375773E+02  0.36115505186E+02  0.19999997920E+01 0.  0.
        -13    1    3    3    0    0  0.54609839974E+01  0.29629341575E+02  0.12142181813E+03  0.12510391405E+03  0.10566000000E+00 0.  1.
         13    1    4    4    0    0 -0.21747986167E+01 -0.15309206768E+02  0.10446726786E+02  0.18661372551E+02  0.10566000000E+00 0. -1.
        -13    1    4    4    0    0 -0.10163840296E+01 -0.43209866449E+01  0.33806104735E+01  0.55806498986E+01  0.10566000000E+00 0. -1.
         14    1    4    4    0    0 -0.22698013510E+01 -0.99991481620E+01  0.59870385134E+01  0.11873482737E+02  0.00000000000E+00 0. -1.
<mgrwt>
<rscale>  0 0.77743416E+02</rscale>
<asrwt>0</asrwt>
<pdfrwt beam="1">  1        2 0.15371712E-02 0.77743416E+02</pdfrwt>
<pdfrwt beam="2">  1       -1 0.23265817E-01 0.77743416E+02</pdfrwt>
<totfact> 0.11572058E+05</totfact>
</mgrwt>
</event>
<event>
 8    1  0.2389776E-016  0.7915700E+02  0.7818608E-02  0.1331461E+00
          2   -1    0    0  501    0  0.00000000000E+00  0.00000000000E+00  0.94324634655E+02  0.94324634690E+02  0.25500000000E-02 0. -1.
         -1   -1    0    0    0  501 -0.00000000000E+00 -0.00000000000E+00 -0.16607087401E+02  0.16607088166E+02  0.50400000000E-02 0.  1.
         24    2    1    2    0    0  0.00000000000E+00  0.17763568394E-14  0.77717547254E+02  0.11093172286E+03  0.79156995802E+02 0.  0.
         66    2    3    3    0    0  0.35208914549E+02 -0.15716466765E+02  0.26524218906E+02  0.46842386592E+02  0.20000004488E+01 0.  0.
        -13    1    3    3    0    0 -0.35208914549E+02  0.15716466765E+02  0.51193328348E+02  0.64089336263E+02  0.10566000000E+00 0.  1.
         13    1    4    4    0    0  0.15600424538E+02 -0.70670026859E+01  0.11656539796E+02  0.20717187473E+02  0.10566000000E+00 0. -1.
        -13    1    4    4    0    0  0.18785529553E+02 -0.79477860430E+01  0.14207186053E+02  0.24857971019E+02  0.10566000000E+00 0.  1.
        -14    1    4    4    0    0  0.82296045716E+00 -0.70167803620E+00  0.66049305697E+00  0.12672281006E+01  0.00000000000E+00 0.  1.
<mgrwt>
<rscale>  0 0.79156996E+02</rscale>
<asrwt>0</asrwt>
<pdfrwt beam="1">  1        2 0.14511482E-01 0.79156996E+02</pdfrwt>
<pdfrwt beam="2">  1       -1 0.25549366E-02 0.79156996E+02</pdfrwt>
<totfact> 0.17943946E+05</totfact>
</mgrwt>
</event>
<event>
 8    1  0.2389776E-016  0.7519829E+02  0.7818608E-02  0.1343258E+00
         -1   -1    0    0    0  501 -0.00000000000E+00  0.00000000000E+00  0.27592611157E+02  0.27592611618E+02  0.50400000000E-02 0.  1.
          2   -1    0    0  501    0  0.00000000000E+00 -0.00000000000E+00 -0.51234570371E+02  0.51234570434E+02  0.25500000000E-02 0. -1.
         24    2    1    2    0    0  0.00000000000E+00  0.17763568394E-14 -0.23641959213E+02  0.78827182052E+02  0.75198287180E+02 0.  0.
         66    2    3    3    0    0 -0.75382855567E+01 -0.10750100913E+02 -0.48731864074E+02  0.50509256479E+02  0.19999987938E+01 0.  0.
        -13    1    3    3    0    0  0.75382855567E+01  0.10750100913E+02  0.25089904861E+02  0.28317925573E+02  0.10566000000E+00 0.  1.
         13    1    4    4    0    0 -0.17525653688E+01 -0.31084212391E+01 -0.12444396168E+02  0.12946348056E+02  0.10566000000E+00 0. -1.
        -13    1    4    4    0    0 -0.18028809165E+01 -0.35450082493E+01 -0.13945292047E+02  0.14501717050E+02  0.10566000000E+00 0.  1.
        -14    1    4    4    0    0 -0.39828392714E+01 -0.40966714246E+01 -0.22342175859E+02  0.23061191373E+02  0.00000000000E+00 0.  1.
<mgrwt>
<rscale>  0 0.75198287E+02</rscale>
<asrwt>0</asrwt>
<pdfrwt beam="1">  1        2 0.78822416E-02 0.75198287E+02</pdfrwt>
<pdfrwt beam="2">  1       -1 0.42450172E-02 0.75198287E+02</pdfrwt>
<totfact> 0.17782503E+05</totfact>
</mgrwt>
</event>
<event>
 8    1  0.2389776E-016  0.7890955E+02  0.7818608E-02  0.1332175E+00
          2   -1    0    0  501    0  0.00000000000E+00  0.00000000000E+00  0.66462084353E+03  0.66462084354E+03  0.25500000000E-02 0. -1.
         -1   -1    0    0    0  501 -0.00000000000E+00 -0.00000000000E+00 -0.23422037235E+01  0.23422091461E+01  0.50400000000E-02 0.  1.
         24    2    1    2    0    0  0.00000000000E+00  0.00000000000E+00  0.66227863981E+03  0.66696305269E+03  0.78909548837E+02 0.  0.
         66    2    3    3    0    0 -0.53207614578E+01  0.20909387532E+02  0.61029627695E+03  0.61068081568E+03  0.19999985861E+01 0.  0.
        -13    1    3    3    0    0  0.53207614578E+01 -0.20909387532E+02  0.51982362866E+02  0.56282237008E+02  0.10566000000E+00 0.  1.
         13    1    4    4    0    0 -0.15352561835E+01  0.81696747448E+01  0.23080315230E+03  0.23095282391E+03  0.10566000000E+00 0. -1.
        -13    1    4    4    0    0 -0.76484195613E+00  0.17883190313E+01  0.67535264707E+02  0.67563349616E+02  0.10566000000E+00 0.  1.
         14    1    4    4    0    0 -0.30206633181E+01  0.10951393756E+02  0.31195785994E+03  0.31216464215E+03  0.00000000000E+00 0. -1.
<mgrwt>
<rscale>  0 0.78909549E+02</rscale>
<asrwt>0</asrwt>
<pdfrwt beam="1">  1        2 0.10224951E+00 0.78909549E+02</pdfrwt>
<pdfrwt beam="2">  1       -1 0.36033892E-03 0.78909549E+02</pdfrwt>
<totfact> 0.34240772E+05</totfact>
</mgrwt>
</event>
<event>
 8    1  0.2389776E-016  0.8098461E+02  0.7818608E-02  0.1326280E+00
         -1   -1    0    0    0  501 -0.00000000000E+00  0.00000000000E+00  0.24695980489E+01  0.24696031918E+01  0.50400000000E-02 0.  1.
          2   -1    0    0  501    0  0.00000000000E+00 -0.00000000000E+00 -0.66392380922E+03  0.66392380923E+03  0.25500000000E-02 0. -1.
         24    2    1    2    0    0  0.00000000000E+00  0.35527136788E-14 -0.66145421117E+03  0.66639341242E+03  0.80984607405E+02 0.  0.
         66    2    3    3    0    0 -0.80470886530E+01 -0.25826654801E+02 -0.57858852381E+03  0.57922400816E+03  0.20000002117E+01 0.  0.
        -13    1    3    3    0    0  0.80470886530E+01  0.25826654801E+02 -0.82865687359E+02  0.87169404262E+02  0.10566000000E+00 0.  1.
         13    1    4    4    0    0 -0.28755304192E+01 -0.91931053126E+01 -0.20655072040E+03  0.20677522367E+03  0.10566000000E+00 0. -1.
        -13    1    4    4    0    0 -0.35750896277E+01 -0.11106241846E+02 -0.26441656133E+03  0.26467387280E+03  0.10566000000E+00 0.  1.
        -14    1    4    4    0    0 -0.15964686061E+01 -0.55273076431E+01 -0.10762124209E+03  0.10777491169E+03  0.00000000000E+00 0.  1.
<mgrwt>
<rscale>  0 0.80984607E+02</rscale>
<asrwt>0</asrwt>
<pdfrwt beam="1">  1        2 0.10214198E+00 0.80984607E+02</pdfrwt>
<pdfrwt beam="2">  1       -1 0.37993909E-03 0.80984607E+02</pdfrwt>
<totfact> 0.31997745E+05</totfact>
</mgrwt>
</event>
<event>
 8    1  0.2389776E-016  0.8148616E+02  0.7818608E-02  0.1324886E+00
         -1   -1    0    0    0  501 -0.00000000000E+00  0.00000000000E+00  0.65056460167E+02  0.65056460362E+02  0.50400000000E-02 0.  1.
          2   -1    0    0  501    0  0.00000000000E+00 -0.00000000000E+00 -0.25516275605E+02  0.25516275733E+02  0.25500000000E-02 0. -1.
         24    2    1    2    0    0  0.00000000000E+00  0.00000000000E+00  0.39540184562E+02  0.90572736095E+02  0.81486160350E+02 0.  0.
         66    2    3    3    0    0  0.37143013455E+02 -0.58028375322E+01  0.23941179858E+01  0.37722780579E+02  0.20000004345E+01 0.  0.
        -13    1    3    3    0    0 -0.37143013455E+02  0.58028375322E+01  0.37146066576E+02  0.52849955516E+02  0.10566000000E+00 0.  1.
         13    1    4    4    0    0  0.13114777134E+02 -0.21439452202E+01  0.10258989612E+01  0.13328822645E+02  0.10566000000E+00 0. -1.
        -13    1    4    4    0    0  0.22576916946E+02 -0.35659059893E+01  0.16348356341E+01  0.22915425283E+02  0.10566000000E+00 0.  1.
        -14    1    4    4    0    0  0.14513193747E+01 -0.92986322692E-01 -0.26661660954E+00  0.14785326510E+01  0.00000000000E+00 0.  1.
<mgrwt>
<rscale>  0 0.81486160E+02</rscale>
<asrwt>0</asrwt>
<pdfrwt beam="1">  1        2 0.39255809E-02 0.81486160E+02</pdfrwt>
<pdfrwt beam="2">  1       -1 0.10008686E-01 0.81486160E+02</pdfrwt>
<totfact> 0.12370616E+05</totfact>
</mgrwt>
</event>
<event>
 8    1  0.2389776E-016  0.7961795E+02  0.7818608E-02  0.1330139E+00
         -1   -1    0    0    0  501 -0.00000000000E+00  0.00000000000E+00  0.13599495825E+03  0.13599495835E+03  0.50400000000E-02 0.  1.
          2   -1    0    0  501    0  0.00000000000E+00 -0.00000000000E+00 -0.11653037748E+02  0.11653038027E+02  0.25500000000E-02 0. -1.
         24    2    1    2    0    0  0.17763568394E-14  0.71054273576E-14  0.12434192051E+03  0.14764799637E+03  0.79617947964E+02 0.  0.
         66    2    3    3    0    0 -0.97170262418E+01 -0.33121331400E+02  0.25526225567E+02  0.42977102984E+02  0.19999991321E+01 0.  0.
        -13    1    3    3    0    0  0.97170262418E+01  0.33121331400E+02  0.98815694939E+02  0.10467089339E+03  0.10566000000E+00 0.  1.
         13    1    4    4    0    0 -0.28364124885E+00 -0.87547279168E+00  0.87522463734E+00  0.12743967861E+01  0.10566000000E+00 0.  1.
        -13    1    4    4    0    0 -0.49458740244E+01 -0.17527596595E+02  0.12379670217E+02  0.22021482942E+02  0.10566000000E+00 0.  1.
         14    1    4    4    0    0 -0.44875109685E+01 -0.14718262013E+02  0.12271330713E+02  0.19681223256E+02  0.00000000000E+00 0. -1.
<mgrwt>
<rscale>  0 0.79617948E+02</rscale>
<asrwt>0</asrwt>
<pdfrwt beam="1">  1        2 0.17927750E-02 0.79617948E+02</pdfrwt>
<pdfrwt beam="2">  1       -1 0.20922302E-01 0.79617948E+02</pdfrwt>
<totfact> 0.11187573E+05</totfact>
</mgrwt>
</event>
<event>
 8    1  0.2389776E-016  0.8149025E+02  0.7818608E-02  0.1324875E+00
          2   -1    0    0  501    0  0.00000000000E+00  0.00000000000E+00  0.44426259940E+03  0.44426259940E+03  0.25500000000E-02 0. -1.
         -1   -1    0    0    0  501 -0.00000000000E+00 -0.00000000000E+00 -0.37368993039E+01  0.37369027027E+01  0.50400000000E-02 0.  1.
         24    2    1    2    0    0 -0.35527136788E-14  0.00000000000E+00  0.44052570009E+03  0.44799950211E+03  0.81490253685E+02 0.  0.
         66    2    3    3    0    0  0.30617946092E+02 -0.26750798101E+02  0.20798406053E+03  0.21193025566E+03  0.20000022180E+01 0.  0.
        -13    1    3    3    0    0 -0.30617946092E+02  0.26750798101E+02  0.23254163956E+03  0.23606924644E+03  0.10566000000E+00 0.  1.
         13    1    4    4    0    0  0.10944440035E+02 -0.93687056845E+01  0.77462530815E+02  0.78790914820E+02  0.10566000000E+00 0.  1.
        -13    1    4    4    0    0  0.29760459528E+01 -0.22034488204E+01  0.17831788567E+02  0.18212519973E+02  0.10566000000E+00 0. -1.
        -14    1    4    4    0    0  0.16697460105E+02 -0.15178643596E+02  0.11268974115E+03  0.11492682087E+03  0.00000000000E+00 0.  1.
<mgrwt>
<rscale>  0 0.81490254E+02</rscale>
<asrwt>0</asrwt>
<pdfrwt beam="1">  1        2 0.68348104E-01 0.81490254E+02</pdfrwt>
<pdfrwt beam="2">  1       -1 0.57490775E-03 0.81490254E+02</pdfrwt>
<totfact> 0.27913306E+05</totfact>
</mgrwt>
</event>
<event>
 8    1  0.2389776E-016  0.7972533E+02  0.7818608E-02  0.1329833E+00
         -1   -1    0    0    0  501 -0.00000000000E+00  0.00000000000E+00  0.31673038945E+01  0.31673079044E+01  0.50400000000E-02 0.  1.
          2   -1    0    0  501    0  0.00000000000E+00 -0.00000000000E+00 -0.50169831770E+03  0.50169831771E+03  0.25500000000E-02 0. -1.
         24    2    1    2    0    0  0.00000000000E+00  0.00000000000E+00 -0.49853101381E+03  0.50486562561E+03  0.79725329711E+02 0.  0.
         66    2    3    3    0    0 -0.81763307814E+01 -0.29247094155E+02 -0.41269673760E+03  0.41381740192E+03  0.20000011954E+01 0.  0.
        -13    1    3    3    0    0  0.81763307814E+01  0.29247094155E+02 -0.85834276213E+02  0.91048223698E+02  0.10566000000E+00 0.  1.
         13    1    4    4    0    0 -0.11361192063E+01 -0.40605724189E+01 -0.52426201255E+02  0.52595596368E+02  0.10566000000E+00 0. -1.
        -13    1    4    4    0    0 -0.15789393064E+01 -0.64087887659E+01 -0.82430499342E+02  0.82694401314E+02  0.10566000000E+00 0.  1.
         14    1    4    4    0    0 -0.54612722687E+01 -0.18777732970E+02 -0.27784003700E+03  0.27852740423E+03  0.00000000000E+00 0. -1.
<mgrwt>
<rscale>  0 0.79725330E+02</rscale>
<asrwt>0</asrwt>
<pdfrwt beam="1">  1        2 0.77184294E-01 0.79725330E+02</pdfrwt>
<pdfrwt beam="2">  1       -1 0.48727823E-03 0.79725330E+02</pdfrwt>
<totfact> 0.30758640E+05</totfact>
</mgrwt>
</event>
<event>
 8    1  0.2389776E-016  0.8032941E+02  0.7818608E-02  0.1328119E+00
          2   -1    0    0  501    0  0.00000000000E+00  0.00000000000E+00  0.19367783717E+03  0.19367783719E+03  0.25500000000E-02 0. -1.
         -1   -1    0    0    0  501 -0.00000000000E+00 -0.00000000000E+00 -0.83293141578E+01  0.83293156826E+01  0.50400000000E-02 0.  1.
         24    2    1    2    0    0  0.00000000000E+00  0.00000000000E+00  0.18534852301E+03  0.20200715287E+03  0.80329414461E+02 0.  0.
         66    2    3    3    0    0 -0.40047540620E+02  0.27188497782E+01  0.92648571790E+02  0.10098987824E+03  0.19999993776E+01 0.  0.
        -13    1    3    3    0    0  0.40047540620E+02 -0.27188497782E+01  0.92699951223E+02  0.10101727463E+03  0.10566000000E+00 0.  1.
         13    1    4    4    0    0 -0.35430272289E+02  0.25124023159E+01  0.81660974786E+02  0.89051346575E+02  0.10566000000E+00 0. -1.
        -13    1    4    4    0    0 -0.13503547176E+01 -0.22640789241E+00  0.31575183080E+01  0.34432258564E+01  0.10566000000E+00 0.  1.
        -14    1    4    4    0    0 -0.32669136133E+01  0.43285535474E+00  0.78300786960E+01  0.84953058038E+01  0.00000000000E+00 0.  1.
<mgrwt>
<rscale>  0 0.80329414E+02</rscale>
<asrwt>0</asrwt>
<pdfrwt beam="1">  1        2 0.29796588E-01 0.80329414E+02</pdfrwt>
<pdfrwt beam="2">  1       -1 0.12814332E-02 0.80329414E+02</pdfrwt>
<totfact> 0.21579190E+05</totfact>
</mgrwt>
</event>
<event>
 8    1  0.2389776E-016  0.7478781E+02  0.7818608E-02  0.1344529E+00
         -1   -1    0    0    0  501 -0.00000000000E+00  0.00000000000E+00  0.96616801419E+02  0.96616801550E+02  0.50400000000E-02 0.  1.
          2   -1    0    0  501    0  0.00000000000E+00 -0.00000000000E+00 -0.14472678826E+02  0.14472679051E+02  0.25500000000E-02 0. -1.
         24    2    1    2    0    0  0.00000000000E+00  0.00000000000E+00  0.82144122593E+02  0.11108948060E+03  0.74787805313E+02 0.  0.
         66    2    3    3    0    0  0.88369353441E+01 -0.23354017100E+02 -0.19151258348E+00  0.25050713031E+02  0.20000013273E+01 0.  0.
        -13    1    3    3    0    0 -0.88369353441E+01  0.23354017100E+02  0.82335635176E+02  0.86038767570E+02  0.10566000000E+00 0.  1.
         13    1    4    4    0    0  0.51047310832E+01 -0.13748881543E+02 -0.98287087165E-01  0.14666657680E+02  0.10566000000E+00 0. -1.
        -13    1    4    4    0    0  0.26909125980E+01 -0.71513677788E+01  0.48319175137E+00  0.76568733843E+01  0.10566000000E+00 0.  1.
         14    1    4    4    0    0  0.10412916629E+01 -0.24537677782E+01 -0.57641724768E+00  0.27271819668E+01  0.00000000000E+00 0. -1.
<mgrwt>
<rscale>  0 0.74787805E+02</rscale>
<asrwt>0</asrwt>
<pdfrwt beam="1">  1        2 0.22265661E-02 0.74787805E+02</pdfrwt>
<pdfrwt beam="2">  1       -1 0.14864122E-01 0.74787805E+02</pdfrwt>
<totfact> 0.14119783E+05</totfact>
</mgrwt>
</event>
<event>
 8    1  0.2389776E-016  0.7804796E+02  0.7818608E-02  0.1334684E+00
          2   -1    0    0  501    0  0.00000000000E+00  0.00000000000E+00  0.35115758007E+02  0.35115758099E+02  0.25500000000E-02 0. -1.
         -1   -1    0    0    0  501 -0.00000000000E+00 -0.00000000000E+00 -0.43367166644E+02  0.43367166937E+02  0.50400000000E-02 0.  1.
         24    2    1    2    0    0  0.00000000000E+00  0.00000000000E+00 -0.82514086374E+01  0.78482925036E+02  0.78047958191E+02 0.  0.
         66    2    3    3    0    0  0.35527353522E+01 -0.32109803054E+02  0.17838351915E+02  0.36957653811E+02  0.19999988818E+01 0.  0.
        -13    1    3    3    0    0 -0.35527353522E+01  0.32109803054E+02 -0.26089760553E+02  0.41525271225E+02  0.10566000000E+00 0.  1.
         13    1    4    4    0    0  0.23896050418E+01 -0.24718875885E+02  0.13458845028E+02  0.28246853113E+02  0.10566000000E+00 0. -1.
        -13    1    4    4    0    0  0.36290270477E+00 -0.36147818674E+01  0.25455969431E+01  0.44372935619E+01  0.10566000000E+00 0.  1.
        -14    1    4    4    0    0  0.80022760568E+00 -0.37761453015E+01  0.18339099445E+01  0.42735071362E+01  0.00000000000E+00 0.  1.
<mgrwt>
<rscale>  0 0.78047958E+02</rscale>
<asrwt>0</asrwt>
<pdfrwt beam="1">  1        2 0.54024244E-02 0.78047958E+02</pdfrwt>
<pdfrwt beam="2">  1       -1 0.66718718E-02 0.78047958E+02</pdfrwt>
<totfact> 0.14868509E+05</totfact>
</mgrwt>
</event>
<event>
 8    1  0.2389776E-016  0.8174562E+02  0.7818608E-02  0.1324169E+00
         -1   -1    0    0    0  501 -0.00000000000E+00  0.00000000000E+00  0.61423251153E+01  0.61423271831E+01  0.50400000000E-02 0.  1.
          2   -1    0    0  501    0  0.00000000000E+00 -0.00000000000E+00 -0.27197949480E+03  0.27197949481E+03  0.25500000000E-02 0. -1.
         24    2    1    2    0    0  0.00000000000E+00  0.00000000000E+00 -0.26583716969E+03  0.27812182200E+03  0.81745624249E+02 0.  0.
         66    2    3    3    0    0  0.19523388587E+02 -0.30385488003E+02 -0.19792195548E+03  0.20120025111E+03  0.20000005572E+01 0.  0.
        -13    1    3    3    0    0 -0.19523388587E+02  0.30385488003E+02 -0.67915214208E+02  0.76921570889E+02  0.10566000000E+00 0.  1.
         13    1    4    4    0    0  0.44341489851E+01 -0.69310977102E+01 -0.43713904723E+02  0.44481663895E+02  0.10566000000E+00 0.  1.
        -13    1    4    4    0    0  0.79718768569E+01 -0.11199326947E+02 -0.78890519641E+02  0.80079341893E+02  0.10566000000E+00 0. -1.
         14    1    4    4    0    0  0.71173627447E+01 -0.12255063346E+02 -0.75317531115E+02  0.76639245321E+02  0.00000000000E+00 0. -1.
<mgrwt>
<rscale>  0 0.81745624E+02</rscale>
<asrwt>0</asrwt>
<pdfrwt beam="1">  1        2 0.41842990E-01 0.81745624E+02</pdfrwt>
<pdfrwt beam="2">  1       -1 0.94497347E-03 0.81745624E+02</pdfrwt>
<totfact> 0.23247779E+05</totfact>
</mgrwt>
</event>
<event>
 8    1  0.2389776E-016  0.7885801E+02  0.7818608E-02  0.1332324E+00
         -1   -1    0    0    0  501 -0.00000000000E+00  0.00000000000E+00  0.88900746337E+00  0.88902174975E+00  0.50400000000E-02 0.  1.
          2   -1    0    0  501    0  0.00000000000E+00 -0.00000000000E+00 -0.17487297214E+04  0.17487297214E+04  0.25500000000E-02 0. -1.
         24    2    1    2    0    0  0.00000000000E+00 -0.35527136788E-14 -0.17478407140E+04  0.17496187432E+04  0.78858005891E+02 0.  0.
         66    2    3    3    0    0  0.84932695930E+01 -0.16376768201E+02 -0.16469906698E+04  0.16470952009E+04  0.20000006534E+01 0.  0.
        -13    1    3    3    0    0 -0.84932695930E+01  0.16376768201E+02 -0.10085004413E+03  0.10252354232E+03  0.10566000000E+00 0.  1.
         13    1    4    4    0    0  0.45842099283E+01 -0.98809511638E+01 -0.91716621754E+03  0.91723090328E+03  0.10566000000E+00 0. -1.
        -13    1    4    4    0    0  0.34287034650E+01 -0.59838909356E+01 -0.64242072681E+03  0.64245775298E+03  0.10566000000E+00 0.  1.
        -14    1    4    4    0    0  0.48035619976E+00 -0.51192610149E+00 -0.87403725503E+02  0.87406544619E+02  0.00000000000E+00 0.  1.
<mgrwt>
<rscale>  0 0.78858006E+02</rscale>
<asrwt>0</asrwt>
<pdfrwt beam="1">  1        2 0.26903259E+00 0.78858006E+02</pdfrwt>
<pdfrwt beam="2">  1       -1 0.13677288E-03 0.78858006E+02</pdfrwt>
<totfact> 0.31975916E+05</totfact>
</mgrwt>
</event>
<event>
 8    1  0.2389776E-016  0.7436384E+02  0.7818608E-02  0.1345852E+00
          2   -1    0    0  501    0  0.00000000000E+00  0.00000000000E+00  0.34078375907E+03  0.34078375908E+03  0.25500000000E-02 0. -1.
         -1   -1    0    0    0  501 -0.00000000000E+00 -0.00000000000E+00 -0.40568093633E+01  0.40568124940E+01  0.50400000000E-02 0.  1.
         24    2    1    2    0    0  0.00000000000E+00  0.00000000000E+00  0.33672694970E+03  0.34484057157E+03  0.74363842990E+02 0.  0.
         66    2    3    3    0    0  0.10005178423E+02  0.15840990513E+02  0.31726990989E+03  0.31782894189E+03  0.20000012109E+01 0.  0.
        -13    1    3    3    0    0 -0.10005178423E+02 -0.15840990513E+02  0.19457039813E+02  0.27011629681E+02  0.10566000000E+00 0.  1.
         13    1    4    4    0    0  0.45369479168E+01  0.63896567457E+01  0.13497259777E+03  0.13519994424E+03  0.10566000000E+00 0. -1.
        -13    1    4    4    0    0  0.59888156269E-01  0.69681474010E+00  0.10551082831E+02  0.10574764788E+02  0.10566000000E+00 0.  1.
         14    1    4    4    0    0  0.54083423496E+01  0.87545190273E+01  0.17174622929E+03  0.17205423286E+03  0.00000000000E+00 0. -1.
<mgrwt>
<rscale>  0 0.74363843E+02</rscale>
<asrwt>0</asrwt>
<pdfrwt beam="1">  1        2 0.52428272E-01 0.74363843E+02</pdfrwt>
<pdfrwt beam="2">  1       -1 0.62412474E-03 0.74363843E+02</pdfrwt>
<totfact> 0.32294525E+05</totfact>
</mgrwt>
</event>
<event>
 8    1  0.2389776E-016  0.7945741E+02  0.7818608E-02  0.1330598E+00
          2   -1    0    0  501    0  0.00000000000E+00  0.00000000000E+00  0.25122377930E+02  0.25122378059E+02  0.25500000000E-02 0. -1.
         -1   -1    0    0    0  501 -0.00000000000E+00 -0.00000000000E+00 -0.62827246859E+02  0.62827247061E+02  0.50400000000E-02 0.  1.
         24    2    1    2    0    0  0.71054273576E-14  0.35527136788E-14 -0.37704868929E+02  0.87949625121E+02  0.79457406312E+02 0.  0.
         66    2    3    3    0    0  0.32311742042E+02  0.20732801921E+02 -0.76598593764E+01  0.39199122432E+02  0.20000011291E+01 0.  0.
        -13    1    3    3    0    0 -0.32311742042E+02 -0.20732801921E+02 -0.30045009553E+02  0.48750502688E+02  0.10566000000E+00 0.  1.
         13    1    4    4    0    0  0.25548775904E+02  0.16314572431E+02 -0.61090057951E+01  0.30923071317E+02  0.10566000000E+00 0. -1.
        -13    1    4    4    0    0  0.24795162892E+01  0.12516790782E+01 -0.82906794694E+00  0.29005549882E+01  0.10566000000E+00 0.  1.
         14    1    4    4    0    0  0.42834498486E+01  0.31665504117E+01 -0.72178563436E+00  0.53754961276E+01  0.00000000000E+00 0. -1.
<mgrwt>
<rscale>  0 0.79457406E+02</rscale>
<asrwt>0</asrwt>
<pdfrwt beam="1">  1        2 0.38649813E-02 0.79457406E+02</pdfrwt>
<pdfrwt beam="2">  1       -1 0.96657303E-02 0.79457406E+02</pdfrwt>
<totfact> 0.13245478E+05</totfact>
</mgrwt>
</event>
<event>
 8    1  0.2389776E-016  0.8294738E+02  0.7818608E-02  0.1320889E+00
         -1   -1    0    0    0  501 -0.00000000000E+00  0.00000000000E+00  0.12156882098E+03  0.12156882108E+03  0.50400000000E-02 0.  1.
          2   -1    0    0  501    0  0.00000000000E+00 -0.00000000000E+00 -0.14148913841E+02  0.14148914070E+02  0.25500000000E-02 0. -1.
         24    2    1    2    0    0  0.35527136788E-14  0.71054273576E-14  0.10741990714E+03  0.13571773516E+03  0.82947376003E+02 0.  0.
         66    2    3    3    0    0  0.21590050761E+02  0.35317569868E+02  0.57250625377E+02  0.70675986794E+02  0.19999924867E+01 0.  0.
        -13    1    3    3    0    0 -0.21590050761E+02 -0.35317569868E+02  0.50169281762E+02  0.65041748361E+02  0.10566000000E+00 0.  1.
         13    1    4    4    0    0  0.13748202140E+02  0.22733741666E+02  0.37166098326E+02  0.45685513032E+02  0.10566000000E+00 0. -1.
        -13    1    4    4    0    0  0.76404495237E+01  0.12047324790E+02  0.19586036249E+02  0.24230940624E+02  0.10566000000E+00 0.  1.
        -14    1    4    4    0    0  0.20139909773E+00  0.53650341256E+00  0.49849080256E+00  0.75953313851E+00  0.00000000000E+00 0.  1.
<mgrwt>
<rscale>  0 0.82947376E+02</rscale>
<asrwt>0</asrwt>
<pdfrwt beam="1">  1        2 0.21767559E-02 0.82947376E+02</pdfrwt>
<pdfrwt beam="2">  1       -1 0.18702896E-01 0.82947376E+02</pdfrwt>
<totfact> 0.10364683E+05</totfact>
</mgrwt>
</event>
<event>
 8    1  0.2389776E-016  0.7143869E+02  0.7818608E-02  0.1355268E+00
          2   -1    0    0  501    0  0.00000000000E+00  0.00000000000E+00  0.56490180170E+02  0.56490180228E+02  0.25500000000E-02 0. -1.
         -1   -1    0    0    0  501 -0.00000000000E+00 -0.00000000000E+00 -0.22585724007E+02  0.22585724570E+02  0.50400000000E-02 0.  1.
         24    2    1    2    0    0  0.00000000000E+00  0.00000000000E+00  0.33904456163E+02  0.79075904798E+02  0.71438691000E+02 0.  0.
         66    2    3    3    0    0 -0.10824760885E+02  0.33806175300E+02  0.21082498671E+02  0.41334062042E+02  0.19999995157E+01 0.  0.
        -13    1    3    3    0    0  0.10824760885E+02 -0.33806175300E+02  0.12821957491E+02  0.37741842755E+02  0.10566000000E+00 0.  1.
         13    1    4    4    0    0 -0.20880559306E+01  0.73743571462E+01  0.42880682994E+01  0.87829274541E+01  0.10566000000E+00 0. -1.
        -13    1    4    4    0    0 -0.27257756031E+01  0.10531066904E+02  0.68976659284E+01  0.12881078451E+02  0.10566000000E+00 0.  1.
        -14    1    4    4    0    0 -0.60109293518E+01  0.15900751250E+02  0.98967644438E+01  0.19670056137E+02  0.00000000000E+00 0.  1.
<mgrwt>
<rscale>  0 0.71438691E+02</rscale>
<asrwt>0</asrwt>
<pdfrwt beam="1">  1        2 0.86907970E-02 0.71438691E+02</pdfrwt>
<pdfrwt beam="2">  1       -1 0.34747268E-02 0.71438691E+02</pdfrwt>
<totfact> 0.20847523E+05</totfact>
</mgrwt>
</event>
<event>
 8    1  0.2389776E-016  0.7920698E+02  0.7818608E-02  0.1331317E+00
          2   -1    0    0  501    0  0.00000000000E+00  0.00000000000E+00  0.73176554350E+02  0.73176554395E+02  0.25500000000E-02 0. -1.
         -1   -1    0    0    0  501 -0.00000000000E+00 -0.00000000000E+00 -0.21433594125E+02  0.21433594718E+02  0.50400000000E-02 0.  1.
         24    2    1    2    0    0  0.00000000000E+00  0.00000000000E+00  0.51742960225E+02  0.94610149113E+02  0.79206984429E+02 0.  0.
         66    2    3    3    0    0 -0.13316807558E+02  0.34889962041E+02  0.10232439612E+02  0.38773053018E+02  0.20000012938E+01 0.  0.
        -13    1    3    3    0    0  0.13316807558E+02 -0.34889962041E+02  0.41510520613E+02  0.55837096095E+02  0.10566000000E+00 0.  1.
         13    1    4    4    0    0 -0.39086366537E+01  0.10529093957E+02  0.27866851041E+01  0.11572209727E+02  0.10566000000E+00 0. -1.
        -13    1    4    4    0    0 -0.83006075624E+01  0.19877857575E+02  0.59866393190E+01  0.22358003534E+02  0.10566000000E+00 0.  1.
        -14    1    4    4    0    0 -0.11075633416E+01  0.44830105085E+01  0.14591151884E+01  0.48428397566E+01  0.00000000000E+00 0.  1.
<mgrwt>
<rscale>  0 0.79206984E+02</rscale>
<asrwt>0</asrwt>
<pdfrwt beam="1">  1        2 0.11257931E-01 0.79206984E+02</pdfrwt>
<pdfrwt beam="2">  1       -1 0.32974761E-02 0.79206984E+02</pdfrwt>
<totfact> 0.16769203E+05</totfact>
</mgrwt>
</event>
<event>
 8    1  0.2389776E-016  0.8088969E+02  0.7818608E-02  0.1326545E+00
          2   -1    0    0  501    0  0.00000000000E+00  0.00000000000E+00  0.38554293342E+03  0.38554293343E+03  0.25500000000E-02 0. -1.
         -1   -1    0    0    0  501 -0.00000000000E+00 -0.00000000000E+00 -0.42428091962E+01  0.42428121897E+01  0.50400000000E-02 0.  1.
         24    2    1    2    0    0  0.35527136788E-14  0.88817841970E-15  0.38130012422E+03  0.38978574562E+03  0.80889694980E+02 0.  0.
         66    2    3    3    0    0 -0.18648072366E+02 -0.62675857772E+01  0.36091238869E+03  0.36145371147E+03  0.19999989166E+01 0.  0.
        -13    1    3    3    0    0  0.18648072366E+02  0.62675857772E+01  0.20387735538E+02  0.28332034146E+02  0.10566000000E+00 0.  1.
         13    1    4    4    0    0 -0.11263746725E+02 -0.45890713868E+01  0.21924327305E+03  0.21958040784E+03  0.10566000000E+00 0. -1.
        -13    1    4    4    0    0 -0.25740194069E+01 -0.23591195236E+00  0.48254403579E+02  0.48323698732E+02  0.10566000000E+00 0.  1.
         14    1    4    4    0    0 -0.48103062344E+01 -0.14426024381E+01  0.93414712056E+02  0.93549604897E+02  0.00000000000E+00 0. -1.
<mgrwt>
<rscale>  0 0.80889695E+02</rscale>
<asrwt>0</asrwt>
<pdfrwt beam="1">  1        2 0.59314329E-01 0.80889695E+02</pdfrwt>
<pdfrwt beam="2">  1       -1 0.65273977E-03 0.80889695E+02</pdfrwt>
<totfact> 0.27095685E+05</totfact>
</mgrwt>
</event>
<event>
 8    1  0.2389776E-016  0.8042118E+02  0.7818608E-02  0.1327860E+00
          2   -1    0    0  501    0  0.00000000000E+00  0.00000000000E+00  0.10565890585E+03  0.10565890588E+03  0.25500000000E-02 0. -1.
         -1   -1    0    0    0  501 -0.00000000000E+00 -0.00000000000E+00 -0.15302936520E+02  0.15302937350E+02  0.50400000000E-02 0.  1.
         24    2    1    2    0    0 -0.35527136788E-14  0.00000000000E+00  0.90355969334E+02  0.12096184323E+03  0.80421180819E+02 0.  0.
         66    2    3    3    0    0 -0.24339101671E+02  0.28020816553E+02  0.68377285290E+02  0.77826802411E+02  0.19999998466E+01 0.  0.
        -13    1    3    3    0    0  0.24339101671E+02 -0.28020816553E+02  0.21978684044E+02  0.43135040823E+02  0.10566000000E+00 0.  1.
         13    1    4    4    0    0 -0.11582425739E+02  0.12915163623E+02  0.32491571287E+02  0.36832966296E+02  0.10566000000E+00 0. -1.
        -13    1    4    4    0    0 -0.10891638863E+00  0.19221592022E+00  0.28085940588E+00  0.37263357494E+00  0.10566000000E+00 0. -1.
         14    1    4    4    0    0 -0.12647759543E+02  0.14913437010E+02  0.35604854597E+02  0.40621202540E+02  0.00000000000E+00 0. -1.
<mgrwt>
<rscale>  0 0.80421181E+02</rscale>
<asrwt>0</asrwt>
<pdfrwt beam="1">  1        2 0.16255216E-01 0.80421181E+02</pdfrwt>
<pdfrwt beam="2">  1       -1 0.23542980E-02 0.80421181E+02</pdfrwt>
<totfact> 0.17752725E+05</totfact>
</mgrwt>
</event>
<event>
 8    1  0.2389776E-016  0.7731087E+02  0.7818608E-02  0.1336861E+00
          2   -1    0    0  501    0  0.00000000000E+00  0.00000000000E+00  0.92996253198E+01  0.92996256694E+01  0.25500000000E-02 0. -1.
         -1   -1    0    0    0  501 -0.00000000000E+00 -0.00000000000E+00 -0.16067772637E+03  0.16067772645E+03  0.50400000000E-02 0.  1.
         24    2    1    2    0    0 -0.35527136788E-14  0.00000000000E+00 -0.15137810105E+03  0.16997735212E+03  0.77310870876E+02 0.  0.
         66    2    3    3    0    0 -0.10959715217E+02  0.35816294362E+02 -0.96518046289E+02  0.10355025620E+03  0.20000001319E+01 0.  0.
        -13    1    3    3    0    0  0.10959715217E+02 -0.35816294362E+02 -0.54860054760E+02  0.66427095915E+02  0.10566000000E+00 0.  1.
         13    1    4    4    0    0 -0.41176122815E+01  0.13822939116E+02 -0.37099641000E+02  0.39804810049E+02  0.10566000000E+00 0. -1.
        -13    1    4    4    0    0 -0.11253471669E+01  0.44219238029E+01 -0.13393375999E+02  0.14149682012E+02  0.10566000000E+00 0.  1.
        -14    1    4    4    0    0 -0.57167557688E+01  0.17571431444E+02 -0.46025029291E+02  0.49595764141E+02  0.00000000000E+00 0.  1.
<mgrwt>
<rscale>  0 0.77310871E+02</rscale>
<asrwt>0</asrwt>
<pdfrwt beam="1">  1        2 0.14307117E-02 0.77310871E+02</pdfrwt>
<pdfrwt beam="2">  1       -1 0.24719648E-01 0.77310871E+02</pdfrwt>
<totfact> 0.11554257E+05</totfact>
</mgrwt>
</event>
<event>
 8    1  0.2389776E-016  0.8005785E+02  0.7818608E-02  0.1328887E+00
         -1   -1    0    0    0  501 -0.00000000000E+00  0.00000000000E+00  0.26552668249E+02  0.26552668727E+02  0.50400000000E-02 0.  1.
          2   -1    0    0  501    0  0.00000000000E+00 -0.00000000000E+00 -0.60344773330E+02  0.60344773384E+02  0.25500000000E-02 0. -1.
         24    2    1    2    0    0  0.00000000000E+00  0.17763568394E-14 -0.33792105081E+02  0.86897442111E+02  0.80057848332E+02 0.  0.
         66    2    3    3    0    0 -0.30582535493E+02  0.10869644427E+02 -0.42289675750E+02  0.53346577465E+02  0.20000012642E+01 0.  0.
        -13    1    3    3    0    0  0.30582535493E+02 -0.10869644427E+02  0.84975706684E+01  0.33550864646E+02  0.10566000000E+00 0.  1.
         13    1    4    4    0    0 -0.76603538703E+01  0.23274880663E+01 -0.11611562520E+02  0.14104530134E+02  0.10566000000E+00 0.  1.
        -13    1    4    4    0    0 -0.62540228068E+01  0.25240306428E+01 -0.87735215921E+01  0.11066588323E+02  0.10566000000E+00 0. -1.
        -14    1    4    4    0    0 -0.16668158816E+02  0.60181257180E+01 -0.21904591638E+02  0.28175459008E+02  0.00000000000E+00 0.  1.
<mgrwt>
<rscale>  0 0.80057848E+02</rscale>
<asrwt>0</asrwt>
<pdfrwt beam="1">  1        2 0.92838113E-02 0.80057848E+02</pdfrwt>
<pdfrwt beam="2">  1       -1 0.40850260E-02 0.80057848E+02</pdfrwt>
<totfact> 0.15556209E+05</totfact>
</mgrwt>
</event>
<event>
 8    1  0.2389776E-016  0.7943073E+02  0.7818608E-02  0.1330675E+00
          2   -1    0    0  501    0  0.00000000000E+00  0.00000000000E+00  0.81017404599E+02  0.81017404639E+02  0.25500000000E-02 0. -1.
         -1   -1    0    0    0  501 -0.00000000000E+00 -0.00000000000E+00 -0.19468782754E+02  0.19468783406E+02  0.50400000000E-02 0.  1.
         24    2    1    2    0    0  0.00000000000E+00 -0.17763568394E-14  0.61548621845E+02  0.10048618805E+03  0.79430731690E+02 0.  0.
         66    2    3    3    0    0 -0.36463364469E+02  0.11167305963E+02  0.44710772237E+02  0.58799139525E+02  0.19999959846E+01 0.  0.
        -13    1    3    3    0    0  0.36463364469E+02 -0.11167305963E+02  0.16837849608E+02  0.41687048521E+02  0.10566000000E+00 0.  1.
         13    1    4    4    0    0 -0.17527578827E+02  0.53302981502E+01  0.20772528069E+02  0.27697241457E+02  0.10566000000E+00 0. -1.
        -13    1    4    4    0    0 -0.18945873460E+02  0.57943455203E+01  0.23875028299E+02  0.31024969000E+02  0.10566000000E+00 0.  1.
        -14    1    4    4    0    0  0.10087818018E-01  0.42662292771E-01  0.63215869126E-01  0.76929067368E-01  0.00000000000E+00 0.  1.
<mgrwt>
<rscale>  0 0.79430732E+02</rscale>
<asrwt>0</asrwt>
<pdfrwt beam="1">  1        2 0.12464216E-01 0.79430732E+02</pdfrwt>
<pdfrwt beam="2">  1       -1 0.29951974E-02 0.79430732E+02</pdfrwt>
<totfact> 0.17075398E+05</totfact>
</mgrwt>
</event>
<event>
 8    1  0.2389776E-016  0.7812276E+02  0.7818608E-02  0.1334465E+00
          2   -1    0    0  501    0  0.00000000000E+00  0.00000000000E+00  0.11553316596E+03  0.11553316599E+03  0.25500000000E-02 0. -1.
         -1   -1    0    0    0  501 -0.00000000000E+00 -0.00000000000E+00 -0.13206520718E+02  0.13206521679E+02  0.50400000000E-02 0.  1.
         24    2    1    2    0    0  0.00000000000E+00  0.35527136788E-14  0.10232664524E+03  0.12873968767E+03  0.78122755034E+02 0.  0.
         66    2    3    3    0    0 -0.83690707932E+01 -0.25081740533E+02  0.98519520322E+02  0.10202563859E+03  0.19999975782E+01 0.  0.
        -13    1    3    3    0    0  0.83690707932E+01  0.25081740533E+02  0.38071249196E+01  0.26714049081E+02  0.10566000000E+00 0.  1.
         13    1    4    4    0    0 -0.44135034647E+00 -0.78929427313E+00  0.37350349494E+01  0.38444018634E+01  0.10566000000E+00 0.  1.
        -13    1    4    4    0    0  0.39893930580E-01 -0.32666894902E+00  0.11970868390E+01  0.12459875856E+01  0.10566000000E+00 0. -1.
         14    1    4    4    0    0 -0.79676143773E+01 -0.23965777311E+02  0.93587398534E+02  0.96935249137E+02  0.00000000000E+00 0. -1.
<mgrwt>
<rscale>  0 0.78122755E+02</rscale>
<asrwt>0</asrwt>
<pdfrwt beam="1">  1        2 0.17774334E-01 0.78122755E+02</pdfrwt>
<pdfrwt beam="2">  1       -1 0.20317724E-02 0.78122755E+02</pdfrwt>
<totfact> 0.19684477E+05</totfact>
</mgrwt>
</event>
<event>
 8    1  0.2389776E-016  0.8005490E+02  0.7818608E-02  0.1328896E+00
         -1   -1    0    0    0  501 -0.00000000000E+00  0.00000000000E+00  0.14754340863E+03  0.14754340872E+03  0.50400000000E-02 0.  1.
          2   -1    0    0  501    0  0.00000000000E+00 -0.00000000000E+00 -0.10859156127E+02  0.10859156426E+02  0.25500000000E-02 0. -1.
         24    2    1    2    0    0  0.00000000000E+00  0.00000000000E+00  0.13668425251E+03  0.15840256515E+03  0.80054904668E+02 0.  0.
         66    2    3    3    0    0 -0.25880883810E+02  0.21380453186E+02  0.25340061355E+02  0.42107750160E+02  0.19999972119E+01 0.  0.
        -13    1    3    3    0    0  0.25880883810E+02 -0.21380453186E+02  0.11134419115E+03  0.11629481499E+03  0.10566000000E+00 0.  1.
         13    1    4    4    0    0 -0.80288922580E+01  0.69413515084E+01  0.78603348220E+01  0.13207630340E+02  0.10566000000E+00 0. -1.
        -13    1    4    4    0    0 -0.20933262766E+01  0.23773641129E+01  0.24644097093E+01  0.40147670264E+01  0.10566000000E+00 0.  1.
        -14    1    4    4    0    0 -0.15758665275E+02  0.12061737565E+02  0.15015316824E+02  0.24885352794E+02  0.00000000000E+00 0.  1.
<mgrwt>
<rscale>  0 0.80054905E+02</rscale>
<asrwt>0</asrwt>
<pdfrwt beam="1">  1        2 0.16706395E-02 0.80054905E+02</pdfrwt>
<pdfrwt beam="2">  1       -1 0.22698985E-01 0.80054905E+02</pdfrwt>
<totfact> 0.10813810E+05</totfact>
</mgrwt>
</event>
<event>
 8    1  0.2389776E-016  0.7798170E+02  0.7818608E-02  0.1334879E+00
         -1   -1    0    0    0  501 -0.00000000000E+00  0.00000000000E+00  0.61282483188E+00  0.61284555654E+00  0.50400000000E-02 0.  1.
          2   -1    0    0  501    0  0.00000000000E+00 -0.00000000000E+00 -0.24807423914E+04  0.24807423914E+04  0.25500000000E-02 0. -1.
         24    2    1    2    0    0  0.00000000000E+00  0.35527136788E-14 -0.24801295665E+04  0.24813552369E+04  0.77981696652E+02 0.  0.
         66    2    3    3    0    0  0.59149422081E+01 -0.12745156264E+02 -0.23973204705E+04  0.23973624807E+04  0.20000002163E+01 0.  0.
        -13    1    3    3    0    0 -0.59149422081E+01  0.12745156264E+02 -0.82809096066E+02  0.83992756264E+02  0.10566000000E+00 0.  1.
         13    1    4    4    0    0  0.59566523682E+01 -0.12196430141E+02 -0.22881318506E+04  0.22881721115E+04  0.10566000000E+00 0. -1.
        -13    1    4    4    0    0  0.75444264958E-01 -0.16069863025E+00 -0.44497114395E+02  0.44497593973E+02  0.10566000000E+00 0.  1.
         14    1    4    4    0    0 -0.11715442509E+00 -0.38802749259E+00 -0.64691505449E+02  0.64692775236E+02  0.00000000000E+00 0. -1.
<mgrwt>
<rscale>  0 0.77981697E+02</rscale>
<asrwt>0</asrwt>
<pdfrwt beam="1">  1        2 0.38164463E+00 0.77981697E+02</pdfrwt>
<pdfrwt beam="2">  1       -1 0.94284324E-04 0.77981697E+02</pdfrwt>
<totfact> 0.22722442E+05</totfact>
</mgrwt>
</event>
<event>
 8    1  0.2389776E-016  0.7269376E+02  0.7818608E-02  0.1351165E+00
          2   -1    0    0  501    0  0.00000000000E+00  0.00000000000E+00  0.97415080852E+02  0.97415080886E+02  0.25500000000E-02 0. -1.
         -1   -1    0    0    0  501 -0.00000000000E+00 -0.00000000000E+00 -0.13561512042E+02  0.13561512979E+02  0.50400000000E-02 0.  1.
         24    2    1    2    0    0  0.00000000000E+00  0.35527136788E-14  0.83853568810E+02  0.11097659386E+03  0.72693764407E+02 0.  0.
         66    2    3    3    0    0  0.27550700721E+02  0.16181580861E+02  0.68321301268E+02  0.75449883231E+02  0.20000008021E+01 0.  0.
        -13    1    3    3    0    0 -0.27550700721E+02 -0.16181580861E+02  0.15532267542E+02  0.35526710633E+02  0.10566000000E+00 0.  1.
         13    1    4    4    0    0  0.10011769747E+02  0.61230596909E+01  0.25782021160E+02  0.28327569126E+02  0.10566000000E+00 0. -1.
        -13    1    4    4    0    0  0.16140799176E+02  0.88073742900E+01  0.38955885593E+02  0.43077458447E+02  0.10566000000E+00 0.  1.
        -14    1    4    4    0    0  0.13981317983E+01  0.12511468804E+01  0.35833945158E+01  0.40448556584E+01  0.00000000000E+00 0.  1.
<mgrwt>
<rscale>  0 0.72693764E+02</rscale>
<asrwt>0</asrwt>
<pdfrwt beam="1">  1        2 0.14986937E-01 0.72693764E+02</pdfrwt>
<pdfrwt beam="2">  1       -1 0.20863864E-02 0.72693764E+02</pdfrwt>
<totfact> 0.22710159E+05</totfact>
</mgrwt>
</event>
<event>
 8    1  0.2389776E-016  0.7673114E+02  0.7818608E-02  0.1338593E+00
          2   -1    0    0  501    0  0.00000000000E+00  0.00000000000E+00  0.62870118083E+03  0.62870118084E+03  0.25500000000E-02 0. -1.
         -1   -1    0    0    0  501 -0.00000000000E+00 -0.00000000000E+00 -0.23411998677E+01  0.23412052926E+01  0.50400000000E-02 0.  1.
         24    2    1    2    0    0  0.00000000000E+00  0.00000000000E+00  0.62635998097E+03  0.63104238613E+03  0.76731136697E+02 0.  0.
         66    2    3    3    0    0 -0.50160917745E+01  0.21364316097E+02  0.57193647246E+03  0.57236083349E+03  0.19999992648E+01 0.  0.
        -13    1    3    3    0    0  0.50160917745E+01 -0.21364316097E+02  0.54423508502E+02  0.58681552644E+02  0.10566000000E+00 0.  1.
         13    1    4    4    0    0 -0.15652596567E+01  0.96138032968E+01  0.25139973847E+03  0.25158838391E+03  0.10566000000E+00 0. -1.
        -13    1    4    4    0    0 -0.13726284700E+01  0.64788111026E+01  0.17728294262E+03  0.17740662899E+03  0.10566000000E+00 0.  1.
        -14    1    4    4    0    0 -0.20782036478E+01  0.52717016978E+01  0.14325379137E+03  0.14336582058E+03  0.00000000000E+00 0.  1.
<mgrwt>
<rscale>  0 0.76731137E+02</rscale>
<asrwt>0</asrwt>
<pdfrwt beam="1">  1        2 0.96723182E-01 0.76731137E+02</pdfrwt>
<pdfrwt beam="2">  1       -1 0.36018530E-03 0.76731137E+02</pdfrwt>
<totfact> 0.36300190E+05</totfact>
</mgrwt>
</event>
<event>
 8    1  0.2389776E-016  0.7797034E+02  0.7818608E-02  0.1334912E+00
          2   -1    0    0  501    0  0.00000000000E+00  0.00000000000E+00  0.12480839279E+03  0.12480839282E+03  0.25500000000E-02 0. -1.
         -1   -1    0    0    0  501 -0.00000000000E+00 -0.00000000000E+00 -0.12177413124E+02  0.12177414167E+02  0.50400000000E-02 0.  1.
         24    2    1    2    0    0  0.00000000000E+00 -0.35527136788E-14  0.11263097967E+03  0.13698580699E+03  0.77970338812E+02 0.  0.
         66    2    3    3    0    0 -0.75701579886E+01  0.31610161680E+02  0.94088058891E+02  0.99564413527E+02  0.20000004553E+01 0.  0.
        -13    1    3    3    0    0  0.75701579886E+01 -0.31610161680E+02  0.18542920779E+02  0.37421393459E+02  0.10566000000E+00 0.  1.
         13    1    4    4    0    0 -0.15184582366E+01  0.85215189028E+01  0.26194201791E+02  0.27587485774E+02  0.10566000000E+00 0. -1.
        -13    1    4    4    0    0 -0.21814427016E+01  0.93416599512E+01  0.28834683989E+02  0.30388739159E+02  0.10566000000E+00 0.  1.
        -14    1    4    4    0    0 -0.38702570504E+01  0.13746982826E+02  0.39059173111E+02  0.41588188594E+02  0.00000000000E+00 0.  1.
<mgrwt>
<rscale>  0 0.77970339E+02</rscale>
<asrwt>0</asrwt>
<pdfrwt beam="1">  1        2 0.19201290E-01 0.77970339E+02</pdfrwt>
<pdfrwt beam="2">  1       -1 0.18734484E-02 0.77970339E+02</pdfrwt>
<totfact> 0.20247176E+05</totfact>
</mgrwt>
</event>
<event>
 8    1  0.2389776E-016  0.7949341E+02  0.7818608E-02  0.1330495E+00
         -1   -1    0    0    0  501 -0.00000000000E+00  0.00000000000E+00  0.29138587903E+03  0.29138587908E+03  0.50400000000E-02 0.  1.
          2   -1    0    0  501    0  0.00000000000E+00 -0.00000000000E+00 -0.54216782313E+01  0.54216788310E+01  0.25500000000E-02 0. -1.
         24    2    1    2    0    0 -0.17763568394E-14  0.00000000000E+00  0.28596420080E+03  0.29680755791E+03  0.79493410362E+02 0.  0.
         66    2    3    3    0    0  0.11353316856E+02 -0.35089366620E+02  0.87990649597E+02  0.95428066415E+02  0.19999974154E+01 0.  0.
        -13    1    3    3    0    0 -0.11353316856E+02  0.35089366620E+02  0.19797355120E+03  0.20137949149E+03  0.10566000000E+00 0.  1.
         13    1    4    4    0    0  0.27030896121E+01 -0.84760843368E+01  0.20327180339E+02  0.22189099209E+02  0.10566000000E+00 0. -1.
        -13    1    4    4    0    0  0.56621351557E+00 -0.10262888146E+01  0.23538986943E+01  0.26317046899E+01  0.10566000000E+00 0.  1.
        -14    1    4    4    0    0  0.80840137282E+01 -0.25586993469E+02  0.65309570564E+02  0.70607262516E+02  0.00000000000E+00 0.  1.
<mgrwt>
<rscale>  0 0.79493410E+02</rscale>
<asrwt>0</asrwt>
<pdfrwt beam="1">  1        2 0.83410458E-03 0.79493410E+02</pdfrwt>
<pdfrwt beam="2">  1       -1 0.44828587E-01 0.79493410E+02</pdfrwt>
<totfact> 0.88883001E+04</totfact>
</mgrwt>
</event>
<event>
 8    1  0.2389776E-016  0.7925810E+02  0.7818608E-02  0.1331170E+00
          2   -1    0    0  501    0  0.00000000000E+00  0.00000000000E+00  0.46882064826E+03  0.46882064826E+03  0.25500000000E-02 0. -1.
         -1   -1    0    0    0  501 -0.00000000000E+00 -0.00000000000E+00 -0.33498109881E+01  0.33498147796E+01  0.50400000000E-02 0.  1.
         24    2    1    2    0    0  0.00000000000E+00  0.00000000000E+00  0.46547083727E+03  0.47217046304E+03  0.79258096261E+02 0.  0.
         66    2    3    3    0    0 -0.20095108011E+02 -0.23626306762E+02  0.37958970665E+03  0.38086002828E+03  0.20000013757E+01 0.  0.
        -13    1    3    3    0    0  0.20095108011E+02  0.23626306762E+02  0.85881130615E+02  0.91310434765E+02  0.10566000000E+00 0.  1.
         13    1    4    4    0    0 -0.71823790969E+01 -0.70722279860E+01  0.12409368912E+03  0.12450244103E+03  0.10566000000E+00 0. -1.
        -13    1    4    4    0    0 -0.69839532057E+01 -0.88361116978E+01  0.13964092736E+03  0.14009444040E+03  0.10566000000E+00 0.  1.
         14    1    4    4    0    0 -0.59287757087E+01 -0.77179670786E+01  0.11585509017E+03  0.11626314685E+03  0.00000000000E+00 0. -1.
<mgrwt>
<rscale>  0 0.79258096E+02</rscale>
<asrwt>0</asrwt>
<pdfrwt beam="1">  1        2 0.72126248E-01 0.79258096E+02</pdfrwt>
<pdfrwt beam="2">  1       -1 0.51535587E-03 0.79258096E+02</pdfrwt>
<totfact> 0.30555335E+05</totfact>
</mgrwt>
</event>
<event>
 8    1  0.2389776E-016  0.8275473E+02  0.7818608E-02  0.1321411E+00
         -1   -1    0    0    0  501 -0.00000000000E+00  0.00000000000E+00  0.90382730759E+01  0.90382744811E+01  0.50400000000E-02 0.  1.
          2   -1    0    0  501    0  0.00000000000E+00 -0.00000000000E+00 -0.18942625947E+03  0.18942625949E+03  0.25500000000E-02 0. -1.
         24    2    1    2    0    0  0.00000000000E+00  0.35527136788E-14 -0.18038798640E+03  0.19846453397E+03  0.82754731635E+02 0.  0.
         66    2    3    3    0    0 -0.35523685290E+02 -0.21091337464E+02 -0.94606200642E+02  0.10325265097E+03  0.20000001030E+01 0.  0.
        -13    1    3    3    0    0  0.35523685290E+02  0.21091337464E+02 -0.85781785753E+02  0.95211882996E+02  0.10566000000E+00 0.  1.
         13    1    4    4    0    0 -0.13702071448E+02 -0.88467811145E+01 -0.35921950031E+02  0.39451361905E+02  0.10566000000E+00 0. -1.
        -13    1    4    4    0    0 -0.20114643312E+02 -0.11459099128E+02 -0.53890002026E+02  0.58651967663E+02  0.10566000000E+00 0.  1.
         14    1    4    4    0    0 -0.17069705307E+01 -0.78545722186E+00 -0.47942485855E+01  0.51493214058E+01  0.00000000000E+00 0. -1.
<mgrwt>
<rscale>  0 0.82754732E+02</rscale>
<asrwt>0</asrwt>
<pdfrwt beam="1">  1        2 0.29142498E-01 0.82754732E+02</pdfrwt>
<pdfrwt beam="2">  1       -1 0.13905038E-02 0.82754732E+02</pdfrwt>
<totfact> 0.19793679E+05</totfact>
</mgrwt>
</event>
<event>
 8    1  0.2389776E-016  0.8082945E+02  0.7818608E-02  0.1326714E+00
          2   -1    0    0  501    0  0.00000000000E+00  0.00000000000E+00  0.14462833173E+03  0.14462833175E+03  0.25500000000E-02 0. -1.
         -1   -1    0    0    0  501 -0.00000000000E+00 -0.00000000000E+00 -0.11293429058E+02  0.11293430182E+02  0.50400000000E-02 0.  1.
         24    2    1    2    0    0 -0.17763568394E-14 -0.71054273576E-14  0.13333490267E+03  0.15592176193E+03  0.80829447443E+02 0.  0.
         66    2    3    3    0    0  0.10844200017E+02  0.38225004834E+02  0.80698182223E+02  0.89971908467E+02  0.20000076424E+01 0.  0.
        -13    1    3    3    0    0 -0.10844200017E+02 -0.38225004834E+02  0.52636720445E+02  0.65949853463E+02  0.10566000000E+00 0.  1.
         13    1    4    4    0    0  0.86767322942E+00  0.37318113249E+01  0.88229706721E+01  0.96195243185E+01  0.10566000000E+00 0. -1.
        -13    1    4    4    0    0  0.27974258740E+01  0.11367926632E+02  0.23763054502E+02  0.26490550593E+02  0.10566000000E+00 0.  1.
         14    1    4    4    0    0  0.71791009133E+01  0.23125266877E+02  0.48112157049E+02  0.53861833556E+02  0.00000000000E+00 0. -1.
<mgrwt>
<rscale>  0 0.80829447E+02</rscale>
<asrwt>0</asrwt>
<pdfrwt beam="1">  1        2 0.22250512E-01 0.80829447E+02</pdfrwt>
<pdfrwt beam="2">  1       -1 0.17374508E-02 0.80829447E+02</pdfrwt>
<totfact> 0.19262088E+05</totfact>
</mgrwt>
</event>
<event>
 8    1  0.2389776E-016  0.8031484E+02  0.7818608E-02  0.1328160E+00
          2   -1    0    0  501    0  0.00000000000E+00  0.00000000000E+00  0.10888837738E+04  0.10888837738E+04  0.25500000000E-02 0. -1.
         -1   -1    0    0    0  501 -0.00000000000E+00 -0.00000000000E+00 -0.14809788576E+01  0.14809874336E+01  0.50400000000E-02 0.  1.
         24    2    1    2    0    0  0.00000000000E+00 -0.35527136788E-14  0.10874027949E+04  0.10903647612E+04  0.80314843572E+02 0.  0.
         66    2    3    3    0    0 -0.13161247460E+02  0.26606439977E+02  0.91071691481E+03  0.91120273265E+03  0.19999989580E+01 0.  0.
        -13    1    3    3    0    0  0.13161247460E+02 -0.26606439977E+02  0.17668588014E+03  0.17916202859E+03  0.10566000000E+00 0.  1.
         13    1    4    4    0    0 -0.22328923382E+01  0.39015678010E+01  0.15671128384E+03  0.15677578156E+03  0.10566000000E+00 0. -1.
        -13    1    4    4    0    0 -0.79223720249E+00  0.20693846849E+01  0.64581070291E+02  0.64619159673E+02  0.10566000000E+00 0.  1.
         14    1    4    4    0    0 -0.10136117919E+02  0.20635487491E+02  0.68942456068E+03  0.68980779142E+03  0.00000000000E+00 0. -1.
<mgrwt>
<rscale>  0 0.80314844E+02</rscale>
<asrwt>0</asrwt>
<pdfrwt beam="1">  1        2 0.16752130E+00 0.80314844E+02</pdfrwt>
<pdfrwt beam="2">  1       -1 0.22784258E-03 0.80314844E+02</pdfrwt>
<totfact> 0.34903887E+05</totfact>
</mgrwt>
</event>
<event>
 8    1  0.2389776E-016  0.7714568E+02  0.7818608E-02  0.1337352E+00
          2   -1    0    0  501    0  0.00000000000E+00  0.00000000000E+00  0.16116019900E+03  0.16116019902E+03  0.25500000000E-02 0. -1.
         -1   -1    0    0    0  501 -0.00000000000E+00 -0.00000000000E+00 -0.92322035402E+01  0.92322049159E+01  0.50400000000E-02 0.  1.
         24    2    1    2    0    0  0.00000000000E+00  0.00000000000E+00  0.15192799546E+03  0.17039240394E+03  0.77145677227E+02 0.  0.
         66    2    3    3    0    0  0.16167833819E+02  0.50802812551E+01  0.15248383589E+03  0.15343574652E+03  0.19999986331E+01 0.  0.
        -13    1    3    3    0    0 -0.16167833819E+02 -0.50802812551E+01 -0.55584043192E+00  0.16956657414E+02  0.10566000000E+00 0.  1.
         13    1    4    4    0    0  0.24440221984E+01  0.92708792227E+00  0.20299762134E+02  0.20467638927E+02  0.10566000000E+00 0.  1.
        -13    1    4    4    0    0  0.83059095758E+01  0.30228308764E+01  0.76127908922E+02  0.76639384923E+02  0.10566000000E+00 0.  1.
         14    1    4    4    0    0  0.54179020448E+01  0.11303624565E+01  0.56056164838E+02  0.56328722675E+02  0.00000000000E+00 0. -1.
<mgrwt>
<rscale>  0 0.77145677E+02</rscale>
<asrwt>0</asrwt>
<pdfrwt beam="1">  1        2 0.24793875E-01 0.77145677E+02</pdfrwt>
<pdfrwt beam="2">  1       -1 0.14203392E-02 0.77145677E+02</pdfrwt>
<totfact> 0.22571119E+05</totfact>
</mgrwt>
</event>
<event>
 8    1  0.2389776E-016  0.7961345E+02  0.7818608E-02  0.1330152E+00
          2   -1    0    0  501    0  0.00000000000E+00  0.00000000000E+00  0.15605675102E+03  0.15605675104E+03  0.25500000000E-02 0. -1.
         -1   -1    0    0    0  501 -0.00000000000E+00 -0.00000000000E+00 -0.10153838566E+02  0.10153839817E+02  0.50400000000E-02 0.  1.
         24    2    1    2    0    0  0.35527136788E-14  0.00000000000E+00  0.14590291245E+03  0.16621059085E+03  0.79613445162E+02 0.  0.
         66    2    3    3    0    0  0.30479410622E+02  0.12004373465E+01  0.12631132444E+03  0.12995763226E+03  0.19999952051E+01 0.  0.
        -13    1    3    3    0    0 -0.30479410622E+02 -0.12004373465E+01  0.19591588015E+02  0.36252958592E+02  0.10566000000E+00 0.  1.
         13    1    4    4    0    0  0.38081786263E+01  0.54499899033E+00  0.16451562831E+02  0.16895689745E+02  0.10566000000E+00 0. -1.
        -13    1    4    4    0    0  0.13680963046E+01  0.33219517851E+00  0.56256777052E+01  0.58001254136E+01  0.10566000000E+00 0.  1.
        -14    1    4    4    0    0  0.25303135691E+02  0.32324317765E+00  0.10423408390E+03  0.10726181710E+03  0.00000000000E+00 0.  1.
<mgrwt>
<rscale>  0 0.79613445E+02</rscale>
<asrwt>0</asrwt>
<pdfrwt beam="1">  1        2 0.24008729E-01 0.79613445E+02</pdfrwt>
<pdfrwt beam="2">  1       -1 0.15621292E-02 0.79613445E+02</pdfrwt>
<totfact> 0.20550773E+05</totfact>
</mgrwt>
</event>
<event>
 8    1  0.2389776E-016  0.8129530E+02  0.7818608E-02  0.1325415E+00
         -1   -1    0    0    0  501 -0.00000000000E+00  0.00000000000E+00  0.21738423569E+01  0.21738481995E+01  0.50400000000E-02 0.  1.
          2   -1    0    0  501    0  0.00000000000E+00 -0.00000000000E+00 -0.76005020838E+03  0.76005020839E+03  0.25500000000E-02 0. -1.
         24    2    1    2    0    0  0.00000000000E+00  0.00000000000E+00 -0.75787636603E+03  0.76222405659E+03  0.81295302809E+02 0.  0.
         66    2    3    3    0    0 -0.32868918266E+02 -0.20640425021E+01 -0.60215007050E+03  0.60305334213E+03  0.19999968492E+01 0.  0.
        -13    1    3    3    0    0  0.32868918266E+02  0.20640425021E+01 -0.15572629552E+03  0.15917071446E+03  0.10566000000E+00 0.  1.
         13    1    4    4    0    0 -0.16226509921E+02 -0.13109167308E+01 -0.31397532355E+03  0.31439709460E+03  0.10566000000E+00 0. -1.
        -13    1    4    4    0    0 -0.14204643792E+02 -0.67283026430E+00 -0.24856660678E+03  0.24897307842E+03  0.10566000000E+00 0.  1.
         14    1    4    4    0    0 -0.24377645540E+01 -0.80295507043E-01 -0.39608140168E+02  0.39683169115E+02  0.00000000000E+00 0. -1.
<mgrwt>
<rscale>  0 0.81295303E+02</rscale>
<asrwt>0</asrwt>
<pdfrwt beam="1">  1        2 0.11693059E+00 0.81295303E+02</pdfrwt>
<pdfrwt beam="2">  1       -1 0.33443834E-03 0.81295303E+02</pdfrwt>
<totfact> 0.32650091E+05</totfact>
</mgrwt>
</event>
<event>
 8    1  0.2389776E-016  0.8932853E+02  0.7818608E-02  0.1304486E+00
         -1   -1    0    0    0  501 -0.00000000000E+00  0.00000000000E+00  0.73125392332E+01  0.73125409700E+01  0.50400000000E-02 0.  1.
          2   -1    0    0  501    0  0.00000000000E+00 -0.00000000000E+00 -0.27280484181E+03  0.27280484183E+03  0.25500000000E-02 0. -1.
         24    2    1    2    0    0  0.00000000000E+00  0.00000000000E+00 -0.26549230258E+03  0.28011738280E+03  0.89328525202E+02 0.  0.
         66    2    3    3    0    0  0.25182727539E+02 -0.33098264901E+02 -0.18368869918E+03  0.18834862123E+03  0.20000018477E+01 0.  0.
        -13    1    3    3    0    0 -0.25182727539E+02  0.33098264901E+02 -0.81803603400E+02  0.91768761564E+02  0.10566000000E+00 0.  1.
         13    1    4    4    0    0  0.89014363197E+01 -0.11470394374E+02 -0.61743311982E+02  0.63427543340E+02  0.10566000000E+00 0. -1.
        -13    1    4    4    0    0  0.13128483690E+02 -0.17989617345E+02 -0.98462725859E+02  0.10095000230E+03  0.10566000000E+00 0.  1.
        -14    1    4    4    0    0  0.31528075289E+01 -0.36382531818E+01 -0.23482661340E+02  0.23971075594E+02  0.00000000000E+00 0.  1.
<mgrwt>
<rscale>  0 0.89328525E+02</rscale>
<asrwt>0</asrwt>
<pdfrwt beam="1">  1        2 0.41969968E-01 0.89328525E+02</pdfrwt>
<pdfrwt beam="2">  1       -1 0.11250064E-02 0.89328525E+02</pdfrwt>
<totfact> 0.18409428E+05</totfact>
</mgrwt>
</event>
<event>
 8    1  0.2389776E-016  0.8748595E+02  0.7818608E-02  0.1309057E+00
         -1   -1    0    0    0  501 -0.00000000000E+00  0.00000000000E+00  0.87163660718E+01  0.87163675289E+01  0.50400000000E-02 0.  1.
          2   -1    0    0  501    0  0.00000000000E+00 -0.00000000000E+00 -0.21952354040E+03  0.21952354042E+03  0.25500000000E-02 0. -1.
         24    2    1    2    0    0 -0.35527136788E-14  0.00000000000E+00 -0.21080717433E+03  0.22823990795E+03  0.87485946472E+02 0.  0.
         66    2    3    3    0    0  0.26721270835E+02 -0.34355365410E+02 -0.94662314334E+02  0.10420782695E+03  0.19999989939E+01 0.  0.
        -13    1    3    3    0    0 -0.26721270835E+02  0.34355365410E+02 -0.11614486000E+03  0.12403208099E+03  0.10566000000E+00 0.  1.
         13    1    4    4    0    0  0.13260024341E+02 -0.17732913677E+02 -0.48123471143E+02  0.52973239583E+02  0.10566000000E+00 0. -1.
        -13    1    4    4    0    0  0.59969411132E+01 -0.64283413895E+01 -0.18936928272E+02  0.20878345053E+02  0.10566000000E+00 0.  1.
        -14    1    4    4    0    0  0.74643053811E+01 -0.10194110343E+02 -0.27601914918E+02  0.30356242318E+02  0.00000000000E+00 0.  1.
<mgrwt>
<rscale>  0 0.87485946E+02</rscale>
<asrwt>0</asrwt>
<pdfrwt beam="1">  1        2 0.33772848E-01 0.87485946E+02</pdfrwt>
<pdfrwt beam="2">  1       -1 0.13409797E-02 0.87485946E+02</pdfrwt>
<totfact> 0.17985614E+05</totfact>
</mgrwt>
</event>
<event>
 8    1  0.2389776E-016  0.7869196E+02  0.7818608E-02  0.1332805E+00
         -1   -1    0    0    0  501 -0.00000000000E+00  0.00000000000E+00  0.19357318839E+03  0.19357318846E+03  0.50400000000E-02 0.  1.
          2   -1    0    0  501    0  0.00000000000E+00 -0.00000000000E+00 -0.79975241143E+01  0.79975245209E+01  0.25500000000E-02 0. -1.
         24    2    1    2    0    0  0.00000000000E+00  0.35527136788E-14  0.18557566428E+03  0.20157071298E+03  0.78691963749E+02 0.  0.
         66    2    3    3    0    0  0.27343397467E+02  0.26020590345E+02  0.12106718843E+03  0.12683058235E+03  0.19999991345E+01 0.  0.
        -13    1    3    3    0    0 -0.27343397467E+02 -0.26020590345E+02  0.64508475848E+02  0.74740130634E+02  0.10566000000E+00 0.  1.
         13    1    4    4    0    0  0.50746346870E+01  0.44248503478E+01  0.20134071143E+02  0.21230242642E+02  0.10566000000E+00 0. -1.
        -13    1    4    4    0    0  0.14159361753E+02  0.14402349234E+02  0.64388475836E+02  0.67481865514E+02  0.10566000000E+00 0.  1.
        -14    1    4    4    0    0  0.81094010272E+01  0.71933907631E+01  0.36544641454E+02  0.38118474191E+02  0.00000000000E+00 0.  1.
<mgrwt>
<rscale>  0 0.78691964E+02</rscale>
<asrwt>0</asrwt>
<pdfrwt beam="1">  1        2 0.12303884E-02 0.78691964E+02</pdfrwt>
<pdfrwt beam="2">  1       -1 0.29780490E-01 0.78691964E+02</pdfrwt>
<totfact> 0.10488879E+05</totfact>
</mgrwt>
</event>
<event>
 8    1  0.2389776E-016  0.7979774E+02  0.7818608E-02  0.1329626E+00
          2   -1    0    0  501    0  0.00000000000E+00  0.00000000000E+00  0.55606821798E+02  0.55606821857E+02  0.25500000000E-02 0. -1.
         -1   -1    0    0    0  501 -0.00000000000E+00 -0.00000000000E+00 -0.28628136261E+02  0.28628136704E+02  0.50400000000E-02 0.  1.
         24    2    1    2    0    0  0.35527136788E-14  0.00000000000E+00  0.26978685538E+02  0.84234958561E+02  0.79797736625E+02 0.  0.
         66    2    3    3    0    0 -0.24774688659E+02  0.38201824208E+01  0.46230694668E+02  0.52627522545E+02  0.20000019657E+01 0.  0.
        -13    1    3    3    0    0  0.24774688659E+02 -0.38201824208E+01 -0.19252009131E+02  0.31607436016E+02  0.10566000000E+00 0.  1.
         13    1    4    4    0    0 -0.16463566454E+01  0.23471199312E+00  0.26010197456E+01  0.30890205044E+01  0.10566000000E+00 0. -1.
        -13    1    4    4    0    0 -0.18399409476E+01 -0.35002194208E-01  0.28461591202E+01  0.33909281351E+01  0.10566000000E+00 0.  1.
         14    1    4    4    0    0 -0.21288391066E+02  0.36204726219E+01  0.40783515802E+02  0.46147573906E+02  0.00000000000E+00 0. -1.
<mgrwt>
<rscale>  0 0.79797737E+02</rscale>
<asrwt>0</asrwt>
<pdfrwt beam="1">  1        2 0.85548956E-02 0.79797737E+02</pdfrwt>
<pdfrwt beam="2">  1       -1 0.44043287E-02 0.79797737E+02</pdfrwt>
<totfact> 0.15404662E+05</totfact>
</mgrwt>
</event>
<event>
 8    1  0.2389776E-016  0.8188550E+02  0.7818608E-02  0.1323784E+00
          2   -1    0    0  501    0  0.00000000000E+00  0.00000000000E+00  0.41534136079E+02  0.41534136157E+02  0.25500000000E-02 0. -1.
         -1   -1    0    0    0  501 -0.00000000000E+00 -0.00000000000E+00 -0.40359780936E+02  0.40359781250E+02  0.50400000000E-02 0.  1.
         24    2    1    2    0    0  0.00000000000E+00  0.00000000000E+00  0.11743551435E+01  0.81893917407E+02  0.81885496874E+02 0.  0.
         66    2    3    3    0    0 -0.14157300183E+02 -0.71792951949E+01  0.38305225245E+02  0.41512187548E+02  0.20000014919E+01 0.  0.
        -13    1    3    3    0    0  0.14157300183E+02  0.71792951949E+01 -0.37130870101E+02  0.40381729860E+02  0.10566000000E+00 0.  1.
         13    1    4    4    0    0 -0.38161678615E+01 -0.14411470009E+01  0.98326053828E+01  0.10645719068E+02  0.10566000000E+00 0. -1.
        -13    1    4    4    0    0 -0.34043718836E+00 -0.78780513244E-01  0.45070897853E+00  0.58000557533E+00  0.10566000000E+00 0. -1.
         14    1    4    4    0    0 -0.10000695133E+02 -0.56593676808E+01  0.28021910884E+02  0.30286462904E+02  0.00000000000E+00 0. -1.
<mgrwt>
<rscale>  0 0.81885497E+02</rscale>
<asrwt>0</asrwt>
<pdfrwt beam="1">  1        2 0.63898671E-02 0.81885497E+02</pdfrwt>
<pdfrwt beam="2">  1       -1 0.62091971E-02 0.81885497E+02</pdfrwt>
<totfact> 0.13470233E+05</totfact>
</mgrwt>
</event>
<event>
 8    1  0.2389776E-016  0.8037368E+02  0.7818608E-02  0.1327994E+00
          2   -1    0    0  501    0  0.00000000000E+00  0.00000000000E+00  0.33158554881E+02  0.33158554979E+02  0.25500000000E-02 0. -1.
         -1   -1    0    0    0  501 -0.00000000000E+00 -0.00000000000E+00 -0.48704845447E+02  0.48704845708E+02  0.50400000000E-02 0.  1.
         24    2    1    2    0    0 -0.35527136788E-14  0.00000000000E+00 -0.15546290566E+02  0.81863400687E+02  0.80373684883E+02 0.  0.
         66    2    3    3    0    0 -0.17545925290E+02  0.31063018647E+02  0.11008618330E+02  0.37389307416E+02  0.20000024532E+01 0.  0.
        -13    1    3    3    0    0  0.17545925290E+02 -0.31063018647E+02 -0.26554908896E+02  0.44474093270E+02  0.10566000000E+00 0.  1.
         13    1    4    4    0    0 -0.11564166159E+02  0.19620200264E+02  0.75950647393E+01  0.24007881409E+02  0.10566000000E+00 0. -1.
        -13    1    4    4    0    0 -0.89362819636E+00  0.12169491814E+01  0.30138034144E+00  0.15432209205E+01  0.10566000000E+00 0.  1.
         14    1    4    4    0    0 -0.50881309345E+01  0.10225869202E+02  0.31121732492E+01  0.11838205087E+02  0.00000000000E+00 0. -1.
<mgrwt>
<rscale>  0 0.80373685E+02</rscale>
<asrwt>0</asrwt>
<pdfrwt beam="1">  1        2 0.51013161E-02 0.80373685E+02</pdfrwt>
<pdfrwt beam="2">  1       -1 0.74930532E-02 0.80373685E+02</pdfrwt>
<totfact> 0.13547599E+05</totfact>
</mgrwt>
</event>
<event>
 8    1  0.2389776E-016  0.8033766E+02  0.7818608E-02  0.1328096E+00
          2   -1    0    0  501    0  0.00000000000E+00  0.00000000000E+00  0.21059506239E+03  0.21059506240E+03  0.25500000000E-02 0. -1.
         -1   -1    0    0    0  501 -0.00000000000E+00 -0.00000000000E+00 -0.76617884853E+01  0.76617901429E+01  0.50400000000E-02 0.  1.
         24    2    1    2    0    0  0.00000000000E+00 -0.71054273576E-14  0.20293327390E+03  0.21825685254E+03  0.80337662565E+02 0.  0.
         66    2    3    3    0    0 -0.40153771715E+01 -0.36286933219E+02  0.14688068528E+03  0.15136314109E+03  0.19999994465E+01 0.  0.
        -13    1    3    3    0    0  0.40153771715E+01  0.36286933219E+02  0.56052588621E+02  0.66893711449E+02  0.10566000000E+00 0.  1.
         13    1    4    4    0    0 -0.12675511228E+01 -0.96271059209E+01  0.35864243093E+02  0.37155658398E+02  0.10566000000E+00 0.  1.
        -13    1    4    4    0    0 -0.13128468784E+01 -0.15204770590E+02  0.63938208472E+02  0.65734422354E+02  0.10566000000E+00 0. -1.
         14    1    4    4    0    0 -0.14349791704E+01 -0.11455056708E+02  0.47078233713E+02  0.48473060343E+02  0.00000000000E+00 0. -1.
<mgrwt>
<rscale>  0 0.80337663E+02</rscale>
<asrwt>0</asrwt>
<pdfrwt beam="1">  1        2 0.32399238E-01 0.80337663E+02</pdfrwt>
<pdfrwt beam="2">  1       -1 0.11787369E-02 0.80337663E+02</pdfrwt>
<totfact> 0.22211381E+05</totfact>
</mgrwt>
</event>
<event>
 8    1  0.2389776E-016  0.7705575E+02  0.7818608E-02  0.1337621E+00
          2   -1    0    0  501    0  0.00000000000E+00  0.00000000000E+00  0.47463151226E+03  0.47463151227E+03  0.25500000000E-02 0. -1.
         -1   -1    0    0    0  501 -0.00000000000E+00 -0.00000000000E+00 -0.31274704693E+01  0.31274745304E+01  0.50400000000E-02 0.  1.
         24    2    1    2    0    0 -0.88817841970E-15  0.35527136788E-14  0.47150404179E+03  0.47775898680E+03  0.77055746318E+02 0.  0.
         66    2    3    3    0    0  0.57965012517E+01 -0.28554684211E+02  0.39195567827E+03  0.39304226637E+03  0.20000019334E+01 0.  0.
        -13    1    3    3    0    0 -0.57965012517E+01  0.28554684211E+02  0.79548363522E+02  0.84716720429E+02  0.10566000000E+00 0.  1.
         13    1    4    4    0    0  0.26262864527E+01 -0.13316246807E+02  0.17668982338E+03  0.17721039659E+03  0.10566000000E+00 0. -1.
        -13    1    4    4    0    0  0.11478823369E+01 -0.44749903187E+01  0.56426704885E+02  0.56615610572E+02  0.10566000000E+00 0.  1.
        -14    1    4    4    0    0  0.20223324622E+01 -0.10763447085E+02  0.15883915001E+03  0.15921625921E+03  0.00000000000E+00 0.  1.
<mgrwt>
<rscale>  0 0.77055746E+02</rscale>
<asrwt>0</asrwt>
<pdfrwt beam="1">  1        2 0.73020255E-01 0.77055746E+02</pdfrwt>
<pdfrwt beam="2">  1       -1 0.48114947E-03 0.77055746E+02</pdfrwt>
<totfact> 0.33012796E+05</totfact>
</mgrwt>
</event>
<event>
 8    1  0.2389776E-016  0.8018326E+02  0.7818608E-02  0.1328532E+00
          2   -1    0    0  501    0  0.00000000000E+00  0.00000000000E+00  0.67518795659E+03  0.67518795660E+03  0.25500000000E-02 0. -1.
         -1   -1    0    0    0  501 -0.00000000000E+00 -0.00000000000E+00 -0.23805770194E+01  0.23805823546E+01  0.50400000000E-02 0.  1.
         24    2    1    2    0    0  0.35527136788E-14 -0.35527136788E-14  0.67280737957E+03  0.67756853895E+03  0.80183258661E+02 0.  0.
         66    2    3    3    0    0 -0.19947480924E+02  0.26271197604E+02  0.52879863455E+03  0.52983023104E+03  0.19999996785E+01 0.  0.
        -13    1    3    3    0    0  0.19947480924E+02 -0.26271197604E+02  0.14400874502E+03  0.14773830791E+03  0.10566000000E+00 0.  1.
         13    1    4    4    0    0 -0.55667748535E+01  0.84062651500E+01  0.15986807359E+03  0.16018572469E+03  0.10566000000E+00 0. -1.
        -13    1    4    4    0    0 -0.71693623178E+01  0.96738585556E+01  0.19855703067E+03  0.19892181602E+03  0.10566000000E+00 0.  1.
        -14    1    4    4    0    0 -0.72113437525E+01  0.81910738983E+01  0.17037353029E+03  0.17072269034E+03  0.00000000000E+00 0.  1.
<mgrwt>
<rscale>  0 0.80183259E+02</rscale>
<asrwt>0</asrwt>
<pdfrwt beam="1">  1        2 0.10387514E+00 0.80183259E+02</pdfrwt>
<pdfrwt beam="2">  1       -1 0.36624278E-03 0.80183259E+02</pdfrwt>
<totfact> 0.32972015E+05</totfact>
</mgrwt>
</event>
<event>
 8    1  0.2389776E-016  0.7988191E+02  0.7818608E-02  0.1329387E+00
         -1   -1    0    0    0  501 -0.00000000000E+00  0.00000000000E+00  0.46329505580E+01  0.46329532994E+01  0.50400000000E-02 0.  1.
          2   -1    0    0  501    0  0.00000000000E+00 -0.00000000000E+00 -0.34433336529E+03  0.34433336530E+03  0.25500000000E-02 0. -1.
         24    2    1    2    0    0 -0.35527136788E-14  0.00000000000E+00 -0.33970041473E+03  0.34896631860E+03  0.79881911265E+02 0.  0.
         66    2    3    3    0    0 -0.23370868605E+02  0.40636676190E+01 -0.31019659477E+03  0.31110872425E+03  0.19999999632E+01 0.  0.
        -13    1    3    3    0    0  0.23370868605E+02 -0.40636676190E+01 -0.29503819957E+02  0.37857594350E+02  0.10566000000E+00 0.  1.
         13    1    4    4    0    0 -0.37545954013E+01  0.39957948122E+00 -0.46679076472E+02  0.46831655904E+02  0.10566000000E+00 0. -1.
        -13    1    4    4    0    0 -0.18339124094E+01  0.76657111168E+00 -0.23329374456E+02  0.23414135529E+02  0.10566000000E+00 0.  1.
         14    1    4    4    0    0 -0.17782360794E+02  0.28975170261E+01 -0.24018814384E+03  0.24086293281E+03  0.00000000000E+00 0. -1.
<mgrwt>
<rscale>  0 0.79881911E+02</rscale>
<asrwt>0</asrwt>
<pdfrwt beam="1">  1        2 0.52974344E-01 0.79881911E+02</pdfrwt>
<pdfrwt beam="2">  1       -1 0.71276211E-03 0.79881911E+02</pdfrwt>
<totfact> 0.26896560E+05</totfact>
</mgrwt>
</event>
<event>
 8    1  0.2389776E-016  0.8025073E+02  0.7818608E-02  0.1328341E+00
         -1   -1    0    0    0  501 -0.00000000000E+00  0.00000000000E+00  0.51386875028E+01  0.51386899744E+01  0.50400000000E-02 0.  1.
          2   -1    0    0  501    0  0.00000000000E+00 -0.00000000000E+00 -0.31331821323E+03  0.31331821324E+03  0.25500000000E-02 0. -1.
         24    2    1    2    0    0  0.00000000000E+00  0.35527136788E-14 -0.30817952572E+03  0.31845690321E+03  0.80250726648E+02 0.  0.
         66    2    3    3    0    0  0.16789156641E+02 -0.16983098778E+02 -0.28201898285E+03  0.28303534773E+03  0.19999890051E+01 0.  0.
        -13    1    3    3    0    0 -0.16789156641E+02  0.16983098778E+02 -0.26160542877E+02  0.35421555478E+02  0.10566000000E+00 0.  1.
         13    1    4    4    0    0  0.79010178562E+01 -0.77519124827E+01 -0.13213672157E+03  0.13259955725E+03  0.10566000000E+00 0. -1.
        -13    1    4    4    0    0  0.64068996317E+01 -0.75151364513E+01 -0.11438392086E+03  0.11480948634E+03  0.10566000000E+00 0.  1.
        -14    1    4    4    0    0  0.24812391528E+01 -0.17160498438E+01 -0.35498340417E+02  0.35626304147E+02  0.00000000000E+00 0.  1.
<mgrwt>
<rscale>  0 0.80250727E+02</rscale>
<asrwt>0</asrwt>
<pdfrwt beam="1">  1        2 0.48202787E-01 0.80250727E+02</pdfrwt>
<pdfrwt beam="2">  1       -1 0.79056774E-03 0.80250727E+02</pdfrwt>
<totfact> 0.25686688E+05</totfact>
</mgrwt>
</event>
<event>
 8    1  0.2389776E-016  0.8059188E+02  0.7818608E-02  0.1327380E+00
         -1   -1    0    0    0  501 -0.00000000000E+00  0.00000000000E+00  0.57397089360E+01  0.57397111488E+01  0.50400000000E-02 0.  1.
          2   -1    0    0  501    0  0.00000000000E+00 -0.00000000000E+00 -0.28289976130E+03  0.28289976132E+03  0.25500000000E-02 0. -1.
         24    2    1    2    0    0 -0.35527136788E-14  0.00000000000E+00 -0.27716005237E+03  0.28863947246E+03  0.80591875743E+02 0.  0.
         66    2    3    3    0    0 -0.30089182895E+02  0.22135951518E+02 -0.19255425420E+03  0.19615427622E+03  0.19999978928E+01 0.  0.
        -13    1    3    3    0    0  0.30089182895E+02 -0.22135951518E+02 -0.84605798171E+02  0.92485196248E+02  0.10566000000E+00 0.  1.
         13    1    4    4    0    0 -0.19267712917E+02  0.13383109520E+02 -0.11984181695E+03  0.12211643884E+03  0.10566000000E+00 0. -1.
        -13    1    4    4    0    0 -0.44398438119E+01  0.32137494973E+01 -0.30260765962E+02  0.30753300954E+02  0.10566000000E+00 0.  1.
         14    1    4    4    0    0 -0.63816261660E+01  0.55390925012E+01 -0.42451671287E+02  0.43284536423E+02  0.00000000000E+00 0. -1.
<mgrwt>
<rscale>  0 0.80591876E+02</rscale>
<asrwt>0</asrwt>
<pdfrwt beam="1">  1        2 0.43523029E-01 0.80591876E+02</pdfrwt>
<pdfrwt beam="2">  1       -1 0.88303254E-03 0.80591876E+02</pdfrwt>
<totfact> 0.24479902E+05</totfact>
</mgrwt>
</event>
<event>
 8    1  0.2389776E-016  0.7514927E+02  0.7818608E-02  0.1343409E+00
         -1   -1    0    0    0  501 -0.00000000000E+00  0.00000000000E+00  0.72862430824E+01  0.72862448255E+01  0.50400000000E-02 0.  1.
          2   -1    0    0  501    0  0.00000000000E+00 -0.00000000000E+00 -0.19376970402E+03  0.19376970403E+03  0.25500000000E-02 0. -1.
         24    2    1    2    0    0  0.00000000000E+00  0.00000000000E+00 -0.18648346094E+03  0.20105594886E+03  0.75149273913E+02 0.  0.
         66    2    3    3    0    0  0.34954031307E+01  0.12102573560E+02 -0.18794182315E+03  0.18837414638E+03  0.20000007662E+01 0.  0.
        -13    1    3    3    0    0 -0.34954031307E+01 -0.12102573560E+02  0.14583622185E+01  0.12681802483E+02  0.10566000000E+00 0.  1.
         13    1    4    4    0    0  0.12212529747E+01  0.37659663913E+01 -0.48457894219E+02  0.48619467684E+02  0.10566000000E+00 0. -1.
        -13    1    4    4    0    0  0.14606432712E+01  0.44470400221E+01 -0.82015139013E+02  0.82148669102E+02  0.10566000000E+00 0.  1.
         14    1    4    4    0    0  0.81350688486E+00  0.38895671466E+01 -0.57468789921E+02  0.57606009592E+02  0.00000000000E+00 0. -1.
<mgrwt>
<rscale>  0 0.75149274E+02</rscale>
<asrwt>0</asrwt>
<pdfrwt beam="1">  1        2 0.29810720E-01 0.75149274E+02</pdfrwt>
<pdfrwt beam="2">  1       -1 0.11209608E-02 0.75149274E+02</pdfrwt>
<totfact> 0.25721655E+05</totfact>
</mgrwt>
</event>
<event>
 8    1  0.2389776E-016  0.7974074E+02  0.7818608E-02  0.1329789E+00
          2   -1    0    0  501    0  0.00000000000E+00  0.00000000000E+00  0.71770721066E+03  0.71770721067E+03  0.25500000000E-02 0. -1.
         -1   -1    0    0    0  501 -0.00000000000E+00 -0.00000000000E+00 -0.22148925254E+01  0.22148982597E+01  0.50400000000E-02 0.  1.
         24    2    1    2    0    0 -0.44408920985E-15  0.00000000000E+00  0.71549231814E+03  0.71992210893E+03  0.79740739953E+02 0.  0.
         66    2    3    3    0    0  0.38471174636E+01  0.26856986049E+02  0.62142691715E+03  0.62202211486E+03  0.19999992848E+01 0.  0.
        -13    1    3    3    0    0 -0.38471174636E+01 -0.26856986049E+02  0.94065400983E+02  0.97899994068E+02  0.10566000000E+00 0.  1.
         13    1    4    4    0    0  0.30840495782E+01  0.15822704126E+02  0.36563165027E+03  0.36598686338E+03  0.10566000000E+00 0. -1.
        -13    1    4    4    0    0  0.67101110899E+00  0.74645011755E+01  0.17967179790E+03  0.17982807111E+03  0.10566000000E+00 0.  1.
         14    1    4    4    0    0  0.92056776422E-01  0.35697807477E+01  0.76123468986E+02  0.76207180367E+02  0.00000000000E+00 0. -1.
<mgrwt>
<rscale>  0 0.79740740E+02</rscale>
<asrwt>0</asrwt>
<pdfrwt beam="1">  1        2 0.11041653E+00 0.79740740E+02</pdfrwt>
<pdfrwt beam="2">  1       -1 0.34075302E-03 0.79740740E+02</pdfrwt>
<totfact> 0.33924503E+05</totfact>
</mgrwt>
</event>
<event>
 8    1  0.2389776E-016  0.8305239E+02  0.7818608E-02  0.1320606E+00
          2   -1    0    0  501    0  0.00000000000E+00  0.00000000000E+00  0.19236624008E+03  0.19236624010E+03  0.25500000000E-02 0. -1.
         -1   -1    0    0    0  501 -0.00000000000E+00 -0.00000000000E+00 -0.89642791952E+01  0.89642806121E+01  0.50400000000E-02 0.  1.
         24    2    1    2    0    0  0.00000000000E+00  0.00000000000E+00  0.18340196089E+03  0.20133052071E+03  0.83052388964E+02 0.  0.
         66    2    3    3    0    0  0.32174977542E+02  0.19756563895E+02  0.13352163542E+03  0.13877167618E+03  0.19999967136E+01 0.  0.
        -13    1    3    3    0    0 -0.32174977542E+02 -0.19756563895E+02  0.49880325465E+02  0.62558844533E+02  0.10566000000E+00 0.  1.
         13    1    4    4    0    0  0.23144773884E+02  0.14273346686E+02  0.97390668246E+02  0.10111558935E+03  0.10566000000E+00 0. -1.
        -13    1    4    4    0    0  0.12179421039E+01  0.39478834223E+00  0.42922532542E+01  0.44803842288E+01  0.10566000000E+00 0.  1.
         14    1    4    4    0    0  0.78122615540E+01  0.50884288663E+01  0.31838713922E+02  0.33175702602E+02  0.00000000000E+00 0. -1.
<mgrwt>
<rscale>  0 0.83052389E+02</rscale>
<asrwt>0</asrwt>
<pdfrwt beam="1">  1        2 0.29594805E-01 0.83052389E+02</pdfrwt>
<pdfrwt beam="2">  1       -1 0.13791201E-02 0.83052389E+02</pdfrwt>
<totfact> 0.19710891E+05</totfact>
</mgrwt>
</event>
<event>
 8    1  0.2389776E-016  0.7804143E+02  0.7818608E-02  0.1334703E+00
         -1   -1    0    0    0  501 -0.00000000000E+00  0.00000000000E+00  0.13754471636E+02  0.13754472560E+02  0.50400000000E-02 0.  1.
          2   -1    0    0  501    0  0.00000000000E+00 -0.00000000000E+00 -0.11069972494E+03  0.11069972497E+03  0.25500000000E-02 0. -1.
         24    2    1    2    0    0  0.35527136788E-14  0.00000000000E+00 -0.96945253301E+02  0.12445419753E+03  0.78041432229E+02 0.  0.
         66    2    3    3    0    0 -0.27870100371E+02  0.21215959800E+02 -0.21172168047E+02  0.40977068576E+02  0.20000010739E+01 0.  0.
        -13    1    3    3    0    0  0.27870100371E+02 -0.21215959800E+02 -0.75773085254E+02  0.83477128951E+02  0.10566000000E+00 0.  1.
         13    1    4    4    0    0 -0.10418492345E+02  0.79529080212E+01 -0.80766528622E+01  0.15396012933E+02  0.10566000000E+00 0. -1.
        -13    1    4    4    0    0 -0.40862376603E+01  0.38259097284E+01 -0.29330197063E+01  0.63204977731E+01  0.10566000000E+00 0.  1.
         14    1    4    4    0    0 -0.13365370366E+02  0.94371420508E+01 -0.10162495479E+02  0.19260557870E+02  0.00000000000E+00 0. -1.
<mgrwt>
<rscale>  0 0.78041432E+02</rscale>
<asrwt>0</asrwt>
<pdfrwt beam="1">  1        2 0.17030726E-01 0.78041432E+02</pdfrwt>
<pdfrwt beam="2">  1       -1 0.21160727E-02 0.78041432E+02</pdfrwt>
<totfact> 0.19494946E+05</totfact>
</mgrwt>
</event>
<event>
 8    1  0.2389776E-016  0.7563556E+02  0.7818608E-02  0.1341914E+00
         -1   -1    0    0    0  501 -0.00000000000E+00  0.00000000000E+00  0.37051309199E+01  0.37051343478E+01  0.50400000000E-02 0.  1.
          2   -1    0    0  501    0  0.00000000000E+00 -0.00000000000E+00 -0.38600086907E+03  0.38600086908E+03  0.25500000000E-02 0. -1.
         24    2    1    2    0    0  0.00000000000E+00  0.00000000000E+00 -0.38229573815E+03  0.38970600343E+03  0.75635558428E+02 0.  0.
         66    2    3    3    0    0 -0.22851396650E+02 -0.33797188495E+01 -0.34538674686E+03  0.34616414276E+03  0.19999991289E+01 0.  0.
        -13    1    3    3    0    0  0.22851396650E+02  0.33797188495E+01 -0.36908991290E+02  0.43541860668E+02  0.10566000000E+00 0.  1.
         13    1    4    4    0    0 -0.51377908938E+01 -0.12948850739E+01 -0.81389196004E+02  0.81561547391E+02  0.10566000000E+00 0. -1.
        -13    1    4    4    0    0 -0.10354668878E+02 -0.10858467686E+01 -0.16325576603E+03  0.16358745226E+03  0.10566000000E+00 0.  1.
        -14    1    4    4    0    0 -0.73589368787E+01 -0.99898700700E+00 -0.10074178483E+03  0.10101514311E+03  0.00000000000E+00 0.  1.
<mgrwt>
<rscale>  0 0.75635558E+02</rscale>
<asrwt>0</asrwt>
<pdfrwt beam="1">  1        2 0.59384718E-01 0.75635558E+02</pdfrwt>
<pdfrwt beam="2">  1       -1 0.57002071E-03 0.75635558E+02</pdfrwt>
<totfact> 0.32294907E+05</totfact>
</mgrwt>
</event>
<event>
 8    1  0.2389776E-016  0.8041788E+02  0.7818608E-02  0.1327870E+00
         -1   -1    0    0    0  501 -0.00000000000E+00  0.00000000000E+00  0.13610098363E+01  0.13610191682E+01  0.50400000000E-02 0.  1.
          2   -1    0    0  501    0  0.00000000000E+00 -0.00000000000E+00 -0.11879069980E+04  0.11879069980E+04  0.25500000000E-02 0. -1.
         24    2    1    2    0    0  0.17763568394E-14 -0.22204460493E-15 -0.11865459882E+04  0.11892680172E+04  0.80417875117E+02 0.  0.
         66    2    3    3    0    0  0.10905844052E+02  0.15578584469E+01 -0.11651355455E+04  0.11651893425E+04  0.19999996831E+01 0.  0.
        -13    1    3    3    0    0 -0.10905844052E+02 -0.15578584469E+01 -0.21410442642E+02  0.24078674706E+02  0.10566000000E+00 0.  1.
         13    1    4    4    0    0  0.58215562799E+01  0.38680300836E+00 -0.63977869612E+03  0.63980530735E+03  0.10566000000E+00 0. -1.
        -13    1    4    4    0    0  0.34141712697E+01  0.12343872961E+01 -0.38862532759E+03  0.38864229915E+03  0.10566000000E+00 0.  1.
        -14    1    4    4    0    0  0.16701165024E+01 -0.63331857535E-01 -0.13673152181E+03  0.13674173597E+03  0.00000000000E+00 0.  1.
<mgrwt>
<rscale>  0 0.80417875E+02</rscale>
<asrwt>0</asrwt>
<pdfrwt beam="1">  1        2 0.18275409E+00 0.80417875E+02</pdfrwt>
<pdfrwt beam="2">  1       -1 0.20938780E-03 0.80417875E+02</pdfrwt>
<totfact> 0.34604143E+05</totfact>
</mgrwt>
</event>
<event>
 8    1  0.2389776E-016  0.7998173E+02  0.7818608E-02  0.1329103E+00
         -1   -1    0    0    0  501 -0.00000000000E+00  0.00000000000E+00  0.14780874825E+02  0.14780875685E+02  0.50400000000E-02 0.  1.
          2   -1    0    0  501    0  0.00000000000E+00 -0.00000000000E+00 -0.10819855335E+03  0.10819855338E+03  0.25500000000E-02 0. -1.
         24    2    1    2    0    0  0.00000000000E+00  0.00000000000E+00 -0.93417678524E+02  0.12297942906E+03  0.79981731115E+02 0.  0.
         66    2    3    3    0    0 -0.19379847450E+02 -0.27522492805E+02 -0.79865827920E+02  0.86692655768E+02  0.19999993407E+01 0.  0.
        -13    1    3    3    0    0  0.19379847450E+02  0.27522492805E+02 -0.13551850604E+02  0.36286773296E+02  0.10566000000E+00 0.  1.
         13    1    4    4    0    0 -0.68592431508E+01 -0.10596629739E+02 -0.30624585594E+02  0.33124223542E+02  0.10566000000E+00 0.  1.
        -13    1    4    4    0    0 -0.10900408437E+01 -0.19586429584E+01 -0.58997068261E+01  0.63120659018E+01  0.10566000000E+00 0. -1.
         14    1    4    4    0    0 -0.11430563455E+02 -0.14967220108E+02 -0.43341535500E+02  0.47256366324E+02  0.00000000000E+00 0. -1.
<mgrwt>
<rscale>  0 0.79981731E+02</rscale>
<asrwt>0</asrwt>
<pdfrwt beam="1">  1        2 0.16645931E-01 0.79981731E+02</pdfrwt>
<pdfrwt beam="2">  1       -1 0.22739809E-02 0.79981731E+02</pdfrwt>
<totfact> 0.18138123E+05</totfact>
</mgrwt>
</event>
<event>
 8    1  0.2389776E-016  0.7930371E+02  0.7818608E-02  0.1331039E+00
         -1   -1    0    0    0  501 -0.00000000000E+00  0.00000000000E+00  0.11938112711E+02  0.11938113775E+02  0.50400000000E-02 0.  1.
          2   -1    0    0  501    0  0.00000000000E+00 -0.00000000000E+00 -0.13170168340E+03  0.13170168343E+03  0.25500000000E-02 0. -1.
         24    2    1    2    0    0 -0.17763568394E-14  0.00000000000E+00 -0.11976357069E+03  0.14363979720E+03  0.79303710353E+02 0.  0.
         66    2    3    3    0    0 -0.96542278023E+01  0.88075795620E+01 -0.12767856826E+03  0.12836118723E+03  0.20000051214E+01 0.  0.
        -13    1    3    3    0    0  0.96542278023E+01 -0.88075795620E+01  0.79149975716E+01  0.15278609976E+02  0.10566000000E+00 0.  1.
         13    1    4    4    0    0 -0.30639303215E+01  0.26594804513E+01 -0.46555394329E+02  0.46731963477E+02  0.10566000000E+00 0. -1.
        -13    1    4    4    0    0 -0.55373553363E+01  0.47134397541E+01 -0.62730485379E+02  0.63150643530E+02  0.10566000000E+00 0.  1.
        -14    1    4    4    0    0 -0.10529421445E+01  0.14346593565E+01 -0.18392688554E+02  0.18478580218E+02  0.00000000000E+00 0.  1.
<mgrwt>
<rscale>  0 0.79303710E+02</rscale>
<asrwt>0</asrwt>
<pdfrwt beam="1">  1        2 0.20261796E-01 0.79303710E+02</pdfrwt>
<pdfrwt beam="2">  1       -1 0.18366329E-02 0.79303710E+02</pdfrwt>
<totfact> 0.19675730E+05</totfact>
</mgrwt>
</event>
<event>
 8    1  0.2389776E-016  0.8212481E+02  0.7818608E-02  0.1323127E+00
         -1   -1    0    0    0  501 -0.00000000000E+00  0.00000000000E+00  0.16636307205E+01  0.16636383549E+01  0.50400000000E-02 0.  1.
          2   -1    0    0  501    0  0.00000000000E+00 -0.00000000000E+00 -0.10135164611E+04  0.10135164611E+04  0.25500000000E-02 0. -1.
         24    2    1    2    0    0  0.00000000000E+00  0.00000000000E+00 -0.10118528304E+04  0.10151800995E+04  0.82124807390E+02 0.  0.
         66    2    3    3    0    0 -0.14105914268E+02 -0.21529732978E+02 -0.90132947415E+03  0.90169913341E+03  0.19999994945E+01 0.  0.
        -13    1    3    3    0    0  0.14105914268E+02  0.21529732978E+02 -0.11052335624E+03  0.11348096606E+03  0.10566000000E+00 0.  1.
         13    1    4    4    0    0 -0.51486214302E+01 -0.89489693700E+01 -0.35585518492E+03  0.35600493838E+03  0.10566000000E+00 0. -1.
        -13    1    4    4    0    0 -0.32124512454E+01 -0.35846156079E+01 -0.16566553392E+03  0.16573548083E+03  0.10566000000E+00 0.  1.
        -14    1    4    4    0    0 -0.57448415924E+01 -0.89961479998E+01 -0.37980875530E+03  0.37995871419E+03  0.00000000000E+00 0.  1.
<mgrwt>
<rscale>  0 0.82124807E+02</rscale>
<asrwt>0</asrwt>
<pdfrwt beam="1">  1        2 0.15592512E+00 0.82124807E+02</pdfrwt>
<pdfrwt beam="2">  1       -1 0.25594459E-03 0.82124807E+02</pdfrwt>
<totfact> 0.32926690E+05</totfact>
</mgrwt>
</event>
<event>
 8    1  0.2389776E-016  0.7974714E+02  0.7818608E-02  0.1329771E+00
          2   -1    0    0  501    0  0.00000000000E+00  0.00000000000E+00  0.24308907701E+03  0.24308907702E+03  0.25500000000E-02 0. -1.
         -1   -1    0    0    0  501 -0.00000000000E+00 -0.00000000000E+00 -0.65404056272E+01  0.65404075691E+01  0.50400000000E-02 0.  1.
         24    2    1    2    0    0  0.00000000000E+00  0.00000000000E+00  0.23654867138E+03  0.24962948459E+03  0.79747135653E+02 0.  0.
         66    2    3    3    0    0 -0.17412279993E+02 -0.17250082782E+02  0.21669774692E+03  0.21808866633E+03  0.20000027900E+01 0.  0.
        -13    1    3    3    0    0  0.17412279993E+02  0.17250082782E+02  0.19850924461E+02  0.31540818260E+02  0.10566000000E+00 0.  1.
         13    1    4    4    0    0 -0.44145327431E+01 -0.46753328357E+01  0.61312425591E+02  0.61648775595E+02  0.10566000000E+00 0. -1.
        -13    1    4    4    0    0 -0.52301383367E+00 -0.41359972117E+00  0.41692220637E+01  0.42235275365E+01  0.10566000000E+00 0.  1.
         14    1    4    4    0    0 -0.12474733416E+02 -0.12161150225E+02  0.15121609926E+03  0.15221636320E+03  0.00000000000E+00 0. -1.
<mgrwt>
<rscale>  0 0.79747136E+02</rscale>
<asrwt>0</asrwt>
<pdfrwt beam="1">  1        2 0.37398317E-01 0.79747136E+02</pdfrwt>
<pdfrwt beam="2">  1       -1 0.10062165E-02 0.79747136E+02</pdfrwt>
<totfact> 0.23827752E+05</totfact>
</mgrwt>
</event>
<event>
 8    1  0.2389776E-016  0.7309804E+02  0.7818608E-02  0.1349864E+00
          2   -1    0    0  501    0  0.00000000000E+00  0.00000000000E+00  0.87607068303E+02  0.87607068340E+02  0.25500000000E-02 0. -1.
         -1   -1    0    0    0  501 -0.00000000000E+00 -0.00000000000E+00 -0.15247978713E+02  0.15247979546E+02  0.50400000000E-02 0.  1.
         24    2    1    2    0    0 -0.17763568394E-14  0.00000000000E+00  0.72359089589E+02  0.10285504789E+03  0.73098037111E+02 0.  0.
         66    2    3    3    0    0  0.11206341672E+02  0.87850284945E+01  0.83528660955E+02  0.84757277088E+02  0.19999997669E+01 0.  0.
        -13    1    3    3    0    0 -0.11206341672E+02 -0.87850284945E+01 -0.11169571366E+02  0.18097770798E+02  0.10566000000E+00 0.  1.
         13    1    4    4    0    0  0.12958162004E+01  0.16466685168E+01  0.12391574764E+02  0.12567933242E+02  0.10566000000E+00 0. -1.
        -13    1    4    4    0    0  0.92804401485E+00  0.11508283595E+01  0.80495889766E+01  0.81849079612E+01  0.10566000000E+00 0.  1.
         14    1    4    4    0    0  0.89824814567E+01  0.59875316182E+01  0.63087497215E+02  0.64004435884E+02  0.00000000000E+00 0. -1.
<mgrwt>
<rscale>  0 0.73098037E+02</rscale>
<asrwt>0</asrwt>
<pdfrwt beam="1">  1        2 0.13478011E-01 0.73098037E+02</pdfrwt>
<pdfrwt beam="2">  1       -1 0.23458430E-02 0.73098037E+02</pdfrwt>
<totfact> 0.21757625E+05</totfact>
</mgrwt>
</event>
<event>
 8    1  0.2389776E-016  0.7896010E+02  0.7818608E-02  0.1332029E+00
          2   -1    0    0  501    0  0.00000000000E+00  0.00000000000E+00  0.62418798339E+02  0.62418798391E+02  0.25500000000E-02 0. -1.
         -1   -1    0    0    0  501 -0.00000000000E+00 -0.00000000000E+00 -0.24971235467E+02  0.24971235975E+02  0.50400000000E-02 0.  1.
         24    2    1    2    0    0 -0.35527136788E-14  0.00000000000E+00  0.37447562872E+02  0.87390034366E+02  0.78960104746E+02 0.  0.
         66    2    3    3    0    0  0.17812640886E+02  0.34679482838E+02  0.12029762012E+02  0.40849380419E+02  0.20000003201E+01 0.  0.
        -13    1    3    3    0    0 -0.17812640886E+02 -0.34679482838E+02  0.25417800860E+02  0.46540653947E+02  0.10566000000E+00 0.  1.
         13    1    4    4    0    0  0.95499723123E+01  0.16564256605E+02  0.57567582325E+01  0.19968174614E+02  0.10566000000E+00 0. -1.
        -13    1    4    4    0    0  0.29941782680E+01  0.70539574621E+01  0.25131339134E+01  0.80653843976E+01  0.10566000000E+00 0.  1.
         14    1    4    4    0    0  0.52684903055E+01  0.11061268771E+02  0.37598698664E+01  0.12815821407E+02  0.00000000000E+00 0. -1.
<mgrwt>
<rscale>  0 0.78960105E+02</rscale>
<asrwt>0</asrwt>
<pdfrwt beam="1">  1        2 0.96028921E-02 0.78960105E+02</pdfrwt>
<pdfrwt beam="2">  1       -1 0.38417286E-02 0.78960105E+02</pdfrwt>
<totfact> 0.16277939E+05</totfact>
</mgrwt>
</event>
<event>
 8    1  0.2389776E-016  0.8134785E+02  0.7818608E-02  0.1325269E+00
          2   -1    0    0  501    0  0.00000000000E+00  0.00000000000E+00  0.20990608462E+03  0.20990608464E+03  0.25500000000E-02 0. -1.
         -1   -1    0    0    0  501 -0.00000000000E+00 -0.00000000000E+00 -0.78814674004E+01  0.78814690119E+01  0.50400000000E-02 0.  1.
         24    2    1    2    0    0  0.17763568394E-14  0.17763568394E-14  0.20202461722E+03  0.21778755365E+03  0.81347849148E+02 0.  0.
         66    2    3    3    0    0 -0.12679092679E+02  0.95972022056E+01  0.20122828995E+03  0.20186552543E+03  0.20000003899E+01 0.  0.
        -13    1    3    3    0    0  0.12679092679E+02 -0.95972022056E+01  0.79632727313E+00  0.15922028216E+02  0.10566000000E+00 0.  1.
         13    1    4    4    0    0 -0.65541398161E+00  0.78445783295E+00  0.17995865063E+02  0.18025184187E+02  0.10566000000E+00 0.  1.
        -13    1    4    4    0    0 -0.45191585379E+01  0.27958436029E+01  0.67334551586E+02  0.67544004446E+02  0.10566000000E+00 0. -1.
         14    1    4    4    0    0 -0.75045201600E+01  0.60169007697E+01  0.11589787330E+03  0.11629633680E+03  0.00000000000E+00 0. -1.
<mgrwt>
<rscale>  0 0.81347849E+02</rscale>
<asrwt>0</asrwt>
<pdfrwt beam="1">  1        2 0.32293242E-01 0.81347849E+02</pdfrwt>
<pdfrwt beam="2">  1       -1 0.12125337E-02 0.81347849E+02</pdfrwt>
<totfact> 0.21466114E+05</totfact>
</mgrwt>
</event>
<event>
 8    1  0.2389776E-016  0.8004217E+02  0.7818608E-02  0.1328932E+00
         -1   -1    0    0    0  501 -0.00000000000E+00  0.00000000000E+00  0.96100076745E+00  0.96101398358E+00  0.50400000000E-02 0.  1.
          2   -1    0    0  501    0  0.00000000000E+00 -0.00000000000E+00 -0.16666753633E+04  0.16666753633E+04  0.25500000000E-02 0. -1.
         24    2    1    2    0    0 -0.88817841970E-15  0.00000000000E+00 -0.16657143625E+04  0.16676363773E+04  0.80042172001E+02 0.  0.
         66    2    3    3    0    0 -0.43665663072E+01  0.15013350270E+02 -0.16003601682E+04  0.16004377949E+04  0.19999854385E+01 0.  0.
        -13    1    3    3    0    0  0.43665663072E+01 -0.15013350270E+02 -0.65354194349E+02  0.67198582357E+02  0.10566000000E+00 0.  1.
         13    1    4    4    0    0 -0.29072346286E+01  0.10594432571E+02 -0.11720078147E+04  0.11720593086E+04  0.10566000000E+00 0. -1.
        -13    1    4    4    0    0 -0.87186313851E+00  0.36897882614E+01 -0.33789661020E+03  0.33791789688E+03  0.10566000000E+00 0.  1.
         14    1    4    4    0    0 -0.58746854005E+00  0.72912943838E+00 -0.90455743268E+02  0.90460589425E+02  0.00000000000E+00 0. -1.
<mgrwt>
<rscale>  0 0.80042172E+02</rscale>
<asrwt>0</asrwt>
<pdfrwt beam="1">  1        2 0.25640928E+00 0.80042172E+02</pdfrwt>
<pdfrwt beam="2">  1       -1 0.14784862E-03 0.80042172E+02</pdfrwt>
<totfact> 0.31642346E+05</totfact>
</mgrwt>
</event>
<event>
 8    1  0.2389776E-016  0.7526517E+02  0.7818608E-02  0.1343052E+00
          2   -1    0    0  501    0  0.00000000000E+00  0.00000000000E+00  0.54090137066E+03  0.54090137067E+03  0.25500000000E-02 0. -1.
         -1   -1    0    0    0  501 -0.00000000000E+00 -0.00000000000E+00 -0.26182410192E+01  0.26182458701E+01  0.50400000000E-02 0.  1.
         24    2    1    2    0    0  0.00000000000E+00  0.00000000000E+00  0.53828312964E+03  0.54351961654E+03  0.75265170588E+02 0.  0.
         66    2    3    3    0    0  0.76703428284E+01 -0.34453300973E+02  0.36302642895E+03  0.36474381725E+03  0.20000008679E+01 0.  0.
        -13    1    3    3    0    0 -0.76703428284E+01  0.34453300973E+02  0.17525670069E+03  0.17877579928E+03  0.10566000000E+00 0.  1.
         13    1    4    4    0    0  0.48004087638E+01 -0.19032561513E+02  0.20213259048E+03  0.20308342528E+03  0.10566000000E+00 0. -1.
        -13    1    4    4    0    0  0.18373646099E+01 -0.70598057212E+01  0.72822626013E+02  0.73187176398E+02  0.10566000000E+00 0.  1.
        -14    1    4    4    0    0  0.10325694547E+01 -0.83609337391E+01  0.88071212450E+02  0.88473215580E+02  0.00000000000E+00 0.  1.
<mgrwt>
<rscale>  0 0.75265171E+02</rscale>
<asrwt>0</asrwt>
<pdfrwt beam="1">  1        2 0.83215709E-01 0.75265171E+02</pdfrwt>
<pdfrwt beam="2">  1       -1 0.40280614E-03 0.75265171E+02</pdfrwt>
<totfact> 0.36561342E+05</totfact>
</mgrwt>
</event>
<event>
 8    1  0.2389776E-016  0.7998509E+02  0.7818608E-02  0.1329094E+00
         -1   -1    0    0    0  501 -0.00000000000E+00  0.00000000000E+00  0.55828164791E+01  0.55828187541E+01  0.50400000000E-02 0.  1.
          2   -1    0    0  501    0  0.00000000000E+00 -0.00000000000E+00 -0.28648683440E+03  0.28648683441E+03  0.25500000000E-02 0. -1.
         24    2    1    2    0    0 -0.17763568394E-14  0.17763568394E-14 -0.28090401792E+03  0.29206965316E+03  0.79985092461E+02 0.  0.
         66    2    3    3    0    0  0.82190631618E+01 -0.13324425142E+02 -0.27482064787E+03  0.27527346729E+03  0.19999989143E+01 0.  0.
        -13    1    3    3    0    0 -0.82190631618E+01  0.13324425142E+02 -0.60833700507E+01  0.16796185871E+02  0.10566000000E+00 0.  1.
         13    1    4    4    0    0  0.53354951273E+01 -0.88234089116E+01 -0.19348496394E+03  0.19375954813E+03  0.10566000000E+00 0. -1.
        -13    1    4    4    0    0  0.73987750736E+00 -0.99319093841E+00 -0.22998531554E+02  0.23032096401E+02  0.10566000000E+00 0.  1.
         14    1    4    4    0    0  0.21436905272E+01 -0.35078252918E+01 -0.58337152368E+02  0.58481822763E+02  0.00000000000E+00 0. -1.
<mgrwt>
<rscale>  0 0.79985092E+02</rscale>
<asrwt>0</asrwt>
<pdfrwt beam="1">  1        2 0.44074886E-01 0.79985092E+02</pdfrwt>
<pdfrwt beam="2">  1       -1 0.85889524E-03 0.79985092E+02</pdfrwt>
<totfact> 0.25084636E+05</totfact>
</mgrwt>
</event>
<event>
 8    1  0.2389776E-016  0.8461189E+02  0.7818608E-02  0.1316451E+00
         -1   -1    0    0    0  501 -0.00000000000E+00  0.00000000000E+00  0.13068053137E+03  0.13068053147E+03  0.50400000000E-02 0.  1.
          2   -1    0    0  501    0  0.00000000000E+00 -0.00000000000E+00 -0.13695941310E+02  0.13695941547E+02  0.25500000000E-02 0. -1.
         24    2    1    2    0    0  0.17763568394E-14  0.00000000000E+00  0.11698459006E+03  0.14437647302E+03  0.84611888341E+02 0.  0.
         66    2    3    3    0    0 -0.15009787251E+02 -0.38236716054E+02  0.41423350262E+02  0.58371517972E+02  0.19999988941E+01 0.  0.
        -13    1    3    3    0    0  0.15009787251E+02  0.38236716054E+02  0.75561239803E+02  0.86004955046E+02  0.10566000000E+00 0.  1.
         13    1    4    4    0    0 -0.74949296196E+00 -0.16166591157E+01  0.20859776837E+01  0.27455042031E+01  0.10566000000E+00 0. -1.
        -13    1    4    4    0    0 -0.28145443036E+01 -0.89873441996E+01  0.96581139691E+01  0.13490157333E+02  0.10566000000E+00 0. -1.
         14    1    4    4    0    0 -0.11445749985E+02 -0.27632712739E+02  0.29679258609E+02  0.42135856436E+02  0.00000000000E+00 0. -1.
<mgrwt>
<rscale>  0 0.84611888E+02</rscale>
<asrwt>0</asrwt>
<pdfrwt beam="1">  1        2 0.21070679E-02 0.84611888E+02</pdfrwt>
<pdfrwt beam="2">  1       -1 0.20104698E-01 0.84611888E+02</pdfrwt>
<totfact> 0.96911269E+04</totfact>
</mgrwt>
</event>
<event>
 8    1  0.2389776E-016  0.8024528E+02  0.7818608E-02  0.1328357E+00
         -1   -1    0    0    0  501 -0.00000000000E+00  0.00000000000E+00  0.40906053275E+02  0.40906053585E+02  0.50400000000E-02 0.  1.
          2   -1    0    0  501    0  0.00000000000E+00 -0.00000000000E+00 -0.39354226778E+02  0.39354226860E+02  0.25500000000E-02 0. -1.
         24    2    1    2    0    0  0.44408920985E-15 -0.35527136788E-14  0.15518264974E+01  0.80260280446E+02  0.80245276819E+02 0.  0.
         66    2    3    3    0    0 -0.36582114071E+01 -0.30079702732E+02 -0.25489706619E+02  0.39647145816E+02  0.20000001757E+01 0.  0.
        -13    1    3    3    0    0  0.36582114071E+01  0.30079702732E+02  0.27041533116E+02  0.40613134630E+02  0.10566000000E+00 0.  1.
         13    1    4    4    0    0 -0.18347001466E+01 -0.14026123278E+02 -0.11166058044E+02  0.18021938717E+02  0.10566000000E+00 0. -1.
        -13    1    4    4    0    0 -0.18893438742E+00 -0.66199874587E+01 -0.56326335316E+01  0.86946911787E+01  0.10566000000E+00 0.  1.
        -14    1    4    4    0    0 -0.16345768731E+01 -0.94335919952E+01 -0.86910150436E+01  0.12930515921E+02  0.00000000000E+00 0.  1.
<mgrwt>
<rscale>  0 0.80245277E+02</rscale>
<asrwt>0</asrwt>
<pdfrwt beam="1">  1        2 0.60544964E-02 0.80245277E+02</pdfrwt>
<pdfrwt beam="2">  1       -1 0.62932390E-02 0.80245277E+02</pdfrwt>
<totfact> 0.14087853E+05</totfact>
</mgrwt>
</event>
<event>
 8    1  0.2389776E-016  0.7984151E+02  0.7818608E-02  0.1329502E+00
         -1   -1    0    0    0  501 -0.00000000000E+00  0.00000000000E+00  0.34106380743E+01  0.34106417982E+01  0.50400000000E-02 0.  1.
          2   -1    0    0  501    0  0.00000000000E+00 -0.00000000000E+00 -0.46726319034E+03  0.46726319035E+03  0.25500000000E-02 0. -1.
         24    2    1    2    0    0  0.35527136788E-14 -0.71054273576E-14 -0.46385255227E+03  0.47067383215E+03  0.79841505639E+02 0.  0.
         66    2    3    3    0    0 -0.19269843207E+02  0.34073736059E+02 -0.27747333227E+03  0.28022811506E+03  0.20000005728E+01 0.  0.
        -13    1    3    3    0    0  0.19269843207E+02 -0.34073736059E+02 -0.18637922000E+03  0.19044571709E+03  0.10566000000E+00 0.  1.
         13    1    4    4    0    0 -0.15067359462E+02  0.27861727423E+02 -0.22304324223E+03  0.22528115821E+03  0.10566000000E+00 0. -1.
        -13    1    4    4    0    0 -0.61942062562E+00  0.84600761828E+00 -0.88197872259E+01  0.88825233773E+01  0.10566000000E+00 0. -1.
         14    1    4    4    0    0 -0.35830631196E+01  0.53660010177E+01 -0.45610302807E+02  0.46064433464E+02  0.00000000000E+00 0. -1.
<mgrwt>
<rscale>  0 0.79841506E+02</rscale>
<asrwt>0</asrwt>
<pdfrwt beam="1">  1        2 0.71886594E-01 0.79841506E+02</pdfrwt>
<pdfrwt beam="2">  1       -1 0.52471421E-03 0.79841506E+02</pdfrwt>
<totfact> 0.29943935E+05</totfact>
</mgrwt>
</event>
<event>
 8    1  0.2502941E-016  0.8052430E+02  0.7818608E-02  0.1327570E+00
          2   -1    0    0  501    0  0.00000000000E+00  0.00000000000E+00  0.15601486992E+03  0.15601486995E+03  0.25500000000E-02 0. -1.
         -1   -1    0    0    0  501 -0.00000000000E+00 -0.00000000000E+00 -0.10390294785E+02  0.10390296007E+02  0.50400000000E-02 0.  1.
         24    2    1    2    0    0  0.71054273576E-14  0.17763568394E-14  0.14562457514E+03  0.16640516595E+03  0.80524296775E+02 0.  0.
         66    2    3    3    0    0  0.33308192536E+02  0.83969621373E+01  0.11615999216E+03  0.12114903402E+03  0.20000005921E+01 0.  0.
        -13    1    3    3    0    0 -0.33308192536E+02 -0.83969621373E+01  0.29464582976E+02  0.45256131929E+02  0.10566000000E+00 0.  1.
         13    1    4    4    0    0  0.13530850503E+01  0.51862833619E+00  0.56241526524E+01  0.58087926110E+01  0.10566000000E+00 0.  1.
        -13    1    4    4    0    0  0.22635293357E+00  0.59305534197E-01  0.66696239848E+00  0.71467172429E+00  0.10566000000E+00 0. -1.
         14    1    4    4    0    0  0.31728754552E+02  0.78190282669E+01  0.10986887711E+03  0.11462556969E+03  0.00000000000E+00 0. -1.
<mgrwt>
<rscale>  0 0.80524297E+02</rscale>
<asrwt>0</asrwt>
<pdfrwt beam="1">  1        2 0.24002287E-01 0.80524297E+02</pdfrwt>
<pdfrwt beam="2">  1       -1 0.15985070E-02 0.80524297E+02</pdfrwt>
<totfact> 0.19938384E+05</totfact>
</mgrwt>
</event>
<event>
 8    1  0.2389776E-016  0.7451094E+02  0.7818608E-02  0.1345392E+00
          2   -1    0    0  501    0  0.00000000000E+00  0.00000000000E+00  0.11048257759E+02  0.11048258053E+02  0.25500000000E-02 0. -1.
         -1   -1    0    0    0  501 -0.00000000000E+00 -0.00000000000E+00 -0.12562794803E+03  0.12562794813E+03  0.50400000000E-02 0.  1.
         24    2    1    2    0    0  0.00000000000E+00 -0.44408920985E-15 -0.11457969027E+03  0.13667620618E+03  0.74510938218E+02 0.  0.
         66    2    3    3    0    0  0.35654408482E+02  0.38326319484E+01 -0.38984304621E+02  0.53006621462E+02  0.20000000317E+01 0.  0.
        -13    1    3    3    0    0 -0.35654408482E+02 -0.38326319484E+01 -0.75595385650E+02  0.83669584722E+02  0.10566000000E+00 0.  1.
         13    1    4    4    0    0  0.54581334262E+01  0.67884499240E+00 -0.63218635719E+01  0.83802848447E+01  0.10566000000E+00 0. -1.
        -13    1    4    4    0    0  0.74620931017E+01  0.10722098165E+01 -0.91158223583E+01  0.11829701968E+02  0.10566000000E+00 0.  1.
        -14    1    4    4    0    0  0.22734181955E+02  0.20815771395E+01 -0.23546618691E+02  0.32796634649E+02  0.00000000000E+00 0.  1.
<mgrwt>
<rscale>  0 0.74510938E+02</rscale>
<asrwt>0</asrwt>
<pdfrwt beam="1">  1        2 0.16997321E-02 0.74510938E+02</pdfrwt>
<pdfrwt beam="2">  1       -1 0.19327376E-01 0.74510938E+02</pdfrwt>
<totfact> 0.13465685E+05</totfact>
</mgrwt>
</event>
<event>
 8    1  0.2389776E-016  0.8006873E+02  0.7818608E-02  0.1328857E+00
         -1   -1    0    0    0  501 -0.00000000000E+00  0.00000000000E+00  0.18548552823E+01  0.18548621296E+01  0.50400000000E-02 0.  1.
          2   -1    0    0  501    0  0.00000000000E+00 -0.00000000000E+00 -0.86408212706E+03  0.86408212707E+03  0.25500000000E-02 0. -1.
         24    2    1    2    0    0  0.00000000000E+00  0.00000000000E+00 -0.86222727178E+03  0.86593698920E+03  0.80068727079E+02 0.  0.
         66    2    3    3    0    0  0.26479894108E+02 -0.12628343867E+02 -0.72559652143E+03  0.72619210390E+03  0.19999990422E+01 0.  0.
        -13    1    3    3    0    0 -0.26479894108E+02  0.12628343867E+02 -0.13663075035E+03  0.13974488530E+03  0.10566000000E+00 0.  1.
         13    1    4    4    0    0  0.12669539278E+02 -0.71045948251E+01 -0.35524170745E+03  0.35553856945E+03  0.10566000000E+00 0. -1.
        -13    1    4    4    0    0  0.89660556056E+01 -0.35030197767E+01 -0.23643287251E+03  0.23662877185E+03  0.10566000000E+00 0.  1.
         14    1    4    4    0    0  0.48442992245E+01 -0.20207292655E+01 -0.13392194147E+03  0.13402476259E+03  0.00000000000E+00 0. -1.
<mgrwt>
<rscale>  0 0.80068727E+02</rscale>
<asrwt>0</asrwt>
<pdfrwt beam="1">  1        2 0.13293539E+00 0.80068727E+02</pdfrwt>
<pdfrwt beam="2">  1       -1 0.28536357E-03 0.80068727E+02</pdfrwt>
<totfact> 0.34696323E+05</totfact>
</mgrwt>
</event>
<event>
 8    1  0.2389776E-016  0.7933368E+02  0.7818608E-02  0.1330953E+00
         -1   -1    0    0    0  501 -0.00000000000E+00  0.00000000000E+00  0.44509631695E+02  0.44509631980E+02  0.50400000000E-02 0.  1.
          2   -1    0    0  501    0  0.00000000000E+00 -0.00000000000E+00 -0.35350958212E+02  0.35350958304E+02  0.25500000000E-02 0. -1.
         24    2    1    2    0    0  0.00000000000E+00  0.17763568394E-14  0.91586734831E+01  0.79860590284E+02  0.79333678728E+02 0.  0.
         66    2    3    3    0    0  0.19294270461E+02 -0.12667435811E+02 -0.27861003497E+02  0.36234904612E+02  0.19999984396E+01 0.  0.
        -13    1    3    3    0    0 -0.19294270461E+02  0.12667435811E+02  0.37019676980E+02  0.43625685672E+02  0.10566000000E+00 0.  1.
         13    1    4    4    0    0  0.96893632396E+01 -0.64821712968E+01 -0.13302054780E+02  0.17687796079E+02  0.10566000000E+00 0. -1.
        -13    1    4    4    0    0  0.95804525708E+01 -0.60330184181E+01 -0.14238061094E+02  0.18191094812E+02  0.10566000000E+00 0.  1.
        -14    1    4    4    0    0  0.24454650119E-01 -0.15224609594E+00 -0.32088762209E+00  0.35601372116E+00  0.00000000000E+00 0.  1.
<mgrwt>
<rscale>  0 0.79333679E+02</rscale>
<asrwt>0</asrwt>
<pdfrwt beam="1">  1        2 0.54386090E-02 0.79333679E+02</pdfrwt>
<pdfrwt beam="2">  1       -1 0.68476357E-02 0.79333679E+02</pdfrwt>
<totfact> 0.14228667E+05</totfact>
</mgrwt>
</event>
<event>
 8    1  0.2389776E-016  0.8107777E+02  0.7818608E-02  0.1326020E+00
          2   -1    0    0  501    0  0.00000000000E+00  0.00000000000E+00  0.28221514321E+03  0.28221514323E+03  0.25500000000E-02 0. -1.
         -1   -1    0    0    0  501 -0.00000000000E+00 -0.00000000000E+00 -0.58232196795E+01  0.58232218606E+01  0.50400000000E-02 0.  1.
         24    2    1    2    0    0  0.00000000000E+00  0.00000000000E+00  0.27639192353E+03  0.28803836509E+03  0.81077767399E+02 0.  0.
         66    2    3    3    0    0 -0.40124527942E+02 -0.42493175884E+01  0.12529371555E+03  0.13164554536E+03  0.20000034051E+01 0.  0.
        -13    1    3    3    0    0  0.40124527942E+02  0.42493175884E+01  0.15109820798E+03  0.15639281973E+03  0.10566000000E+00 0.  1.
         13    1    4    4    0    0 -0.33721054704E+01 -0.83582718449E+00  0.10787177396E+02  0.11333316487E+02  0.10566000000E+00 0.  1.
        -13    1    4    4    0    0 -0.30331878015E+02 -0.28750856464E+01  0.93350589801E+02  0.98196907902E+02  0.10566000000E+00 0. -1.
        -14    1    4    4    0    0 -0.64205444566E+01 -0.53840475755E+00  0.21155948355E+02  0.22115320970E+02  0.00000000000E+00 0.  1.
<mgrwt>
<rscale>  0 0.81077767E+02</rscale>
<asrwt>0</asrwt>
<pdfrwt beam="1">  1        2 0.43417707E-01 0.81077767E+02</pdfrwt>
<pdfrwt beam="2">  1       -1 0.89588027E-03 0.81077767E+02</pdfrwt>
<totfact> 0.24075258E+05</totfact>
</mgrwt>
</event>
<event>
 8    1  0.2389776E-016  0.8007982E+02  0.7818608E-02  0.1328825E+00
         -1   -1    0    0    0  501 -0.00000000000E+00  0.00000000000E+00  0.82585620139E+01  0.82585635518E+01  0.50400000000E-02 0.  1.
          2   -1    0    0  501    0  0.00000000000E+00 -0.00000000000E+00 -0.19412511208E+03  0.19412511210E+03  0.25500000000E-02 0. -1.
         24    2    1    2    0    0  0.35527136788E-14  0.17763568394E-14 -0.18586655007E+03  0.20238367565E+03  0.80079821026E+02 0.  0.
         66    2    3    3    0    0 -0.31404069164E+02 -0.14844111267E+02 -0.14319589724E+03  0.14736223459E+03  0.19999995610E+01 0.  0.
        -13    1    3    3    0    0  0.31404069164E+02  0.14844111267E+02 -0.42670652829E+02  0.55021441059E+02  0.10566000000E+00 0.  1.
         13    1    4    4    0    0 -0.91772705158E+01 -0.42521235194E+01 -0.45444357636E+02  0.46556456626E+02  0.10566000000E+00 0.  1.
        -13    1    4    4    0    0 -0.12742681707E+02 -0.63027914562E+01 -0.56119492561E+02  0.57892225096E+02  0.10566000000E+00 0. -1.
         14    1    4    4    0    0 -0.94841169411E+01 -0.42891962911E+01 -0.41632047042E+02  0.42913552869E+02  0.00000000000E+00 0. -1.
<mgrwt>
<rscale>  0 0.80079821E+02</rscale>
<asrwt>0</asrwt>
<pdfrwt beam="1">  1        2 0.29865399E-01 0.80079821E+02</pdfrwt>
<pdfrwt beam="2">  1       -1 0.12705483E-02 0.80079821E+02</pdfrwt>
<totfact> 0.21774596E+05</totfact>
</mgrwt>
</event>
<event>
 8    1  0.2389776E-016  0.7931232E+02  0.7818608E-02  0.1331014E+00
          2   -1    0    0  501    0  0.00000000000E+00  0.00000000000E+00  0.22952391998E+02  0.22952392140E+02  0.25500000000E-02 0. -1.
         -1   -1    0    0    0  501 -0.00000000000E+00 -0.00000000000E+00 -0.68516217526E+02  0.68516217711E+02  0.50400000000E-02 0.  1.
         24    2    1    2    0    0  0.00000000000E+00  0.17763568394E-14 -0.45563825528E+02  0.91468609851E+02  0.79312321813E+02 0.  0.
         66    2    3    3    0    0  0.13384971302E+02 -0.71660596427E+01  0.19421812145E+02  0.24732906249E+02  0.19999992417E+01 0.  0.
        -13    1    3    3    0    0 -0.13384971302E+02  0.71660596427E+01 -0.64985637673E+02  0.66735703602E+02  0.10566000000E+00 0.  1.
         13    1    4    4    0    0  0.11773408271E+01 -0.37038720125E+00  0.21747997087E+01  0.25028455627E+01  0.10566000000E+00 0. -1.
        -13    1    4    4    0    0  0.72550918179E+00 -0.54264950035E+00  0.15791874321E+01  0.18236855635E+01  0.10566000000E+00 0.  1.
         14    1    4    4    0    0  0.11482121293E+02 -0.62530229411E+01  0.15667825004E+02  0.20406375123E+02  0.00000000000E+00 0. -1.
<mgrwt>
<rscale>  0 0.79312322E+02</rscale>
<asrwt>0</asrwt>
<pdfrwt beam="1">  1        2 0.35311373E-02 0.79312322E+02</pdfrwt>
<pdfrwt beam="2">  1       -1 0.10540956E-01 0.79312322E+02</pdfrwt>
<totfact> 0.13080002E+05</totfact>
</mgrwt>
</event>
<event>
 8    1  0.2389776E-016  0.8797540E+02  0.7818608E-02  0.1307830E+00
         -1   -1    0    0    0  501 -0.00000000000E+00  0.00000000000E+00  0.32843463744E+03  0.32843463748E+03  0.50400000000E-02 0.  1.
          2   -1    0    0  501    0  0.00000000000E+00 -0.00000000000E+00 -0.58913320659E+01  0.58913326177E+01  0.25500000000E-02 0. -1.
         24    2    1    2    0    0  0.00000000000E+00  0.00000000000E+00  0.32254330538E+03  0.33432597010E+03  0.87975396784E+02 0.  0.
         66    2    3    3    0    0  0.15708009335E+02 -0.39121172327E+02  0.11393494065E+03  0.12150052829E+03  0.19999983393E+01 0.  0.
        -13    1    3    3    0    0 -0.15708009335E+02  0.39121172327E+02  0.20860836473E+03  0.21282544181E+03  0.10566000000E+00 0.  1.
         13    1    4    4    0    0  0.43900168860E+01 -0.10298542982E+02  0.30116765328E+02  0.32130405439E+02  0.10566000000E+00 0. -1.
        -13    1    4    4    0    0  0.11213238052E+02 -0.27817838705E+02  0.81368520252E+02  0.86720332736E+02  0.10566000000E+00 0.  1.
        -14    1    4    4    0    0  0.10475439708E+00 -0.10047906402E+01  0.24496550702E+01  0.26497901195E+01  0.00000000000E+00 0.  1.
<mgrwt>
<rscale>  0 0.87975397E+02</rscale>
<asrwt>0</asrwt>
<pdfrwt beam="1">  1        2 0.90635856E-03 0.87975397E+02</pdfrwt>
<pdfrwt beam="2">  1       -1 0.50528420E-01 0.87975397E+02</pdfrwt>
<totfact> 0.65153448E+04</totfact>
</mgrwt>
</event>
<event>
 8    1  0.2389776E-016  0.8473905E+02  0.7818608E-02  0.1316116E+00
         -1   -1    0    0    0  501 -0.00000000000E+00  0.00000000000E+00  0.37276966853E+01  0.37277000925E+01  0.50400000000E-02 0.  1.
          2   -1    0    0  501    0  0.00000000000E+00 -0.00000000000E+00 -0.48157774619E+03  0.48157774620E+03  0.25500000000E-02 0. -1.
         24    2    1    2    0    0  0.35527136788E-14  0.00000000000E+00 -0.47785004950E+03  0.48530544629E+03  0.84739048769E+02 0.  0.
         66    2    3    3    0    0 -0.27639837081E+02 -0.23254402079E+01 -0.42230599931E+03  0.42322065795E+03  0.20000009071E+01 0.  0.
        -13    1    3    3    0    0  0.27639837081E+02  0.23254402079E+01 -0.55544050198E+02  0.62084788333E+02  0.10566000000E+00 0.  1.
         13    1    4    4    0    0 -0.10896074299E+02 -0.13024328535E+01 -0.15832533539E+03  0.15870521024E+03  0.10566000000E+00 0. -1.
        -13    1    4    4    0    0 -0.85577194305E+01 -0.19894648502E+00 -0.12760843123E+03  0.12789525803E+03  0.10566000000E+00 0.  1.
        -14    1    4    4    0    0 -0.81860433520E+01 -0.82406086942E+00 -0.13637223268E+03  0.13662018968E+03  0.00000000000E+00 0.  1.
<mgrwt>
<rscale>  0 0.84739049E+02</rscale>
<asrwt>0</asrwt>
<pdfrwt beam="1">  1        2 0.74088835E-01 0.84739049E+02</pdfrwt>
<pdfrwt beam="2">  1       -1 0.57349244E-03 0.84739049E+02</pdfrwt>
<totfact> 0.25882815E+05</totfact>
</mgrwt>
</event>
<event>
 8    1  0.2389776E-016  0.7936475E+02  0.7818608E-02  0.1330864E+00
         -1   -1    0    0    0  501 -0.00000000000E+00  0.00000000000E+00  0.10672461693E+02  0.10672462883E+02  0.50400000000E-02 0.  1.
          2   -1    0    0  501    0  0.00000000000E+00 -0.00000000000E+00 -0.14754708501E+03  0.14754708503E+03  0.25500000000E-02 0. -1.
         24    2    1    2    0    0  0.00000000000E+00  0.00000000000E+00 -0.13687462332E+03  0.15821954792E+03  0.79364745537E+02 0.  0.
         66    2    3    3    0    0 -0.42489906135E+01  0.34244168235E+02 -0.10744311783E+03  0.11286602922E+03  0.20000005002E+01 0.  0.
        -13    1    3    3    0    0  0.42489906135E+01 -0.34244168235E+02 -0.29431505487E+02  0.45353518701E+02  0.10566000000E+00 0.  1.
         13    1    4    4    0    0 -0.15174898831E+01  0.12202173097E+02 -0.37961402168E+02  0.39903320945E+02  0.10566000000E+00 0. -1.
        -13    1    4    4    0    0 -0.11806642586E+01  0.11659493867E+02 -0.34194416532E+02  0.36147019951E+02  0.10566000000E+00 0.  1.
        -14    1    4    4    0    0 -0.15508364717E+01  0.10382501271E+02 -0.35287299132E+02  0.36815688320E+02  0.00000000000E+00 0.  1.
<mgrwt>
<rscale>  0 0.79364746E+02</rscale>
<asrwt>0</asrwt>
<pdfrwt beam="1">  1        2 0.22699550E-01 0.79364746E+02</pdfrwt>
<pdfrwt beam="2">  1       -1 0.16419174E-02 0.79364746E+02</pdfrwt>
<totfact> 0.20350075E+05</totfact>
</mgrwt>
</event>
<event>
 8    1  0.2389776E-016  0.7235930E+02  0.7818608E-02  0.1352249E+00
         -1   -1    0    0    0  501 -0.00000000000E+00  0.00000000000E+00  0.59044216342E+00  0.59046367369E+00  0.50400000000E-02 0.  1.
          2   -1    0    0  501    0  0.00000000000E+00 -0.00000000000E+00 -0.22168862932E+04  0.22168862932E+04  0.25500000000E-02 0. -1.
         24    2    1    2    0    0  0.88817841970E-15  0.17763568394E-14 -0.22162958510E+04  0.22174767569E+04  0.72359297672E+02 0.  0.
         66    2    3    3    0    0 -0.70152891059E+01 -0.11053600477E+02 -0.21416843196E+04  0.21417252674E+04  0.19999989588E+01 0.  0.
        -13    1    3    3    0    0  0.70152891059E+01  0.11053600477E+02 -0.74611531477E+02  0.75751489478E+02  0.10566000000E+00 0.  1.
         13    1    4    4    0    0 -0.51061429309E+01 -0.73512733389E+01 -0.14309868579E+04  0.14310148540E+04  0.10566000000E+00 0. -1.
        -13    1    4    4    0    0 -0.19061841772E+01 -0.28566784143E+01 -0.58785793915E+03  0.58786798002E+03  0.10566000000E+00 0.  1.
        -14    1    4    4    0    0 -0.29619977593E-02 -0.84564872350E+00 -0.12283952257E+03  0.12284243337E+03  0.00000000000E+00 0.  1.
<mgrwt>
<rscale>  0 0.72359298E+02</rscale>
<asrwt>0</asrwt>
<pdfrwt beam="1">  1        2 0.34105277E+00 0.72359298E+02</pdfrwt>
<pdfrwt beam="2">  1       -1 0.90840686E-04 0.72359298E+02</pdfrwt>
<totfact> 0.32303655E+05</totfact>
</mgrwt>
</event>
<event>
 8    1  0.2389776E-016  0.7853216E+02  0.7818608E-02  0.1333269E+00
         -1   -1    0    0    0  501 -0.00000000000E+00  0.00000000000E+00  0.75123677112E+01  0.75123694019E+01  0.50400000000E-02 0.  1.
          2   -1    0    0  501    0  0.00000000000E+00 -0.00000000000E+00 -0.20523820732E+03  0.20523820733E+03  0.25500000000E-02 0. -1.
         24    2    1    2    0    0  0.00000000000E+00  0.00000000000E+00 -0.19772583960E+03  0.21275057673E+03  0.78532160629E+02 0.  0.
         66    2    3    3    0    0  0.19848352649E+02  0.14484285671E+02 -0.18181206607E+03  0.18347582676E+03  0.19999998164E+01 0.  0.
        -13    1    3    3    0    0 -0.19848352649E+02 -0.14484285671E+02 -0.15913773531E+02  0.29274749979E+02  0.10566000000E+00 0.  1.
         13    1    4    4    0    0  0.10303540077E+01  0.37043538555E+00 -0.75551343669E+01  0.76347934545E+01  0.10566000000E+00 0. -1.
        -13    1    4    4    0    0  0.53504917448E+01  0.36598326143E+01 -0.51112392732E+02  0.51521936993E+02  0.10566000000E+00 0. -1.
         14    1    4    4    0    0  0.13467506897E+02  0.10454017671E+02 -0.12314453897E+03  0.12431909631E+03  0.00000000000E+00 0. -1.
<mgrwt>
<rscale>  0 0.78532161E+02</rscale>
<asrwt>0</asrwt>
<pdfrwt beam="1">  1        2 0.31575105E-01 0.78532161E+02</pdfrwt>
<pdfrwt beam="2">  1       -1 0.11557492E-02 0.78532161E+02</pdfrwt>
<totfact> 0.23371000E+05</totfact>
</mgrwt>
</event>
<event>
 8    1  0.2389776E-016  0.7995271E+02  0.7818608E-02  0.1329186E+00
         -1   -1    0    0    0  501 -0.00000000000E+00  0.00000000000E+00  0.41158391964E+01  0.41158422823E+01  0.50400000000E-02 0.  1.
          2   -1    0    0  501    0  0.00000000000E+00 -0.00000000000E+00 -0.38828250501E+03  0.38828250502E+03  0.25500000000E-02 0. -1.
         24    2    1    2    0    0  0.35527136788E-14  0.88817841970E-15 -0.38416666582E+03  0.39239834730E+03  0.79952710035E+02 0.  0.
         66    2    3    3    0    0 -0.19181740420E+02  0.74792837552E+01 -0.36023809395E+03  0.36083148863E+03  0.20000005634E+01 0.  0.
        -13    1    3    3    0    0  0.19181740420E+02 -0.74792837552E+01 -0.23928571868E+02  0.31566858676E+02  0.10566000000E+00 0.  1.
         13    1    4    4    0    0 -0.27604090720E+01  0.16491648598E+01 -0.51239207140E+02  0.51340112148E+02  0.10566000000E+00 0. -1.
        -13    1    4    4    0    0 -0.34240163367E+01  0.14614042751E+01 -0.60642318442E+02  0.60756576108E+02  0.10566000000E+00 0.  1.
         14    1    4    4    0    0 -0.12997315011E+02  0.43687146203E+01 -0.24835656837E+03  0.24873480037E+03  0.00000000000E+00 0. -1.
<mgrwt>
<rscale>  0 0.79952710E+02</rscale>
<asrwt>0</asrwt>
<pdfrwt beam="1">  1        2 0.59735741E-01 0.79952710E+02</pdfrwt>
<pdfrwt beam="2">  1       -1 0.63320657E-03 0.79952710E+02</pdfrwt>
<totfact> 0.28003613E+05</totfact>
</mgrwt>
</event>
<event>
 8    1  0.2389776E-016  0.8068036E+02  0.7818608E-02  0.1327132E+00
         -1   -1    0    0    0  501 -0.00000000000E+00  0.00000000000E+00  0.76103940655E+02  0.76103940822E+02  0.50400000000E-02 0.  1.
          2   -1    0    0  501    0  0.00000000000E+00 -0.00000000000E+00 -0.21382993956E+02  0.21382994108E+02  0.25500000000E-02 0. -1.
         24    2    1    2    0    0  0.00000000000E+00  0.00000000000E+00  0.54720946698E+02  0.97486934930E+02  0.80680359906E+02 0.  0.
         66    2    3    3    0    0 -0.21052566930E+02  0.19294780800E+02 -0.70081896077E+01  0.29472255826E+02  0.20000003635E+01 0.  0.
        -13    1    3    3    0    0  0.21052566930E+02 -0.19294780800E+02  0.61729136306E+02  0.68014679104E+02  0.10566000000E+00 0.  1.
         13    1    4    4    0    0 -0.32582380265E+01  0.37069218169E+01 -0.11876619811E+01  0.50773112383E+01  0.10566000000E+00 0. -1.
        -13    1    4    4    0    0 -0.10785291944E+02  0.89596475974E+01 -0.29317416331E+01  0.14324946088E+02  0.10566000000E+00 0.  1.
         14    1    4    4    0    0 -0.70090369597E+01  0.66282113857E+01 -0.28887859936E+01  0.10069998500E+02  0.00000000000E+00 0. -1.
<mgrwt>
<rscale>  0 0.80680360E+02</rscale>
<asrwt>0</asrwt>
<pdfrwt beam="1">  1        2 0.32896914E-02 0.80680360E+02</pdfrwt>
<pdfrwt beam="2">  1       -1 0.11708299E-01 0.80680360E+02</pdfrwt>
<totfact> 0.12282579E+05</totfact>
</mgrwt>
</event>
<event>
 8    1  0.2389776E-016  0.7903819E+02  0.7818608E-02  0.1331803E+00
         -1   -1    0    0    0  501 -0.00000000000E+00  0.00000000000E+00  0.55304118031E+01  0.55304140996E+01  0.50400000000E-02 0.  1.
          2   -1    0    0  501    0  0.00000000000E+00 -0.00000000000E+00 -0.28239459775E+03  0.28239459777E+03  0.25500000000E-02 0. -1.
         24    2    1    2    0    0 -0.44408920985E-15  0.00000000000E+00 -0.27686418595E+03  0.28792501187E+03  0.79038186943E+02 0.  0.
         66    2    3    3    0    0 -0.28890107422E+01  0.11485723653E+02 -0.27576908172E+03  0.27603053213E+03  0.20000005897E+01 0.  0.
        -13    1    3    3    0    0  0.28890107422E+01 -0.11485723653E+02 -0.10951042289E+01  0.11894479737E+02  0.10566000000E+00 0.  1.
         13    1    4    4    0    0 -0.15973573386E+01  0.48536034531E+01 -0.11887385220E+03  0.11898366660E+03  0.10566000000E+00 0. -1.
        -13    1    4    4    0    0 -0.45689333977E+00  0.49762075675E+01 -0.12209026237E+03  0.12219253137E+03  0.10566000000E+00 0. -1.
         14    1    4    4    0    0 -0.83476006389E+00  0.16559126323E+01 -0.34804967158E+02  0.34854334162E+02  0.00000000000E+00 0. -1.
<mgrwt>
<rscale>  0 0.79038187E+02</rscale>
<asrwt>0</asrwt>
<pdfrwt beam="1">  1        2 0.43445312E-01 0.79038187E+02</pdfrwt>
<pdfrwt beam="2">  1       -1 0.85083298E-03 0.79038187E+02</pdfrwt>
<totfact> 0.25745846E+05</totfact>
</mgrwt>
</event>
<event>
 8    1  0.2389776E-016  0.7931122E+02  0.7818608E-02  0.1331018E+00
          2   -1    0    0  501    0  0.00000000000E+00  0.00000000000E+00  0.70297090376E+02  0.70297090422E+02  0.25500000000E-02 0. -1.
         -1   -1    0    0    0  501 -0.00000000000E+00 -0.00000000000E+00 -0.22370304087E+02  0.22370304655E+02  0.50400000000E-02 0.  1.
         24    2    1    2    0    0 -0.35527136788E-14  0.00000000000E+00  0.47926786289E+02  0.92667395078E+02  0.79311217785E+02 0.  0.
         66    2    3    3    0    0 -0.28010920650E+02 -0.10026557458E+02  0.54567946470E+02  0.62183633783E+02  0.19999996024E+01 0.  0.
        -13    1    3    3    0    0  0.28010920650E+02  0.10026557458E+02 -0.66411601810E+01  0.30483761295E+02  0.10566000000E+00 0.  1.
         13    1    4    4    0    0 -0.43304523868E+01 -0.18416046837E+01  0.78512309295E+01  0.91540874383E+01  0.10566000000E+00 0. -1.
        -13    1    4    4    0    0 -0.85338519499E+01 -0.34030628602E+01  0.18200080695E+02  0.20387779852E+02  0.10566000000E+00 0.  1.
         14    1    4    4    0    0 -0.15146616313E+02 -0.47818899144E+01  0.28516634845E+02  0.32641766493E+02  0.00000000000E+00 0. -1.
<mgrwt>
<rscale>  0 0.79311218E+02</rscale>
<asrwt>0</asrwt>
<pdfrwt beam="1">  1        2 0.10814937E-01 0.79311218E+02</pdfrwt>
<pdfrwt beam="2">  1       -1 0.34415853E-02 0.79311218E+02</pdfrwt>
<totfact> 0.16545746E+05</totfact>
</mgrwt>
</event>
<event>
 8    1  0.2389776E-016  0.7755199E+02  0.7818608E-02  0.1336146E+00
          2   -1    0    0  501    0  0.00000000000E+00  0.00000000000E+00  0.87682527308E+02  0.87682527345E+02  0.25500000000E-02 0. -1.
         -1   -1    0    0    0  501 -0.00000000000E+00 -0.00000000000E+00 -0.17147974834E+02  0.17147975574E+02  0.50400000000E-02 0.  1.
         24    2    1    2    0    0  0.00000000000E+00  0.88817841970E-15  0.70534552475E+02  0.10483050292E+03  0.77551990623E+02 0.  0.
         66    2    3    3    0    0 -0.36257109448E+02  0.49962578677E+01  0.52497285237E+02  0.64027381083E+02  0.19999982279E+01 0.  0.
        -13    1    3    3    0    0  0.36257109448E+02 -0.49962578677E+01  0.18037267238E+02  0.40803121837E+02  0.10566000000E+00 0.  1.
         13    1    4    4    0    0 -0.14621776187E+02  0.20461151670E+01  0.21911510229E+02  0.26421740494E+02  0.10566000000E+00 0. -1.
        -13    1    4    4    0    0 -0.72409216773E+01  0.72622674427E+00  0.11222630500E+02  0.13375984128E+02  0.10566000000E+00 0.  1.
         14    1    4    4    0    0 -0.14394411583E+02  0.22239159564E+01  0.19363144508E+02  0.24229656461E+02  0.00000000000E+00 0. -1.
<mgrwt>
<rscale>  0 0.77551991E+02</rscale>
<asrwt>0</asrwt>
<pdfrwt beam="1">  1        2 0.13489620E-01 0.77551991E+02</pdfrwt>
<pdfrwt beam="2">  1       -1 0.26381499E-02 0.77551991E+02</pdfrwt>
<totfact> 0.18588101E+05</totfact>
</mgrwt>
</event>
<event>
 8    1  0.2389776E-016  0.7899471E+02  0.7818608E-02  0.1331929E+00
          2   -1    0    0  501    0  0.00000000000E+00  0.00000000000E+00  0.72846559508E+01  0.72846563971E+01  0.25500000000E-02 0. -1.
         -1   -1    0    0    0  501 -0.00000000000E+00 -0.00000000000E+00 -0.21415438280E+03  0.21415438286E+03  0.50400000000E-02 0.  1.
         24    2    1    2    0    0  0.00000000000E+00  0.35527136788E-14 -0.20686972685E+03  0.22143903925E+03  0.78994710076E+02 0.  0.
         66    2    3    3    0    0 -0.22296675041E+02  0.26456090788E+02 -0.50242161107E+02  0.61035573047E+02  0.19999916966E+01 0.  0.
        -13    1    3    3    0    0  0.22296675041E+02 -0.26456090788E+02 -0.15662756574E+03  0.16040346621E+03  0.10566000000E+00 0.  1.
         13    1    4    4    0    0 -0.18466016514E+02  0.21664293848E+02 -0.42028875680E+02  0.50761924203E+02  0.10566000000E+00 0. -1.
        -13    1    4    4    0    0 -0.92198412345E-01  0.98210012782E-01 -0.22552108355E+00  0.28314227620E+00  0.10566000000E+00 0. -1.
        -14    1    4    4    0    0 -0.37384601138E+01  0.46935869271E+01 -0.79877643436E+01  0.99905065674E+01  0.00000000000E+00 0.  1.
<mgrwt>
<rscale>  0 0.78994710E+02</rscale>
<asrwt>0</asrwt>
<pdfrwt beam="1">  1        2 0.11207165E-02 0.78994710E+02</pdfrwt>
<pdfrwt beam="2">  1       -1 0.32946823E-01 0.78994710E+02</pdfrwt>
<totfact> 0.10071239E+05</totfact>
</mgrwt>
</event>
<event>
 8    1  0.2389776E-016  0.7464463E+02  0.7818608E-02  0.1344975E+00
         -1   -1    0    0    0  501 -0.00000000000E+00  0.00000000000E+00  0.20375005981E+02  0.20375006604E+02  0.50400000000E-02 0.  1.
          2   -1    0    0  501    0  0.00000000000E+00 -0.00000000000E+00 -0.68365873137E+02  0.68365873185E+02  0.25500000000E-02 0. -1.
         24    2    1    2    0    0 -0.35527136788E-14 -0.17763568394E-14 -0.47990867157E+02  0.88740879789E+02  0.74644627505E+02 0.  0.
         66    2    3    3    0    0 -0.17781898858E+02 -0.15911983041E+02 -0.58088378697E+02  0.62830302130E+02  0.19999987053E+01 0.  0.
        -13    1    3    3    0    0  0.17781898858E+02  0.15911983041E+02  0.10097511541E+02  0.25910577659E+02  0.10566000000E+00 0.  1.
         13    1    4    4    0    0 -0.19873366038E+01 -0.13643906394E+01 -0.48391219325E+01  0.54073407241E+01  0.10566000000E+00 0.  1.
        -13    1    4    4    0    0 -0.69950072751E+01 -0.59332926742E+01 -0.23343356176E+02  0.25081019324E+02  0.10566000000E+00 0. -1.
         14    1    4    4    0    0 -0.87995549787E+01 -0.86142997271E+01 -0.29905900589E+02  0.32341942082E+02  0.00000000000E+00 0. -1.
<mgrwt>
<rscale>  0 0.74644628E+02</rscale>
<asrwt>0</asrwt>
<pdfrwt beam="1">  1        2 0.10517827E-01 0.74644628E+02</pdfrwt>
<pdfrwt beam="2">  1       -1 0.31346164E-02 0.74644628E+02</pdfrwt>
<totfact> 0.19351193E+05</totfact>
</mgrwt>
</event>
<event>
 8    1  0.2389776E-016  0.8531840E+02  0.7818608E-02  0.1314602E+00
          2   -1    0    0  501    0  0.00000000000E+00  0.00000000000E+00  0.75639868424E+03  0.75639868424E+03  0.25500000000E-02 0. -1.
         -1   -1    0    0    0  501 -0.00000000000E+00 -0.00000000000E+00 -0.24058808996E+01  0.24058861786E+01  0.50400000000E-02 0.  1.
         24    2    1    2    0    0  0.00000000000E+00  0.17763568394E-14  0.75399280334E+03  0.75880457042E+03  0.85318395470E+02 0.  0.
         66    2    3    3    0    0  0.38379420224E+01  0.14830925463E+02  0.73107288624E+03  0.73123611176E+03  0.19999998379E+01 0.  0.
        -13    1    3    3    0    0 -0.38379420224E+01 -0.14830925463E+02  0.22919917101E+02  0.27568458662E+02  0.10566000000E+00 0.  1.
         13    1    4    4    0    0  0.71372128665E+00  0.45689973395E+01  0.24570545577E+03  0.24574899246E+03  0.10566000000E+00 0. -1.
        -13    1    4    4    0    0  0.21507810932E+01  0.56113285595E+01  0.25708451713E+03  0.25715476464E+03  0.10566000000E+00 0.  1.
        -14    1    4    4    0    0  0.97343964256E+00  0.46505995642E+01  0.22828291334E+03  0.22833235466E+03  0.00000000000E+00 0.  1.
<mgrwt>
<rscale>  0 0.85318395E+02</rscale>
<asrwt>0</asrwt>
<pdfrwt beam="1">  1        2 0.11636900E+00 0.85318395E+02</pdfrwt>
<pdfrwt beam="2">  1       -1 0.37013603E-03 0.85318395E+02</pdfrwt>
<totfact> 0.28757172E+05</totfact>
</mgrwt>
</event>
<event>
 8    1  0.2389776E-016  0.8024105E+02  0.7818608E-02  0.1328369E+00
          2   -1    0    0  501    0  0.00000000000E+00  0.00000000000E+00  0.88785619397E+02  0.88785619434E+02  0.25500000000E-02 0. -1.
         -1   -1    0    0    0  501 -0.00000000000E+00 -0.00000000000E+00 -0.18129697075E+02  0.18129697775E+02  0.50400000000E-02 0.  1.
         24    2    1    2    0    0  0.00000000000E+00 -0.88817841970E-15  0.70655922322E+02  0.10691531721E+03  0.80241047442E+02 0.  0.
         66    2    3    3    0    0 -0.30749438986E+02  0.55956787202E+01  0.68815034571E+02  0.75606538088E+02  0.20000000742E+01 0.  0.
        -13    1    3    3    0    0  0.30749438986E+02 -0.55956787202E+01  0.18408877515E+01  0.31308779121E+02  0.10566000000E+00 0.  1.
         13    1    4    4    0    0 -0.19350160152E+02  0.35943952980E+01  0.44509121483E+02  0.48666430264E+02  0.10566000000E+00 0. -1.
        -13    1    4    4    0    0 -0.83535051525E+01  0.18464893415E+01  0.18468888423E+02  0.20354399398E+02  0.10566000000E+00 0.  1.
        -14    1    4    4    0    0 -0.30457736814E+01  0.15479408073E+00  0.58370246654E+01  0.65857084258E+01  0.00000000000E+00 0.  1.
<mgrwt>
<rscale>  0 0.80241047E+02</rscale>
<asrwt>0</asrwt>
<pdfrwt beam="1">  1        2 0.13659326E-01 0.80241047E+02</pdfrwt>
<pdfrwt beam="2">  1       -1 0.27891843E-02 0.80241047E+02</pdfrwt>
<totfact> 0.17019878E+05</totfact>
</mgrwt>
</event>
<event>
 8    1  0.2389776E-016  0.7804775E+02  0.7818608E-02  0.1334685E+00
          2   -1    0    0  501    0  0.00000000000E+00  0.00000000000E+00  0.26552445982E+02  0.26552446105E+02  0.25500000000E-02 0. -1.
         -1   -1    0    0    0  501 -0.00000000000E+00 -0.00000000000E+00 -0.57353009704E+02  0.57353009926E+02  0.50400000000E-02 0.  1.
         24    2    1    2    0    0  0.17763568394E-14 -0.17763568394E-14 -0.30800563722E+02  0.83905456030E+02  0.78047747091E+02 0.  0.
         66    2    3    3    0    0  0.98853009797E+01 -0.12020200022E+02  0.23031657791E+02  0.27868650080E+02  0.20000031570E+01 0.  0.
        -13    1    3    3    0    0 -0.98853009797E+01  0.12020200022E+02 -0.53832221513E+02  0.56036805950E+02  0.10566000000E+00 0.  1.
         13    1    4    4    0    0  0.58884926710E+01 -0.71066987879E+01  0.14291710557E+02  0.17013044063E+02  0.10566000000E+00 0. -1.
        -13    1    4    4    0    0  0.71744179835E+00 -0.70245508354E+00  0.21508362804E+01  0.23760106521E+01  0.10566000000E+00 0.  1.
         14    1    4    4    0    0  0.32793665104E+01 -0.42110461505E+01  0.65891109540E+01  0.84795953651E+01  0.00000000000E+00 0. -1.
<mgrwt>
<rscale>  0 0.78047747E+02</rscale>
<asrwt>0</asrwt>
<pdfrwt beam="1">  1        2 0.40849917E-02 0.78047747E+02</pdfrwt>
<pdfrwt beam="2">  1       -1 0.88235400E-02 0.78047747E+02</pdfrwt>
<totfact> 0.14081728E+05</totfact>
</mgrwt>
</event>
<event>
 8    1  0.2389776E-016  0.8141912E+02  0.7818608E-02  0.1325072E+00
         -1   -1    0    0    0  501 -0.00000000000E+00  0.00000000000E+00  0.14579363245E+02  0.14579364116E+02  0.50400000000E-02 0.  1.
          2   -1    0    0  501    0  0.00000000000E+00 -0.00000000000E+00 -0.11367219247E+03  0.11367219250E+03  0.25500000000E-02 0. -1.
         24    2    1    2    0    0  0.00000000000E+00  0.00000000000E+00 -0.99092829228E+02  0.12825155662E+03  0.81419119194E+02 0.  0.
         66    2    3    3    0    0  0.36100415357E+02 -0.89176620203E+01 -0.75578922847E+02  0.84255197198E+02  0.19999978113E+01 0.  0.
        -13    1    3    3    0    0 -0.36100415357E+02  0.89176620203E+01 -0.23513906381E+02  0.43996359420E+02  0.10566000000E+00 0.  1.
         13    1    4    4    0    0  0.77754476493E+01 -0.16356079807E+01 -0.17533774075E+02  0.19250381735E+02  0.10566000000E+00 0. -1.
        -13    1    4    4    0    0  0.34305356025E+01 -0.57645217663E+00 -0.66536297661E+01  0.75088497609E+01  0.10566000000E+00 0.  1.
         14    1    4    4    0    0  0.24894432105E+02 -0.67056018629E+01 -0.51391519006E+02  0.57495965702E+02  0.00000000000E+00 0. -1.
<mgrwt>
<rscale>  0 0.81419119E+02</rscale>
<asrwt>0</asrwt>
<pdfrwt beam="1">  1        2 0.17488029E-01 0.81419119E+02</pdfrwt>
<pdfrwt beam="2">  1       -1 0.22429791E-02 0.81419119E+02</pdfrwt>
<totfact> 0.17544752E+05</totfact>
</mgrwt>
</event>
<event>
 8    1  0.2389776E-016  0.8065779E+02  0.7818608E-02  0.1327195E+00
         -1   -1    0    0    0  501 -0.00000000000E+00  0.00000000000E+00  0.74226920719E+01  0.74226937830E+01  0.50400000000E-02 0.  1.
          2   -1    0    0  501    0  0.00000000000E+00 -0.00000000000E+00 -0.21911448957E+03  0.21911448959E+03  0.25500000000E-02 0. -1.
         24    2    1    2    0    0  0.00000000000E+00  0.34694469520E-17 -0.21169179750E+03  0.22653718337E+03  0.80657785243E+02 0.  0.
         66    2    3    3    0    0 -0.30229892976E+02  0.16007244986E-01 -0.18077875683E+03  0.18329976979E+03  0.19999996368E+01 0.  0.
        -13    1    3    3    0    0  0.30229892976E+02 -0.16007244986E-01 -0.30913040669E+02  0.43237413579E+02  0.10566000000E+00 0.  1.
         13    1    4    4    0    0 -0.12657781485E+02  0.34546797551E+00 -0.73059088548E+02  0.74148367236E+02  0.10566000000E+00 0. -1.
        -13    1    4    4    0    0 -0.58073129025E+01 -0.20964025299E+00 -0.39319077802E+02  0.39746319017E+02  0.10566000000E+00 0.  1.
        -14    1    4    4    0    0 -0.11764798588E+02 -0.11982047754E+00 -0.68400590482E+02  0.69405083539E+02  0.00000000000E+00 0.  1.
<mgrwt>
<rscale>  0 0.80657785E+02</rscale>
<asrwt>0</asrwt>
<pdfrwt beam="1">  1        2 0.33709917E-01 0.80657785E+02</pdfrwt>
<pdfrwt beam="2">  1       -1 0.11419529E-02 0.80657785E+02</pdfrwt>
<totfact> 0.22288517E+05</totfact>
</mgrwt>
</event>
<event>
 8    1  0.2389776E-016  0.8133972E+02  0.7818608E-02  0.1325292E+00
          2   -1    0    0  501    0  0.00000000000E+00  0.00000000000E+00  0.57803686888E+02  0.57803686944E+02  0.25500000000E-02 0. -1.
         -1   -1    0    0    0  501 -0.00000000000E+00 -0.00000000000E+00 -0.28614743736E+02  0.28614744180E+02  0.50400000000E-02 0.  1.
         24    2    1    2    0    0  0.00000000000E+00  0.35527136788E-14  0.29188943151E+02  0.86418431124E+02  0.81339724832E+02 0.  0.
         66    2    3    3    0    0 -0.28070509106E+01 -0.26709421255E+02  0.47016517330E+02  0.54183259592E+02  0.19999998791E+01 0.  0.
        -13    1    3    3    0    0  0.28070509106E+01  0.26709421255E+02 -0.17827574179E+02  0.32235171533E+02  0.10566000000E+00 0.  1.
         13    1    4    4    0    0 -0.11367123309E+01 -0.58889825526E+01  0.99843480618E+01  0.11647772349E+02  0.10566000000E+00 0. -1.
        -13    1    4    4    0    0 -0.70808246168E+00 -0.48294086370E+01  0.95266090899E+01  0.10704765917E+02  0.10566000000E+00 0. -1.
         14    1    4    4    0    0 -0.96225611800E+00 -0.15991030066E+02  0.27505560179E+02  0.31830721326E+02  0.00000000000E+00 0. -1.
<mgrwt>
<rscale>  0 0.81339725E+02</rscale>
<asrwt>0</asrwt>
<pdfrwt beam="1">  1        2 0.88928749E-02 0.81339725E+02</pdfrwt>
<pdfrwt beam="2">  1       -1 0.44022683E-02 0.81339725E+02</pdfrwt>
<totfact> 0.14749956E+05</totfact>
</mgrwt>
</event>
<event>
 8    1  0.2389776E-016  0.8077314E+02  0.7818608E-02  0.1326872E+00
         -1   -1    0    0    0  501 -0.00000000000E+00  0.00000000000E+00  0.32799702468E+01  0.32799741190E+01  0.50400000000E-02 0.  1.
          2   -1    0    0  501    0  0.00000000000E+00 -0.00000000000E+00 -0.49728323250E+03  0.49728323250E+03  0.25500000000E-02 0. -1.
         24    2    1    2    0    0 -0.35527136788E-14 -0.17763568394E-14 -0.49400326225E+03  0.50056320662E+03  0.80773143497E+02 0.  0.
         66    2    3    3    0    0  0.29353709475E+02  0.10406980391E+02 -0.40625467829E+03  0.40745160342E+03  0.19999980098E+01 0.  0.
        -13    1    3    3    0    0 -0.29353709475E+02 -0.10406980391E+02 -0.87748583959E+02  0.93111603206E+02  0.10566000000E+00 0.  1.
         13    1    4    4    0    0  0.54280872947E+00  0.47694423703E+00 -0.97936770162E+01  0.98208650665E+01  0.10566000000E+00 0. -1.
        -13    1    4    4    0    0  0.22175756298E+02  0.74610719979E+01 -0.30350591841E+03  0.30440644775E+03  0.10566000000E+00 0.  1.
         14    1    4    4    0    0  0.66351444477E+01  0.24689641557E+01 -0.92955082871E+02  0.93224290597E+02  0.00000000000E+00 0. -1.
<mgrwt>
<rscale>  0 0.80773143E+02</rscale>
<asrwt>0</asrwt>
<pdfrwt beam="1">  1        2 0.76505053E-01 0.80773143E+02</pdfrwt>
<pdfrwt beam="2">  1       -1 0.50461150E-03 0.80773143E+02</pdfrwt>
<totfact> 0.29645533E+05</totfact>
</mgrwt>
</event>
<event>
 8    1  0.2389776E-016  0.8231483E+02  0.7818608E-02  0.1322608E+00
          2   -1    0    0  501    0  0.00000000000E+00  0.00000000000E+00  0.88161264885E+03  0.88161264885E+03  0.25500000000E-02 0. -1.
         -1   -1    0    0    0  501 -0.00000000000E+00 -0.00000000000E+00 -0.19213993887E+01  0.19214059989E+01  0.50400000000E-02 0.  1.
         24    2    1    2    0    0  0.00000000000E+00  0.71054273576E-14  0.87969124946E+03  0.88353405485E+03  0.82314832840E+02 0.  0.
         66    2    3    3    0    0  0.52880868836E+01 -0.17825141140E+02  0.83393072678E+03  0.83414036984E+03  0.20000001108E+01 0.  0.
        -13    1    3    3    0    0 -0.52880868836E+01  0.17825141140E+02  0.45760522681E+02  0.49393685017E+02  0.10566000000E+00 0.  1.
         13    1    4    4    0    0  0.24888629524E+01 -0.11418214540E+02  0.51917236156E+03  0.51930388236E+03  0.10566000000E+00 0. -1.
        -13    1    4    4    0    0  0.13355863930E+00 -0.23477518105E+00  0.12936611455E+02  0.12939862336E+02  0.10566000000E+00 0. -1.
        -14    1    4    4    0    0  0.26656652919E+01 -0.61721514195E+01  0.30182175377E+03  0.30189662514E+03  0.00000000000E+00 0.  1.
<mgrwt>
<rscale>  0 0.82314833E+02</rscale>
<asrwt>0</asrwt>
<pdfrwt beam="1">  1        2 0.13563240E+00 0.82314833E+02</pdfrwt>
<pdfrwt beam="2">  1       -1 0.29560111E-03 0.82314833E+02</pdfrwt>
<totfact> 0.32370472E+05</totfact>
</mgrwt>
</event>
<event>
 8    1  0.2389776E-016  0.7921221E+02  0.7818608E-02  0.1331302E+00
          2   -1    0    0  501    0  0.00000000000E+00  0.00000000000E+00  0.17679212636E+03  0.17679212638E+03  0.25500000000E-02 0. -1.
         -1   -1    0    0    0  501 -0.00000000000E+00 -0.00000000000E+00 -0.88728119215E+01  0.88728133529E+01  0.50400000000E-02 0.  1.
         24    2    1    2    0    0  0.17763568394E-14  0.00000000000E+00  0.16791931444E+03  0.18566493974E+03  0.79212206661E+02 0.  0.
         66    2    3    3    0    0  0.11655117767E+02 -0.33741224513E+02  0.12408787747E+03  0.12913602648E+03  0.20000001270E+01 0.  0.
        -13    1    3    3    0    0 -0.11655117767E+02  0.33741224513E+02  0.43831436977E+02  0.56528913250E+02  0.10566000000E+00 0.  1.
         13    1    4    4    0    0  0.43688817397E+01 -0.12082981267E+02  0.44003396662E+02  0.45840982164E+02  0.10566000000E+00 0. -1.
        -13    1    4    4    0    0  0.30314147963E+00 -0.13886126533E+01  0.62893277146E+01  0.64487942280E+01  0.10566000000E+00 0.  1.
        -14    1    4    4    0    0  0.69830945481E+01 -0.20269630592E+02  0.73795153089E+02  0.76846250093E+02  0.00000000000E+00 0.  1.
<mgrwt>
<rscale>  0 0.79212207E+02</rscale>
<asrwt>0</asrwt>
<pdfrwt beam="1">  1        2 0.27198787E-01 0.79212207E+02</pdfrwt>
<pdfrwt beam="2">  1       -1 0.13650482E-02 0.79212207E+02</pdfrwt>
<totfact> 0.21705624E+05</totfact>
</mgrwt>
</event>
<event>
 8    1  0.2389776E-016  0.8037357E+02  0.7818608E-02  0.1327995E+00
         -1   -1    0    0    0  501 -0.00000000000E+00  0.00000000000E+00  0.19144871201E+01  0.19144937542E+01  0.50400000000E-02 0.  1.
          2   -1    0    0  501    0  0.00000000000E+00 -0.00000000000E+00 -0.84355485308E+03  0.84355485309E+03  0.25500000000E-02 0. -1.
         24    2    1    2    0    0 -0.35527136788E-14  0.00000000000E+00 -0.84164036596E+03  0.84546934684E+03  0.80373570467E+02 0.  0.
         66    2    3    3    0    0 -0.31151653640E+02 -0.72156974407E+01 -0.67669573917E+03  0.67745377350E+03  0.20000002663E+01 0.  0.
        -13    1    3    3    0    0  0.31151653640E+02  0.72156974407E+01 -0.16494462679E+03  0.16801557334E+03  0.10566000000E+00 0.  1.
         13    1    4    4    0    0 -0.51065754965E+01 -0.11656684288E+01 -0.11167422688E+03  0.11179704831E+03  0.10566000000E+00 0. -1.
        -13    1    4    4    0    0 -0.77571142200E+01 -0.17219598881E+01 -0.18570613437E+03  0.18587608096E+03  0.10566000000E+00 0.  1.
         14    1    4    4    0    0 -0.18287963923E+02 -0.43280691238E+01 -0.37931537791E+03  0.37978064423E+03  0.00000000000E+00 0. -1.
<mgrwt>
<rscale>  0 0.80373570E+02</rscale>
<asrwt>0</asrwt>
<pdfrwt beam="1">  1        2 0.12977737E+00 0.80373570E+02</pdfrwt>
<pdfrwt beam="2">  1       -1 0.29453766E-03 0.80373570E+02</pdfrwt>
<totfact> 0.34240384E+05</totfact>
</mgrwt>
</event>
<event>
 8    1  0.2389776E-016  0.7935902E+02  0.7818608E-02  0.1330880E+00
         -1   -1    0    0    0  501 -0.00000000000E+00  0.00000000000E+00  0.34690356198E+02  0.34690356564E+02  0.50400000000E-02 0.  1.
          2   -1    0    0  501    0  0.00000000000E+00 -0.00000000000E+00 -0.45386205738E+02  0.45386205809E+02  0.25500000000E-02 0. -1.
         24    2    1    2    0    0  0.00000000000E+00  0.00000000000E+00 -0.10695849539E+02  0.80076562374E+02  0.79359023710E+02 0.  0.
         66    2    3    3    0    0 -0.21142072331E+02 -0.16225881000E+02 -0.34979913803E+02  0.44021141451E+02  0.20000220552E+01 0.  0.
        -13    1    3    3    0    0  0.21142072331E+02  0.16225881000E+02  0.24284064264E+02  0.36055420923E+02  0.10566000000E+00 0.  1.
         13    1    4    4    0    0 -0.27468247571E+01 -0.27072313545E+01 -0.46061512712E+01  0.60084891131E+01  0.10566000000E+00 0. -1.
        -13    1    4    4    0    0 -0.17106017176E+02 -0.12261077434E+02 -0.28247273451E+02  0.35225977133E+02  0.10566000000E+00 0.  1.
        -14    1    4    4    0    0 -0.12892303985E+01 -0.12575722115E+01 -0.21264890808E+01  0.27866752050E+01  0.00000000000E+00 0.  1.
<mgrwt>
<rscale>  0 0.79359024E+02</rscale>
<asrwt>0</asrwt>
<pdfrwt beam="1">  1        2 0.69824932E-02 0.79359024E+02</pdfrwt>
<pdfrwt beam="2">  1       -1 0.53369779E-02 0.79359024E+02</pdfrwt>
<totfact> 0.14962817E+05</totfact>
</mgrwt>
</event>
<event>
 8    1  0.2389776E-016  0.8001951E+02  0.7818608E-02  0.1328996E+00
          2   -1    0    0  501    0  0.00000000000E+00  0.00000000000E+00  0.36892277822E+03  0.36892277823E+03  0.25500000000E-02 0. -1.
         -1   -1    0    0    0  501 -0.00000000000E+00 -0.00000000000E+00 -0.43390655151E+01  0.43390684422E+01  0.50400000000E-02 0.  1.
         24    2    1    2    0    0 -0.35527136788E-14  0.17763568394E-14  0.36458371271E+03  0.37326184667E+03  0.80019513937E+02 0.  0.
         66    2    3    3    0    0  0.16555869000E+02 -0.81879321129E+01  0.34782818416E+03  0.34832396522E+03  0.20000040317E+01 0.  0.
        -13    1    3    3    0    0 -0.16555869000E+02  0.81879321129E+01  0.16755528542E+02  0.24937881454E+02  0.10566000000E+00 0.  1.
         13    1    4    4    0    0  0.55960249305E+01 -0.24448707792E+01  0.13173723174E+03  0.13187874082E+03  0.10566000000E+00 0. -1.
        -13    1    4    4    0    0  0.40126387072E+01 -0.22745262915E+01  0.79918166538E+02  0.80051228885E+02  0.10566000000E+00 0.  1.
         14    1    4    4    0    0  0.69472053626E+01 -0.34685350422E+01  0.13617278588E+03  0.13639399552E+03  0.00000000000E+00 0. -1.
<mgrwt>
<rscale>  0 0.80019514E+02</rscale>
<asrwt>0</asrwt>
<pdfrwt beam="1">  1        2 0.56757357E-01 0.80019514E+02</pdfrwt>
<pdfrwt beam="2">  1       -1 0.66754869E-03 0.80019514E+02</pdfrwt>
<totfact> 0.27441357E+05</totfact>
</mgrwt>
</event>
<event>
 8    1  0.2389776E-016  0.8003441E+02  0.7818608E-02  0.1328954E+00
          2   -1    0    0  501    0  0.00000000000E+00  0.00000000000E+00  0.36654154980E+03  0.36654154981E+03  0.25500000000E-02 0. -1.
         -1   -1    0    0    0  501 -0.00000000000E+00 -0.00000000000E+00 -0.43688805305E+01  0.43688834376E+01  0.50400000000E-02 0.  1.
         24    2    1    2    0    0  0.00000000000E+00  0.00000000000E+00  0.36217266927E+03  0.37091043324E+03  0.80034412132E+02 0.  0.
         66    2    3    3    0    0 -0.37155132404E+01 -0.34283347056E+02  0.27506333024E+03  0.27722371576E+03  0.20000026466E+01 0.  0.
        -13    1    3    3    0    0  0.37155132404E+01  0.34283347056E+02  0.87109339023E+02  0.93686717485E+02  0.10566000000E+00 0.  1.
         13    1    4    4    0    0 -0.11177836243E+01 -0.12668549881E+02  0.10465915663E+03  0.10542908435E+03  0.10566000000E+00 0. -1.
        -13    1    4    4    0    0 -0.27572108789E+01 -0.20730493380E+02  0.16300897809E+03  0.16434504455E+03  0.10566000000E+00 0.  1.
        -14    1    4    4    0    0  0.15948126273E+00 -0.88430379430E+00  0.73951955260E+01  0.74495868571E+01  0.00000000000E+00 0.  1.
<mgrwt>
<rscale>  0 0.80034412E+02</rscale>
<asrwt>0</asrwt>
<pdfrwt beam="1">  1        2 0.56391014E-01 0.80034412E+02</pdfrwt>
<pdfrwt beam="2">  1       -1 0.67213561E-03 0.80034412E+02</pdfrwt>
<totfact> 0.27365177E+05</totfact>
</mgrwt>
</event>
<event>
 8    1  0.2389776E-016  0.7903957E+02  0.7818608E-02  0.1331799E+00
         -1   -1    0    0    0  501 -0.00000000000E+00  0.00000000000E+00  0.16032027839E+01  0.16032107061E+01  0.50400000000E-02 0.  1.
          2   -1    0    0  501    0  0.00000000000E+00 -0.00000000000E+00 -0.97418080821E+03  0.97418080821E+03  0.25500000000E-02 0. -1.
         24    2    1    2    0    0  0.17763568394E-14  0.00000000000E+00 -0.97257760543E+03  0.97578401892E+03  0.79039566055E+02 0.  0.
         66    2    3    3    0    0  0.14324359003E+02  0.13075707085E+02 -0.91133643851E+03  0.91154498822E+03  0.20000015259E+01 0.  0.
        -13    1    3    3    0    0 -0.14324359003E+02 -0.13075707085E+02 -0.61241166911E+02  0.64239030700E+02  0.10566000000E+00 0.  1.
         13    1    4    4    0    0  0.69381467096E+01  0.57899490978E+01 -0.42760160136E+03  0.42769709146E+03  0.10566000000E+00 0. -1.
        -13    1    4    4    0    0  0.50400063176E-01 -0.38428390804E-02 -0.57994191034E+01  0.58006017710E+01  0.10566000000E+00 0. -1.
         14    1    4    4    0    0  0.73358122303E+01  0.72896008258E+01 -0.47793541805E+03  0.47804729499E+03  0.00000000000E+00 0. -1.
<mgrwt>
<rscale>  0 0.79039566E+02</rscale>
<asrwt>0</asrwt>
<pdfrwt beam="1">  1        2 0.14987350E+00 0.79039566E+02</pdfrwt>
<pdfrwt beam="2">  1       -1 0.24664797E-03 0.79039566E+02</pdfrwt>
<totfact> 0.36304295E+05</totfact>
</mgrwt>
</event>
<event>
 8    1  0.2389776E-016  0.7816733E+02  0.7818608E-02  0.1334334E+00
         -1   -1    0    0    0  501 -0.00000000000E+00  0.00000000000E+00  0.71494562493E+01  0.71494580258E+01  0.50400000000E-02 0.  1.
          2   -1    0    0  501    0  0.00000000000E+00 -0.00000000000E+00 -0.21365716105E+03  0.21365716107E+03  0.25500000000E-02 0. -1.
         24    2    1    2    0    0  0.17763568394E-14  0.35527136788E-14 -0.20650770480E+03  0.22080661909E+03  0.78167326246E+02 0.  0.
         66    2    3    3    0    0  0.14941340783E+02  0.23521340418E+02 -0.18063142962E+03  0.18277913034E+03  0.20000005834E+01 0.  0.
        -13    1    3    3    0    0 -0.14941340783E+02 -0.23521340418E+02 -0.25876275186E+02  0.38027488755E+02  0.10566000000E+00 0.  1.
         13    1    4    4    0    0  0.96637091771E+00  0.16848487172E+01 -0.12699125526E+02  0.12847238657E+02  0.10566000000E+00 0. -1.
        -13    1    4    4    0    0  0.75046783414E+01  0.11476647554E+02 -0.94779900909E+02  0.95766770941E+02  0.10566000000E+00 0.  1.
         14    1    4    4    0    0  0.64702915238E+01  0.10359844147E+02 -0.73152403182E+02  0.74165120740E+02  0.00000000000E+00 0. -1.
<mgrwt>
<rscale>  0 0.78167326E+02</rscale>
<asrwt>0</asrwt>
<pdfrwt beam="1">  1        2 0.32870328E-01 0.78167326E+02</pdfrwt>
<pdfrwt beam="2">  1       -1 0.10999167E-02 0.78167326E+02</pdfrwt>
<totfact> 0.23993558E+05</totfact>
</mgrwt>
</event>
<event>
 8    1  0.2389776E-016  0.7931979E+02  0.7818608E-02  0.1330993E+00
         -1   -1    0    0    0  501 -0.00000000000E+00  0.00000000000E+00  0.26281976722E+01  0.26282025047E+01  0.50400000000E-02 0.  1.
          2   -1    0    0  501    0  0.00000000000E+00 -0.00000000000E+00 -0.59847323005E+03  0.59847323005E+03  0.25500000000E-02 0. -1.
         24    2    1    2    0    0  0.00000000000E+00  0.00000000000E+00 -0.59584503238E+03  0.60110143256E+03  0.79319793347E+02 0.  0.
         66    2    3    3    0    0  0.34436252987E+01 -0.35940433789E+02 -0.42201653724E+03  0.42356290090E+03  0.19999958553E+01 0.  0.
        -13    1    3    3    0    0 -0.34436252987E+01  0.35940433789E+02 -0.17382849514E+03  0.17753853165E+03  0.10566000000E+00 0.  1.
         13    1    4    4    0    0  0.20419169794E+01 -0.19780274380E+02 -0.23802155080E+03  0.23885078708E+03  0.10566000000E+00 0. -1.
        -13    1    4    4    0    0  0.26039476515E+00 -0.24263576369E+01 -0.32454836773E+02  0.32546622111E+02  0.10566000000E+00 0.  1.
         14    1    4    4    0    0  0.11413135542E+01 -0.13733801772E+02 -0.15154014967E+03  0.15216549172E+03  0.00000000000E+00 0. -1.
<mgrwt>
<rscale>  0 0.79319793E+02</rscale>
<asrwt>0</asrwt>
<pdfrwt beam="1">  1        2 0.92072696E-01 0.79319793E+02</pdfrwt>
<pdfrwt beam="2">  1       -1 0.40433895E-03 0.79319793E+02</pdfrwt>
<totfact> 0.32862542E+05</totfact>
</mgrwt>
</event>
<event>
 8    1  0.2389776E-016  0.7798163E+02  0.7818608E-02  0.1334879E+00
          2   -1    0    0  501    0  0.00000000000E+00  0.00000000000E+00  0.94282343418E+03  0.94282343418E+03  0.25500000000E-02 0. -1.
         -1   -1    0    0    0  501 -0.00000000000E+00 -0.00000000000E+00 -0.16124756361E+01  0.16124835127E+01  0.50400000000E-02 0.  1.
         24    2    1    2    0    0  0.00000000000E+00  0.00000000000E+00  0.94121095854E+03  0.94443591769E+03  0.77981627012E+02 0.  0.
         66    2    3    3    0    0 -0.31529220276E+01  0.19970364041E+02  0.87432560813E+03  0.87456161898E+03  0.20000002951E+01 0.  0.
        -13    1    3    3    0    0  0.31529220276E+01 -0.19970364041E+02  0.66885350412E+02  0.69874298716E+02  0.10566000000E+00 0.  1.
         13    1    4    4    0    0 -0.82189957021E+00  0.77376808066E+01  0.33029503071E+03  0.33038669116E+03  0.10566000000E+00 0. -1.
        -13    1    4    4    0    0 -0.25060537023E+01  0.10899718608E+02  0.48111478663E+03  0.48124477478E+03  0.10566000000E+00 0.  1.
        -14    1    4    4    0    0  0.17503124494E+00  0.13329646260E+01  0.62915790786E+02  0.62930153034E+02  0.00000000000E+00 0.  1.
<mgrwt>
<rscale>  0 0.77981627E+02</rscale>
<asrwt>0</asrwt>
<pdfrwt beam="1">  1        2 0.14504966E+00 0.77981627E+02</pdfrwt>
<pdfrwt beam="2">  1       -1 0.24807395E-03 0.77981627E+02</pdfrwt>
<totfact> 0.37507454E+05</totfact>
</mgrwt>
</event>
<event>
 8    1  0.2389776E-016  0.8060347E+02  0.7818608E-02  0.1327348E+00
          2   -1    0    0  501    0  0.00000000000E+00  0.00000000000E+00  0.36870365868E+03  0.36870365869E+03  0.25500000000E-02 0. -1.
         -1   -1    0    0    0  501 -0.00000000000E+00 -0.00000000000E+00 -0.44052431879E+01  0.44052460710E+01  0.50400000000E-02 0.  1.
         24    2    1    2    0    0  0.00000000000E+00  0.00000000000E+00  0.36429841549E+03  0.37310890476E+03  0.80603469411E+02 0.  0.
         66    2    3    3    0    0 -0.26621159178E+02 -0.29337721194E+02  0.21590834910E+03  0.21952176022E+03  0.19999992539E+01 0.  0.
        -13    1    3    3    0    0  0.26621159178E+02  0.29337721194E+02  0.14839006639E+03  0.15358714454E+03  0.10566000000E+00 0.  1.
         13    1    4    4    0    0 -0.16667607551E+01 -0.17220237265E+01  0.14810639741E+02  0.15003655245E+02  0.10566000000E+00 0. -1.
        -13    1    4    4    0    0 -0.11134752782E+02 -0.13372888965E+02  0.93889913272E+02  0.95488972437E+02  0.10566000000E+00 0.  1.
         14    1    4    4    0    0 -0.13819645641E+02 -0.14242808502E+02  0.10720779609E+03  0.10902913254E+03  0.00000000000E+00 0. -1.
<mgrwt>
<rscale>  0 0.80603469E+02</rscale>
<asrwt>0</asrwt>
<pdfrwt beam="1">  1        2 0.56723648E-01 0.80603469E+02</pdfrwt>
<pdfrwt beam="2">  1       -1 0.67772985E-03 0.80603469E+02</pdfrwt>
<totfact> 0.26918693E+05</totfact>
</mgrwt>
</event>
<event>
 8    1  0.2389776E-016  0.7948829E+02  0.7818608E-02  0.1330510E+00
         -1   -1    0    0    0  501 -0.00000000000E+00  0.00000000000E+00  0.43469177777E+03  0.43469177780E+03  0.50400000000E-02 0.  1.
          2   -1    0    0  501    0  0.00000000000E+00 -0.00000000000E+00 -0.36338315271E+01  0.36338324218E+01  0.25500000000E-02 0. -1.
         24    2    1    2    0    0  0.35527136788E-14 -0.71054273576E-14  0.43105794624E+03  0.43832561022E+03  0.79488285655E+02 0.  0.
         66    2    3    3    0    0 -0.30511785683E+02  0.25160606653E+02  0.19535402689E+03  0.19932691994E+03  0.19999996879E+01 0.  0.
        -13    1    3    3    0    0  0.30511785683E+02 -0.25160606653E+02  0.23570391935E+03  0.23899869028E+03  0.10566000000E+00 0.  1.
         13    1    4    4    0    0 -0.11719207350E+02  0.97272562838E+01  0.76715546353E+02  0.78212822171E+02  0.10566000000E+00 0. -1.
        -13    1    4    4    0    0 -0.91896316271E+01  0.74802675409E+01  0.54168931980E+02  0.55449870043E+02  0.10566000000E+00 0.  1.
        -14    1    4    4    0    0 -0.96029467058E+01  0.79530828279E+01  0.64469548560E+02  0.65664227731E+02  0.00000000000E+00 0.  1.
<mgrwt>
<rscale>  0 0.79488286E+02</rscale>
<asrwt>0</asrwt>
<pdfrwt beam="1">  1        2 0.55905106E-03 0.79488286E+02</pdfrwt>
<pdfrwt beam="2">  1       -1 0.66875660E-01 0.79488286E+02</pdfrwt>
<totfact> 0.73720383E+04</totfact>
</mgrwt>
</event>
<event>
 8    1  0.2389776E-016  0.8029490E+02  0.7818608E-02  0.1328217E+00
         -1   -1    0    0    0  501 -0.00000000000E+00  0.00000000000E+00  0.30899101892E+01  0.30899142996E+01  0.50400000000E-02 0.  1.
          2   -1    0    0  501    0  0.00000000000E+00 -0.00000000000E+00 -0.52163869159E+03  0.52163869159E+03  0.25500000000E-02 0. -1.
         24    2    1    2    0    0  0.27755575616E-16 -0.71054273576E-14 -0.51854878140E+03  0.52472860589E+03  0.80294901165E+02 0.  0.
         66    2    3    3    0    0 -0.15675309994E+00  0.37557675607E+02 -0.35167102656E+03  0.35367656764E+03  0.20000008586E+01 0.  0.
        -13    1    3    3    0    0  0.15675309994E+00 -0.37557675607E+02 -0.16687775484E+03  0.17105203826E+03  0.10566000000E+00 0.  1.
         13    1    4    4    0    0  0.15007083984E-01  0.26003601945E+02 -0.24749398993E+03  0.24885633155E+03  0.10566000000E+00 0. -1.
        -13    1    4    4    0    0 -0.21549250978E+00  0.10633397222E+02 -0.93327734539E+02  0.93931851742E+02  0.10566000000E+00 0.  1.
        -14    1    4    4    0    0  0.43732325856E-01  0.92067644143E+00 -0.10849302097E+02  0.10888384344E+02  0.00000000000E+00 0.  1.
<mgrwt>
<rscale>  0 0.80294901E+02</rscale>
<asrwt>0</asrwt>
<pdfrwt beam="1">  1        2 0.80252036E-01 0.80294901E+02</pdfrwt>
<pdfrwt beam="2">  1       -1 0.47537153E-03 0.80294901E+02</pdfrwt>
<totfact> 0.30565546E+05</totfact>
</mgrwt>
</event>
<event>
 8    1  0.2389776E-016  0.8287644E+02  0.7818608E-02  0.1321081E+00
         -1   -1    0    0    0  501 -0.00000000000E+00  0.00000000000E+00  0.21278431137E+02  0.21278431734E+02  0.50400000000E-02 0.  1.
          2   -1    0    0  501    0  0.00000000000E+00 -0.00000000000E+00 -0.80697969127E+02  0.80697969167E+02  0.25500000000E-02 0. -1.
         24    2    1    2    0    0 -0.17763568394E-14 -0.88817841970E-15 -0.59419537990E+02  0.10197640090E+03  0.82876443250E+02 0.  0.
         66    2    3    3    0    0 -0.77568361973E+01 -0.69354526366E+01 -0.79050824209E+02  0.79757769672E+02  0.20000009274E+01 0.  0.
        -13    1    3    3    0    0  0.77568361973E+01  0.69354526366E+01  0.19631286219E+02  0.22218631230E+02  0.10566000000E+00 0.  1.
         13    1    4    4    0    0 -0.56175938240E+01 -0.50846648812E+01 -0.58244274306E+02  0.58735149875E+02  0.10566000000E+00 0. -1.
        -13    1    4    4    0    0 -0.56265284998E+00 -0.66909278013E+00 -0.99368600064E+01  0.99758014315E+01  0.10566000000E+00 0.  1.
         14    1    4    4    0    0 -0.15765895233E+01 -0.11816949753E+01 -0.10869689897E+02  0.11046818365E+02  0.00000000000E+00 0. -1.
<mgrwt>
<rscale>  0 0.82876443E+02</rscale>
<asrwt>0</asrwt>
<pdfrwt beam="1">  1        2 0.12415072E-01 0.82876443E+02</pdfrwt>
<pdfrwt beam="2">  1       -1 0.32736049E-02 0.82876443E+02</pdfrwt>
<totfact> 0.15210204E+05</totfact>
</mgrwt>
</event>
<event>
 8    1  0.2389776E-016  0.8005874E+02  0.7818608E-02  0.1328885E+00
          2   -1    0    0  501    0  0.00000000000E+00  0.00000000000E+00  0.12443761655E+03  0.12443761658E+03  0.25500000000E-02 0. -1.
         -1   -1    0    0    0  501 -0.00000000000E+00 -0.00000000000E+00 -0.12876737350E+02  0.12876738337E+02  0.50400000000E-02 0.  1.
         24    2    1    2    0    0 -0.35527136788E-14  0.00000000000E+00  0.11156087920E+03  0.13731435491E+03  0.80058742792E+02 0.  0.
         66    2    3    3    0    0  0.30916097498E+02  0.17654504726E+02  0.87107442272E+02  0.94123286818E+02  0.20000001518E+01 0.  0.
        -13    1    3    3    0    0 -0.30916097498E+02 -0.17654504726E+02  0.24453436928E+02  0.43191068095E+02  0.10566000000E+00 0.  1.
         13    1    4    4    0    0  0.17465388675E+02  0.88630730473E+01  0.47778883054E+02  0.51637454385E+02  0.10566000000E+00 0. -1.
        -13    1    4    4    0    0  0.10371884266E+02  0.69232853543E+01  0.30475323606E+02  0.32928169950E+02  0.10566000000E+00 0.  1.
         14    1    4    4    0    0  0.30788245558E+01  0.18681463244E+01  0.88532356130E+01  0.95576624838E+01  0.00000000000E+00 0. -1.
<mgrwt>
<rscale>  0 0.80058743E+02</rscale>
<asrwt>0</asrwt>
<pdfrwt beam="1">  1        2 0.19144250E-01 0.80058743E+02</pdfrwt>
<pdfrwt beam="2">  1       -1 0.19810365E-02 0.80058743E+02</pdfrwt>
<totfact> 0.18855283E+05</totfact>
</mgrwt>
</event>
<event>
 8    1  0.2389776E-016  0.8166125E+02  0.7818608E-02  0.1324402E+00
         -1   -1    0    0    0  501 -0.00000000000E+00  0.00000000000E+00  0.37547335538E+02  0.37547335877E+02  0.50400000000E-02 0.  1.
          2   -1    0    0  501    0  0.00000000000E+00 -0.00000000000E+00 -0.44401012841E+02  0.44401012914E+02  0.25500000000E-02 0. -1.
         24    2    1    2    0    0  0.00000000000E+00  0.00000000000E+00 -0.68536773026E+01  0.81948348791E+02  0.81661245257E+02 0.  0.
         66    2    3    3    0    0  0.32286636259E+02  0.81316103708E+01  0.20246105432E+02  0.39018646294E+02  0.20000013207E+01 0.  0.
        -13    1    3    3    0    0 -0.32286636259E+02 -0.81316103708E+01 -0.27099782735E+02  0.42929702497E+02  0.10566000000E+00 0.  1.
         13    1    4    4    0    0  0.11378255518E+02  0.23309946190E+01  0.72624929801E+01  0.13698656973E+02  0.10566000000E+00 0. -1.
        -13    1    4    4    0    0  0.10098454612E+02  0.26071071722E+01  0.69668372268E+01  0.12542877594E+02  0.10566000000E+00 0.  1.
        -14    1    4    4    0    0  0.10809926129E+02  0.31935085796E+01  0.60167752254E+01  0.12777111727E+02  0.00000000000E+00 0.  1.
<mgrwt>
<rscale>  0 0.81661245E+02</rscale>
<asrwt>0</asrwt>
<pdfrwt beam="1">  1        2 0.68309251E-02 0.81661245E+02</pdfrwt>
<pdfrwt beam="2">  1       -1 0.57765132E-02 0.81661245E+02</pdfrwt>
<totfact> 0.13765647E+05</totfact>
</mgrwt>
</event>
<event>
 8    1  0.2389776E-016  0.7825170E+02  0.7818608E-02  0.1334087E+00
         -1   -1    0    0    0  501 -0.00000000000E+00  0.00000000000E+00  0.57746276098E+01  0.57746298092E+01  0.50400000000E-02 0.  1.
          2   -1    0    0  501    0  0.00000000000E+00 -0.00000000000E+00 -0.26509619831E+03  0.26509619832E+03  0.25500000000E-02 0. -1.
         24    2    1    2    0    0  0.00000000000E+00  0.35527136788E-14 -0.25932157070E+03  0.27087082813E+03  0.78251699677E+02 0.  0.
         66    2    3    3    0    0  0.26039801601E+02  0.29000973353E+02 -0.14052585687E+03  0.14584458884E+03  0.19999805343E+01 0.  0.
        -13    1    3    3    0    0 -0.26039801601E+02 -0.29000973353E+02 -0.11879571383E+03  0.12502623929E+03  0.10566000000E+00 0.  1.
         13    1    4    4    0    0  0.15751405427E+02  0.18126324243E+02 -0.86553479727E+02  0.89823084006E+02  0.10566000000E+00 0. -1.
        -13    1    4    4    0    0  0.34284284969E+01  0.42989698866E+01 -0.18772009695E+02  0.19561052530E+02  0.10566000000E+00 0.  1.
         14    1    4    4    0    0  0.68599676763E+01  0.65756792233E+01 -0.35200367448E+02  0.36460452304E+02  0.00000000000E+00 0. -1.
<mgrwt>
<rscale>  0 0.78251700E+02</rscale>
<asrwt>0</asrwt>
<pdfrwt beam="1">  1        2 0.40784021E-01 0.78251700E+02</pdfrwt>
<pdfrwt beam="2">  1       -1 0.88840463E-03 0.78251700E+02</pdfrwt>
<totfact> 0.25832595E+05</totfact>
</mgrwt>
</event>
<event>
 8    1  0.2389776E-016  0.8073085E+02  0.7818608E-02  0.1326990E+00
         -1   -1    0    0    0  501 -0.00000000000E+00  0.00000000000E+00  0.77077686739E+02  0.77077686904E+02  0.50400000000E-02 0.  1.
          2   -1    0    0  501    0  0.00000000000E+00 -0.00000000000E+00 -0.21139291381E+02  0.21139291534E+02  0.25500000000E-02 0. -1.
         24    2    1    2    0    0  0.17763568394E-14 -0.16653345369E-15  0.55938395358E+02  0.98216978438E+02  0.80730853942E+02 0.  0.
         66    2    3    3    0    0  0.15402283180E+02 -0.44040591947E+00 -0.17370735026E+02  0.23305937555E+02  0.20000013685E+01 0.  0.
        -13    1    3    3    0    0 -0.15402283180E+02  0.44040591947E+00  0.73309130384E+02  0.74911040883E+02  0.10566000000E+00 0.  1.
         13    1    4    4    0    0  0.23729495081E+01 -0.61628250280E+00 -0.27323476264E+01  0.36725442241E+01  0.10566000000E+00 0. -1.
        -13    1    4    4    0    0  0.52258939254E+01  0.62528747231E+00 -0.61072343325E+01  0.80629043756E+01  0.10566000000E+00 0.  1.
        -14    1    4    4    0    0  0.78034397461E+01 -0.44941088898E+00 -0.85311530667E+01  0.11570488955E+02  0.00000000000E+00 0.  1.
<mgrwt>
<rscale>  0 0.80730854E+02</rscale>
<asrwt>0</asrwt>
<pdfrwt beam="1">  1        2 0.32521987E-02 0.80730854E+02</pdfrwt>
<pdfrwt beam="2">  1       -1 0.11858106E-01 0.80730854E+02</pdfrwt>
<totfact> 0.12232224E+05</totfact>
</mgrwt>
</event>
<event>
 8    1  0.2389776E-016  0.7877649E+02  0.7818608E-02  0.1332560E+00
          2   -1    0    0  501    0  0.00000000000E+00  0.00000000000E+00  0.46439667292E+02  0.46439667362E+02  0.25500000000E-02 0. -1.
         -1   -1    0    0    0  501 -0.00000000000E+00 -0.00000000000E+00 -0.33407512326E+02  0.33407512706E+02  0.50400000000E-02 0.  1.
         24    2    1    2    0    0  0.00000000000E+00  0.35527136788E-14  0.13032154966E+02  0.79847180068E+02  0.78776488255E+02 0.  0.
         66    2    3    3    0    0  0.14066216543E+00  0.21660074400E+02  0.39834140063E+02  0.45386533266E+02  0.20000196055E+01 0.  0.
        -13    1    3    3    0    0 -0.14066216543E+00 -0.21660074400E+02 -0.26801985097E+02  0.34460646802E+02  0.10566000000E+00 0.  1.
         13    1    4    4    0    0  0.12230214091E+00  0.85997147540E+01  0.14834067847E+02  0.17147325872E+02  0.10566000000E+00 0. -1.
        -13    1    4    4    0    0  0.46646442795E-01  0.13060203301E+01  0.34701031464E+01  0.37095343206E+01  0.10566000000E+00 0.  1.
         14    1    4    4    0    0 -0.28286418276E-01  0.11754339316E+02  0.21529969070E+02  0.24529673073E+02  0.00000000000E+00 0. -1.
<mgrwt>
<rscale>  0 0.78776488E+02</rscale>
<asrwt>0</asrwt>
<pdfrwt beam="1">  1        2 0.71445642E-02 0.78776488E+02</pdfrwt>
<pdfrwt beam="2">  1       -1 0.51396173E-02 0.78776488E+02</pdfrwt>
<totfact> 0.15342516E+05</totfact>
</mgrwt>
</event>
<event>
 8    1  0.2389776E-016  0.7736688E+02  0.7818608E-02  0.1336694E+00
          2   -1    0    0  501    0  0.00000000000E+00  0.00000000000E+00  0.77204228818E+02  0.77204228860E+02  0.25500000000E-02 0. -1.
         -1   -1    0    0    0  501 -0.00000000000E+00 -0.00000000000E+00 -0.19382465974E+02  0.19382466630E+02  0.50400000000E-02 0.  1.
         24    2    1    2    0    0  0.00000000000E+00  0.00000000000E+00  0.57821762844E+02  0.96586695490E+02  0.77366875905E+02 0.  0.
         66    2    3    3    0    0 -0.36833550710E+02 -0.31465077032E+01  0.43043003692E+02  0.56774211835E+02  0.19999985028E+01 0.  0.
        -13    1    3    3    0    0  0.36833550710E+02  0.31465077032E+01  0.14778759152E+02  0.39812483655E+02  0.10566000000E+00 0.  1.
         13    1    4    4    0    0 -0.94938692092E+01 -0.88913685615E+00  0.11171773499E+02  0.14688219908E+02  0.10566000000E+00 0. -1.
        -13    1    4    4    0    0 -0.24991773766E+02 -0.25391758671E+01  0.29092076925E+02  0.38436912908E+02  0.10566000000E+00 0.  1.
        -14    1    4    4    0    0 -0.23479077347E+01  0.28180502003E+00  0.27791532680E+01  0.36490790190E+01  0.00000000000E+00 0.  1.
<mgrwt>
<rscale>  0 0.77366876E+02</rscale>
<asrwt>0</asrwt>
<pdfrwt beam="1">  1        2 0.11877574E-01 0.77366876E+02</pdfrwt>
<pdfrwt beam="2">  1       -1 0.29819179E-02 0.77366876E+02</pdfrwt>
<totfact> 0.18105267E+05</totfact>
</mgrwt>
</event>
<event>
 8    1  0.2389776E-016  0.8089127E+02  0.7818608E-02  0.1326541E+00
          2   -1    0    0  501    0  0.00000000000E+00  0.00000000000E+00  0.22841900872E+03  0.22841900873E+03  0.25500000000E-02 0. -1.
         -1   -1    0    0    0  501 -0.00000000000E+00 -0.00000000000E+00 -0.71616151713E+01  0.71616169447E+01  0.50400000000E-02 0.  1.
         24    2    1    2    0    0  0.35527136788E-14  0.00000000000E+00  0.22125739355E+03  0.23558062568E+03  0.80891266496E+02 0.  0.
         66    2    3    3    0    0 -0.31694110883E+02 -0.21914557017E+01  0.18347627734E+03  0.18621724807E+03  0.19999975014E+01 0.  0.
        -13    1    3    3    0    0  0.31694110883E+02  0.21914557017E+01  0.37781116208E+02  0.49363377607E+02  0.10566000000E+00 0.  1.
         13    1    4    4    0    0 -0.88561410214E+01 -0.12694104689E+00  0.55502149693E+02  0.56204511673E+02  0.10566000000E+00 0. -1.
        -13    1    4    4    0    0 -0.99229182484E+01 -0.89378528696E+00  0.54843448945E+02  0.55741171632E+02  0.10566000000E+00 0.  1.
         14    1    4    4    0    0 -0.12915051614E+02 -0.11707293679E+01  0.73130678701E+02  0.74271564766E+02  0.00000000000E+00 0. -1.
<mgrwt>
<rscale>  0 0.80891266E+02</rscale>
<asrwt>0</asrwt>
<pdfrwt beam="1">  1        2 0.35141385E-01 0.80891266E+02</pdfrwt>
<pdfrwt beam="2">  1       -1 0.11017871E-02 0.80891266E+02</pdfrwt>
<totfact> 0.22447489E+05</totfact>
</mgrwt>
</event>
<event>
 8    1  0.2389776E-016  0.8362854E+02  0.7818608E-02  0.1319059E+00
         -1   -1    0    0    0  501 -0.00000000000E+00  0.00000000000E+00  0.55536356263E+01  0.55536379133E+01  0.50400000000E-02 0.  1.
          2   -1    0    0  501    0  0.00000000000E+00 -0.00000000000E+00 -0.31482669590E+03  0.31482669591E+03  0.25500000000E-02 0. -1.
         24    2    1    2    0    0  0.00000000000E+00  0.35527136788E-14 -0.30927306028E+03  0.32038033383E+03  0.83628538729E+02 0.  0.
         66    2    3    3    0    0 -0.80345114775E+01 -0.30500519061E+02 -0.25975215323E+03  0.26166775906E+03  0.19999956355E+01 0.  0.
        -13    1    3    3    0    0  0.80345114775E+01  0.30500519061E+02 -0.49520907042E+02  0.58712574768E+02  0.10566000000E+00 0.  1.
         13    1    4    4    0    0 -0.13847047647E+01 -0.83200215232E+01 -0.66531427471E+02  0.67064015469E+02  0.10566000000E+00 0. -1.
        -13    1    4    4    0    0 -0.14041009651E+01 -0.51643721402E+01 -0.44185456075E+02  0.44508515272E+02  0.10566000000E+00 0. -1.
         14    1    4    4    0    0 -0.52457057477E+01 -0.17016125398E+02 -0.14903526969E+03  0.15009522832E+03  0.00000000000E+00 0. -1.
<mgrwt>
<rscale>  0 0.83628539E+02</rscale>
<asrwt>0</asrwt>
<pdfrwt beam="1">  1        2 0.48434862E-01 0.83628539E+02</pdfrwt>
<pdfrwt beam="2">  1       -1 0.85440591E-03 0.83628539E+02</pdfrwt>
<totfact> 0.23090725E+05</totfact>
</mgrwt>
</event>
<event>
 8    1  0.2389776E-016  0.7919344E+02  0.7818608E-02  0.1331356E+00
         -1   -1    0    0    0  501 -0.00000000000E+00  0.00000000000E+00  0.93890351784E+01  0.93890365311E+01  0.50400000000E-02 0.  1.
          2   -1    0    0  501    0  0.00000000000E+00 -0.00000000000E+00 -0.16699267158E+03  0.16699267160E+03  0.25500000000E-02 0. -1.
         24    2    1    2    0    0  0.00000000000E+00  0.00000000000E+00 -0.15760363640E+03  0.17638170813E+03  0.79193438844E+02 0.  0.
         66    2    3    3    0    0 -0.20306065756E+02  0.52505910474E+01 -0.15358824776E+03  0.15502662623E+03  0.19999946451E+01 0.  0.
        -13    1    3    3    0    0  0.20306065756E+02 -0.52505910474E+01 -0.40153886419E+01  0.21355081897E+02  0.10566000000E+00 0.  1.
         13    1    4    4    0    0 -0.45437309917E+01  0.16026590500E+01 -0.39112034188E+02  0.39407821428E+02  0.10566000000E+00 0. -1.
        -13    1    4    4    0    0 -0.12007788541E+01  0.10968127877E+00 -0.10130513801E+02  0.10202567018E+02  0.10566000000E+00 0.  1.
        -14    1    4    4    0    0 -0.14561555911E+02  0.35382507187E+01 -0.10434569977E+03  0.10541623778E+03  0.00000000000E+00 0.  1.
<mgrwt>
<rscale>  0 0.79193439E+02</rscale>
<asrwt>0</asrwt>
<pdfrwt beam="1">  1        2 0.25691178E-01 0.79193439E+02</pdfrwt>
<pdfrwt beam="2">  1       -1 0.14444672E-02 0.79193439E+02</pdfrwt>
<totfact> 0.21309588E+05</totfact>
</mgrwt>
</event>
<event>
 8    1  0.2389776E-016  0.8116776E+02  0.7818608E-02  0.1325770E+00
         -1   -1    0    0    0  501 -0.00000000000E+00  0.00000000000E+00  0.24051386395E+03  0.24051386400E+03  0.50400000000E-02 0.  1.
          2   -1    0    0  501    0  0.00000000000E+00 -0.00000000000E+00 -0.68480520075E+01  0.68480524823E+01  0.25500000000E-02 0. -1.
         24    2    1    2    0    0  0.00000000000E+00  0.00000000000E+00  0.23366581194E+03  0.24736191648E+03  0.81167764885E+02 0.  0.
         66    2    3    3    0    0  0.25464416386E+02  0.26744467885E+02  0.65786370608E+02  0.75468865284E+02  0.20000012999E+01 0.  0.
        -13    1    3    3    0    0 -0.25464416386E+02 -0.26744467885E+02  0.16787944133E+03  0.17189305120E+03  0.10566000000E+00 0.  1.
         13    1    4    4    0    0  0.42249110341E+01  0.46048045879E+01  0.10141429906E+02  0.11912760516E+02  0.10566000000E+00 0. -1.
        -13    1    4    4    0    0  0.80329297061E+01  0.92785349458E+01  0.22514824358E+02  0.25642691948E+02  0.10566000000E+00 0.  1.
         14    1    4    4    0    0  0.13206575646E+02  0.12861128351E+02  0.33130116344E+02  0.37913412821E+02  0.00000000000E+00 0. -1.
<mgrwt>
<rscale>  0 0.81167765E+02</rscale>
<asrwt>0</asrwt>
<pdfrwt beam="1">  1        2 0.10535466E-02 0.81167765E+02</pdfrwt>
<pdfrwt beam="2">  1       -1 0.37002131E-01 0.81167765E+02</pdfrwt>
<totfact> 0.90448509E+04</totfact>
</mgrwt>
</event>
<event>
 8    1  0.2389776E-016  0.8018493E+02  0.7818608E-02  0.1328527E+00
         -1   -1    0    0    0  501 -0.00000000000E+00  0.00000000000E+00  0.46329080826E+02  0.46329081100E+02  0.50400000000E-02 0.  1.
          2   -1    0    0  501    0  0.00000000000E+00 -0.00000000000E+00 -0.34695392167E+02  0.34695392261E+02  0.25500000000E-02 0. -1.
         24    2    1    2    0    0  0.00000000000E+00  0.00000000000E+00  0.11633688659E+02  0.81024473361E+02  0.80184927334E+02 0.  0.
         66    2    3    3    0    0  0.15475738955E+02 -0.15405258783E+02 -0.28125631602E+02  0.35663309288E+02  0.19999955017E+01 0.  0.
        -13    1    3    3    0    0 -0.15475738955E+02  0.15405258783E+02  0.39759320261E+02  0.45361164072E+02  0.10566000000E+00 0.  1.
         13    1    4    4    0    0  0.11035683718E+01 -0.16750869596E+01 -0.28191424679E+01  0.34615759075E+01  0.10566000000E+00 0. -1.
        -13    1    4    4    0    0  0.31450147202E+01 -0.36583980977E+01 -0.58339032235E+01  0.75710359323E+01  0.10566000000E+00 0.  1.
        -14    1    4    4    0    0  0.11227155863E+02 -0.10071773726E+02 -0.19472585911E+02  0.24630697449E+02  0.00000000000E+00 0.  1.
<mgrwt>
<rscale>  0 0.80184927E+02</rscale>
<asrwt>0</asrwt>
<pdfrwt beam="1">  1        2 0.53377526E-02 0.80184927E+02</pdfrwt>
<pdfrwt beam="2">  1       -1 0.71275510E-02 0.80184927E+02</pdfrwt>
<totfact> 0.13760987E+05</totfact>
</mgrwt>
</event>
<event>
 8    1  0.2389776E-016  0.7854220E+02  0.7818608E-02  0.1333240E+00
         -1   -1    0    0    0  501 -0.00000000000E+00  0.00000000000E+00  0.15178784647E+01  0.15178868322E+01  0.50400000000E-02 0.  1.
          2   -1    0    0  501    0  0.00000000000E+00 -0.00000000000E+00 -0.10160333665E+04  0.10160333665E+04  0.25500000000E-02 0. -1.
         24    2    1    2    0    0  0.00000000000E+00 -0.17763568394E-14 -0.10145154880E+04  0.10175512533E+04  0.78542203310E+02 0.  0.
         66    2    3    3    0    0 -0.13394266033E+02  0.13421839776E+02 -0.95274567392E+03  0.95293644663E+03  0.19999995369E+01 0.  0.
        -13    1    3    3    0    0  0.13394266033E+02 -0.13421839776E+02 -0.61769814099E+02  0.64614806689E+02  0.10566000000E+00 0.  1.
         13    1    4    4    0    0 -0.53829181805E+01  0.62261863595E+01 -0.39878870247E+03  0.39887364112E+03  0.10566000000E+00 0. -1.
        -13    1    4    4    0    0 -0.51314849762E+01  0.49994736516E+01 -0.34417222541E+03  0.34424679923E+03  0.10566000000E+00 0.  1.
        -14    1    4    4    0    0 -0.28798628760E+01  0.21961797650E+01 -0.20978474605E+03  0.20981600628E+03  0.00000000000E+00 0.  1.
<mgrwt>
<rscale>  0 0.78542203E+02</rscale>
<asrwt>0</asrwt>
<pdfrwt beam="1">  1        2 0.15631228E+00 0.78542203E+02</pdfrwt>
<pdfrwt beam="2">  1       -1 0.23352122E-03 0.78542203E+02</pdfrwt>
<totfact> 0.36973687E+05</totfact>
</mgrwt>
</event>
<event>
 8    1  0.2389776E-016  0.7940566E+02  0.7818608E-02  0.1330747E+00
          2   -1    0    0  501    0  0.00000000000E+00  0.00000000000E+00  0.21308293085E+02  0.21308293238E+02  0.25500000000E-02 0. -1.
         -1   -1    0    0    0  501 -0.00000000000E+00 -0.00000000000E+00 -0.73976587279E+02  0.73976587451E+02  0.50400000000E-02 0.  1.
         24    2    1    2    0    0  0.00000000000E+00  0.00000000000E+00 -0.52668294194E+02  0.95284880689E+02  0.79405662737E+02 0.  0.
         66    2    3    3    0    0  0.70849271853E+01 -0.37994914330E+02 -0.15584397164E+02  0.41721494957E+02  0.19999995841E+01 0.  0.
        -13    1    3    3    0    0 -0.70849271853E+01  0.37994914330E+02 -0.37083897030E+02  0.53563385732E+02  0.10566000000E+00 0.  1.
         13    1    4    4    0    0  0.90181349579E+00 -0.34481646245E+01 -0.11095630273E+01  0.37343541619E+01  0.10566000000E+00 0. -1.
        -13    1    4    4    0    0  0.22180868913E+01 -0.13701540102E+02 -0.50692151642E+01  0.14777016514E+02  0.10566000000E+00 0.  1.
        -14    1    4    4    0    0  0.39650267981E+01 -0.20845209603E+02 -0.94056189728E+01  0.23210124282E+02  0.00000000000E+00 0.  1.
<mgrwt>
<rscale>  0 0.79405663E+02</rscale>
<asrwt>0</asrwt>
<pdfrwt beam="1">  1        2 0.32781990E-02 0.79405663E+02</pdfrwt>
<pdfrwt beam="2">  1       -1 0.11381013E-01 0.79405663E+02</pdfrwt>
<totfact> 0.12845929E+05</totfact>
</mgrwt>
</event>
<event>
 8    1  0.2389776E-016  0.7372183E+02  0.7818608E-02  0.1347875E+00
          2   -1    0    0  501    0  0.00000000000E+00  0.00000000000E+00  0.45124230923E+02  0.45124230995E+02  0.25500000000E-02 0. -1.
         -1   -1    0    0    0  501 -0.00000000000E+00 -0.00000000000E+00 -0.30110804475E+02  0.30110804897E+02  0.50400000000E-02 0.  1.
         24    2    1    2    0    0 -0.71054273576E-14 -0.17763568394E-14  0.15013426448E+02  0.75235035892E+02  0.73721826157E+02 0.  0.
         66    2    3    3    0    0 -0.32484718477E+02 -0.11122841934E+02  0.21118076876E+02  0.40360224522E+02  0.20000013251E+01 0.  0.
        -13    1    3    3    0    0  0.32484718477E+02  0.11122841934E+02 -0.61046504279E+01  0.34874811370E+02  0.10566000000E+00 0.  1.
         13    1    4    4    0    0 -0.33264527895E+01 -0.14677914277E+01  0.16822846035E+01  0.40076109290E+01  0.10566000000E+00 0. -1.
        -13    1    4    4    0    0 -0.96927149668E+01 -0.34549540436E+01  0.66488056862E+01  0.12251661600E+02  0.10566000000E+00 0.  1.
         14    1    4    4    0    0 -0.19465550721E+02 -0.62000964626E+01  0.12786986586E+02  0.24100951993E+02  0.00000000000E+00 0. -1.
<mgrwt>
<rscale>  0 0.73721826E+02</rscale>
<asrwt>0</asrwt>
<pdfrwt beam="1">  1        2 0.69421894E-02 0.73721826E+02</pdfrwt>
<pdfrwt beam="2">  1       -1 0.46324315E-02 0.73721826E+02</pdfrwt>
<totfact> 0.18275120E+05</totfact>
</mgrwt>
</event>
<event>
 8    1  0.2389776E-016  0.8039235E+02  0.7818608E-02  0.1327942E+00
          2   -1    0    0  501    0  0.00000000000E+00  0.00000000000E+00  0.61511549985E+03  0.61511549985E+03  0.25500000000E-02 0. -1.
         -1   -1    0    0    0  501 -0.00000000000E+00 -0.00000000000E+00 -0.26267115872E+01  0.26267164224E+01  0.50400000000E-02 0.  1.
         24    2    1    2    0    0  0.00000000000E+00  0.00000000000E+00  0.61248878826E+03  0.61774221628E+03  0.80392350532E+02 0.  0.
         66    2    3    3    0    0 -0.26909277245E+01 -0.32975729275E+02  0.48150388957E+03  0.48264338333E+03  0.19999978469E+01 0.  0.
        -13    1    3    3    0    0  0.26909277245E+01  0.32975729275E+02  0.13098489869E+03  0.13509883295E+03  0.10566000000E+00 0.  1.
         13    1    4    4    0    0 -0.59801533105E+00 -0.11761132381E+02  0.16038500507E+03  0.16081679910E+03  0.10566000000E+00 0.  1.
        -13    1    4    4    0    0 -0.13208586847E+01 -0.15308680260E+02  0.22717897562E+03  0.22769804235E+03  0.10566000000E+00 0. -1.
        -14    1    4    4    0    0 -0.77205370880E+00 -0.59059166344E+01  0.93939908871E+02  0.94128541882E+02  0.00000000000E+00 0.  1.
<mgrwt>
<rscale>  0 0.80392351E+02</rscale>
<asrwt>0</asrwt>
<pdfrwt beam="1">  1        2 0.94633334E-01 0.80392351E+02</pdfrwt>
<pdfrwt beam="2">  1       -1 0.40410908E-03 0.80392351E+02</pdfrwt>
<totfact> 0.31974518E+05</totfact>
</mgrwt>
</event>
<event>
 8    1  0.2389776E-016  0.7944937E+02  0.7818608E-02  0.1330621E+00
          2   -1    0    0  501    0  0.00000000000E+00  0.00000000000E+00  0.11752202255E+02  0.11752202532E+02  0.25500000000E-02 0. -1.
         -1   -1    0    0    0  501 -0.00000000000E+00 -0.00000000000E+00 -0.13427702063E+03  0.13427702073E+03  0.50400000000E-02 0.  1.
         24    2    1    2    0    0  0.00000000000E+00  0.71054273576E-14 -0.12252481838E+03  0.14602922326E+03  0.79449373360E+02 0.  0.
         66    2    3    3    0    0 -0.31116062056E+02  0.24647203071E+02 -0.60210879942E+02  0.72145990896E+02  0.20000004681E+01 0.  0.
        -13    1    3    3    0    0  0.31116062056E+02 -0.24647203071E+02 -0.62313938433E+02  0.73883232362E+02  0.10566000000E+00 0.  1.
         13    1    4    4    0    0 -0.25890903507E+01  0.18151436083E+01 -0.43151908343E+01  0.53507168805E+01  0.10566000000E+00 0. -1.
        -13    1    4    4    0    0 -0.63247919455E+01  0.54307077532E+01 -0.13761049883E+02  0.16089538147E+02  0.10566000000E+00 0.  1.
         14    1    4    4    0    0 -0.22202179760E+02  0.17401351709E+02 -0.42134639225E+02  0.50705735869E+02  0.00000000000E+00 0. -1.
<mgrwt>
<rscale>  0 0.79449373E+02</rscale>
<asrwt>0</asrwt>
<pdfrwt beam="1">  1        2 0.18080312E-02 0.79449373E+02</pdfrwt>
<pdfrwt beam="2">  1       -1 0.20658002E-01 0.79449373E+02</pdfrwt>
<totfact> 0.11282061E+05</totfact>
</mgrwt>
</event>
<event>
 8    1  0.2389776E-016  0.8012815E+02  0.7818608E-02  0.1328688E+00
          2   -1    0    0  501    0  0.00000000000E+00  0.00000000000E+00  0.48960671867E+03  0.48960671868E+03  0.25500000000E-02 0. -1.
         -1   -1    0    0    0  501 -0.00000000000E+00 -0.00000000000E+00 -0.32784052503E+01  0.32784091244E+01  0.50400000000E-02 0.  1.
         24    2    1    2    0    0 -0.35527136788E-14  0.35527136788E-14  0.48632831342E+03  0.49288512781E+03  0.80128152193E+02 0.  0.
         66    2    3    3    0    0 -0.30707721165E+02 -0.22052632880E+02  0.32441852771E+03  0.32662006043E+03  0.19999990769E+01 0.  0.
        -13    1    3    3    0    0  0.30707721165E+02  0.22052632880E+02  0.16190978571E+03  0.16626506738E+03  0.10566000000E+00 0.  1.
         13    1    4    4    0    0 -0.62359371648E+00 -0.57235151246E+00  0.73564076851E+01  0.74056973636E+01  0.10566000000E+00 0. -1.
        -13    1    4    4    0    0 -0.50364423484E+01 -0.43776792131E+01  0.58528710766E+02  0.58907987360E+02  0.10566000000E+00 0. -1.
        -14    1    4    4    0    0 -0.25047685100E+02 -0.17102602154E+02  0.25853340926E+03  0.26030637570E+03  0.00000000000E+00 0.  1.
<mgrwt>
<rscale>  0 0.80128152E+02</rscale>
<asrwt>0</asrwt>
<pdfrwt beam="1">  1        2 0.75324076E-01 0.80128152E+02</pdfrwt>
<pdfrwt beam="2">  1       -1 0.50437057E-03 0.80128152E+02</pdfrwt>
<totfact> 0.30121047E+05</totfact>
</mgrwt>
</event>
<event>
 8    1  0.2389776E-016  0.7936540E+02  0.7818608E-02  0.1330862E+00
          2   -1    0    0  501    0  0.00000000000E+00  0.00000000000E+00  0.89184148160E+02  0.89184148197E+02  0.25500000000E-02 0. -1.
         -1   -1    0    0    0  501 -0.00000000000E+00 -0.00000000000E+00 -0.17656910082E+02  0.17656910801E+02  0.50400000000E-02 0.  1.
         24    2    1    2    0    0 -0.71054273576E-14  0.00000000000E+00  0.71527238078E+02  0.10684105900E+03  0.79365396116E+02 0.  0.
         66    2    3    3    0    0 -0.37583535387E+02 -0.20277487441E+01  0.52604384641E+02  0.64713639858E+02  0.20000007759E+01 0.  0.
        -13    1    3    3    0    0  0.37583535387E+02  0.20277487441E+01  0.18922853437E+02  0.42127419140E+02  0.10566000000E+00 0.  1.
         13    1    4    4    0    0 -0.20695906105E+02 -0.14510629305E+01  0.29233712541E+02  0.35847555371E+02  0.10566000000E+00 0. -1.
        -13    1    4    4    0    0 -0.11676062544E+01  0.25566262862E+00  0.15780957311E+01  0.19824777217E+01  0.10566000000E+00 0.  1.
        -14    1    4    4    0    0 -0.15720023027E+02 -0.83234844223E+00  0.21792576369E+02  0.26883606765E+02  0.00000000000E+00 0.  1.
<mgrwt>
<rscale>  0 0.79365396E+02</rscale>
<asrwt>0</asrwt>
<pdfrwt beam="1">  1        2 0.13720638E-01 0.79365396E+02</pdfrwt>
<pdfrwt beam="2">  1       -1 0.27164478E-02 0.79365396E+02</pdfrwt>
<totfact> 0.17550067E+05</totfact>
</mgrwt>
</event>
<event>
 8    1  0.2389776E-016  0.8035926E+02  0.7818608E-02  0.1328035E+00
          2   -1    0    0  501    0  0.00000000000E+00  0.00000000000E+00  0.16043122466E+04  0.16043122466E+04  0.25500000000E-02 0. -1.
         -1   -1    0    0    0  501 -0.00000000000E+00 -0.00000000000E+00 -0.10062833700E+01  0.10062959914E+01  0.50400000000E-02 0.  1.
         24    2    1    2    0    0  0.00000000000E+00  0.00000000000E+00  0.16033059632E+04  0.16053185426E+04  0.80359264962E+02 0.  0.
         66    2    3    3    0    0 -0.48897585320E+01  0.11658575531E+02  0.15635136187E+04  0.15635660101E+04  0.19999941656E+01 0.  0.
        -13    1    3    3    0    0  0.48897585320E+01 -0.11658575531E+02  0.39792344540E+02  0.41752532497E+02  0.10566000000E+00 0.  1.
         13    1    4    4    0    0 -0.10289430295E+01  0.19974203852E+01  0.22972802662E+03  0.22973903845E+03  0.10566000000E+00 0. -1.
        -13    1    4    4    0    0  0.15748726337E-01  0.96682107707E+00  0.10490399941E+03  0.10490850893E+03  0.10566000000E+00 0. -1.
        -14    1    4    4    0    0 -0.38765642289E+01  0.86943340686E+01  0.12288815927E+04  0.12289184627E+04  0.00000000000E+00 0.  1.
<mgrwt>
<rscale>  0 0.80359265E+02</rscale>
<asrwt>0</asrwt>
<pdfrwt beam="1">  1        2 0.24681847E+00 0.80359265E+02</pdfrwt>
<pdfrwt beam="2">  1       -1 0.15481304E-03 0.80359265E+02</pdfrwt>
<totfact> 0.31935794E+05</totfact>
</mgrwt>
</event>
<event>
 8    1  0.2389776E-016  0.7977062E+02  0.7818608E-02  0.1329704E+00
          2   -1    0    0  501    0  0.00000000000E+00  0.00000000000E+00  0.18435295595E+02  0.18435295771E+02  0.25500000000E-02 0. -1.
         -1   -1    0    0    0  501 -0.00000000000E+00 -0.00000000000E+00 -0.86293062332E+02  0.86293062479E+02  0.50400000000E-02 0.  1.
         24    2    1    2    0    0 -0.35527136788E-14  0.00000000000E+00 -0.67857766737E+02  0.10472835825E+03  0.79770624388E+02 0.  0.
         66    2    3    3    0    0  0.29881287589E+02  0.16480566427E+02 -0.69059241886E+01  0.34873947568E+02  0.20000030849E+01 0.  0.
        -13    1    3    3    0    0 -0.29881287589E+02 -0.16480566427E+02 -0.60951842548E+02  0.69854410682E+02  0.10566000000E+00 0.  1.
         13    1    4    4    0    0  0.70022816670E+01  0.43775550205E+01 -0.16400420455E+01  0.84199666536E+01  0.10566000000E+00 0. -1.
        -13    1    4    4    0    0  0.13490883407E+02  0.79368619537E+01 -0.30774949428E+01  0.15952424641E+02  0.10566000000E+00 0.  1.
        -14    1    4    4    0    0  0.93881225149E+01  0.41661494531E+01 -0.21883872004E+01  0.10501556273E+02  0.00000000000E+00 0.  1.
<mgrwt>
<rscale>  0 0.79770624E+02</rscale>
<asrwt>0</asrwt>
<pdfrwt beam="1">  1        2 0.28361994E-02 0.79770624E+02</pdfrwt>
<pdfrwt beam="2">  1       -1 0.13275856E-01 0.79770624E+02</pdfrwt>
<totfact> 0.12312665E+05</totfact>
</mgrwt>
</event>
<event>
 8    1  0.2389776E-016  0.8171895E+02  0.7818608E-02  0.1324243E+00
         -1   -1    0    0    0  501 -0.00000000000E+00  0.00000000000E+00  0.42536318704E+01  0.42536348563E+01  0.50400000000E-02 0.  1.
          2   -1    0    0  501    0  0.00000000000E+00 -0.00000000000E+00 -0.39248724342E+03  0.39248724343E+03  0.25500000000E-02 0. -1.
         24    2    1    2    0    0  0.00000000000E+00  0.00000000000E+00 -0.38823361155E+03  0.39674087829E+03  0.81718953525E+02 0.  0.
         66    2    3    3    0    0  0.32114288028E+02 -0.14286880497E+02 -0.29514662305E+03  0.29723891327E+03  0.20000034894E+01 0.  0.
        -13    1    3    3    0    0 -0.32114288028E+02  0.14286880497E+02 -0.93086988502E+02  0.99501965017E+02  0.10566000000E+00 0.  1.
         13    1    4    4    0    0  0.17930343569E+02 -0.84785345445E+01 -0.17044535356E+03  0.17159549086E+03  0.10566000000E+00 0. -1.
        -13    1    4    4    0    0  0.42522490254E+01 -0.17818648044E+01 -0.41168668519E+02  0.41426164385E+02  0.10566000000E+00 0. -1.
         14    1    4    4    0    0  0.99316954335E+01 -0.40264811486E+01 -0.83532600971E+02  0.84217258027E+02  0.00000000000E+00 0. -1.
<mgrwt>
<rscale>  0 0.81718954E+02</rscale>
<asrwt>0</asrwt>
<pdfrwt beam="1">  1        2 0.60382624E-01 0.81718954E+02</pdfrwt>
<pdfrwt beam="2">  1       -1 0.65440544E-03 0.81718954E+02</pdfrwt>
<totfact> 0.26548506E+05</totfact>
</mgrwt>
</event>
<event>
 8    1  0.2389776E-016  0.7996745E+02  0.7818608E-02  0.1329144E+00
          2   -1    0    0  501    0  0.00000000000E+00  0.00000000000E+00  0.10153778222E+04  0.10153778222E+04  0.25500000000E-02 0. -1.
         -1   -1    0    0    0  501 -0.00000000000E+00 -0.00000000000E+00 -0.15744821620E+01  0.15744902286E+01  0.50400000000E-02 0.  1.
         24    2    1    2    0    0  0.00000000000E+00  0.00000000000E+00  0.10138033401E+04  0.10169523125E+04  0.79967452681E+02 0.  0.
         66    2    3    3    0    0 -0.21557095383E+02  0.16757130537E+02  0.87823925398E+03  0.87866586198E+03  0.19999992873E+01 0.  0.
        -13    1    3    3    0    0  0.21557095383E+02 -0.16757130537E+02  0.13556408608E+03  0.13828645047E+03  0.10566000000E+00 0.  1.
         13    1    4    4    0    0 -0.20472616442E+01  0.13191306375E+01  0.77353096433E+02  0.77391498743E+02  0.10566000000E+00 0.  1.
        -13    1    4    4    0    0 -0.12741180094E+02  0.90397388390E+01  0.49614842576E+03  0.49639432520E+03  0.10566000000E+00 0. -1.
        -14    1    4    4    0    0 -0.67686536442E+01  0.63982610609E+01  0.30473773179E+03  0.30488003803E+03  0.00000000000E+00 0.  1.
<mgrwt>
<rscale>  0 0.79967453E+02</rscale>
<asrwt>0</asrwt>
<pdfrwt beam="1">  1        2 0.15621241E+00 0.79967453E+02</pdfrwt>
<pdfrwt beam="2">  1       -1 0.24222796E-03 0.79967453E+02</pdfrwt>
<totfact> 0.35288031E+05</totfact>
</mgrwt>
</event>
<event>
 8    1  0.2389776E-016  0.7974803E+02  0.7818608E-02  0.1329768E+00
         -1   -1    0    0    0  501 -0.00000000000E+00  0.00000000000E+00  0.22530324871E+01  0.22530381243E+01  0.50400000000E-02 0.  1.
          2   -1    0    0  501    0  0.00000000000E+00 -0.00000000000E+00 -0.70568662446E+03  0.70568662446E+03  0.25500000000E-02 0. -1.
         24    2    1    2    0    0  0.00000000000E+00 -0.22204460493E-15 -0.70343359197E+03  0.70793966258E+03  0.79748025371E+02 0.  0.
         66    2    3    3    0    0  0.17430669612E+02  0.14567522834E+01 -0.66978371865E+03  0.67001505963E+03  0.20000005298E+01 0.  0.
        -13    1    3    3    0    0 -0.17430669612E+02 -0.14567522834E+01 -0.33649873321E+02  0.37924602950E+02  0.10566000000E+00 0.  1.
         13    1    4    4    0    0  0.48192203511E+01  0.15533132978E+00 -0.20555699200E+03  0.20561356262E+03  0.10566000000E+00 0. -1.
        -13    1    4    4    0    0  0.93704939073E+01  0.14135928442E+01 -0.35674482476E+03  0.35687068464E+03  0.10566000000E+00 0. -1.
         14    1    4    4    0    0  0.32409553532E+01 -0.11217189055E+00 -0.10748190189E+03  0.10753081237E+03  0.00000000000E+00 0. -1.
<mgrwt>
<rscale>  0 0.79748025E+02</rscale>
<asrwt>0</asrwt>
<pdfrwt beam="1">  1        2 0.10856700E+00 0.79748025E+02</pdfrwt>
<pdfrwt beam="2">  1       -1 0.34662138E-03 0.79748025E+02</pdfrwt>
<totfact> 0.33789177E+05</totfact>
</mgrwt>
</event>
<event>
 8    1  0.2389776E-016  0.8052122E+02  0.7818608E-02  0.1327579E+00
         -1   -1    0    0    0  501 -0.00000000000E+00  0.00000000000E+00  0.14841375615E+02  0.14841376471E+02  0.50400000000E-02 0.  1.
          2   -1    0    0  501    0  0.00000000000E+00 -0.00000000000E+00 -0.10921606768E+03  0.10921606771E+03  0.25500000000E-02 0. -1.
         24    2    1    2    0    0 -0.71054273576E-14 -0.22204460493E-15 -0.94374692063E+02  0.12405744418E+03  0.80521220521E+02 0.  0.
         66    2    3    3    0    0  0.36357497561E+02  0.13525120463E+01 -0.73688061001E+02  0.82204788511E+02  0.20000005818E+01 0.  0.
        -13    1    3    3    0    0 -0.36357497561E+02 -0.13525120463E+01 -0.20686631063E+02  0.41852655668E+02  0.10566000000E+00 0.  1.
         13    1    4    4    0    0  0.27315837021E+02  0.15173016368E+01 -0.54649972478E+02  0.61115364781E+02  0.10566000000E+00 0. -1.
        -13    1    4    4    0    0  0.52719861553E+01 -0.42453135853E+00 -0.10793884039E+02  0.12020530836E+02  0.10566000000E+00 0.  1.
         14    1    4    4    0    0  0.37696743846E+01  0.25974176804E+00 -0.82442044838E+01  0.90688928940E+01  0.00000000000E+00 0. -1.
<mgrwt>
<rscale>  0 0.80521221E+02</rscale>
<asrwt>0</asrwt>
<pdfrwt beam="1">  1        2 0.16802471E-01 0.80521221E+02</pdfrwt>
<pdfrwt beam="2">  1       -1 0.22832887E-02 0.80521221E+02</pdfrwt>
<totfact> 0.17863199E+05</totfact>
</mgrwt>
</event>
<event>
 8    1  0.2389776E-016  0.8031788E+02  0.7818608E-02  0.1328152E+00
          2   -1    0    0  501    0  0.00000000000E+00  0.00000000000E+00  0.41445926449E+03  0.41445926450E+03  0.25500000000E-02 0. -1.
         -1   -1    0    0    0  501 -0.00000000000E+00 -0.00000000000E+00 -0.38911901939E+01  0.38911934579E+01  0.50400000000E-02 0.  1.
         24    2    1    2    0    0 -0.17763568394E-14  0.00000000000E+00  0.41056807429E+03  0.41835045795E+03  0.80317881201E+02 0.  0.
         66    2    3    3    0    0 -0.14396459775E+02  0.12478265988E+01  0.40043570127E+03  0.40070134261E+03  0.19999979553E+01 0.  0.
        -13    1    3    3    0    0  0.14396459775E+02 -0.12478265988E+01  0.10132373021E+02  0.17649115342E+02  0.10566000000E+00 0.  1.
         13    1    4    4    0    0 -0.75688259577E+01  0.98881940273E+00  0.23327722844E+03  0.23340210231E+03  0.10566000000E+00 0. -1.
        -13    1    4    4    0    0 -0.33598160896E+01  0.27317910052E+00  0.88982226684E+02  0.89046116258E+02  0.10566000000E+00 0.  1.
        -14    1    4    4    0    0 -0.34678177278E+01 -0.14171904482E-01  0.78176246150E+02  0.78253124045E+02  0.00000000000E+00 0.  1.
<mgrwt>
<rscale>  0 0.80317881E+02</rscale>
<asrwt>0</asrwt>
<pdfrwt beam="1">  1        2 0.63762912E-01 0.80317881E+02</pdfrwt>
<pdfrwt beam="2">  1       -1 0.59864538E-03 0.80317881E+02</pdfrwt>
<totfact> 0.28309937E+05</totfact>
</mgrwt>
</event>
<event>
 8    1  0.2389776E-016  0.8148060E+02  0.7818608E-02  0.1324901E+00
         -1   -1    0    0    0  501 -0.00000000000E+00  0.00000000000E+00  0.63537253269E+01  0.63537273258E+01  0.50400000000E-02 0.  1.
          2   -1    0    0  501    0  0.00000000000E+00 -0.00000000000E+00 -0.26122811066E+03  0.26122811067E+03  0.25500000000E-02 0. -1.
         24    2    1    2    0    0  0.00000000000E+00  0.00000000000E+00 -0.25487438533E+03  0.26758183799E+03  0.81480597246E+02 0.  0.
         66    2    3    3    0    0 -0.21906742282E+02 -0.23141668507E+02 -0.21074373326E+03  0.21314868821E+03  0.20000003522E+01 0.  0.
        -13    1    3    3    0    0  0.21906742282E+02  0.23141668507E+02 -0.44130652071E+02  0.54433149780E+02  0.10566000000E+00 0.  1.
         13    1    4    4    0    0 -0.87155610173E+01 -0.96801491834E+01 -0.88841363989E+02  0.89791232375E+02  0.10566000000E+00 0. -1.
        -13    1    4    4    0    0 -0.10055889352E+01 -0.10330532311E+01 -0.11711136836E+02  0.11800012632E+02  0.10566000000E+00 0.  1.
         14    1    4    4    0    0 -0.12185592329E+02 -0.12428466092E+02 -0.11019123243E+03  0.11155744321E+03  0.00000000000E+00 0. -1.
<mgrwt>
<rscale>  0 0.81480597E+02</rscale>
<asrwt>0</asrwt>
<pdfrwt beam="1">  1        2 0.40188932E-01 0.81480597E+02</pdfrwt>
<pdfrwt beam="2">  1       -1 0.97749656E-03 0.81480597E+02</pdfrwt>
<totfact> 0.23106936E+05</totfact>
</mgrwt>
</event>
<event>
 8    1  0.2389776E-016  0.8098770E+02  0.7818608E-02  0.1326272E+00
         -1   -1    0    0    0  501 -0.00000000000E+00  0.00000000000E+00  0.18031508606E+01  0.18031579042E+01  0.50400000000E-02 0.  1.
          2   -1    0    0  501    0  0.00000000000E+00 -0.00000000000E+00 -0.90937956613E+03  0.90937956613E+03  0.25500000000E-02 0. -1.
         24    2    1    2    0    0  0.00000000000E+00  0.00000000000E+00 -0.90757641527E+03  0.91118272403E+03  0.80987696791E+02 0.  0.
         66    2    3    3    0    0  0.46168029586E+01  0.27615131221E+02 -0.78282024058E+03  0.78332333006E+03  0.20000020167E+01 0.  0.
        -13    1    3    3    0    0 -0.46168029586E+01 -0.27615131221E+02 -0.12475617468E+03  0.12785939397E+03  0.10566000000E+00 0.  1.
         13    1    4    4    0    0  0.16272396984E+01  0.90120252569E+01 -0.26488359645E+03  0.26504187469E+03  0.10566000000E+00 0. -1.
        -13    1    4    4    0    0  0.13207415576E+01  0.55189016302E+01 -0.14145613067E+03  0.14156994986E+03  0.10566000000E+00 0.  1.
         14    1    4    4    0    0  0.16688217026E+01  0.13084204334E+02 -0.37648051346E+03  0.37671150551E+03  0.00000000000E+00 0. -1.
<mgrwt>
<rscale>  0 0.80987697E+02</rscale>
<asrwt>0</asrwt>
<pdfrwt beam="1">  1        2 0.13990418E+00 0.80987697E+02</pdfrwt>
<pdfrwt beam="2">  1       -1 0.27740909E-03 0.80987697E+02</pdfrwt>
<totfact> 0.33887537E+05</totfact>
</mgrwt>
</event>
<event>
 8    1  0.2389776E-016  0.8052730E+02  0.7818608E-02  0.1327562E+00
          2   -1    0    0  501    0  0.00000000000E+00  0.00000000000E+00  0.20893253707E+02  0.20893253863E+02  0.25500000000E-02 0. -1.
         -1   -1    0    0    0  501 -0.00000000000E+00 -0.00000000000E+00 -0.77592589820E+02  0.77592589984E+02  0.50400000000E-02 0.  1.
         24    2    1    2    0    0 -0.17763568394E-14 -0.71054273576E-14 -0.56699336113E+02  0.98485843847E+02  0.80527304205E+02 0.  0.
         66    2    3    3    0    0  0.15396572398E+02  0.37176629409E+02 -0.28339864078E+02  0.49257528479E+02  0.20000000238E+01 0.  0.
        -13    1    3    3    0    0 -0.15396572398E+02 -0.37176629409E+02 -0.28359472035E+02  0.49228315368E+02  0.10566000000E+00 0.  1.
         13    1    4    4    0    0  0.41957372879E+01  0.10718382459E+02 -0.87380865377E+01  0.14451756097E+02  0.10566000000E+00 0. -1.
        -13    1    4    4    0    0  0.40594466525E+01  0.91792623612E+01 -0.75759759422E+01  0.12575553273E+02  0.10566000000E+00 0.  1.
         14    1    4    4    0    0  0.71413884577E+01  0.17278984589E+02 -0.12025801598E+02  0.22230219108E+02  0.00000000000E+00 0. -1.
<mgrwt>
<rscale>  0 0.80527304E+02</rscale>
<asrwt>0</asrwt>
<pdfrwt beam="1">  1        2 0.32143468E-02 0.80527304E+02</pdfrwt>
<pdfrwt beam="2">  1       -1 0.11937321E-01 0.80527304E+02</pdfrwt>
<totfact> 0.12291955E+05</totfact>
</mgrwt>
</event>
<event>
 8    1  0.2389776E-016  0.7805270E+02  0.7818608E-02  0.1334670E+00
          2   -1    0    0  501    0  0.00000000000E+00  0.00000000000E+00  0.89472903366E+02  0.89472903403E+02  0.25500000000E-02 0. -1.
         -1   -1    0    0    0  501 -0.00000000000E+00 -0.00000000000E+00 -0.17022538906E+02  0.17022539652E+02  0.50400000000E-02 0.  1.
         24    2    1    2    0    0 -0.35527136788E-14  0.00000000000E+00  0.72450364461E+02  0.10649544305E+03  0.78052700664E+02 0.  0.
         66    2    3    3    0    0  0.26172700034E+02  0.85724064688E+01  0.73926098185E+02  0.78914918517E+02  0.19999980054E+01 0.  0.
        -13    1    3    3    0    0 -0.26172700034E+02 -0.85724064688E+01 -0.14757337238E+01  0.27580524538E+02  0.10566000000E+00 0.  1.
         13    1    4    4    0    0  0.49843244500E+01  0.13541405791E+01  0.14594721142E+02  0.15482061755E+02  0.10566000000E+00 0. -1.
        -13    1    4    4    0    0  0.24749049174E+00  0.34507635700E-01  0.43145270776E+00  0.50966439454E+00  0.10566000000E+00 0. -1.
         14    1    4    4    0    0  0.20940885092E+02  0.71837582539E+01  0.58899924335E+02  0.62923192368E+02  0.00000000000E+00 0. -1.
<mgrwt>
<rscale>  0 0.78052701E+02</rscale>
<asrwt>0</asrwt>
<pdfrwt beam="1">  1        2 0.13765062E-01 0.78052701E+02</pdfrwt>
<pdfrwt beam="2">  1       -1 0.26188522E-02 0.78052701E+02</pdfrwt>
<totfact> 0.18368654E+05</totfact>
</mgrwt>
</event>
<event>
 8    1  0.2389776E-016  0.7950310E+02  0.7818608E-02  0.1330467E+00
          2   -1    0    0  501    0  0.00000000000E+00  0.00000000000E+00  0.22409770263E+02  0.22409770409E+02  0.25500000000E-02 0. -1.
         -1   -1    0    0    0  501 -0.00000000000E+00 -0.00000000000E+00 -0.70513256960E+02  0.70513257140E+02  0.50400000000E-02 0.  1.
         24    2    1    2    0    0 -0.27755575616E-16  0.00000000000E+00 -0.48103486696E+02  0.92923027548E+02  0.79503104445E+02 0.  0.
         66    2    3    3    0    0  0.24660420345E+00 -0.16975738508E+02  0.17911370495E+02  0.24759921358E+02  0.20000002724E+01 0.  0.
        -13    1    3    3    0    0 -0.24660420345E+00  0.16975738508E+02 -0.66014857192E+02  0.68163106191E+02  0.10566000000E+00 0.  1.
         13    1    4    4    0    0  0.37821556349E+00 -0.13303078062E+02  0.14951922432E+02  0.20017144686E+02  0.10566000000E+00 0. -1.
        -13    1    4    4    0    0 -0.14777814740E-01 -0.15682129440E+01  0.98652942617E+00  0.18557786953E+01  0.10566000000E+00 0.  1.
         14    1    4    4    0    0 -0.11683354531E+00 -0.21044475023E+01  0.19729186374E+01  0.28869979766E+01  0.00000000000E+00 0. -1.
<mgrwt>
<rscale>  0 0.79503104E+02</rscale>
<asrwt>0</asrwt>
<pdfrwt beam="1">  1        2 0.34476570E-02 0.79503104E+02</pdfrwt>
<pdfrwt beam="2">  1       -1 0.10848193E-01 0.79503104E+02</pdfrwt>
<totfact> 0.12929699E+05</totfact>
</mgrwt>
</event>
<event>
 8    1  0.2389776E-016  0.8366034E+02  0.7818608E-02  0.1318974E+00
         -1   -1    0    0    0  501 -0.00000000000E+00  0.00000000000E+00  0.47562046470E+01  0.47562073174E+01  0.50400000000E-02 0.  1.
          2   -1    0    0  501    0  0.00000000000E+00 -0.00000000000E+00 -0.36789050955E+03  0.36789050956E+03  0.25500000000E-02 0. -1.
         24    2    1    2    0    0  0.35527136788E-14  0.35527136788E-14 -0.36313430490E+03  0.37264671688E+03  0.83660338281E+02 0.  0.
         66    2    3    3    0    0  0.23985909641E+02 -0.27852219321E+02 -0.27038668865E+03  0.27288098394E+03  0.20000045391E+01 0.  0.
        -13    1    3    3    0    0 -0.23985909641E+02  0.27852219321E+02 -0.92747616259E+02  0.99765732935E+02  0.10566000000E+00 0.  1.
         13    1    4    4    0    0  0.26388141046E+01 -0.27327261245E+01 -0.30677876618E+02  0.30912366615E+02  0.10566000000E+00 0. -1.
        -13    1    4    4    0    0  0.51630926764E+01 -0.53728207228E+01 -0.56521615249E+02  0.57010778656E+02  0.10566000000E+00 0.  1.
         14    1    4    4    0    0  0.16184002860E+02 -0.19746672474E+02 -0.18318719678E+03  0.18495783867E+03  0.00000000000E+00 0. -1.
<mgrwt>
<rscale>  0 0.83660338E+02</rscale>
<asrwt>0</asrwt>
<pdfrwt beam="1">  1        2 0.56598517E-01 0.83660338E+02</pdfrwt>
<pdfrwt beam="2">  1       -1 0.73172429E-03 0.83660338E+02</pdfrwt>
<totfact> 0.24396835E+05</totfact>
</mgrwt>
</event>
<event>
 8    1  0.2389776E-016  0.7806308E+02  0.7818608E-02  0.1334640E+00
         -1   -1    0    0    0  501 -0.00000000000E+00  0.00000000000E+00  0.16391618034E+02  0.16391618809E+02  0.50400000000E-02 0.  1.
          2   -1    0    0  501    0  0.00000000000E+00 -0.00000000000E+00 -0.92941467323E+02  0.92941467358E+02  0.25500000000E-02 0. -1.
         24    2    1    2    0    0 -0.35527136788E-14  0.00000000000E+00 -0.76549849289E+02  0.10933308617E+03  0.78063079012E+02 0.  0.
         66    2    3    3    0    0 -0.22848394229E+02  0.16408708365E+02 -0.76145573480E+02  0.81200019644E+02  0.20000001269E+01 0.  0.
        -13    1    3    3    0    0  0.22848394229E+02 -0.16408708365E+02 -0.40427580857E+00  0.28133066524E+02  0.10566000000E+00 0.  1.
         13    1    4    4    0    0 -0.12737971163E+02  0.84876508962E+01 -0.42656403982E+02  0.45319709750E+02  0.10566000000E+00 0. -1.
        -13    1    4    4    0    0 -0.57753214882E+00  0.72182293803E+00 -0.22333716485E+01  0.24194389211E+01  0.10566000000E+00 0.  1.
        -14    1    4    4    0    0 -0.95328909167E+01  0.71992345311E+01 -0.31255797850E+02  0.33460870973E+02  0.00000000000E+00 0.  1.
<mgrwt>
<rscale>  0 0.78063079E+02</rscale>
<asrwt>0</asrwt>
<pdfrwt beam="1">  1        2 0.14298687E-01 0.78063079E+02</pdfrwt>
<pdfrwt beam="2">  1       -1 0.25217875E-02 0.78063079E+02</pdfrwt>
<totfact> 0.18550616E+05</totfact>
</mgrwt>
</event>
<event>
 8    1  0.2389776E-016  0.8040007E+02  0.7818608E-02  0.1327920E+00
          2   -1    0    0  501    0  0.00000000000E+00  0.00000000000E+00  0.23942699710E+03  0.23942699711E+03  0.25500000000E-02 0. -1.
         -1   -1    0    0    0  501 -0.00000000000E+00 -0.00000000000E+00 -0.67496260350E+01  0.67496279167E+01  0.50400000000E-02 0.  1.
         24    2    1    2    0    0 -0.71054273576E-14  0.00000000000E+00  0.23267737107E+03  0.24617662503E+03  0.80400072796E+02 0.  0.
         66    2    3    3    0    0  0.32077764239E+02  0.14416612230E+02  0.17587878399E+03  0.17937159285E+03  0.19999993338E+01 0.  0.
        -13    1    3    3    0    0 -0.32077764239E+02 -0.14416612230E+02  0.56798587075E+02  0.66805032179E+02  0.10566000000E+00 0.  1.
         13    1    4    4    0    0  0.15088376054E+02  0.73830884704E+01  0.80985262041E+02  0.82709086074E+02  0.10566000000E+00 0. -1.
        -13    1    4    4    0    0  0.77759412866E+01  0.35082570614E+01  0.45747107846E+02  0.46535816000E+02  0.10566000000E+00 0.  1.
         14    1    4    4    0    0  0.92134468983E+01  0.35252666983E+01  0.49146414105E+02  0.50126690778E+02  0.00000000000E+00 0. -1.
<mgrwt>
<rscale>  0 0.80400073E+02</rscale>
<asrwt>0</asrwt>
<pdfrwt beam="1">  1        2 0.36834918E-01 0.80400073E+02</pdfrwt>
<pdfrwt beam="2">  1       -1 0.10384043E-02 0.80400073E+02</pdfrwt>
<totfact> 0.23196011E+05</totfact>
</mgrwt>
</event>
<event>
 8    1  0.2389776E-016  0.8178160E+02  0.7818608E-02  0.1324070E+00
          2   -1    0    0  501    0  0.00000000000E+00  0.00000000000E+00  0.58234268474E+03  0.58234268475E+03  0.25500000000E-02 0. -1.
         -1   -1    0    0    0  501 -0.00000000000E+00 -0.00000000000E+00 -0.28712584204E+01  0.28712628438E+01  0.50400000000E-02 0.  1.
         24    2    1    2    0    0 -0.17763568394E-14  0.71054273576E-14  0.57947142632E+03  0.58521394759E+03  0.81781602652E+02 0.  0.
         66    2    3    3    0    0  0.99322301929E+01 -0.38285638956E+02  0.36344761746E+03  0.36559897427E+03  0.20000011781E+01 0.  0.
        -13    1    3    3    0    0 -0.99322301929E+01  0.38285638956E+02  0.21602380886E+03  0.21961497332E+03  0.10566000000E+00 0.  1.
         13    1    4    4    0    0  0.58105171492E+01 -0.20864755986E+02  0.19055114980E+03  0.19177813225E+03  0.10566000000E+00 0.  1.
        -13    1    4    4    0    0  0.23486504372E+01 -0.99808545614E+01  0.98895472803E+02  0.99425647203E+02  0.10566000000E+00 0. -1.
        -14    1    4    4    0    0  0.17730626065E+01 -0.74400284083E+01  0.74000994852E+02  0.74395194823E+02  0.00000000000E+00 0.  1.
<mgrwt>
<rscale>  0 0.81781603E+02</rscale>
<asrwt>0</asrwt>
<pdfrwt beam="1">  1        2 0.89591200E-01 0.81781603E+02</pdfrwt>
<pdfrwt beam="2">  1       -1 0.44173232E-03 0.81781603E+02</pdfrwt>
<totfact> 0.30114590E+05</totfact>
</mgrwt>
</event>
<event>
 8    1  0.2389776E-016  0.7827305E+02  0.7818608E-02  0.1334025E+00
          2   -1    0    0  501    0  0.00000000000E+00  0.00000000000E+00  0.11170112674E+03  0.11170112676E+03  0.25500000000E-02 0. -1.
         -1   -1    0    0    0  501 -0.00000000000E+00 -0.00000000000E+00 -0.13712195555E+02  0.13712196481E+02  0.50400000000E-02 0.  1.
         24    2    1    2    0    0 -0.35527136788E-14  0.35527136788E-14  0.97988931181E+02  0.12541332325E+03  0.78273054199E+02 0.  0.
         66    2    3    3    0    0 -0.22455846354E+02  0.31940434015E+02  0.52682334158E+02  0.65603999070E+02  0.20000002639E+01 0.  0.
        -13    1    3    3    0    0  0.22455846354E+02 -0.31940434015E+02  0.45306597023E+02  0.59809324176E+02  0.10566000000E+00 0.  1.
         13    1    4    4    0    0 -0.61915048291E+01  0.96686640131E+01  0.15004411486E+02  0.18893420122E+02  0.10566000000E+00 0. -1.
        -13    1    4    4    0    0 -0.12143104371E+02  0.16144638919E+02  0.26736374171E+02  0.33510434456E+02  0.10566000000E+00 0.  1.
         14    1    4    4    0    0 -0.41212371537E+01  0.61271310838E+01  0.10941548501E+02  0.13200144492E+02  0.00000000000E+00 0. -1.
<mgrwt>
<rscale>  0 0.78273054E+02</rscale>
<asrwt>0</asrwt>
<pdfrwt beam="1">  1        2 0.17184788E-01 0.78273054E+02</pdfrwt>
<pdfrwt beam="2">  1       -1 0.21095687E-02 0.78273054E+02</pdfrwt>
<totfact> 0.19392111E+05</totfact>
</mgrwt>
</event>
<event>
 8    1  0.2389776E-016  0.8015849E+02  0.7818608E-02  0.1328602E+00
          2   -1    0    0  501    0  0.00000000000E+00  0.00000000000E+00  0.22828292235E+03  0.22828292237E+03  0.25500000000E-02 0. -1.
         -1   -1    0    0    0  501 -0.00000000000E+00 -0.00000000000E+00 -0.70366444572E+01  0.70366462621E+01  0.50400000000E-02 0.  1.
         24    2    1    2    0    0  0.00000000000E+00  0.17763568394E-14  0.22124627790E+03  0.23531956863E+03  0.80158492358E+02 0.  0.
         66    2    3    3    0    0 -0.37754803666E+02  0.93850102262E+01  0.13867137024E+03  0.14403906603E+03  0.20000002773E+01 0.  0.
        -13    1    3    3    0    0  0.37754803666E+02 -0.93850102262E+01  0.82574907652E+02  0.91280502598E+02  0.10566000000E+00 0.  1.
         13    1    4    4    0    0 -0.12369475131E+02  0.33884293013E+01  0.46381162988E+02  0.48121812230E+02  0.10566000000E+00 0. -1.
        -13    1    4    4    0    0 -0.37488055541E+01  0.11709599513E+01  0.15623750073E+02  0.16110165135E+02  0.10566000000E+00 0.  1.
         14    1    4    4    0    0 -0.21636522981E+02  0.48256209736E+01  0.76666457182E+02  0.79807088665E+02  0.00000000000E+00 0. -1.
<mgrwt>
<rscale>  0 0.80158492E+02</rscale>
<asrwt>0</asrwt>
<pdfrwt beam="1">  1        2 0.35120453E-01 0.80158492E+02</pdfrwt>
<pdfrwt beam="2">  1       -1 0.10825607E-02 0.80158492E+02</pdfrwt>
<totfact> 0.22987292E+05</totfact>
</mgrwt>
</event>
<event>
 8    1  0.2389776E-016  0.7917159E+02  0.7818608E-02  0.1331419E+00
         -1   -1    0    0    0  501 -0.00000000000E+00  0.00000000000E+00  0.11145331017E+03  0.11145331029E+03  0.50400000000E-02 0.  1.
          2   -1    0    0  501    0  0.00000000000E+00 -0.00000000000E+00 -0.14060013530E+02  0.14060013761E+02  0.25500000000E-02 0. -1.
         24    2    1    2    0    0  0.00000000000E+00  0.00000000000E+00  0.97393296644E+02  0.12551332405E+03  0.79171587597E+02 0.  0.
         66    2    3    3    0    0  0.55445680486E+01  0.37120350169E+02  0.28903526905E+02  0.47413885162E+02  0.20000017684E+01 0.  0.
        -13    1    3    3    0    0 -0.55445680486E+01 -0.37120350169E+02  0.68489769739E+02  0.78099438887E+02  0.10566000000E+00 0.  1.
         13    1    4    4    0    0  0.35464361935E+01  0.20177429992E+02  0.16724056404E+02  0.26446381934E+02  0.10566000000E+00 0. -1.
        -13    1    4    4    0    0  0.15542125429E+01  0.12862340588E+02  0.94928630847E+01  0.16061786812E+02  0.10566000000E+00 0.  1.
         14    1    4    4    0    0  0.44391931221E+00  0.40805795897E+01  0.26866074161E+01  0.49057164157E+01  0.00000000000E+00 0. -1.
<mgrwt>
<rscale>  0 0.79171588E+02</rscale>
<asrwt>0</asrwt>
<pdfrwt beam="1">  1        2 0.21630791E-02 0.79171588E+02</pdfrwt>
<pdfrwt beam="2">  1       -1 0.17146663E-01 0.79171588E+02</pdfrwt>
<totfact> 0.11881433E+05</totfact>
</mgrwt>
</event>
<event>
 8    1  0.2389776E-016  0.7781677E+02  0.7818608E-02  0.1335364E+00
          2   -1    0    0  501    0  0.00000000000E+00  0.00000000000E+00  0.21569028921E+03  0.21569028923E+03  0.25500000000E-02 0. -1.
         -1   -1    0    0    0  501 -0.00000000000E+00 -0.00000000000E+00 -0.70186844161E+01  0.70186862257E+01  0.50400000000E-02 0.  1.
         24    2    1    2    0    0  0.00000000000E+00  0.00000000000E+00  0.20867160480E+03  0.22270897545E+03  0.77816766183E+02 0.  0.
         66    2    3    3    0    0 -0.22298309488E+02  0.19595653339E+01  0.19539539026E+03  0.19668353523E+03  0.19999985810E+01 0.  0.
        -13    1    3    3    0    0  0.22298309488E+02 -0.19595653339E+01  0.13276214540E+02  0.26025440224E+02  0.10566000000E+00 0.  1.
         13    1    4    4    0    0 -0.12076069155E+02  0.79254609845E+00  0.10228829996E+03  0.10300178178E+03  0.10566000000E+00 0. -1.
        -13    1    4    4    0    0 -0.30162545634E+01  0.89571417453E+00  0.28963050506E+02  0.29133649859E+02  0.10566000000E+00 0.  1.
         14    1    4    4    0    0 -0.72059857693E+01  0.27130506088E+00  0.64144039786E+02  0.64548103593E+02  0.00000000000E+00 0. -1.
<mgrwt>
<rscale>  0 0.77816766E+02</rscale>
<asrwt>0</asrwt>
<pdfrwt beam="1">  1        2 0.33183126E-01 0.77816766E+02</pdfrwt>
<pdfrwt beam="2">  1       -1 0.10797976E-02 0.77816766E+02</pdfrwt>
<totfact> 0.24359444E+05</totfact>
</mgrwt>
</event>
<event>
 8    1  0.2389776E-016  0.7902774E+02  0.7818608E-02  0.1331833E+00
          2   -1    0    0  501    0  0.00000000000E+00  0.00000000000E+00  0.14564059587E+02  0.14564059810E+02  0.25500000000E-02 0. -1.
         -1   -1    0    0    0  501 -0.00000000000E+00 -0.00000000000E+00 -0.10720541141E+03  0.10720541153E+03  0.50400000000E-02 0.  1.
         24    2    1    2    0    0  0.00000000000E+00  0.00000000000E+00 -0.92641351823E+02  0.12176947134E+03  0.79027742487E+02 0.  0.
         66    2    3    3    0    0  0.35303969424E+02  0.10064924226E+02 -0.23932791933E+02  0.43868570683E+02  0.20000018329E+01 0.  0.
        -13    1    3    3    0    0 -0.35303969424E+02 -0.10064924226E+02 -0.68708559891E+02  0.77900900656E+02  0.10566000000E+00 0.  1.
         13    1    4    4    0    0  0.64541428425E+01  0.18914617322E+01 -0.43564922105E+01  0.80139737791E+01  0.10566000000E+00 0. -1.
        -13    1    4    4    0    0  0.23853931159E+02  0.62428117447E+01 -0.15510311425E+02  0.29130115942E+02  0.10566000000E+00 0.  1.
        -14    1    4    4    0    0  0.49958954224E+01  0.19306507488E+01 -0.40659882968E+01  0.67244809625E+01  0.00000000000E+00 0.  1.
<mgrwt>
<rscale>  0 0.79027742E+02</rscale>
<asrwt>0</asrwt>
<pdfrwt beam="1">  1        2 0.22406246E-02 0.79027742E+02</pdfrwt>
<pdfrwt beam="2">  1       -1 0.16493140E-01 0.79027742E+02</pdfrwt>
<totfact> 0.12037965E+05</totfact>
</mgrwt>
</event>
<event>
 8    1  0.2389776E-016  0.8029697E+02  0.7818608E-02  0.1328211E+00
          2   -1    0    0  501    0  0.00000000000E+00  0.00000000000E+00  0.29497636068E+03  0.29497636069E+03  0.25500000000E-02 0. -1.
         -1   -1    0    0    0  501 -0.00000000000E+00 -0.00000000000E+00 -0.54645079240E+01  0.54645102483E+01  0.50400000000E-02 0.  1.
         24    2    1    2    0    0  0.00000000000E+00  0.71054273576E-14  0.28951185275E+03  0.30044087094E+03  0.80296974068E+02 0.  0.
         66    2    3    3    0    0  0.29243116025E+01  0.39721612539E+02  0.16299830021E+03  0.16780585203E+03  0.20000002094E+01 0.  0.
        -13    1    3    3    0    0 -0.29243116025E+01 -0.39721612539E+02  0.12651355254E+03  0.13263501891E+03  0.10566000000E+00 0.  1.
         13    1    4    4    0    0  0.10266910497E+01  0.20356892640E+02  0.86478059918E+02  0.88847752834E+02  0.10566000000E+00 0. -1.
        -13    1    4    4    0    0  0.92014645858E+00  0.67012133517E+01  0.25968433008E+02  0.26835118908E+02  0.10566000000E+00 0.  1.
        -14    1    4    4    0    0  0.97747409424E+00  0.12663506546E+02  0.50551807288E+02  0.52122980284E+02  0.00000000000E+00 0.  1.
<mgrwt>
<rscale>  0 0.80296974E+02</rscale>
<asrwt>0</asrwt>
<pdfrwt beam="1">  1        2 0.45380985E-01 0.80296974E+02</pdfrwt>
<pdfrwt beam="2">  1       -1 0.84069359E-03 0.80296974E+02</pdfrwt>
<totfact> 0.25093986E+05</totfact>
</mgrwt>
</event>
<event>
 8    1  0.2389776E-016  0.8022779E+02  0.7818608E-02  0.1328406E+00
          2   -1    0    0  501    0  0.00000000000E+00  0.00000000000E+00  0.57094050878E+02  0.57094050935E+02  0.25500000000E-02 0. -1.
         -1   -1    0    0    0  501 -0.00000000000E+00 -0.00000000000E+00 -0.28183754885E+02  0.28183755336E+02  0.50400000000E-02 0.  1.
         24    2    1    2    0    0  0.00000000000E+00  0.00000000000E+00  0.28910295993E+02  0.85277806271E+02  0.80227794610E+02 0.  0.
         66    2    3    3    0    0  0.77078098205E+01  0.37938498466E+02  0.25529970199E+02  0.46416800564E+02  0.19999995485E+01 0.  0.
        -13    1    3    3    0    0 -0.77078098205E+01 -0.37938498466E+02  0.33803257942E+01  0.38861005707E+02  0.10566000000E+00 0.  1.
         13    1    4    4    0    0  0.46138270623E+01  0.26314955418E+02  0.17996324135E+02  0.32212468475E+02  0.10566000000E+00 0. -1.
        -13    1    4    4    0    0  0.13524613857E+01  0.43693440628E+01  0.30910635799E+01  0.55214271189E+01  0.10566000000E+00 0.  1.
         14    1    4    4    0    0  0.17415213725E+01  0.72541989848E+01  0.44425824834E+01  0.86829049703E+01  0.00000000000E+00 0. -1.
<mgrwt>
<rscale>  0 0.80227795E+02</rscale>
<asrwt>0</asrwt>
<pdfrwt beam="1">  1        2 0.87837000E-02 0.80227795E+02</pdfrwt>
<pdfrwt beam="2">  1       -1 0.43359624E-02 0.80227795E+02</pdfrwt>
<totfact> 0.15271368E+05</totfact>
</mgrwt>
</event>
<event>
 8    1  0.2389776E-016  0.8086407E+02  0.7818608E-02  0.1326617E+00
          2   -1    0    0  501    0  0.00000000000E+00  0.00000000000E+00  0.21906441256E+02  0.21906441405E+02  0.25500000000E-02 0. -1.
         -1   -1    0    0    0  501 -0.00000000000E+00 -0.00000000000E+00 -0.74624141183E+02  0.74624141353E+02  0.50400000000E-02 0.  1.
         24    2    1    2    0    0  0.00000000000E+00  0.00000000000E+00 -0.52717699927E+02  0.96530582758E+02  0.80864068176E+02 0.  0.
         66    2    3    3    0    0 -0.15127509389E+02  0.36845663464E+02 -0.34497613974E+02  0.52730729419E+02  0.19999996798E+01 0.  0.
        -13    1    3    3    0    0  0.15127509389E+02 -0.36845663464E+02 -0.18220085953E+02  0.43799853339E+02  0.10566000000E+00 0.  1.
         13    1    4    4    0    0 -0.28112395415E+01  0.69052655862E+01 -0.73006423141E+01  0.10435339132E+02  0.10566000000E+00 0.  1.
        -13    1    4    4    0    0 -0.79176115128E+01  0.20306465281E+02 -0.18665491198E+02  0.28695867820E+02  0.10566000000E+00 0. -1.
        -14    1    4    4    0    0 -0.43986583344E+01  0.96339325964E+01 -0.85314804622E+01  0.13599522466E+02  0.00000000000E+00 0.  1.
<mgrwt>
<rscale>  0 0.80864068E+02</rscale>
<asrwt>0</asrwt>
<pdfrwt beam="1">  1        2 0.33702218E-02 0.80864068E+02</pdfrwt>
<pdfrwt beam="2">  1       -1 0.11480637E-01 0.80864068E+02</pdfrwt>
<totfact> 0.12262528E+05</totfact>
</mgrwt>
</event>
<event>
 8    1  0.2389776E-016  0.7819340E+02  0.7818608E-02  0.1334258E+00
         -1   -1    0    0    0  501 -0.00000000000E+00  0.00000000000E+00  0.15190489848E+03  0.15190489856E+03  0.50400000000E-02 0.  1.
          2   -1    0    0  501    0  0.00000000000E+00 -0.00000000000E+00 -0.10062557647E+02  0.10062557970E+02  0.25500000000E-02 0. -1.
         24    2    1    2    0    0  0.35527136788E-14 -0.35527136788E-14  0.14184234083E+03  0.16196745653E+03  0.78193396927E+02 0.  0.
         66    2    3    3    0    0 -0.26147975417E+02  0.23435700653E+02  0.35475118594E+02  0.49954306348E+02  0.19999999914E+01 0.  0.
        -13    1    3    3    0    0  0.26147975417E+02 -0.23435700653E+02  0.10636722224E+03  0.11201315018E+03  0.10566000000E+00 0.  1.
         13    1    4    4    0    0 -0.53635796954E+01  0.47742448447E+01  0.81265851900E+01  0.10844996629E+02  0.10566000000E+00 0. -1.
        -13    1    4    4    0    0 -0.10695828466E+02  0.10369019618E+02  0.14693818815E+02  0.20924549931E+02  0.10566000000E+00 0.  1.
         14    1    4    4    0    0 -0.10088567256E+02  0.82924361899E+01  0.12654714589E+02  0.18184759789E+02  0.00000000000E+00 0. -1.
<mgrwt>
<rscale>  0 0.78193397E+02</rscale>
<asrwt>0</asrwt>
<pdfrwt beam="1">  1        2 0.15480859E-02 0.78193397E+02</pdfrwt>
<pdfrwt beam="2">  1       -1 0.23369984E-01 0.78193397E+02</pdfrwt>
<totfact> 0.11391577E+05</totfact>
</mgrwt>
</event>
<event>
 8    1  0.2389776E-016  0.7981872E+02  0.7818608E-02  0.1329567E+00
         -1   -1    0    0    0  501 -0.00000000000E+00  0.00000000000E+00  0.44331168176E+01  0.44331196826E+01  0.50400000000E-02 0.  1.
          2   -1    0    0  501    0  0.00000000000E+00 -0.00000000000E+00 -0.35928596221E+03  0.35928596222E+03  0.25500000000E-02 0. -1.
         24    2    1    2    0    0  0.00000000000E+00 -0.35527136788E-14 -0.35485284540E+03  0.36371908190E+03  0.79818723720E+02 0.  0.
         66    2    3    3    0    0  0.29648820471E+02 -0.26657090787E+02 -0.18231487903E+03  0.18663431676E+03  0.20000080982E+01 0.  0.
        -13    1    3    3    0    0 -0.29648820471E+02  0.26657090787E+02 -0.17253796637E+03  0.17708476515E+03  0.10566000000E+00 0.  1.
         13    1    4    4    0    0  0.13892481743E+02 -0.13385740298E+02 -0.90151401093E+02  0.92192545118E+02  0.10566000000E+00 0. -1.
        -13    1    4    4    0    0  0.80509146063E+01 -0.71924933800E+01 -0.49594087646E+02  0.50755629053E+02  0.10566000000E+00 0.  1.
        -14    1    4    4    0    0  0.77054241222E+01 -0.60788571092E+01 -0.42569390290E+02  0.43686142589E+02  0.00000000000E+00 0.  1.
<mgrwt>
<rscale>  0 0.79818724E+02</rscale>
<asrwt>0</asrwt>
<pdfrwt beam="1">  1        2 0.55274741E-01 0.79818724E+02</pdfrwt>
<pdfrwt beam="2">  1       -1 0.68201847E-03 0.79818724E+02</pdfrwt>
<totfact> 0.27364094E+05</totfact>
</mgrwt>
</event>
<event>
 8    1  0.2389776E-016  0.8174227E+02  0.7818608E-02  0.1324179E+00
         -1   -1    0    0    0  501 -0.00000000000E+00  0.00000000000E+00  0.10370703194E+02  0.10370704419E+02  0.50400000000E-02 0.  1.
          2   -1    0    0  501    0  0.00000000000E+00 -0.00000000000E+00 -0.16107390453E+03  0.16107390455E+03  0.25500000000E-02 0. -1.
         24    2    1    2    0    0  0.00000000000E+00  0.00000000000E+00 -0.15070320134E+03  0.17144460897E+03  0.81742272123E+02 0.  0.
         66    2    3    3    0    0 -0.80250841152E+01 -0.34418539150E+02 -0.11834972652E+03  0.12353014029E+03  0.19999950503E+01 0.  0.
        -13    1    3    3    0    0  0.80250841152E+01  0.34418539150E+02 -0.32353474818E+02  0.47914468682E+02  0.10566000000E+00 0.  1.
         13    1    4    4    0    0 -0.19812533093E+01 -0.87624855395E+01 -0.28665313636E+02  0.30040271094E+02  0.10566000000E+00 0. -1.
        -13    1    4    4    0    0 -0.24871507203E+01 -0.12906714905E+02 -0.42814664019E+02  0.44787005118E+02  0.10566000000E+00 0.  1.
        -14    1    4    4    0    0 -0.35566800856E+01 -0.12749338706E+02 -0.46869748862E+02  0.48702864075E+02  0.00000000000E+00 0.  1.
<mgrwt>
<rscale>  0 0.81742272E+02</rscale>
<asrwt>0</asrwt>
<pdfrwt beam="1">  1        2 0.24780599E-01 0.81742272E+02</pdfrwt>
<pdfrwt beam="2">  1       -1 0.15954930E-02 0.81742272E+02</pdfrwt>
<totfact> 0.19361111E+05</totfact>
</mgrwt>
</event>
<event>
 8    1  0.2389776E-016  0.7689128E+02  0.7818608E-02  0.1338112E+00
         -1   -1    0    0    0  501 -0.00000000000E+00  0.00000000000E+00  0.15883130906E+03  0.15883130914E+03  0.50400000000E-02 0.  1.
          2   -1    0    0  501    0  0.00000000000E+00 -0.00000000000E+00 -0.93058933700E+01  0.93058937193E+01  0.25500000000E-02 0. -1.
         24    2    1    2    0    0  0.35527136788E-14  0.00000000000E+00  0.14952541569E+03  0.16813720286E+03  0.76891280704E+02 0.  0.
         66    2    3    3    0    0 -0.20688785272E+02 -0.16709858658E+02  0.14181658454E+02  0.30205375498E+02  0.20000150162E+01 0.  0.
        -13    1    3    3    0    0  0.20688785272E+02  0.16709858658E+02  0.13534375724E+03  0.13793182737E+03  0.10566000000E+00 0.  1.
         13    1    4    4    0    0 -0.91261723370E+01 -0.72538393501E+01  0.59869244499E+01  0.13105710025E+02  0.10566000000E+00 0. -1.
        -13    1    4    4    0    0 -0.66693509406E+01 -0.62492297644E+01  0.45920189212E+01  0.10228925478E+02  0.10566000000E+00 0.  1.
        -14    1    4    4    0    0 -0.48932619948E+01 -0.32067895431E+01  0.36027150827E+01  0.68707399958E+01  0.00000000000E+00 0.  1.
<mgrwt>
<rscale>  0 0.76891281E+02</rscale>
<asrwt>0</asrwt>
<pdfrwt beam="1">  1        2 0.14316760E-02 0.76891281E+02</pdfrwt>
<pdfrwt beam="2">  1       -1 0.24435585E-01 0.76891281E+02</pdfrwt>
<totfact> 0.11749826E+05</totfact>
</mgrwt>
</event>
<event>
 8    1  0.2389776E-016  0.7979088E+02  0.7818608E-02  0.1329646E+00
         -1   -1    0    0    0  501 -0.00000000000E+00  0.00000000000E+00  0.54955962458E+01  0.54955985569E+01  0.50400000000E-02 0.  1.
          2   -1    0    0  501    0  0.00000000000E+00 -0.00000000000E+00 -0.28962204513E+03  0.28962204514E+03  0.25500000000E-02 0. -1.
         24    2    1    2    0    0  0.00000000000E+00  0.00000000000E+00 -0.28412644888E+03  0.29511764370E+03  0.79790880847E+02 0.  0.
         66    2    3    3    0    0  0.12505942893E+02 -0.11601807869E+02 -0.27543880724E+03  0.27597379782E+03  0.19999992605E+01 0.  0.
        -13    1    3    3    0    0 -0.12505942893E+02  0.11601807869E+02 -0.86876416401E+01  0.19143845872E+02  0.10566000000E+00 0.  1.
         13    1    4    4    0    0  0.28953052484E+01 -0.23169902070E+01 -0.51373587558E+02  0.51507357714E+02  0.10566000000E+00 0. -1.
        -13    1    4    4    0    0  0.74249606876E+00 -0.49253000406E+00 -0.11688468309E+02  0.11722855525E+02  0.10566000000E+00 0.  1.
         14    1    4    4    0    0  0.88681415754E+01 -0.87922876582E+01 -0.21237675137E+03  0.21274358458E+03  0.00000000000E+00 0. -1.
<mgrwt>
<rscale>  0 0.79790881E+02</rscale>
<asrwt>0</asrwt>
<pdfrwt beam="1">  1        2 0.44557226E-01 0.79790881E+02</pdfrwt>
<pdfrwt beam="2">  1       -1 0.84547675E-03 0.79790881E+02</pdfrwt>
<totfact> 0.25344839E+05</totfact>
</mgrwt>
</event>
<event>
 8    1  0.2389776E-016  0.7892909E+02  0.7818608E-02  0.1332118E+00
          2   -1    0    0  501    0  0.00000000000E+00  0.00000000000E+00  0.22593370454E+03  0.22593370456E+03  0.25500000000E-02 0. -1.
         -1   -1    0    0    0  501 -0.00000000000E+00 -0.00000000000E+00 -0.68933936844E+01  0.68933955269E+01  0.50400000000E-02 0.  1.
         24    2    1    2    0    0 -0.35527136788E-14  0.00000000000E+00  0.21904031086E+03  0.23282710008E+03  0.78929086860E+02 0.  0.
         66    2    3    3    0    0  0.15303021647E+02  0.10949524077E+00  0.21681355721E+03  0.21736217019E+03  0.19999946754E+01 0.  0.
        -13    1    3    3    0    0 -0.15303021647E+02 -0.10949524077E+00  0.22267536466E+01  0.15464929893E+02  0.10566000000E+00 0.  1.
         13    1    4    4    0    0  0.85535975657E+01 -0.14603590069E+00  0.12985771722E+03  0.13013924560E+03  0.10566000000E+00 0.  1.
        -13    1    4    4    0    0  0.29299787208E+01 -0.35121394278E+00  0.37175543735E+02  0.37292631210E+02  0.10566000000E+00 0. -1.
         14    1    4    4    0    0  0.38194453609E+01  0.60674508424E+00  0.49780296251E+02  0.49930293383E+02  0.00000000000E+00 0. -1.
<mgrwt>
<rscale>  0 0.78929087E+02</rscale>
<asrwt>0</asrwt>
<pdfrwt beam="1">  1        2 0.34759032E-01 0.78929087E+02</pdfrwt>
<pdfrwt beam="2">  1       -1 0.10605222E-02 0.78929087E+02</pdfrwt>
<totfact> 0.23853947E+05</totfact>
</mgrwt>
</event>
<event>
 8    1  0.2389776E-016  0.8066017E+02  0.7818608E-02  0.1327188E+00
          2   -1    0    0  501    0  0.00000000000E+00  0.00000000000E+00  0.30444009244E+02  0.30444009351E+02  0.25500000000E-02 0. -1.
         -1   -1    0    0    0  501 -0.00000000000E+00 -0.00000000000E+00 -0.53426468981E+02  0.53426469219E+02  0.50400000000E-02 0.  1.
         24    2    1    2    0    0 -0.88817841970E-15  0.00000000000E+00 -0.22982459737E+02  0.83870478569E+02  0.80660174311E+02 0.  0.
         66    2    3    3    0    0 -0.77551025607E+01 -0.14468025582E+02  0.26777757589E+02  0.31472427343E+02  0.20000003401E+01 0.  0.
        -13    1    3    3    0    0  0.77551025607E+01  0.14468025582E+02 -0.49760217326E+02  0.52398051227E+02  0.10566000000E+00 0.  1.
         13    1    4    4    0    0 -0.26846168775E+01 -0.51161787107E+01  0.79992588713E+01  0.98682196420E+01  0.10566000000E+00 0.  1.
        -13    1    4    4    0    0 -0.76497000896E+00 -0.22233668077E+01  0.42435195230E+01  0.48525417107E+01  0.10566000000E+00 0. -1.
        -14    1    4    4    0    0 -0.43055156743E+01 -0.71284800634E+01  0.14534979195E+02  0.16751665990E+02  0.00000000000E+00 0.  1.
<mgrwt>
<rscale>  0 0.80660174E+02</rscale>
<asrwt>0</asrwt>
<pdfrwt beam="1">  1        2 0.46836937E-02 0.80660174E+02</pdfrwt>
<pdfrwt beam="2">  1       -1 0.82194568E-02 0.80660174E+02</pdfrwt>
<totfact> 0.13187055E+05</totfact>
</mgrwt>
</event>
<event>
 8    1  0.2389776E-016  0.7829122E+02  0.7818608E-02  0.1333972E+00
         -1   -1    0    0    0  501 -0.00000000000E+00  0.00000000000E+00  0.33929054685E+01  0.33929092118E+01  0.50400000000E-02 0.  1.
          2   -1    0    0  501    0  0.00000000000E+00 -0.00000000000E+00 -0.45164174945E+03  0.45164174945E+03  0.25500000000E-02 0. -1.
         24    2    1    2    0    0  0.00000000000E+00  0.00000000000E+00 -0.44824884398E+03  0.45503465867E+03  0.78291215722E+02 0.  0.
         66    2    3    3    0    0  0.17138821297E+02  0.27552122417E+02 -0.35127648635E+03  0.35277759068E+03  0.19999945019E+01 0.  0.
        -13    1    3    3    0    0 -0.17138821297E+02 -0.27552122417E+02 -0.96972357625E+02  0.10225706798E+03  0.10566000000E+00 0.  1.
         13    1    4    4    0    0  0.88633309817E+01  0.12805468735E+02 -0.17104793434E+03  0.17175548221E+03  0.10566000000E+00 0. -1.
        -13    1    4    4    0    0  0.58177509607E+01  0.11068716376E+02 -0.13459587140E+03  0.13517552467E+03  0.10566000000E+00 0.  1.
        -14    1    4    4    0    0  0.24577393550E+01  0.36779373056E+01 -0.45632680617E+02  0.45846583797E+02  0.00000000000E+00 0.  1.
<mgrwt>
<rscale>  0 0.78291216E+02</rscale>
<asrwt>0</asrwt>
<pdfrwt beam="1">  1        2 0.69483299E-01 0.78291216E+02</pdfrwt>
<pdfrwt beam="2">  1       -1 0.52198610E-03 0.78291216E+02</pdfrwt>
<totfact> 0.31159286E+05</totfact>
</mgrwt>
</event>
<event>
 8    1  0.2389776E-016  0.7957448E+02  0.7818608E-02  0.1330263E+00
         -1   -1    0    0    0  501 -0.00000000000E+00  0.00000000000E+00  0.97358941772E+01  0.97358954818E+01  0.50400000000E-02 0.  1.
          2   -1    0    0  501    0  0.00000000000E+00 -0.00000000000E+00 -0.16259672355E+03  0.16259672357E+03  0.25500000000E-02 0. -1.
         24    2    1    2    0    0  0.00000000000E+00  0.00000000000E+00 -0.15286082937E+03  0.17233261905E+03  0.79574483553E+02 0.  0.
         66    2    3    3    0    0  0.32523395179E+02  0.21691023780E+02 -0.92207386970E+02  0.10017222142E+03  0.19999966096E+01 0.  0.
        -13    1    3    3    0    0 -0.32523395179E+02 -0.21691023780E+02 -0.60653442404E+02  0.72160397630E+02  0.10566000000E+00 0.  1.
         13    1    4    4    0    0  0.20805111472E+02  0.13919824909E+02 -0.61061836186E+02  0.65993736001E+02  0.10566000000E+00 0. -1.
        -13    1    4    4    0    0  0.26660948207E+01  0.15130004710E+01 -0.64804325110E+01  0.71696862960E+01  0.10566000000E+00 0.  1.
         14    1    4    4    0    0  0.90521888865E+01  0.62581984000E+01 -0.24665118273E+02  0.27008799127E+02  0.00000000000E+00 0. -1.
<mgrwt>
<rscale>  0 0.79574484E+02</rscale>
<asrwt>0</asrwt>
<pdfrwt beam="1">  1        2 0.25014879E-01 0.79574484E+02</pdfrwt>
<pdfrwt beam="2">  1       -1 0.14978301E-02 0.79574484E+02</pdfrwt>
<totfact> 0.20855976E+05</totfact>
</mgrwt>
</event>
<event>
 8    1  0.2389776E-016  0.7931236E+02  0.7818608E-02  0.1331014E+00
          2   -1    0    0  501    0  0.00000000000E+00  0.00000000000E+00  0.46835841724E+03  0.46835841724E+03  0.25500000000E-02 0. -1.
         -1   -1    0    0    0  501 -0.00000000000E+00 -0.00000000000E+00 -0.33577095761E+01  0.33577133586E+01  0.50400000000E-02 0.  1.
         24    2    1    2    0    0  0.00000000000E+00  0.00000000000E+00  0.46500070766E+03  0.47171613060E+03  0.79312355567E+02 0.  0.
         66    2    3    3    0    0  0.54983671567E+00 -0.15493321580E+02  0.44957223031E+03  0.44984390137E+03  0.20000011332E+01 0.  0.
        -13    1    3    3    0    0 -0.54983671567E+00  0.15493321580E+02  0.15428477352E+02  0.21872229229E+02  0.10566000000E+00 0.  1.
         13    1    4    4    0    0 -0.25194895781E+00 -0.16183102167E+01  0.56011325363E+02  0.56035365076E+02  0.10566000000E+00 0. -1.
        -13    1    4    4    0    0 -0.13305100568E+00 -0.57798750035E+01  0.15035103934E+03  0.15046219077E+03  0.10566000000E+00 0.  1.
         14    1    4    4    0    0  0.93483667916E+00 -0.80951363596E+01  0.24320986561E+03  0.24334634553E+03  0.00000000000E+00 0. -1.
<mgrwt>
<rscale>  0 0.79312356E+02</rscale>
<asrwt>0</asrwt>
<pdfrwt beam="1">  1        2 0.72055107E-01 0.79312356E+02</pdfrwt>
<pdfrwt beam="2">  1       -1 0.51657124E-03 0.79312356E+02</pdfrwt>
<totfact> 0.30490987E+05</totfact>
</mgrwt>
</event>
<event>
 8    1  0.2389776E-016  0.7767788E+02  0.7818608E-02  0.1335773E+00
         -1   -1    0    0    0  501 -0.00000000000E+00  0.00000000000E+00  0.17743459922E+02  0.17743460638E+02  0.50400000000E-02 0.  1.
          2   -1    0    0  501    0  0.00000000000E+00 -0.00000000000E+00 -0.85015178370E+02  0.85015178408E+02  0.25500000000E-02 0. -1.
         24    2    1    2    0    0  0.00000000000E+00  0.00000000000E+00 -0.67271718448E+02  0.10275863905E+03  0.77677884856E+02 0.  0.
         66    2    3    3    0    0 -0.19953077761E+02  0.37081181695E+01 -0.77424947691E+02  0.80065585470E+02  0.19999997837E+01 0.  0.
        -13    1    3    3    0    0  0.19953077761E+02 -0.37081181695E+01  0.10153229244E+02  0.22693053576E+02  0.10566000000E+00 0.  1.
         13    1    4    4    0    0 -0.31390103995E+01  0.74648290243E+00 -0.14247170731E+02  0.14608342168E+02  0.10566000000E+00 0.  1.
        -13    1    4    4    0    0 -0.12859988837E+02  0.17171294121E+01 -0.47283124118E+02  0.49030937547E+02  0.10566000000E+00 0.  1.
         14    1    4    4    0    0 -0.39540785248E+01  0.12445058549E+01 -0.15894652842E+02  0.16426305755E+02  0.00000000000E+00 0. -1.
<mgrwt>
<rscale>  0 0.77677885E+02</rscale>
<asrwt>0</asrwt>
<pdfrwt beam="1">  1        2 0.13079258E-01 0.77677885E+02</pdfrwt>
<pdfrwt beam="2">  1       -1 0.27297632E-02 0.77677885E+02</pdfrwt>
<totfact> 0.18358036E+05</totfact>
</mgrwt>
</event>
<event>
 8    1  0.2389776E-016  0.7797086E+02  0.7818608E-02  0.1334910E+00
          2   -1    0    0  501    0  0.00000000000E+00  0.00000000000E+00  0.46560675900E+03  0.46560675901E+03  0.25500000000E-02 0. -1.
         -1   -1    0    0    0  501 -0.00000000000E+00 -0.00000000000E+00 -0.32642624559E+01  0.32642663468E+01  0.50400000000E-02 0.  1.
         24    2    1    2    0    0  0.00000000000E+00  0.00000000000E+00  0.46234249654E+03  0.46887102535E+03  0.77970855489E+02 0.  0.
         66    2    3    3    0    0 -0.18573684565E+02  0.32744278438E+02  0.29166390511E+03  0.29409012747E+03  0.19999999652E+01 0.  0.
        -13    1    3    3    0    0  0.18573684565E+02 -0.32744278438E+02  0.17067859143E+03  0.17478089789E+03  0.10566000000E+00 0.  1.
         13    1    4    4    0    0 -0.75488723698E+01  0.14166776026E+02  0.12431041999E+03  0.12534262922E+03  0.10566000000E+00 0. -1.
        -13    1    4    4    0    0 -0.10357089806E+02  0.16689971981E+02  0.15225670637E+03  0.15351853397E+03  0.10566000000E+00 0.  1.
        -14    1    4    4    0    0 -0.66772238893E+00  0.18875304298E+01  0.15096778748E+02  0.15228964274E+02  0.00000000000E+00 0.  1.
<mgrwt>
<rscale>  0 0.77970855E+02</rscale>
<asrwt>0</asrwt>
<pdfrwt beam="1">  1        2 0.71631756E-01 0.77970855E+02</pdfrwt>
<pdfrwt beam="2">  1       -1 0.50219490E-03 0.77970855E+02</pdfrwt>
<totfact> 0.31813834E+05</totfact>
</mgrwt>
</event>
<event>
 8    1  0.2389776E-016  0.7950763E+02  0.7818608E-02  0.1330455E+00
         -1   -1    0    0    0  501 -0.00000000000E+00  0.00000000000E+00  0.57392126660E+01  0.57392148790E+01  0.50400000000E-02 0.  1.
          2   -1    0    0  501    0  0.00000000000E+00 -0.00000000000E+00 -0.27536278798E+03  0.27536278799E+03  0.25500000000E-02 0. -1.
         24    2    1    2    0    0  0.71054273576E-14  0.35527136788E-14 -0.26962357531E+03  0.28110200287E+03  0.79507632670E+02 0.  0.
         66    2    3    3    0    0 -0.34455995052E+02  0.18605979020E+02 -0.11118953818E+03  0.11790043015E+03  0.19999949268E+01 0.  0.
        -13    1    3    3    0    0  0.34455995052E+02 -0.18605979020E+02 -0.15843403713E+03  0.16320157271E+03  0.10566000000E+00 0.  1.
         13    1    4    4    0    0 -0.63690473787E+00  0.62113339494E+00 -0.27066280022E+01  0.28510442854E+01  0.10566000000E+00 0.  1.
        -13    1    4    4    0    0 -0.14294184874E+02  0.74793074550E+01 -0.46802644199E+02  0.49505175782E+02  0.10566000000E+00 0. -1.
         14    1    4    4    0    0 -0.19524905440E+02  0.10505538170E+02 -0.61680265978E+02  0.65544210086E+02  0.00000000000E+00 0. -1.
<mgrwt>
<rscale>  0 0.79507633E+02</rscale>
<asrwt>0</asrwt>
<pdfrwt beam="1">  1        2 0.42363496E-01 0.79507633E+02</pdfrwt>
<pdfrwt beam="2">  1       -1 0.88295618E-03 0.79507633E+02</pdfrwt>
<totfact> 0.25118878E+05</totfact>
</mgrwt>
</event>
<event>
 8    1  0.2389776E-016  0.8101498E+02  0.7818608E-02  0.1326196E+00
         -1   -1    0    0    0  501 -0.00000000000E+00  0.00000000000E+00  0.10900080445E+01  0.10900196965E+01  0.50400000000E-02 0.  1.
          2   -1    0    0  501    0  0.00000000000E+00 -0.00000000000E+00 -0.15053539178E+04  0.15053539178E+04  0.25500000000E-02 0. -1.
         24    2    1    2    0    0  0.00000000000E+00  0.17763568394E-14 -0.15042639098E+04  0.15064439375E+04  0.81014977835E+02 0.  0.
         66    2    3    3    0    0  0.14361215202E+02  0.98395617177E+01 -0.14321943951E+04  0.14323015908E+04  0.19999970471E+01 0.  0.
        -13    1    3    3    0    0 -0.14361215202E+02 -0.98395617177E+01 -0.72069514636E+02  0.74142346745E+02  0.10566000000E+00 0.  1.
         13    1    4    4    0    0  0.62097172169E+01  0.46997143576E+01 -0.59874913458E+03  0.59879978727E+03  0.10566000000E+00 0.  1.
        -13    1    4    4    0    0  0.64678932934E+01  0.36561766968E+01 -0.60915668834E+03  0.60920200540E+03  0.10566000000E+00 0. -1.
        -14    1    4    4    0    0  0.16836046920E+01  0.14836706633E+01 -0.22428857221E+03  0.22429979810E+03  0.00000000000E+00 0.  1.
<mgrwt>
<rscale>  0 0.81014978E+02</rscale>
<asrwt>0</asrwt>
<pdfrwt beam="1">  1        2 0.23159125E+00 0.81014978E+02</pdfrwt>
<pdfrwt beam="2">  1       -1 0.16769565E-03 0.81014978E+02</pdfrwt>
<totfact> 0.32135537E+05</totfact>
</mgrwt>
</event>
<event>
 8    1  0.2389776E-016  0.8002967E+02  0.7818608E-02  0.1328967E+00
          2   -1    0    0  501    0  0.00000000000E+00  0.00000000000E+00  0.81258105511E+02  0.81258105552E+02  0.25500000000E-02 0. -1.
         -1   -1    0    0    0  501 -0.00000000000E+00 -0.00000000000E+00 -0.19704952030E+02  0.19704952674E+02  0.50400000000E-02 0.  1.
         24    2    1    2    0    0 -0.88817841970E-15  0.00000000000E+00  0.61553153482E+02  0.10096305823E+03  0.80029672139E+02 0.  0.
         66    2    3    3    0    0 -0.66113596291E+01  0.17466281374E+02  0.75406145495E+02  0.77710152753E+02  0.20000003217E+01 0.  0.
        -13    1    3    3    0    0  0.66113596291E+01 -0.17466281374E+02 -0.13852992013E+02  0.23252905473E+02  0.10566000000E+00 0.  1.
         13    1    4    4    0    0 -0.82394140916E+00  0.23084689826E+01  0.11491474008E+02  0.11750448817E+02  0.10566000000E+00 0. -1.
        -13    1    4    4    0    0 -0.17574303009E+01  0.63353311360E+01  0.24143237741E+02  0.25022631247E+02  0.10566000000E+00 0.  1.
         14    1    4    4    0    0 -0.40299879191E+01  0.88224812558E+01  0.39771433745E+02  0.40937072688E+02  0.00000000000E+00 0. -1.
<mgrwt>
<rscale>  0 0.80029672E+02</rscale>
<asrwt>0</asrwt>
<pdfrwt beam="1">  1        2 0.12501247E-01 0.80029672E+02</pdfrwt>
<pdfrwt beam="2">  1       -1 0.30315311E-02 0.80029672E+02</pdfrwt>
<totfact> 0.16746165E+05</totfact>
</mgrwt>
</event>
<event>
 8    1  0.2389776E-016  0.7949304E+02  0.7818608E-02  0.1330496E+00
         -1   -1    0    0    0  501 -0.00000000000E+00  0.00000000000E+00  0.73902169658E+00  0.73903888235E+00  0.50400000000E-02 0.  1.
          2   -1    0    0  501    0  0.00000000000E+00 -0.00000000000E+00 -0.21376469531E+04  0.21376469531E+04  0.25500000000E-02 0. -1.
         24    2    1    2    0    0  0.00000000000E+00  0.00000000000E+00 -0.21369079314E+04  0.21383859920E+04  0.79493040061E+02 0.  0.
         66    2    3    3    0    0 -0.10660782983E+02 -0.53098676221E+01 -0.20884805046E+04  0.20885154213E+04  0.19999991690E+01 0.  0.
        -13    1    3    3    0    0  0.10660782983E+02  0.53098676221E+01 -0.48427426860E+02  0.49870570724E+02  0.10566000000E+00 0.  1.
         13    1    4    4    0    0 -0.14596708933E+01 -0.50129932801E+00 -0.26684988119E+03  0.26685436514E+03  0.10566000000E+00 0. -1.
        -13    1    4    4    0    0 -0.17883343139E+01 -0.29528016347E+00 -0.37581200643E+03  0.37581639223E+03  0.10566000000E+00 0.  1.
        -14    1    4    4    0    0 -0.74127777755E+01 -0.45132881306E+01 -0.14458186169E+04  0.14458446639E+04  0.00000000000E+00 0.  1.
<mgrwt>
<rscale>  0 0.79493040E+02</rscale>
<asrwt>0</asrwt>
<pdfrwt beam="1">  1        2 0.32886381E+00 0.79493040E+02</pdfrwt>
<pdfrwt beam="2">  1       -1 0.11369868E-03 0.79493040E+02</pdfrwt>
<totfact> 0.26383288E+05</totfact>
</mgrwt>
</event>
<event>
 8    1  0.2389776E-016  0.7640699E+02  0.7818608E-02  0.1339569E+00
          2   -1    0    0  501    0  0.00000000000E+00  0.00000000000E+00  0.59501515366E+02  0.59501515421E+02  0.25500000000E-02 0. -1.
         -1   -1    0    0    0  501 -0.00000000000E+00 -0.00000000000E+00 -0.24528906562E+02  0.24528907080E+02  0.50400000000E-02 0.  1.
         24    2    1    2    0    0  0.35527136788E-14  0.00000000000E+00  0.34972608804E+02  0.84030422501E+02  0.76406992737E+02 0.  0.
         66    2    3    3    0    0  0.25961015959E+02 -0.17260369277E+02  0.41733426347E+02  0.52130351732E+02  0.19999999561E+01 0.  0.
        -13    1    3    3    0    0 -0.25961015959E+02  0.17260369277E+02 -0.67608175430E+01  0.31900070769E+02  0.10566000000E+00 0.  1.
         13    1    4    4    0    0  0.17482192853E+02 -0.11061502935E+02  0.28086185803E+02  0.34883074852E+02  0.10566000000E+00 0. -1.
        -13    1    4    4    0    0  0.13720707773E+01 -0.72490246537E+00  0.24148825992E+01  0.28724351699E+01  0.10566000000E+00 0.  1.
        -14    1    4    4    0    0  0.71067523282E+01 -0.54739638773E+01  0.11232357945E+02  0.14374841710E+02  0.00000000000E+00 0.  1.
<mgrwt>
<rscale>  0 0.76406993E+02</rscale>
<asrwt>0</asrwt>
<pdfrwt beam="1">  1        2 0.91540792E-02 0.76406993E+02</pdfrwt>
<pdfrwt beam="2">  1       -1 0.37736780E-02 0.76406993E+02</pdfrwt>
<totfact> 0.17599106E+05</totfact>
</mgrwt>
</event>
<event>
 8    1  0.2389776E-016  0.8147298E+02  0.7818608E-02  0.1324923E+00
          2   -1    0    0  501    0  0.00000000000E+00  0.00000000000E+00  0.59852644180E+03  0.59852644180E+03  0.25500000000E-02 0. -1.
         -1   -1    0    0    0  501 -0.00000000000E+00 -0.00000000000E+00 -0.27725763084E+01  0.27725808892E+01  0.50400000000E-02 0.  1.
         24    2    1    2    0    0  0.35527136788E-14  0.00000000000E+00  0.59575386549E+03  0.60129902269E+03  0.81472979848E+02 0.  0.
         66    2    3    3    0    0  0.16028102476E+02  0.14469737965E+02  0.55277777486E+03  0.55320298424E+03  0.19999993996E+01 0.  0.
        -13    1    3    3    0    0 -0.16028102476E+02 -0.14469737965E+02  0.42976090623E+02  0.48096038455E+02  0.10566000000E+00 0.  1.
         13    1    4    4    0    0  0.15338645624E+01  0.98219100162E+00  0.41166362388E+02  0.41206771239E+02  0.10566000000E+00 0. -1.
        -13    1    4    4    0    0  0.77870685653E+01  0.70056410403E+01  0.25356833835E+03  0.25378461502E+03  0.10566000000E+00 0.  1.
         14    1    4    4    0    0  0.67071693486E+01  0.64819059228E+01  0.25804307413E+03  0.25821159798E+03  0.00000000000E+00 0. -1.
<mgrwt>
<rscale>  0 0.81472980E+02</rscale>
<asrwt>0</asrwt>
<pdfrwt beam="1">  1        2 0.92081031E-01 0.81472980E+02</pdfrwt>
<pdfrwt beam="2">  1       -1 0.42655037E-03 0.81472980E+02</pdfrwt>
<totfact> 0.30649874E+05</totfact>
</mgrwt>
</event>
<event>
 8    1  0.2389776E-016  0.8992112E+02  0.7818608E-02  0.1303043E+00
         -1   -1    0    0    0  501 -0.00000000000E+00  0.00000000000E+00  0.95163327377E+02  0.95163327510E+02  0.50400000000E-02 0.  1.
          2   -1    0    0  501    0  0.00000000000E+00 -0.00000000000E+00 -0.21241919613E+02  0.21241919766E+02  0.25500000000E-02 0. -1.
         24    2    1    2    0    0  0.00000000000E+00 -0.22204460493E-15  0.73921407764E+02  0.11640524728E+03  0.89921115805E+02 0.  0.
         66    2    3    3    0    0 -0.24341606567E+02  0.15410034608E+01 -0.11880781873E+02  0.27203703498E+02  0.20000010464E+01 0.  0.
        -13    1    3    3    0    0  0.24341606567E+02 -0.15410034608E+01  0.85802189636E+02  0.89201543778E+02  0.10566000000E+00 0.  1.
         13    1    4    4    0    0 -0.13915716018E+02  0.13126419699E+01 -0.72621635096E+01  0.15751836848E+02  0.10566000000E+00 0. -1.
        -13    1    4    4    0    0 -0.17445412297E+01  0.94248520693E-01 -0.38422279662E+00  0.17919537044E+01  0.10566000000E+00 0.  1.
        -14    1    4    4    0    0 -0.86813493194E+01  0.13411297023E+00 -0.42343955666E+01  0.96599129452E+01  0.00000000000E+00 0.  1.
<mgrwt>
<rscale>  0 0.89921116E+02</rscale>
<asrwt>0</asrwt>
<pdfrwt beam="1">  1        2 0.32679876E-02 0.89921116E+02</pdfrwt>
<pdfrwt beam="2">  1       -1 0.14640512E-01 0.89921116E+02</pdfrwt>
<totfact> 0.89584637E+04</totfact>
</mgrwt>
</event>
<event>
 8    1  0.2389776E-016  0.8030036E+02  0.7818608E-02  0.1328201E+00
          2   -1    0    0  501    0  0.00000000000E+00  0.00000000000E+00  0.76542716896E+01  0.76542721143E+01  0.25500000000E-02 0. -1.
         -1   -1    0    0    0  501 -0.00000000000E+00 -0.00000000000E+00 -0.21060619074E+03  0.21060619081E+03  0.50400000000E-02 0.  1.
         24    2    1    2    0    0 -0.88817841970E-15  0.35527136788E-14 -0.20295191906E+03  0.21826046292E+03  0.80300362550E+02 0.  0.
         66    2    3    3    0    0 -0.52505884539E+01  0.29245423821E+02 -0.28243601792E+02  0.41043446867E+02  0.19999987371E+01 0.  0.
        -13    1    3    3    0    0  0.52505884539E+01 -0.29245423821E+02 -0.17470831726E+03  0.17721701605E+03  0.10566000000E+00 0.  1.
         13    1    4    4    0    0 -0.51769315849E+01  0.27951314152E+02 -0.26562399118E+02  0.38905639622E+02  0.10566000000E+00 0. -1.
        -13    1    4    4    0    0 -0.12546745679E+00  0.53985821669E+00 -0.69734525676E+00  0.89701918573E+00  0.10566000000E+00 0.  1.
         14    1    4    4    0    0  0.51810587788E-01  0.75425145242E+00 -0.98385741721E+00  0.12407880592E+01  0.00000000000E+00 0. -1.
<mgrwt>
<rscale>  0 0.80300363E+02</rscale>
<asrwt>0</asrwt>
<pdfrwt beam="1">  1        2 0.11775805E-02 0.80300363E+02</pdfrwt>
<pdfrwt beam="2">  1       -1 0.32400948E-01 0.80300363E+02</pdfrwt>
<totfact> 0.97100857E+04</totfact>
</mgrwt>
</event>
<event>
 8    1  0.2389776E-016  0.8112851E+02  0.7818608E-02  0.1325879E+00
          2   -1    0    0  501    0  0.00000000000E+00  0.00000000000E+00  0.67210756399E+03  0.67210756399E+03  0.25500000000E-02 0. -1.
         -1   -1    0    0    0  501 -0.00000000000E+00 -0.00000000000E+00 -0.24482051222E+01  0.24482103100E+01  0.50400000000E-02 0.  1.
         24    2    1    2    0    0  0.00000000000E+00  0.17763568394E-14  0.66965935887E+03  0.67455577430E+03  0.81128513660E+02 0.  0.
         66    2    3    3    0    0  0.12263186318E+02  0.11766098012E+02  0.64105571468E+03  0.64128406822E+03  0.20000059201E+01 0.  0.
        -13    1    3    3    0    0 -0.12263186318E+02 -0.11766098012E+02  0.28603644183E+02  0.33271706083E+02  0.10566000000E+00 0.  1.
         13    1    4    4    0    0  0.48771980940E+01  0.41139692947E+01  0.24230232112E+03  0.24238633994E+03  0.10566000000E+00 0. -1.
        -13    1    4    4    0    0  0.58309947371E+01  0.52496242661E+01  0.30294583500E+03  0.30304743715E+03  0.10566000000E+00 0.  1.
        -14    1    4    4    0    0  0.15549934867E+01  0.24025044517E+01  0.95807558563E+02  0.95850291132E+02  0.00000000000E+00 0.  1.
<mgrwt>
<rscale>  0 0.81128514E+02</rscale>
<asrwt>0</asrwt>
<pdfrwt beam="1">  1        2 0.10340131E+00 0.81128514E+02</pdfrwt>
<pdfrwt beam="2">  1       -1 0.37664683E-03 0.81128514E+02</pdfrwt>
<totfact> 0.31946176E+05</totfact>
</mgrwt>
</event>
<event>
 8    1  0.2389776E-016  0.7952986E+02  0.7818608E-02  0.1330391E+00
         -1   -1    0    0    0  501 -0.00000000000E+00  0.00000000000E+00  0.67521763274E+01  0.67521782084E+01  0.50400000000E-02 0.  1.
          2   -1    0    0  501    0  0.00000000000E+00 -0.00000000000E+00 -0.23418368907E+03  0.23418368909E+03  0.25500000000E-02 0. -1.
         24    2    1    2    0    0  0.00000000000E+00 -0.35527136788E-14 -0.22743151275E+03  0.24093586729E+03  0.79529863319E+02 0.  0.
         66    2    3    3    0    0 -0.32531132747E+02  0.21945440615E+02 -0.13279572394E+03  0.13848675481E+03  0.20000000295E+01 0.  0.
        -13    1    3    3    0    0  0.32531132747E+02 -0.21945440615E+02 -0.94635788806E+02  0.10244911248E+03  0.10566000000E+00 0.  1.
         13    1    4    4    0    0 -0.20404847929E+02  0.13396471148E+02 -0.81025794207E+02  0.84622773229E+02  0.10566000000E+00 0. -1.
        -13    1    4    4    0    0 -0.63476259601E+00  0.24157954599E+00 -0.20976830523E+01  0.22074243937E+01  0.10566000000E+00 0.  1.
        -14    1    4    4    0    0 -0.11491522222E+02  0.83073899213E+01 -0.49672246680E+02  0.51656557189E+02  0.00000000000E+00 0.  1.
<mgrwt>
<rscale>  0 0.79529863E+02</rscale>
<asrwt>0</asrwt>
<pdfrwt beam="1">  1        2 0.36028254E-01 0.79529863E+02</pdfrwt>
<pdfrwt beam="2">  1       -1 0.10387967E-02 0.79529863E+02</pdfrwt>
<totfact> 0.23682241E+05</totfact>
</mgrwt>
</event>
<event>
 8    1  0.2389776E-016  0.7904919E+02  0.7818608E-02  0.1331772E+00
         -1   -1    0    0    0  501 -0.00000000000E+00  0.00000000000E+00  0.36834960659E+02  0.36834961004E+02  0.50400000000E-02 0.  1.
          2   -1    0    0  501    0  0.00000000000E+00 -0.00000000000E+00 -0.42410625244E+02  0.42410625320E+02  0.25500000000E-02 0. -1.
         24    2    1    2    0    0  0.35527136788E-14  0.35527136788E-14 -0.55756645842E+01  0.79245586324E+02  0.79049193015E+02 0.  0.
         66    2    3    3    0    0  0.27806678898E+02  0.23216303905E+02 -0.18576136136E+02  0.40758814792E+02  0.19999978010E+01 0.  0.
        -13    1    3    3    0    0 -0.27806678898E+02 -0.23216303905E+02  0.13000471552E+02  0.38486771532E+02  0.10566000000E+00 0.  1.
         13    1    4    4    0    0  0.16819564114E+02  0.13807499201E+02 -0.11640188163E+02  0.24678936680E+02  0.10566000000E+00 0. -1.
        -13    1    4    4    0    0  0.97399267208E+01  0.86959631768E+01 -0.64478638840E+01  0.14562694146E+02  0.10566000000E+00 0.  1.
         14    1    4    4    0    0  0.12471880635E+01  0.71284152728E+00 -0.48808408899E+00  0.15171839660E+01  0.00000000000E+00 0. -1.
<mgrwt>
<rscale>  0 0.79049193E+02</rscale>
<asrwt>0</asrwt>
<pdfrwt beam="1">  1        2 0.65247116E-02 0.79049193E+02</pdfrwt>
<pdfrwt beam="2">  1       -1 0.56669170E-02 0.79049193E+02</pdfrwt>
<totfact> 0.14911976E+05</totfact>
</mgrwt>
</event>
<event>
 8    1  0.2389776E-016  0.7573691E+02  0.7818608E-02  0.1341604E+00
         -1   -1    0    0    0  501 -0.00000000000E+00  0.00000000000E+00  0.32216468558E+01  0.32216507981E+01  0.50400000000E-02 0.  1.
          2   -1    0    0  501    0  0.00000000000E+00 -0.00000000000E+00 -0.44511987670E+03  0.44511987670E+03  0.25500000000E-02 0. -1.
         24    2    1    2    0    0  0.00000000000E+00  0.35527136788E-14 -0.44189822984E+03  0.44834152750E+03  0.75736911387E+02 0.  0.
         66    2    3    3    0    0  0.17609127486E+02  0.31502679439E+02 -0.28847193004E+03  0.29072762958E+03  0.19999998214E+01 0.  0.
        -13    1    3    3    0    0 -0.17609127486E+02 -0.31502679439E+02 -0.15342629980E+03  0.15761389792E+03  0.10566000000E+00 0.  1.
         13    1    4    4    0    0  0.68377033115E+01  0.11782312228E+02 -0.11491596136E+03  0.11572063950E+03  0.10566000000E+00 0. -1.
        -13    1    4    4    0    0  0.39247992019E+01  0.71753450039E+01 -0.66612790173E+02  0.67113073267E+02  0.10566000000E+00 0.  1.
        -14    1    4    4    0    0  0.68466249725E+01  0.12545022207E+02 -0.10694317851E+03  0.10789391682E+03  0.00000000000E+00 0.  1.
<mgrwt>
<rscale>  0 0.75736911E+02</rscale>
<asrwt>0</asrwt>
<pdfrwt beam="1">  1        2 0.68479932E-01 0.75736911E+02</pdfrwt>
<pdfrwt beam="2">  1       -1 0.49563864E-03 0.75736911E+02</pdfrwt>
<totfact> 0.33799685E+05</totfact>
</mgrwt>
</event>
<event>
 8    1  0.2389776E-016  0.7783726E+02  0.7818608E-02  0.1335303E+00
         -1   -1    0    0    0  501 -0.00000000000E+00  0.00000000000E+00  0.16982265562E+02  0.16982266310E+02  0.50400000000E-02 0.  1.
          2   -1    0    0  501    0  0.00000000000E+00 -0.00000000000E+00 -0.89190676557E+02  0.89190676594E+02  0.25500000000E-02 0. -1.
         24    2    1    2    0    0  0.00000000000E+00  0.00000000000E+00 -0.72208410995E+02  0.10617294290E+03  0.77837260913E+02 0.  0.
         66    2    3    3    0    0  0.92062218604E+01  0.35296754144E+02 -0.17724107215E+02  0.40604917949E+02  0.20000027564E+01 0.  0.
        -13    1    3    3    0    0 -0.92062218604E+01 -0.35296754144E+02 -0.54484303780E+02  0.65568024955E+02  0.10566000000E+00 0.  1.
         13    1    4    4    0    0  0.43493686879E+01  0.16731503939E+02 -0.81504258046E+01  0.19112844814E+02  0.10566000000E+00 0. -1.
        -13    1    4    4    0    0  0.32830218371E+01  0.14296443664E+02 -0.77513691758E+01  0.16591004248E+02  0.10566000000E+00 0.  1.
         14    1    4    4    0    0  0.15738313354E+01  0.42688065404E+01 -0.18223122350E+01  0.49010688868E+01  0.00000000000E+00 0. -1.
<mgrwt>
<rscale>  0 0.77837261E+02</rscale>
<asrwt>0</asrwt>
<pdfrwt beam="1">  1        2 0.13721642E-01 0.77837261E+02</pdfrwt>
<pdfrwt beam="2">  1       -1 0.26126564E-02 0.77837261E+02</pdfrwt>
<totfact> 0.18489585E+05</totfact>
</mgrwt>
</event>
<event>
 8    1  0.2389776E-016  0.7984534E+02  0.7818608E-02  0.1329491E+00
         -1   -1    0    0    0  501 -0.00000000000E+00  0.00000000000E+00  0.92059559698E+02  0.92059559836E+02  0.50400000000E-02 0.  1.
          2   -1    0    0  501    0  0.00000000000E+00 -0.00000000000E+00 -0.17312919603E+02  0.17312919791E+02  0.25500000000E-02 0. -1.
         24    2    1    2    0    0  0.00000000000E+00  0.00000000000E+00  0.74746640095E+02  0.10937247963E+03  0.79845344850E+02 0.  0.
         66    2    3    3    0    0 -0.16891426569E+02  0.31000747665E+02  0.11937201405E+02  0.37321085469E+02  0.19999989665E+01 0.  0.
        -13    1    3    3    0    0  0.16891426569E+02 -0.31000747665E+02  0.62809438690E+02  0.72051394157E+02  0.10566000000E+00 0.  1.
         13    1    4    4    0    0 -0.57821816081E+01  0.12123204560E+02  0.46431883312E+01  0.14211828695E+02  0.10566000000E+00 0. -1.
        -13    1    4    4    0    0 -0.12314918331E+01  0.20383334174E+01  0.47935864156E+00  0.24315270918E+01  0.10566000000E+00 0.  1.
        -14    1    4    4    0    0 -0.98777531284E+01  0.16839209689E+02  0.68146544321E+01  0.20677729683E+02  0.00000000000E+00 0.  1.
<mgrwt>
<rscale>  0 0.79845345E+02</rscale>
<asrwt>0</asrwt>
<pdfrwt beam="1">  1        2 0.26635261E-02 0.79845345E+02</pdfrwt>
<pdfrwt beam="2">  1       -1 0.14163009E-01 0.79845345E+02</pdfrwt>
<totfact> 0.12120522E+05</totfact>
</mgrwt>
</event>
<event>
 8    1  0.2389776E-016  0.7905173E+02  0.7818608E-02  0.1331764E+00
          2   -1    0    0  501    0  0.00000000000E+00  0.00000000000E+00  0.41470999833E+03  0.41470999834E+03  0.25500000000E-02 0. -1.
         -1   -1    0    0    0  501 -0.00000000000E+00 -0.00000000000E+00 -0.37671945441E+01  0.37671979155E+01  0.50400000000E-02 0.  1.
         24    2    1    2    0    0  0.00000000000E+00  0.00000000000E+00  0.41094280379E+03  0.41847719625E+03  0.79051728638E+02 0.  0.
         66    2    3    3    0    0  0.69086864204E+00  0.21501907051E+02  0.38097391544E+03  0.38158607620E+03  0.19999988274E+01 0.  0.
        -13    1    3    3    0    0 -0.69086864204E+00 -0.21501907051E+02  0.29968888348E+02  0.36891120059E+02  0.10566000000E+00 0.  1.
         13    1    4    4    0    0  0.22849126880E+00  0.10263065109E+02  0.19484506791E+03  0.19511533606E+03  0.10566000000E+00 0. -1.
        -13    1    4    4    0    0  0.12355381558E+00  0.45538271888E+00  0.10118286511E+02  0.10129833411E+02  0.10566000000E+00 0. -1.
         14    1    4    4    0    0  0.33882355765E+00  0.10783459224E+02  0.17601056102E+03  0.17634090672E+03  0.00000000000E+00 0. -1.
<mgrwt>
<rscale>  0 0.79051729E+02</rscale>
<asrwt>0</asrwt>
<pdfrwt beam="1">  1        2 0.63801518E-01 0.79051729E+02</pdfrwt>
<pdfrwt beam="2">  1       -1 0.57956884E-03 0.79051729E+02</pdfrwt>
<totfact> 0.29514952E+05</totfact>
</mgrwt>
</event>
<event>
 8    1  0.2389776E-016  0.8003177E+02  0.7818608E-02  0.1328961E+00
         -1   -1    0    0    0  501 -0.00000000000E+00  0.00000000000E+00  0.95084103196E+02  0.95084103330E+02  0.50400000000E-02 0.  1.
          2   -1    0    0  501    0  0.00000000000E+00 -0.00000000000E+00 -0.16840575532E+02  0.16840575725E+02  0.25500000000E-02 0. -1.
         24    2    1    2    0    0  0.00000000000E+00  0.00000000000E+00  0.78243527664E+02  0.11192467905E+03  0.80031769692E+02 0.  0.
         66    2    3    3    0    0  0.16976667194E+02  0.16433950230E+02 -0.59755766801E+01  0.24453823052E+02  0.19999990072E+01 0.  0.
        -13    1    3    3    0    0 -0.16976667194E+02 -0.16433950230E+02  0.84219104344E+02  0.87470856002E+02  0.10566000000E+00 0.  1.
         13    1    4    4    0    0  0.71811416137E+00  0.91114451797E+00 -0.47186393240E+00  0.12568579425E+01  0.10566000000E+00 0. -1.
        -13    1    4    4    0    0  0.16185761851E+02  0.15202065470E+02 -0.54204311726E+01  0.22857688409E+02  0.10566000000E+00 0.  1.
        -14    1    4    4    0    0  0.72791181230E-01  0.32074024212E+00 -0.83281575118E-01  0.33927670084E+00  0.00000000000E+00 0.  1.
<mgrwt>
<rscale>  0 0.80031770E+02</rscale>
<asrwt>0</asrwt>
<pdfrwt beam="1">  1        2 0.25908578E-02 0.80031770E+02</pdfrwt>
<pdfrwt beam="2">  1       -1 0.14628323E-01 0.80031770E+02</pdfrwt>
<totfact> 0.11968918E+05</totfact>
</mgrwt>
</event>
<event>
 8    1  0.2389776E-016  0.8042108E+02  0.7818608E-02  0.1327861E+00
         -1   -1    0    0    0  501 -0.00000000000E+00  0.00000000000E+00  0.21127462464E+01  0.21127522579E+01  0.50400000000E-02 0.  1.
          2   -1    0    0  501    0  0.00000000000E+00 -0.00000000000E+00 -0.76530016122E+03  0.76530016122E+03  0.25500000000E-02 0. -1.
         24    2    1    2    0    0  0.00000000000E+00  0.00000000000E+00 -0.76318741497E+03  0.76741291348E+03  0.80421075628E+02 0.  0.
         66    2    3    3    0    0 -0.11130152601E+02  0.11563222450E+02 -0.73338640730E+03  0.73356472841E+03  0.19999856171E+01 0.  0.
        -13    1    3    3    0    0  0.11130152601E+02 -0.11563222450E+02 -0.29801007669E+02  0.33848185069E+02  0.10566000000E+00 0.  1.
         13    1    4    4    0    0 -0.47387967132E+01  0.44293552342E+01 -0.31130193035E+03  0.31136952065E+03  0.10566000000E+00 0. -1.
        -13    1    4    4    0    0 -0.12770990643E+01  0.77246588486E+00 -0.58631341996E+02  0.58650431489E+02  0.10566000000E+00 0.  1.
         14    1    4    4    0    0 -0.51142568234E+01  0.63614013308E+01 -0.36345313495E+03  0.36354477627E+03  0.00000000000E+00 0. -1.
<mgrwt>
<rscale>  0 0.80421076E+02</rscale>
<asrwt>0</asrwt>
<pdfrwt beam="1">  1        2 0.11773827E+00 0.80421076E+02</pdfrwt>
<pdfrwt beam="2">  1       -1 0.32503896E-03 0.80421076E+02</pdfrwt>
<totfact> 0.33626337E+05</totfact>
</mgrwt>
</event>
<event>
 8    1  0.2389776E-016  0.7438509E+02  0.7818608E-02  0.1345786E+00
         -1   -1    0    0    0  501 -0.00000000000E+00  0.00000000000E+00  0.12876639705E+02  0.12876640691E+02  0.50400000000E-02 0.  1.
          2   -1    0    0  501    0  0.00000000000E+00 -0.00000000000E+00 -0.10742595122E+03  0.10742595125E+03  0.25500000000E-02 0. -1.
         24    2    1    2    0    0  0.00000000000E+00  0.00000000000E+00 -0.94549311518E+02  0.12030259194E+03  0.74385088021E+02 0.  0.
         66    2    3    3    0    0 -0.24063267222E+02  0.25802222962E+02 -0.66203063979E+02  0.75044261741E+02  0.20000002321E+01 0.  0.
        -13    1    3    3    0    0  0.24063267222E+02 -0.25802222962E+02 -0.28346247538E+02  0.45258330202E+02  0.10566000000E+00 0.  1.
         13    1    4    4    0    0 -0.27429161141E+01  0.31589389180E+01 -0.89864237210E+01  0.99130953403E+01  0.10566000000E+00 0.  1.
        -13    1    4    4    0    0 -0.18000485932E+01  0.22304872637E+01 -0.49215690563E+01  0.56963369267E+01  0.10566000000E+00 0. -1.
         14    1    4    4    0    0 -0.19520302514E+02  0.20412796780E+02 -0.52295071202E+02  0.59434829474E+02  0.00000000000E+00 0. -1.
<mgrwt>
<rscale>  0 0.74385088E+02</rscale>
<asrwt>0</asrwt>
<pdfrwt beam="1">  1        2 0.16527069E-01 0.74385088E+02</pdfrwt>
<pdfrwt beam="2">  1       -1 0.19810216E-02 0.74385088E+02</pdfrwt>
<totfact> 0.21955946E+05</totfact>
</mgrwt>
</event>
<event>
 8    1  0.2389776E-016  0.7917137E+02  0.7818608E-02  0.1331420E+00
          2   -1    0    0  501    0  0.00000000000E+00  0.00000000000E+00  0.14839053955E+04  0.14839053955E+04  0.25500000000E-02 0. -1.
         -1   -1    0    0    0  501 -0.00000000000E+00 -0.00000000000E+00 -0.10560090628E+01  0.10560210899E+01  0.50400000000E-02 0.  1.
         24    2    1    2    0    0  0.00000000000E+00 -0.17763568394E-14  0.14828493864E+04  0.14849614165E+04  0.79171370518E+02 0.  0.
         66    2    3    3    0    0 -0.37494355771E+01  0.14463608944E+02  0.14289421808E+04  0.14290216970E+04  0.20000008962E+01 0.  0.
        -13    1    3    3    0    0  0.37494355771E+01 -0.14463608944E+02  0.53907205556E+02  0.55939719572E+02  0.10566000000E+00 0.  1.
         13    1    4    4    0    0 -0.13012442255E+01  0.42781819146E+01  0.48434086367E+03  0.48436151733E+03  0.10566000000E+00 0. -1.
        -13    1    4    4    0    0 -0.12577100020E+01  0.59757332432E+01  0.60033437430E+03  0.60036544151E+03  0.10566000000E+00 0.  1.
         14    1    4    4    0    0 -0.11904813495E+01  0.42096937861E+01  0.34426694286E+03  0.34429473814E+03  0.00000000000E+00 0. -1.
<mgrwt>
<rscale>  0 0.79171371E+02</rscale>
<asrwt>0</asrwt>
<pdfrwt beam="1">  1        2 0.22829342E+00 0.79171371E+02</pdfrwt>
<pdfrwt beam="2">  1       -1 0.16246366E-03 0.79171371E+02</pdfrwt>
<totfact> 0.34299327E+05</totfact>
</mgrwt>
</event>
<event>
 8    1  0.2389776E-016  0.8003491E+02  0.7818608E-02  0.1328952E+00
          2   -1    0    0  501    0  0.00000000000E+00  0.00000000000E+00  0.60615665272E+02  0.60615665326E+02  0.25500000000E-02 0. -1.
         -1   -1    0    0    0  501 -0.00000000000E+00 -0.00000000000E+00 -0.26418857072E+02  0.26418857553E+02  0.50400000000E-02 0.  1.
         24    2    1    2    0    0  0.00000000000E+00  0.00000000000E+00  0.34196808200E+02  0.87034522879E+02  0.80034907895E+02 0.  0.
         66    2    3    3    0    0  0.35491968821E+02  0.11160426647E+01  0.37115490506E+02  0.51405107048E+02  0.19999982923E+01 0.  0.
        -13    1    3    3    0    0 -0.35491968821E+02 -0.11160426647E+01 -0.29186823059E+01  0.35629415831E+02  0.10566000000E+00 0.  1.
         13    1    4    4    0    0  0.68492772737E+01  0.71199406537E+00  0.73499899277E+01  0.10072390515E+02  0.10566000000E+00 0. -1.
        -13    1    4    4    0    0  0.20659170838E+02  0.67223587094E+00  0.20780740642E+02  0.29310468889E+02  0.10566000000E+00 0.  1.
        -14    1    4    4    0    0  0.79835207087E+01 -0.26818727159E+00  0.89847599360E+01  0.12022247644E+02  0.00000000000E+00 0.  1.
<mgrwt>
<rscale>  0 0.80034908E+02</rscale>
<asrwt>0</asrwt>
<pdfrwt beam="1">  1        2 0.93254869E-02 0.80034908E+02</pdfrwt>
<pdfrwt beam="2">  1       -1 0.40644396E-02 0.80034908E+02</pdfrwt>
<totfact> 0.15584502E+05</totfact>
</mgrwt>
</event>
<event>
 8    1  0.2389776E-016  0.7810463E+02  0.7818608E-02  0.1334518E+00
          2   -1    0    0  501    0  0.00000000000E+00  0.00000000000E+00  0.19329757081E+03  0.19329757082E+03  0.25500000000E-02 0. -1.
         -1   -1    0    0    0  501 -0.00000000000E+00 -0.00000000000E+00 -0.78898207618E+01  0.78898223715E+01  0.50400000000E-02 0.  1.
         24    2    1    2    0    0  0.00000000000E+00  0.00000000000E+00  0.18540775004E+03  0.20118739319E+03  0.78104631130E+02 0.  0.
         66    2    3    3    0    0 -0.27451896517E+02  0.16235724895E+02  0.15069998945E+03  0.15405094027E+03  0.19999977504E+01 0.  0.
        -13    1    3    3    0    0  0.27451896517E+02 -0.16235724895E+02  0.34707760594E+02  0.47136452929E+02  0.10566000000E+00 0.  1.
         13    1    4    4    0    0 -0.10039800435E+02  0.55341016198E+01  0.54279678114E+02  0.55477188950E+02  0.10566000000E+00 0. -1.
        -13    1    4    4    0    0 -0.67497833770E+01  0.46014921919E+01  0.35612011584E+02  0.36537102226E+02  0.10566000000E+00 0.  1.
        -14    1    4    4    0    0 -0.10662312705E+02  0.61001310838E+01  0.60808299752E+02  0.62036649089E+02  0.00000000000E+00 0.  1.
<mgrwt>
<rscale>  0 0.78104631E+02</rscale>
<asrwt>0</asrwt>
<pdfrwt beam="1">  1        2 0.29738086E-01 0.78104631E+02</pdfrwt>
<pdfrwt beam="2">  1       -1 0.12138188E-02 0.78104631E+02</pdfrwt>
<totfact> 0.23222696E+05</totfact>
</mgrwt>
</event>
<event>
 8    1  0.2389776E-016  0.8043555E+02  0.7818608E-02  0.1327820E+00
         -1   -1    0    0    0  501 -0.00000000000E+00  0.00000000000E+00  0.20077969628E+01  0.20078032885E+01  0.50400000000E-02 0.  1.
          2   -1    0    0  501    0  0.00000000000E+00 -0.00000000000E+00 -0.80559285569E+03  0.80559285570E+03  0.25500000000E-02 0. -1.
         24    2    1    2    0    0  0.00000000000E+00  0.00000000000E+00 -0.80358505873E+03  0.80760065898E+03  0.80435550470E+02 0.  0.
         66    2    3    3    0    0  0.23760673325E+02  0.20602088544E+02 -0.65333962986E+03  0.65409914202E+03  0.20000002551E+01 0.  0.
        -13    1    3    3    0    0 -0.23760673325E+02 -0.20602088544E+02 -0.15024542887E+03  0.15350151696E+03  0.10566000000E+00 0.  1.
         13    1    4    4    0    0  0.12462265734E+02  0.11471765101E+02 -0.36331721549E+03  0.36371186357E+03  0.10566000000E+00 0.  1.
        -13    1    4    4    0    0  0.38962878947E+01  0.34391612207E+01 -0.11058146423E+03  0.11070356943E+03  0.10566000000E+00 0. -1.
        -14    1    4    4    0    0  0.74021196956E+01  0.56911622217E+01 -0.17944095013E+03  0.17968370902E+03  0.00000000000E+00 0.  1.
<mgrwt>
<rscale>  0 0.80435550E+02</rscale>
<asrwt>0</asrwt>
<pdfrwt beam="1">  1        2 0.12393710E+00 0.80435550E+02</pdfrwt>
<pdfrwt beam="2">  1       -1 0.30889297E-03 0.80435550E+02</pdfrwt>
<totfact> 0.33924560E+05</totfact>
</mgrwt>
</event>
<event>
 8    1  0.2389776E-016  0.7851539E+02  0.7818608E-02  0.1333318E+00
         -1   -1    0    0    0  501 -0.00000000000E+00  0.00000000000E+00  0.18039983845E+03  0.18039983852E+03  0.50400000000E-02 0.  1.
          2   -1    0    0  501    0  0.00000000000E+00 -0.00000000000E+00 -0.85430594853E+01  0.85430598659E+01  0.25500000000E-02 0. -1.
         24    2    1    2    0    0  0.71054273576E-14  0.44408920985E-15  0.17185677896E+03  0.18894289838E+03  0.78515389411E+02 0.  0.
         66    2    3    3    0    0 -0.38678678676E+02 -0.24508448623E+01  0.71323467078E+02  0.81197806676E+02  0.20000070966E+01 0.  0.
        -13    1    3    3    0    0  0.38678678676E+02  0.24508448623E+01  0.10053331188E+03  0.10774509171E+03  0.10566000000E+00 0.  1.
         13    1    4    4    0    0 -0.12759489712E+02 -0.50800765361E+00  0.24442750521E+02  0.27577560925E+02  0.10566000000E+00 0. -1.
        -13    1    4    4    0    0 -0.13357914160E+01  0.14874243404E+00  0.22009312431E+01  0.25810318462E+01  0.10566000000E+00 0.  1.
         14    1    4    4    0    0 -0.24583397548E+02 -0.20915796427E+01  0.44679785314E+02  0.51039213905E+02  0.00000000000E+00 0. -1.
<mgrwt>
<rscale>  0 0.78515389E+02</rscale>
<asrwt>0</asrwt>
<pdfrwt beam="1">  1        2 0.13143169E-02 0.78515389E+02</pdfrwt>
<pdfrwt beam="2">  1       -1 0.27753820E-01 0.78515389E+02</pdfrwt>
<totfact> 0.10765900E+05</totfact>
</mgrwt>
</event>
<event>
 8    1  0.2389776E-016  0.8009848E+02  0.7818608E-02  0.1328772E+00
         -1   -1    0    0    0  501 -0.00000000000E+00  0.00000000000E+00  0.23022130815E+01  0.23022185982E+01  0.50400000000E-02 0.  1.
          2   -1    0    0  501    0  0.00000000000E+00 -0.00000000000E+00 -0.69669480505E+03  0.69669480505E+03  0.25500000000E-02 0. -1.
         24    2    1    2    0    0  0.55511151231E-16  0.00000000000E+00 -0.69439259196E+03  0.69899702365E+03  0.80098484972E+02 0.  0.
         66    2    3    3    0    0 -0.47040144231E+00 -0.29975525251E+02 -0.57882387695E+03  0.57960316934E+03  0.19999987175E+01 0.  0.
        -13    1    3    3    0    0  0.47040144231E+00  0.29975525251E+02 -0.11556871502E+03  0.11939385431E+03  0.10566000000E+00 0.  1.
         13    1    4    4    0    0 -0.83084734762E-01 -0.35826496246E+01 -0.75970159742E+02  0.76054708051E+02  0.10566000000E+00 0. -1.
        -13    1    4    4    0    0 -0.82726296092E+00 -0.17805745889E+02 -0.33025568411E+03  0.33073638596E+03  0.10566000000E+00 0.  1.
         14    1    4    4    0    0  0.43994625338E+00 -0.85871297376E+01 -0.17259803310E+03  0.17281207533E+03  0.00000000000E+00 0. -1.
<mgrwt>
<rscale>  0 0.80098485E+02</rscale>
<asrwt>0</asrwt>
<pdfrwt beam="1">  1        2 0.10718365E+00 0.80098485E+02</pdfrwt>
<pdfrwt beam="2">  1       -1 0.35418761E-03 0.80098485E+02</pdfrwt>
<totfact> 0.33308638E+05</totfact>
</mgrwt>
</event>
<event>
 8    1  0.2389776E-016  0.7822463E+02  0.7818608E-02  0.1334167E+00
         -1   -1    0    0    0  501 -0.00000000000E+00  0.00000000000E+00  0.16349568903E+02  0.16349569680E+02  0.50400000000E-02 0.  1.
          2   -1    0    0  501    0  0.00000000000E+00 -0.00000000000E+00 -0.93566572356E+02  0.93566572391E+02  0.25500000000E-02 0. -1.
         24    2    1    2    0    0 -0.71054273576E-14 -0.17763568394E-14 -0.77217003453E+02  0.10991614207E+03  0.78224629533E+02 0.  0.
         66    2    3    3    0    0 -0.32353066619E+02 -0.15462093472E+02 -0.60491125057E+02  0.70348940675E+02  0.19999973308E+01 0.  0.
        -13    1    3    3    0    0  0.32353066619E+02  0.15462093472E+02 -0.16725878396E+02  0.39567201396E+02  0.10566000000E+00 0.  1.
         13    1    4    4    0    0 -0.14291289606E+02 -0.65419911465E+01 -0.27868912619E+02  0.31995719423E+02  0.10566000000E+00 0. -1.
        -13    1    4    4    0    0 -0.16458902994E+02 -0.81202575865E+01 -0.29160533088E+02  0.34455506455E+02  0.10566000000E+00 0.  1.
        -14    1    4    4    0    0 -0.16028740186E+01 -0.79984473852E+00 -0.34616793488E+01  0.38977147971E+01  0.00000000000E+00 0.  1.
<mgrwt>
<rscale>  0 0.78224630E+02</rscale>
<asrwt>0</asrwt>
<pdfrwt beam="1">  1        2 0.14394857E-01 0.78224630E+02</pdfrwt>
<pdfrwt beam="2">  1       -1 0.25153184E-02 0.78224630E+02</pdfrwt>
<totfact> 0.18481800E+05</totfact>
</mgrwt>
</event>
<event>
 8    1  0.2389776E-016  0.7738974E+02  0.7818608E-02  0.1336627E+00
         -1   -1    0    0    0  501 -0.00000000000E+00  0.00000000000E+00  0.60156694953E+02  0.60156695164E+02  0.50400000000E-02 0.  1.
          2   -1    0    0  501    0  0.00000000000E+00 -0.00000000000E+00 -0.24889883417E+02  0.24889883548E+02  0.25500000000E-02 0. -1.
         24    2    1    2    0    0  0.00000000000E+00  0.35527136788E-14  0.35266811536E+02  0.85046578712E+02  0.77389744506E+02 0.  0.
         66    2    3    3    0    0  0.14822393178E+02 -0.31584997662E+02 -0.67692237764E+00  0.34953878760E+02  0.19999999014E+01 0.  0.
        -13    1    3    3    0    0 -0.14822393178E+02  0.31584997662E+02  0.35943733913E+02  0.50092699952E+02  0.10566000000E+00 0.  1.
         13    1    4    4    0    0  0.34335084859E+01 -0.85337728775E+01 -0.75819790986E+00  0.92304002163E+01  0.10566000000E+00 0. -1.
        -13    1    4    4    0    0  0.72222784012E+00 -0.12000338906E+01 -0.86173216085E-01  0.14072257283E+01  0.10566000000E+00 0.  1.
         14    1    4    4    0    0  0.10666656852E+02 -0.21851190894E+02  0.16744874831E+00  0.24316252815E+02  0.00000000000E+00 0. -1.
<mgrwt>
<rscale>  0 0.77389745E+02</rscale>
<asrwt>0</asrwt>
<pdfrwt beam="1">  1        2 0.38292128E-02 0.77389745E+02</pdfrwt>
<pdfrwt beam="2">  1       -1 0.92548763E-02 0.77389745E+02</pdfrwt>
<totfact> 0.14242652E+05</totfact>
</mgrwt>
</event>
<event>
 8    1  0.2389776E-016  0.7610446E+02  0.7818608E-02  0.1340485E+00
         -1   -1    0    0    0  501 -0.00000000000E+00  0.00000000000E+00  0.23199286965E+01  0.23199341712E+01  0.50400000000E-02 0.  1.
          2   -1    0    0  501    0  0.00000000000E+00 -0.00000000000E+00 -0.62414439748E+03  0.62414439748E+03  0.25500000000E-02 0. -1.
         24    2    1    2    0    0  0.88817841970E-15  0.71054273576E-14 -0.62182446878E+03  0.62646433166E+03  0.76104460183E+02 0.  0.
         66    2    3    3    0    0  0.67014900520E+01  0.31587255316E+02 -0.47643736733E+03  0.47753453242E+03  0.19999996492E+01 0.  0.
        -13    1    3    3    0    0 -0.67014900520E+01 -0.31587255316E+02 -0.14538710145E+03  0.14892979924E+03  0.10566000000E+00 0.  1.
         13    1    4    4    0    0  0.25517750210E+01  0.13024110792E+02 -0.19500926833E+03  0.19546039220E+03  0.10566000000E+00 0. -1.
        -13    1    4    4    0    0  0.15054424233E+01  0.58363046349E+01 -0.79664854964E+02  0.79892609728E+02  0.10566000000E+00 0.  1.
        -14    1    4    4    0    0  0.26442726077E+01  0.12726839889E+02 -0.20176324403E+03  0.20218153050E+03  0.00000000000E+00 0.  1.
<mgrwt>
<rscale>  0 0.76104460E+02</rscale>
<asrwt>0</asrwt>
<pdfrwt beam="1">  1        2 0.96022081E-01 0.76104460E+02</pdfrwt>
<pdfrwt beam="2">  1       -1 0.35691303E-03 0.76104460E+02</pdfrwt>
<totfact> 0.37007853E+05</totfact>
</mgrwt>
</event>
<event>
 8    1  0.2389776E-016  0.8193224E+02  0.7818608E-02  0.1323656E+00
         -1   -1    0    0    0  501 -0.00000000000E+00  0.00000000000E+00  0.27774393401E+01  0.27774439129E+01  0.50400000000E-02 0.  1.
          2   -1    0    0  501    0  0.00000000000E+00 -0.00000000000E+00 -0.60423336334E+03  0.60423336335E+03  0.25500000000E-02 0. -1.
         24    2    1    2    0    0 -0.71054273576E-14  0.35527136788E-14 -0.60145592400E+03  0.60701080726E+03  0.81932237940E+02 0.  0.
         66    2    3    3    0    0 -0.33410751602E+02  0.16463766163E+02 -0.42682915951E+03  0.42845590825E+03  0.19999973280E+01 0.  0.
        -13    1    3    3    0    0  0.33410751602E+02 -0.16463766163E+02 -0.17462676450E+03  0.17855489901E+03  0.10566000000E+00 0.  1.
         13    1    4    4    0    0 -0.96094938829E+01  0.45065652649E+01 -0.11909096971E+03  0.11956304502E+03  0.10566000000E+00 0. -1.
        -13    1    4    4    0    0 -0.11737891630E+02  0.67701850072E+01 -0.15786606663E+03  0.15844658299E+03  0.10566000000E+00 0.  1.
        -14    1    4    4    0    0 -0.12063366089E+02  0.51870158908E+01 -0.14987212316E+03  0.15044628024E+03  0.00000000000E+00 0.  1.
<mgrwt>
<rscale>  0 0.81932238E+02</rscale>
<asrwt>0</asrwt>
<pdfrwt beam="1">  1        2 0.92958875E-01 0.81932238E+02</pdfrwt>
<pdfrwt beam="2">  1       -1 0.42729919E-03 0.81932238E+02</pdfrwt>
<totfact> 0.30283705E+05</totfact>
</mgrwt>
</event>
<event>
 8    1  0.2389776E-016  0.7889891E+02  0.7818608E-02  0.1332206E+00
          2   -1    0    0  501    0  0.00000000000E+00  0.00000000000E+00  0.53895246844E+03  0.53895246845E+03  0.25500000000E-02 0. -1.
         -1   -1    0    0    0  501 -0.00000000000E+00 -0.00000000000E+00 -0.28875614790E+01  0.28875658774E+01  0.50400000000E-02 0.  1.
         24    2    1    2    0    0  0.00000000000E+00 -0.88817841970E-15  0.53606490696E+03  0.54184003432E+03  0.78898912036E+02 0.  0.
         66    2    3    3    0    0 -0.28880976044E+02 -0.78227612590E+01  0.44449341284E+03  0.44550387252E+03  0.20000008747E+01 0.  0.
        -13    1    3    3    0    0  0.28880976044E+02  0.78227612590E+01  0.91571494122E+02  0.96336161802E+02  0.10566000000E+00 0.  1.
         13    1    4    4    0    0 -0.59277262004E+01 -0.88567917352E+00  0.88864557131E+02  0.89066509102E+02  0.10566000000E+00 0. -1.
        -13    1    4    4    0    0 -0.43753380928E+01 -0.15324934126E+01  0.72632318020E+02  0.72780195826E+02  0.10566000000E+00 0.  1.
         14    1    4    4    0    0 -0.18577911750E+02 -0.54045886730E+01  0.28299653769E+03  0.28365716759E+03  0.00000000000E+00 0. -1.
<mgrwt>
<rscale>  0 0.78898912E+02</rscale>
<asrwt>0</asrwt>
<pdfrwt beam="1">  1        2 0.82915726E-01 0.78898912E+02</pdfrwt>
<pdfrwt beam="2">  1       -1 0.44424077E-03 0.78898912E+02</pdfrwt>
<totfact> 0.32316005E+05</totfact>
</mgrwt>
</event>
<event>
 8    1  0.2389776E-016  0.8021477E+02  0.7818608E-02  0.1328443E+00
          2   -1    0    0  501    0  0.00000000000E+00  0.00000000000E+00  0.17403490049E+03  0.17403490051E+03  0.25500000000E-02 0. -1.
         -1   -1    0    0    0  501 -0.00000000000E+00 -0.00000000000E+00 -0.92429865847E+01  0.92429879588E+01  0.50400000000E-02 0.  1.
         24    2    1    2    0    0  0.00000000000E+00  0.00000000000E+00  0.16479191391E+03  0.18327788847E+03  0.80214771162E+02 0.  0.
         66    2    3    3    0    0 -0.27714177855E+02  0.97125750407E+01  0.14477701105E+03  0.14773893423E+03  0.19999976848E+01 0.  0.
        -13    1    3    3    0    0  0.27714177855E+02 -0.97125750407E+01  0.20014902860E+02  0.35538954242E+02  0.10566000000E+00 0.  1.
         13    1    4    4    0    0 -0.10014474700E+02  0.32100405492E+01  0.50901390656E+02  0.51976502369E+02  0.10566000000E+00 0. -1.
        -13    1    4    4    0    0 -0.87790951202E+01  0.38174721095E+01  0.45057588367E+02  0.46063467498E+02  0.10566000000E+00 0.  1.
        -14    1    4    4    0    0 -0.89206080345E+01  0.26850623820E+01  0.48818032025E+02  0.49698964360E+02  0.00000000000E+00 0.  1.
<mgrwt>
<rscale>  0 0.80214771E+02</rscale>
<asrwt>0</asrwt>
<pdfrwt beam="1">  1        2 0.26774599E-01 0.80214771E+02</pdfrwt>
<pdfrwt beam="2">  1       -1 0.14219981E-02 0.80214771E+02</pdfrwt>
<totfact> 0.20885052E+05</totfact>
</mgrwt>
</event>
<event>
 8    1  0.2389776E-016  0.8085400E+02  0.7818608E-02  0.1326645E+00
          2   -1    0    0  501    0  0.00000000000E+00  0.00000000000E+00  0.48087829188E+02  0.48087829256E+02  0.25500000000E-02 0. -1.
         -1   -1    0    0    0  501 -0.00000000000E+00 -0.00000000000E+00 -0.33986606118E+02  0.33986606491E+02  0.50400000000E-02 0.  1.
         24    2    1    2    0    0  0.00000000000E+00 -0.71054273576E-14  0.14101223070E+02  0.82074435747E+02  0.80853995023E+02 0.  0.
         66    2    3    3    0    0 -0.17478084342E+02  0.35928700494E+02  0.96585305413E+00  0.40016094589E+02  0.20000006486E+01 0.  0.
        -13    1    3    3    0    0  0.17478084342E+02 -0.35928700494E+02  0.13135370016E+02  0.42058341158E+02  0.10566000000E+00 0.  1.
         13    1    4    4    0    0 -0.46692717403E+01  0.11132651671E+02  0.68008058159E+00  0.12091803234E+02  0.10566000000E+00 0.  1.
        -13    1    4    4    0    0 -0.36331792750E+01  0.62225292128E+01  0.11288859824E+00  0.72072026001E+01  0.10566000000E+00 0. -1.
         14    1    4    4    0    0 -0.91756333268E+01  0.18573519610E+02  0.17288387431E+00  0.20717088755E+02  0.00000000000E+00 0. -1.
<mgrwt>
<rscale>  0 0.80853995E+02</rscale>
<asrwt>0</asrwt>
<pdfrwt beam="1">  1        2 0.73981276E-02 0.80853995E+02</pdfrwt>
<pdfrwt beam="2">  1       -1 0.52287087E-02 0.80853995E+02</pdfrwt>
<totfact> 0.14391689E+05</totfact>
</mgrwt>
</event>
<event>
 8    1  0.2389776E-016  0.7588704E+02  0.7818608E-02  0.1341146E+00
          2   -1    0    0  501    0  0.00000000000E+00  0.00000000000E+00  0.14814455856E+04  0.14814455856E+04  0.25500000000E-02 0. -1.
         -1   -1    0    0    0  501 -0.00000000000E+00 -0.00000000000E+00 -0.97182162760E+00  0.97183469658E+00  0.50400000000E-02 0.  1.
         24    2    1    2    0    0  0.00000000000E+00  0.00000000000E+00  0.14804737640E+04  0.14824174203E+04  0.75887035749E+02 0.  0.
         66    2    3    3    0    0  0.20781032352E+02 -0.54514805612E+00  0.13601996694E+04  0.13603599852E+04  0.19999998120E+01 0.  0.
        -13    1    3    3    0    0 -0.20781032352E+02  0.54514805612E+00  0.12027409454E+03  0.12205743514E+03  0.10566000000E+00 0.  1.
         13    1    4    4    0    0  0.10740439679E+02  0.50350413376E+00  0.69425914183E+03  0.69434240670E+03  0.10566000000E+00 0. -1.
        -13    1    4    4    0    0  0.47973752772E+01 -0.66472438496E+00  0.34457790395E+03  0.34461195528E+03  0.10566000000E+00 0.  1.
         14    1    4    4    0    0  0.52432173962E+01 -0.38392780492E+00  0.32136262367E+03  0.32140562319E+03  0.00000000000E+00 0. -1.
<mgrwt>
<rscale>  0 0.75887036E+02</rscale>
<asrwt>0</asrwt>
<pdfrwt beam="1">  1        2 0.22791557E+00 0.75887036E+02</pdfrwt>
<pdfrwt beam="2">  1       -1 0.14951146E-03 0.75887036E+02</pdfrwt>
<totfact> 0.38300826E+05</totfact>
</mgrwt>
</event>
<event>
 8    1  0.2389776E-016  0.7977065E+02  0.7818608E-02  0.1329704E+00
         -1   -1    0    0    0  501 -0.00000000000E+00  0.00000000000E+00  0.71037834901E+01  0.71037852780E+01  0.50400000000E-02 0.  1.
          2   -1    0    0  501    0  0.00000000000E+00 -0.00000000000E+00 -0.22394246894E+03  0.22394246896E+03  0.25500000000E-02 0. -1.
         24    2    1    2    0    0  0.00000000000E+00  0.00000000000E+00 -0.21683868545E+03  0.23104625424E+03  0.79770646778E+02 0.  0.
         66    2    3    3    0    0 -0.29151272415E+02 -0.59258352259E+01 -0.18533273468E+03  0.18771556875E+03  0.20000001481E+01 0.  0.
        -13    1    3    3    0    0  0.29151272415E+02  0.59258352259E+01 -0.31505950775E+02  0.43330685488E+02  0.10566000000E+00 0.  1.
         13    1    4    4    0    0 -0.12879408297E+02 -0.25319748730E+01 -0.81676308260E+02  0.82724364910E+02  0.10566000000E+00 0. -1.
        -13    1    4    4    0    0 -0.70845333502E+01 -0.73432810636E+00 -0.44634333688E+02  0.45199167673E+02  0.10566000000E+00 0.  1.
        -14    1    4    4    0    0 -0.91873307685E+01 -0.26595322465E+01 -0.59022092731E+02  0.59792036166E+02  0.00000000000E+00 0.  1.
<mgrwt>
<rscale>  0 0.79770647E+02</rscale>
<asrwt>0</asrwt>
<pdfrwt beam="1">  1        2 0.34452682E-01 0.79770647E+02</pdfrwt>
<pdfrwt beam="2">  1       -1 0.10928901E-02 0.79770647E+02</pdfrwt>
<totfact> 0.23124968E+05</totfact>
</mgrwt>
</event>
<event>
 8    1  0.2389776E-016  0.8057709E+02  0.7818608E-02  0.1327422E+00
          2   -1    0    0  501    0  0.00000000000E+00  0.00000000000E+00  0.24419277145E+03  0.24419277146E+03  0.25500000000E-02 0. -1.
         -1   -1    0    0    0  501 -0.00000000000E+00 -0.00000000000E+00 -0.66470702214E+01  0.66470721321E+01  0.50400000000E-02 0.  1.
         24    2    1    2    0    0  0.00000000000E+00 -0.35527136788E-14  0.23754570123E+03  0.25083984360E+03  0.80577087083E+02 0.  0.
         66    2    3    3    0    0 -0.35980403612E+02 -0.18053917434E+02  0.11637809251E+03  0.12316003335E+03  0.20000046717E+01 0.  0.
        -13    1    3    3    0    0  0.35980403612E+02  0.18053917434E+02  0.12116760872E+03  0.12767981025E+03  0.10566000000E+00 0.  1.
         13    1    4    4    0    0 -0.21343382278E+02 -0.10384582416E+02  0.67556305517E+02  0.71604784046E+02  0.10566000000E+00 0. -1.
        -13    1    4    4    0    0 -0.43511854713E+01 -0.19635806979E+01  0.12795571280E+02  0.13657462158E+02  0.10566000000E+00 0.  1.
         14    1    4    4    0    0 -0.10285835862E+02 -0.57057543195E+01  0.36026215714E+02  0.37897787144E+02  0.00000000000E+00 0. -1.
<mgrwt>
<rscale>  0 0.80577087E+02</rscale>
<asrwt>0</asrwt>
<pdfrwt beam="1">  1        2 0.37568124E-01 0.80577087E+02</pdfrwt>
<pdfrwt beam="2">  1       -1 0.10226262E-02 0.80577087E+02</pdfrwt>
<totfact> 0.23225118E+05</totfact>
</mgrwt>
</event>
<event>
 8    1  0.2389776E-016  0.7969554E+02  0.7818608E-02  0.1329918E+00
          2   -1    0    0  501    0  0.00000000000E+00  0.00000000000E+00  0.18544702329E+03  0.18544702330E+03  0.25500000000E-02 0. -1.
         -1   -1    0    0    0  501 -0.00000000000E+00 -0.00000000000E+00 -0.85622549914E+01  0.85622564747E+01  0.50400000000E-02 0.  1.
         24    2    1    2    0    0  0.00000000000E+00  0.00000000000E+00  0.17688476830E+03  0.19400927978E+03  0.79695541817E+02 0.  0.
         66    2    3    3    0    0  0.20063421237E+01  0.20782615263E+02  0.17104810722E+03  0.17232932862E+03  0.20000030495E+01 0.  0.
        -13    1    3    3    0    0 -0.20063421237E+01 -0.20782615263E+02  0.58366610770E+01  0.21679951163E+02  0.10566000000E+00 0.  1.
         13    1    4    4    0    0  0.27441895354E+00  0.79099738281E+01  0.67039621319E+02  0.67505295958E+02  0.10566000000E+00 0. -1.
        -13    1    4    4    0    0  0.12750514263E+01  0.11020589871E+02  0.85281489279E+02  0.86000132179E+02  0.10566000000E+00 0.  1.
        -14    1    4    4    0    0  0.45687174387E+00  0.18520515637E+01  0.18726996621E+02  0.18823900479E+02  0.00000000000E+00 0.  1.
<mgrwt>
<rscale>  0 0.79695542E+02</rscale>
<asrwt>0</asrwt>
<pdfrwt beam="1">  1        2 0.28530313E-01 0.79695542E+02</pdfrwt>
<pdfrwt beam="2">  1       -1 0.13172700E-02 0.79695542E+02</pdfrwt>
<totfact> 0.21709207E+05</totfact>
</mgrwt>
</event>
<event>
 8    1  0.2389776E-016  0.7813709E+02  0.7818608E-02  0.1334423E+00
          2   -1    0    0  501    0  0.00000000000E+00  0.00000000000E+00  0.18954621902E+03  0.18954621903E+03  0.25500000000E-02 0. -1.
         -1   -1    0    0    0  501 -0.00000000000E+00 -0.00000000000E+00 -0.80526593238E+01  0.80526609010E+01  0.50400000000E-02 0.  1.
         24    2    1    2    0    0 -0.35527136788E-14  0.35527136788E-14  0.18149355969E+03  0.19759887993E+03  0.78137091970E+02 0.  0.
         66    2    3    3    0    0 -0.25020852886E+02  0.27856332540E+02  0.11877592082E+03  0.12455415575E+03  0.20000014119E+01 0.  0.
        -13    1    3    3    0    0  0.25020852886E+02 -0.27856332540E+02  0.62717638869E+02  0.73044724184E+02  0.10566000000E+00 0.  1.
         13    1    4    4    0    0 -0.19182203971E+02  0.21957929957E+02  0.90983170962E+02  0.95540861412E+02  0.10566000000E+00 0. -1.
        -13    1    4    4    0    0 -0.56724952125E+01  0.58521345704E+01  0.27086726363E+02  0.28286508977E+02  0.10566000000E+00 0.  1.
         14    1    4    4    0    0 -0.16615370251E+00  0.46268013255E-01  0.70602349872E+00  0.72678536216E+00  0.00000000000E+00 0. -1.
<mgrwt>
<rscale>  0 0.78137092E+02</rscale>
<asrwt>0</asrwt>
<pdfrwt beam="1">  1        2 0.29160954E-01 0.78137092E+02</pdfrwt>
<pdfrwt beam="2">  1       -1 0.12388709E-02 0.78137092E+02</pdfrwt>
<totfact> 0.23041825E+05</totfact>
</mgrwt>
</event>
<event>
 8    1  0.2389776E-016  0.7935092E+02  0.7818608E-02  0.1330904E+00
          2   -1    0    0  501    0  0.00000000000E+00  0.00000000000E+00  0.72935836632E+03  0.72935836633E+03  0.25500000000E-02 0. -1.
         -1   -1    0    0    0  501 -0.00000000000E+00 -0.00000000000E+00 -0.21582531035E+01  0.21582589882E+01  0.50400000000E-02 0.  1.
         24    2    1    2    0    0  0.17763568394E-14  0.00000000000E+00  0.72720011322E+03  0.73151662532E+03  0.79350919634E+02 0.  0.
         66    2    3    3    0    0  0.12258256310E+02 -0.24929224222E+02  0.62464230936E+03  0.62526294132E+03  0.20000164847E+01 0.  0.
        -13    1    3    3    0    0 -0.12258256310E+02  0.24929224222E+02  0.10255780386E+03  0.10625368400E+03  0.10566000000E+00 0.  1.
         13    1    4    4    0    0  0.24911323011E+01 -0.54443678144E+01  0.14973233767E+03  0.14985203032E+03  0.10566000000E+00 0. -1.
        -13    1    4    4    0    0  0.38849628960E+01 -0.70650149328E+01  0.16780182102E+03  0.16799544539E+03  0.10566000000E+00 0.  1.
        -14    1    4    4    0    0  0.58821611134E+01 -0.12419841475E+02  0.30710815068E+03  0.30741546561E+03  0.00000000000E+00 0.  1.
<mgrwt>
<rscale>  0 0.79350920E+02</rscale>
<asrwt>0</asrwt>
<pdfrwt beam="1">  1        2 0.11220906E+00 0.79350920E+02</pdfrwt>
<pdfrwt beam="2">  1       -1 0.33203915E-03 0.79350920E+02</pdfrwt>
<totfact> 0.34478902E+05</totfact>
</mgrwt>
</event>
<event>
 8    1  0.2389776E-016  0.7864391E+02  0.7818608E-02  0.1332944E+00
          2   -1    0    0  501    0  0.00000000000E+00  0.00000000000E+00  0.59188524613E+03  0.59188524613E+03  0.25500000000E-02 0. -1.
         -1   -1    0    0    0  501 -0.00000000000E+00 -0.00000000000E+00 -0.26123558548E+01  0.26123607167E+01  0.50400000000E-02 0.  1.
         24    2    1    2    0    0 -0.71054273576E-14 -0.17763568394E-14  0.58927289027E+03  0.59449760685E+03  0.78643914829E+02 0.  0.
         66    2    3    3    0    0  0.32764508866E+02  0.13918422072E+02  0.42063380577E+03  0.42214219643E+03  0.19999845342E+01 0.  0.
        -13    1    3    3    0    0 -0.32764508866E+02 -0.13918422072E+02  0.16863908451E+03  0.17235541042E+03  0.10566000000E+00 0.  1.
         13    1    4    4    0    0  0.18157267247E+02  0.67862579185E+01  0.23135801859E+03  0.23216865332E+03  0.10566000000E+00 0. -1.
        -13    1    4    4    0    0  0.93597219883E+01  0.48693941455E+01  0.12153433337E+03  0.12199147817E+03  0.10566000000E+00 0.  1.
        -14    1    4    4    0    0  0.52475196299E+01  0.22627700075E+01  0.67741453800E+02  0.67982064938E+02  0.00000000000E+00 0.  1.
<mgrwt>
<rscale>  0 0.78643915E+02</rscale>
<asrwt>0</asrwt>
<pdfrwt beam="1">  1        2 0.91059393E-01 0.78643915E+02</pdfrwt>
<pdfrwt beam="2">  1       -1 0.40190073E-03 0.78643915E+02</pdfrwt>
<totfact> 0.33497566E+05</totfact>
</mgrwt>
</event>
<event>
 8    1  0.2389776E-016  0.7974662E+02  0.7818608E-02  0.1329772E+00
         -1   -1    0    0    0  501 -0.00000000000E+00  0.00000000000E+00  0.10836792863E+03  0.10836792875E+03  0.50400000000E-02 0.  1.
          2   -1    0    0  501    0  0.00000000000E+00 -0.00000000000E+00 -0.14671137778E+02  0.14671137999E+02  0.25500000000E-02 0. -1.
         24    2    1    2    0    0  0.00000000000E+00 -0.35527136788E-14  0.93696790857E+02  0.12303906675E+03  0.79746619553E+02 0.  0.
         66    2    3    3    0    0 -0.31372890837E+02  0.14670550782E+02  0.16471297343E+02  0.38402955355E+02  0.20000010270E+01 0.  0.
        -13    1    3    3    0    0  0.31372890837E+02 -0.14670550782E+02  0.77225493514E+02  0.84636111396E+02  0.10566000000E+00 0.  1.
         13    1    4    4    0    0 -0.20379316060E+02  0.92237563536E+01  0.11347033516E+02  0.25083072738E+02  0.10566000000E+00 0. -1.
        -13    1    4    4    0    0 -0.88206749776E+01  0.44748982522E+01  0.38021529785E+01  0.10597006782E+02  0.10566000000E+00 0.  1.
        -14    1    4    4    0    0 -0.21728998000E+01  0.97189617645E+00  0.13221108485E+01  0.27228758353E+01  0.00000000000E+00 0.  1.
<mgrwt>
<rscale>  0 0.79746620E+02</rscale>
<asrwt>0</asrwt>
<pdfrwt beam="1">  1        2 0.22570982E-02 0.79746620E+02</pdfrwt>
<pdfrwt beam="2">  1       -1 0.16671988E-01 0.79746620E+02</pdfrwt>
<totfact> 0.11740738E+05</totfact>
</mgrwt>
</event>
<event>
 8    1  0.3006785E-016  0.8000047E+02  0.7818608E-02  0.1329050E+00
          2   -1    0    0  501    0  0.00000000000E+00  0.00000000000E+00  0.50488528645E+03  0.50488528645E+03  0.25500000000E-02 0. -1.
         -1   -1    0    0    0  501 -0.00000000000E+00 -0.00000000000E+00 -0.31690719536E+01  0.31690759614E+01  0.50400000000E-02 0.  1.
         24    2    1    2    0    0  0.00000000000E+00  0.00000000000E+00  0.50171621449E+03  0.50805436242E+03  0.80000470519E+02 0.  0.
         66    2    3    3    0    0  0.99768077584E+01  0.28528274518E+02  0.41717991636E+03  0.41827799578E+03  0.19999999338E+01 0.  0.
        -13    1    3    3    0    0 -0.99768077584E+01 -0.28528274518E+02  0.84536298138E+02  0.89776366640E+02  0.10566000000E+00 0.  1.
         13    1    4    4    0    0  0.37543543073E+01  0.11536231135E+02  0.17448094073E+03  0.17490222882E+03  0.10566000000E+00 0. -1.
        -13    1    4    4    0    0  0.92087633543E+00  0.38863435491E+01  0.51188936974E+02  0.51344621062E+02  0.10566000000E+00 0.  1.
         14    1    4    4    0    0  0.53015771156E+01  0.13105699834E+02  0.19151003866E+03  0.19203114590E+03  0.00000000000E+00 0. -1.
<mgrwt>
<rscale>  0 0.80000471E+02</rscale>
<asrwt>0</asrwt>
<pdfrwt beam="1">  1        2 0.77674592E-01 0.80000471E+02</pdfrwt>
<pdfrwt beam="2">  1       -1 0.48755027E-03 0.80000471E+02</pdfrwt>
<totfact> 0.30545090E+05</totfact>
</mgrwt>
</event>
<event>
 8    1  0.2389776E-016  0.7958525E+02  0.7818608E-02  0.1330233E+00
         -1   -1    0    0    0  501 -0.00000000000E+00  0.00000000000E+00  0.37038940834E+01  0.37038975125E+01  0.50400000000E-02 0.  1.
          2   -1    0    0  501    0  0.00000000000E+00 -0.00000000000E+00 -0.42751010441E+03  0.42751010442E+03  0.25500000000E-02 0. -1.
         24    2    1    2    0    0  0.00000000000E+00  0.17763568394E-14 -0.42380621033E+03  0.43121400193E+03  0.79585247058E+02 0.  0.
         66    2    3    3    0    0  0.18629240184E+02  0.12488493309E+02 -0.38997002619E+03  0.39061954941E+03  0.19999985940E+01 0.  0.
        -13    1    3    3    0    0 -0.18629240184E+02 -0.12488493309E+02 -0.33836184134E+02  0.40594452524E+02  0.10566000000E+00 0.  1.
         13    1    4    4    0    0  0.45584233127E+01  0.26184070898E+01 -0.99350199995E+02  0.99489239025E+02  0.10566000000E+00 0. -1.
        -13    1    4    4    0    0  0.97705159615E+01  0.62649499891E+01 -0.19025905763E+03  0.19061278224E+03  0.10566000000E+00 0.  1.
         14    1    4    4    0    0  0.43003009098E+01  0.36051362301E+01 -0.10036076857E+03  0.10051752814E+03  0.00000000000E+00 0. -1.
<mgrwt>
<rscale>  0 0.79585247E+02</rscale>
<asrwt>0</asrwt>
<pdfrwt beam="1">  1        2 0.65770746E-01 0.79585247E+02</pdfrwt>
<pdfrwt beam="2">  1       -1 0.56983046E-03 0.79585247E+02</pdfrwt>
<totfact> 0.29306349E+05</totfact>
</mgrwt>
</event>
<event>
 8    1  0.2389776E-016  0.8045010E+02  0.7818608E-02  0.1327779E+00
          2   -1    0    0  501    0  0.00000000000E+00  0.00000000000E+00  0.50009218481E+03  0.50009218482E+03  0.25500000000E-02 0. -1.
         -1   -1    0    0    0  501 -0.00000000000E+00 -0.00000000000E+00 -0.32355108533E+01  0.32355147787E+01  0.50400000000E-02 0.  1.
         24    2    1    2    0    0  0.00000000000E+00  0.17763568394E-14  0.49685667396E+03  0.50332769960E+03  0.80450100836E+02 0.  0.
         66    2    3    3    0    0 -0.38445388378E+02  0.73867176733E+01  0.30573019543E+03  0.30823297019E+03  0.20000065172E+01 0.  0.
        -13    1    3    3    0    0  0.38445388378E+02 -0.73867176733E+01  0.19112647853E+03  0.19509472941E+03  0.10566000000E+00 0.  1.
         13    1    4    4    0    0 -0.16608004798E+02  0.27975769866E+01  0.12536628497E+03  0.12649256433E+03  0.10566000000E+00 0. -1.
        -13    1    4    4    0    0 -0.13867058282E+02  0.31277831539E+01  0.11273288881E+03  0.11362567366E+03  0.10566000000E+00 0.  1.
         14    1    4    4    0    0 -0.79703252984E+01  0.14613575328E+01  0.67631021657E+02  0.68114732192E+02  0.00000000000E+00 0. -1.
<mgrwt>
<rscale>  0 0.80450101E+02</rscale>
<asrwt>0</asrwt>
<pdfrwt beam="1">  1        2 0.76937272E-01 0.80450101E+02</pdfrwt>
<pdfrwt beam="2">  1       -1 0.49777112E-03 0.80450101E+02</pdfrwt>
<totfact> 0.30010959E+05</totfact>
</mgrwt>
</event>
<event>
 8    1  0.2389776E-016  0.7920578E+02  0.7818608E-02  0.1331321E+00
          2   -1    0    0  501    0  0.00000000000E+00  0.00000000000E+00  0.70071727165E+03  0.70071727165E+03  0.25500000000E-02 0. -1.
         -1   -1    0    0    0  501 -0.00000000000E+00 -0.00000000000E+00 -0.22382594308E+01  0.22382651052E+01  0.50400000000E-02 0.  1.
         24    2    1    2    0    0  0.35527136788E-14  0.00000000000E+00  0.69847901221E+03  0.70295553676E+03  0.79205783568E+02 0.  0.
         66    2    3    3    0    0 -0.24263733272E+02 -0.15921464675E+02  0.58829157964E+03  0.58901036024E+03  0.20000012021E+01 0.  0.
        -13    1    3    3    0    0  0.24263733272E+02  0.15921464675E+02  0.11018743257E+03  0.11394517651E+03  0.10566000000E+00 0.  1.
         13    1    4    4    0    0 -0.22891491226E+01 -0.90053108233E+00  0.47296861218E+02  0.47360905872E+02  0.10566000000E+00 0.  1.
        -13    1    4    4    0    0 -0.97684367780E+01 -0.63562426760E+01  0.23840171791E+03  0.23868643541E+03  0.10566000000E+00 0. -1.
        -14    1    4    4    0    0 -0.12206147371E+02 -0.86646909165E+01  0.30259300051E+03  0.30296301897E+03  0.00000000000E+00 0.  1.
<mgrwt>
<rscale>  0 0.79205784E+02</rscale>
<asrwt>0</asrwt>
<pdfrwt beam="1">  1        2 0.10780268E+00 0.79205784E+02</pdfrwt>
<pdfrwt beam="2">  1       -1 0.34434796E-03 0.79205784E+02</pdfrwt>
<totfact> 0.34338254E+05</totfact>
</mgrwt>
</event>
<event>
 8    1  0.2389776E-016  0.8024094E+02  0.7818608E-02  0.1328369E+00
         -1   -1    0    0    0  501 -0.00000000000E+00  0.00000000000E+00  0.88359154331E+01  0.88359168705E+01  0.50400000000E-02 0.  1.
          2   -1    0    0  501    0  0.00000000000E+00 -0.00000000000E+00 -0.18217150218E+03  0.18217150220E+03  0.25500000000E-02 0. -1.
         24    2    1    2    0    0  0.00000000000E+00  0.35527136788E-14 -0.17333558675E+03  0.19100741907E+03  0.80240940338E+02 0.  0.
         66    2    3    3    0    0  0.34609544187E+02  0.18659681467E+02 -0.68032068672E+02  0.78602586680E+02  0.20000009408E+01 0.  0.
        -13    1    3    3    0    0 -0.34609544187E+02 -0.18659681467E+02 -0.10530351808E+03  0.11240483239E+03  0.10566000000E+00 0.  1.
         13    1    4    4    0    0  0.30684521503E+02  0.16453199033E+02 -0.59135527086E+02  0.68624116359E+02  0.10566000000E+00 0. -1.
        -13    1    4    4    0    0  0.69108054781E+00  0.33237410364E+00 -0.13235305862E+01  0.15332847474E+01  0.10566000000E+00 0.  1.
        -14    1    4    4    0    0  0.32339421364E+01  0.18741083298E+01 -0.75730109999E+01  0.84451855739E+01  0.00000000000E+00 0.  1.
<mgrwt>
<rscale>  0 0.80240940E+02</rscale>
<asrwt>0</asrwt>
<pdfrwt beam="1">  1        2 0.28026382E-01 0.80240940E+02</pdfrwt>
<pdfrwt beam="2">  1       -1 0.13593719E-02 0.80240940E+02</pdfrwt>
<totfact> 0.21192210E+05</totfact>
</mgrwt>
</event>
<event>
 8    1  0.2389776E-016  0.8203602E+02  0.7818608E-02  0.1323371E+00
          2   -1    0    0  501    0  0.00000000000E+00  0.00000000000E+00  0.85351549235E+03  0.85351549235E+03  0.25500000000E-02 0. -1.
         -1   -1    0    0    0  501 -0.00000000000E+00 -0.00000000000E+00 -0.19712286851E+01  0.19712351282E+01  0.50400000000E-02 0.  1.
         24    2    1    2    0    0 -0.88817841970E-15  0.00000000000E+00  0.85154426366E+03  0.85548672748E+03  0.82036015977E+02 0.  0.
         66    2    3    3    0    0  0.68372106496E+01 -0.20768679116E+02  0.78762643668E+03  0.78793241414E+03  0.20000001586E+01 0.  0.
        -13    1    3    3    0    0 -0.68372106496E+01  0.20768679116E+02  0.63917826979E+02  0.67554313344E+02  0.10566000000E+00 0.  1.
         13    1    4    4    0    0  0.26345267736E+01 -0.73386321914E+01  0.26576157987E+03  0.26587595745E+03  0.10566000000E+00 0. -1.
        -13    1    4    4    0    0  0.22605637877E+01 -0.62561808913E+01  0.22310276231E+03  0.22320193472E+03  0.10566000000E+00 0.  1.
        -14    1    4    4    0    0  0.19421200883E+01 -0.71738660330E+01  0.29876209450E+03  0.29885452196E+03  0.00000000000E+00 0.  1.
<mgrwt>
<rscale>  0 0.82036016E+02</rscale>
<asrwt>0</asrwt>
<pdfrwt beam="1">  1        2 0.13131008E+00 0.82036016E+02</pdfrwt>
<pdfrwt beam="2">  1       -1 0.30326645E-03 0.82036016E+02</pdfrwt>
<totfact> 0.32519340E+05</totfact>
</mgrwt>
</event>
<event>
 8    1  0.2389776E-016  0.7093977E+02  0.7818608E-02  0.1356926E+00
          2   -1    0    0  501    0  0.00000000000E+00  0.00000000000E+00  0.18055644083E+02  0.18055644263E+02  0.25500000000E-02 0. -1.
         -1   -1    0    0    0  501 -0.00000000000E+00 -0.00000000000E+00 -0.69679751742E+02  0.69679751924E+02  0.50400000000E-02 0.  1.
         24    2    1    2    0    0  0.35527136788E-14  0.00000000000E+00 -0.51624107659E+02  0.87735396187E+02  0.70939772008E+02 0.  0.
         66    2    3    3    0    0 -0.23562977602E+02 -0.10579570833E+02  0.41819414804E+01  0.26241758166E+02  0.20000011510E+01 0.  0.
        -13    1    3    3    0    0  0.23562977602E+02  0.10579570833E+02 -0.55806049139E+02  0.61493638021E+02  0.10566000000E+00 0.  1.
         13    1    4    4    0    0 -0.68398187279E+01 -0.28312836053E+01  0.66942576234E+00  0.74336116371E+01  0.10566000000E+00 0. -1.
        -13    1    4    4    0    0 -0.21473298038E+01 -0.11171516881E+01  0.89187830333E+00  0.25817947486E+01  0.10566000000E+00 0.  1.
        -14    1    4    4    0    0 -0.14575829070E+02 -0.66311355398E+01  0.26206374148E+01  0.16226351780E+02  0.00000000000E+00 0.  1.
<mgrwt>
<rscale>  0 0.70939772E+02</rscale>
<asrwt>0</asrwt>
<pdfrwt beam="1">  1        2 0.27777915E-02 0.70939772E+02</pdfrwt>
<pdfrwt beam="2">  1       -1 0.10719962E-01 0.70939772E+02</pdfrwt>
<totfact> 0.17135157E+05</totfact>
</mgrwt>
</event>
<event>
 8    1  0.2389776E-016  0.7940700E+02  0.7818608E-02  0.1330743E+00
         -1   -1    0    0    0  501 -0.00000000000E+00  0.00000000000E+00  0.16503569628E+01  0.16503646586E+01  0.50400000000E-02 0.  1.
          2   -1    0    0  501    0  0.00000000000E+00 -0.00000000000E+00 -0.95516566118E+03  0.95516566118E+03  0.25500000000E-02 0. -1.
         24    2    1    2    0    0  0.00000000000E+00  0.00000000000E+00 -0.95351530421E+03  0.95681602584E+03  0.79407001780E+02 0.  0.
         66    2    3    3    0    0 -0.18048536335E+02 -0.16518500617E+02 -0.85345046517E+03  0.85380343582E+03  0.19999961102E+01 0.  0.
        -13    1    3    3    0    0  0.18048536335E+02  0.16518500617E+02 -0.10006483904E+03  0.10301259002E+03  0.10566000000E+00 0.  1.
         13    1    4    4    0    0 -0.80215600689E+01 -0.65655744131E+01 -0.36383594100E+03  0.36398359210E+03  0.10566000000E+00 0. -1.
        -13    1    4    4    0    0 -0.61322396335E+01 -0.55649750422E+01 -0.30264155586E+03  0.30275484440E+03  0.10566000000E+00 0.  1.
        -14    1    4    4    0    0 -0.38947366325E+01 -0.43879511613E+01 -0.18697296831E+03  0.18706499931E+03  0.00000000000E+00 0.  1.
<mgrwt>
<rscale>  0 0.79407002E+02</rscale>
<asrwt>0</asrwt>
<pdfrwt beam="1">  1        2 0.14694812E+00 0.79407002E+02</pdfrwt>
<pdfrwt beam="2">  1       -1 0.25390243E-03 0.79407002E+02</pdfrwt>
<totfact> 0.35823175E+05</totfact>
</mgrwt>
</event>
<event>
 8    1  0.2389776E-016  0.8088194E+02  0.7818608E-02  0.1326567E+00
          2   -1    0    0  501    0  0.00000000000E+00  0.00000000000E+00  0.83585053861E+02  0.83585053900E+02  0.25500000000E-02 0. -1.
         -1   -1    0    0    0  501 -0.00000000000E+00 -0.00000000000E+00 -0.19566559395E+02  0.19566560044E+02  0.50400000000E-02 0.  1.
         24    2    1    2    0    0  0.00000000000E+00  0.00000000000E+00  0.64018494466E+02  0.10315161394E+03  0.80881937573E+02 0.  0.
         66    2    3    3    0    0 -0.31793990753E+02 -0.20541307902E+02  0.50094639517E+02  0.62819392594E+02  0.19999998178E+01 0.  0.
        -13    1    3    3    0    0  0.31793990753E+02  0.20541307902E+02  0.13923854949E+02  0.40332221349E+02  0.10566000000E+00 0.  1.
         13    1    4    4    0    0 -0.22393917683E+02 -0.14371298030E+02  0.35818577897E+02  0.44620661614E+02  0.10566000000E+00 0. -1.
        -13    1    4    4    0    0 -0.82737548204E+01 -0.56426589858E+01  0.12271054990E+02  0.15839336282E+02  0.10566000000E+00 0.  1.
         14    1    4    4    0    0 -0.11263182489E+01 -0.52735088665E+00  0.20050066296E+01  0.23593946978E+01  0.00000000000E+00 0. -1.
<mgrwt>
<rscale>  0 0.80881938E+02</rscale>
<asrwt>0</asrwt>
<pdfrwt beam="1">  1        2 0.12859239E-01 0.80881938E+02</pdfrwt>
<pdfrwt beam="2">  1       -1 0.30102399E-02 0.80881938E+02</pdfrwt>
<totfact> 0.16394809E+05</totfact>
</mgrwt>
</event>
<event>
 8    1  0.2389776E-016  0.8920734E+02  0.7818608E-02  0.1304783E+00
          2   -1    0    0  501    0  0.00000000000E+00  0.00000000000E+00  0.39425334410E+02  0.39425334493E+02  0.25500000000E-02 0. -1.
         -1   -1    0    0    0  501 -0.00000000000E+00 -0.00000000000E+00 -0.50462155021E+02  0.50462155272E+02  0.50400000000E-02 0.  1.
         24    2    1    2    0    0  0.00000000000E+00  0.00000000000E+00 -0.11036820611E+02  0.89887489765E+02  0.89207339424E+02 0.  0.
         66    2    3    3    0    0  0.11731957803E+02 -0.32542148419E+02 -0.33857680834E+02  0.48445565546E+02  0.20000029939E+01 0.  0.
        -13    1    3    3    0    0 -0.11731957803E+02  0.32542148419E+02  0.22820860224E+02  0.41441924219E+02  0.10566000000E+00 0.  1.
         13    1    4    4    0    0  0.56840318862E+01 -0.17257013383E+02 -0.16663852365E+02  0.24653759735E+02  0.10566000000E+00 0. -1.
        -13    1    4    4    0    0  0.27770036483E+01 -0.75583916692E+01 -0.85432108495E+01  0.11740470584E+02  0.10566000000E+00 0.  1.
         14    1    4    4    0    0  0.32709222686E+01 -0.77267433662E+01 -0.86506176202E+01  0.12051335227E+02  0.00000000000E+00 0. -1.
<mgrwt>
<rscale>  0 0.89207339E+02</rscale>
<asrwt>0</asrwt>
<pdfrwt beam="1">  1        2 0.60654360E-02 0.89207339E+02</pdfrwt>
<pdfrwt beam="2">  1       -1 0.77634086E-02 0.89207339E+02</pdfrwt>
<totfact> 0.10487515E+05</totfact>
</mgrwt>
</event>
<event>
 8    1  0.2389776E-016  0.8091833E+02  0.7818608E-02  0.1326465E+00
         -1   -1    0    0    0  501 -0.00000000000E+00  0.00000000000E+00  0.23842160776E+02  0.23842161309E+02  0.50400000000E-02 0.  1.
          2   -1    0    0  501    0  0.00000000000E+00 -0.00000000000E+00 -0.68657535474E+02  0.68657535522E+02  0.25500000000E-02 0. -1.
         24    2    1    2    0    0  0.71054273576E-14  0.00000000000E+00 -0.44815374699E+02  0.92499696830E+02  0.80918329841E+02 0.  0.
         66    2    3    3    0    0  0.35223163483E+02  0.18633596332E+02 -0.30262944028E+02  0.50077219764E+02  0.20000000099E+01 0.  0.
        -13    1    3    3    0    0 -0.35223163483E+02 -0.18633596332E+02 -0.14552430670E+02  0.42422477066E+02  0.10566000000E+00 0.  1.
         13    1    4    4    0    0  0.25341138356E+02  0.13716914421E+02 -0.21929617449E+02  0.36211135303E+02  0.10566000000E+00 0. -1.
        -13    1    4    4    0    0  0.30817100930E+00  0.99241462044E-01 -0.11224260766E+00  0.35858147935E+00  0.10566000000E+00 0. -1.
         14    1    4    4    0    0  0.95738541172E+01  0.48174404490E+01 -0.82210839710E+01  0.13507502982E+02  0.00000000000E+00 0. -1.
<mgrwt>
<rscale>  0 0.80918330E+02</rscale>
<asrwt>0</asrwt>
<pdfrwt beam="1">  1        2 0.10562698E-01 0.80918330E+02</pdfrwt>
<pdfrwt beam="2">  1       -1 0.36680248E-02 0.80918330E+02</pdfrwt>
<totfact> 0.15581029E+05</totfact>
</mgrwt>
</event>
<event>
 8    1  0.2389776E-016  0.8253486E+02  0.7818608E-02  0.1322008E+00
         -1   -1    0    0    0  501 -0.00000000000E+00  0.00000000000E+00  0.15541932988E+02  0.15541933805E+02  0.50400000000E-02 0.  1.
          2   -1    0    0  501    0  0.00000000000E+00 -0.00000000000E+00 -0.10957458853E+03  0.10957458856E+03  0.25500000000E-02 0. -1.
         24    2    1    2    0    0  0.00000000000E+00  0.71054273576E-14 -0.94032655539E+02  0.12511652236E+03  0.82534864513E+02 0.  0.
         66    2    3    3    0    0  0.29014932735E+02 -0.27750042754E+02 -0.32737463749E+02  0.51842769250E+02  0.19999990976E+01 0.  0.
        -13    1    3    3    0    0 -0.29014932735E+02  0.27750042754E+02 -0.61295191791E+02  0.73273753112E+02  0.10566000000E+00 0.  1.
         13    1    4    4    0    0  0.19660413567E+02 -0.19392506199E+02 -0.22658994032E+02  0.35721734741E+02  0.10566000000E+00 0. -1.
        -13    1    4    4    0    0  0.64992520330E+01 -0.60690902183E+01 -0.66240589633E+01  0.11088888774E+02  0.10566000000E+00 0.  1.
        -14    1    4    4    0    0  0.28552671347E+01 -0.22884463360E+01 -0.34544107535E+01  0.50321457349E+01  0.00000000000E+00 0.  1.
<mgrwt>
<rscale>  0 0.82534865E+02</rscale>
<asrwt>0</asrwt>
<pdfrwt beam="1">  1        2 0.16857629E-01 0.82534865E+02</pdfrwt>
<pdfrwt beam="2">  1       -1 0.23910668E-02 0.82534865E+02</pdfrwt>
<totfact> 0.16735493E+05</totfact>
</mgrwt>
</event>
<event>
 8    1  0.2389776E-016  0.8000379E+02  0.7818608E-02  0.1329041E+00
          2   -1    0    0  501    0  0.00000000000E+00  0.00000000000E+00  0.19519904436E+02  0.19519904602E+02  0.25500000000E-02 0. -1.
         -1   -1    0    0    0  501 -0.00000000000E+00 -0.00000000000E+00 -0.81975378630E+02  0.81975378785E+02  0.50400000000E-02 0.  1.
         24    2    1    2    0    0  0.00000000000E+00 -0.35527136788E-14 -0.62455474194E+02  0.10149528339E+03  0.80003789242E+02 0.  0.
         66    2    3    3    0    0 -0.65240455619E+00 -0.19822934013E+02  0.12786766073E+02  0.23682815048E+02  0.19999993564E+01 0.  0.
        -13    1    3    3    0    0  0.65240455619E+00  0.19822934013E+02 -0.75242240267E+02  0.77812468339E+02  0.10566000000E+00 0.  1.
         13    1    4    4    0    0  0.40623823690E+00 -0.14777579918E+01  0.10109732085E+01  0.18390293775E+01  0.10566000000E+00 0. -1.
        -13    1    4    4    0    0 -0.79678474217E+00 -0.65820914691E+01  0.43476517091E+01  0.79291887007E+01  0.10566000000E+00 0.  1.
         14    1    4    4    0    0 -0.26185805092E+00 -0.11763084552E+02  0.74281411553E+01  0.13914596970E+02  0.00000000000E+00 0. -1.
<mgrwt>
<rscale>  0 0.80003789E+02</rscale>
<asrwt>0</asrwt>
<pdfrwt beam="1">  1        2 0.30030623E-02 0.80003789E+02</pdfrwt>
<pdfrwt beam="2">  1       -1 0.12611597E-01 0.80003789E+02</pdfrwt>
<totfact> 0.12353020E+05</totfact>
</mgrwt>
</event>
<event>
 8    1  0.2389776E-016  0.7839158E+02  0.7818608E-02  0.1333679E+00
         -1   -1    0    0    0  501 -0.00000000000E+00  0.00000000000E+00  0.35018916703E+01  0.35018952971E+01  0.50400000000E-02 0.  1.
          2   -1    0    0  501    0  0.00000000000E+00 -0.00000000000E+00 -0.43870834992E+03  0.43870834993E+03  0.25500000000E-02 0. -1.
         24    2    1    2    0    0  0.00000000000E+00  0.00000000000E+00 -0.43520645825E+03  0.44221024522E+03  0.78391579135E+02 0.  0.
         66    2    3    3    0    0  0.33188259971E+02  0.12933181604E+02 -0.30967394898E+03  0.31172212379E+03  0.20000002497E+01 0.  0.
        -13    1    3    3    0    0 -0.33188259971E+02 -0.12933181604E+02 -0.12553250927E+03  0.13048812143E+03  0.10566000000E+00 0.  1.
         13    1    4    4    0    0  0.64636597676E+01  0.24146696029E+01 -0.56445836302E+02  0.56866098220E+02  0.10566000000E+00 0.  1.
        -13    1    4    4    0    0  0.14456507074E+02  0.51692227469E+01 -0.13022114714E+03  0.13112310928E+03  0.10566000000E+00 0. -1.
        -14    1    4    4    0    0  0.12268093128E+02  0.53492892538E+01 -0.12300696554E+03  0.12373291629E+03  0.00000000000E+00 0.  1.
<mgrwt>
<rscale>  0 0.78391579E+02</rscale>
<asrwt>0</asrwt>
<pdfrwt beam="1">  1        2 0.67493549E-01 0.78391579E+02</pdfrwt>
<pdfrwt beam="2">  1       -1 0.53875319E-03 0.78391579E+02</pdfrwt>
<totfact> 0.30753318E+05</totfact>
</mgrwt>
</event>
<event>
 8    1  0.2389776E-016  0.8226570E+02  0.7818608E-02  0.1322742E+00
          2   -1    0    0  501    0  0.00000000000E+00  0.00000000000E+00  0.17562160128E+03  0.17562160130E+03  0.25500000000E-02 0. -1.
         -1   -1    0    0    0  501 -0.00000000000E+00 -0.00000000000E+00 -0.96338443958E+01  0.96338457141E+01  0.50400000000E-02 0.  1.
         24    2    1    2    0    0  0.00000000000E+00 -0.35527136788E-14  0.16598775688E+03  0.18525544701E+03  0.82265698881E+02 0.  0.
         66    2    3    3    0    0 -0.32327994748E+02  0.25126528189E+02  0.74779568581E+02  0.85278517470E+02  0.20000003448E+01 0.  0.
        -13    1    3    3    0    0  0.32327994748E+02 -0.25126528189E+02  0.91208188304E+02  0.99976929544E+02  0.10566000000E+00 0.  1.
         13    1    4    4    0    0 -0.68137438477E+01  0.51615567048E+01  0.14970944913E+02  0.17239754304E+02  0.10566000000E+00 0. -1.
        -13    1    4    4    0    0 -0.14268420220E+02  0.10197906494E+02  0.32881850867E+02  0.37266773309E+02  0.10566000000E+00 0.  1.
         14    1    4    4    0    0 -0.11245830680E+02  0.97670649912E+01  0.26926772801E+02  0.30771989856E+02  0.00000000000E+00 0. -1.
<mgrwt>
<rscale>  0 0.82265699E+02</rscale>
<asrwt>0</asrwt>
<pdfrwt beam="1">  1        2 0.27018708E-01 0.82265699E+02</pdfrwt>
<pdfrwt beam="2">  1       -1 0.14821300E-02 0.82265699E+02</pdfrwt>
<totfact> 0.19593401E+05</totfact>
</mgrwt>
</event>
<event>
 8    1  0.2389776E-016  0.7962642E+02  0.7818608E-02  0.1330115E+00
         -1   -1    0    0    0  501 -0.00000000000E+00  0.00000000000E+00  0.25652698467E+02  0.25652698962E+02  0.50400000000E-02 0.  1.
          2   -1    0    0  501    0  0.00000000000E+00 -0.00000000000E+00 -0.61790447261E+02  0.61790447314E+02  0.25500000000E-02 0. -1.
         24    2    1    2    0    0 -0.35527136788E-14  0.00000000000E+00 -0.36137748794E+02  0.87443146276E+02  0.79626421135E+02 0.  0.
         66    2    3    3    0    0  0.21758213210E+02  0.33029477917E+02 -0.22831708453E+02  0.45712724194E+02  0.19999971844E+01 0.  0.
        -13    1    3    3    0    0 -0.21758213210E+02 -0.33029477917E+02 -0.13306040341E+02  0.41730422082E+02  0.10566000000E+00 0.  1.
         13    1    4    4    0    0  0.11022492700E+02  0.16971245346E+02 -0.11966429041E+02  0.23510106378E+02  0.10566000000E+00 0. -1.
        -13    1    4    4    0    0  0.96297969190E+01  0.14016011918E+02 -0.99755167172E+01  0.19715569396E+02  0.10566000000E+00 0.  1.
         14    1    4    4    0    0  0.11059235908E+01  0.20422206537E+01 -0.88976269544E+00  0.24870484195E+01  0.00000000000E+00 0. -1.
<mgrwt>
<rscale>  0 0.79626421E+02</rscale>
<asrwt>0</asrwt>
<pdfrwt beam="1">  1        2 0.95062226E-02 0.79626421E+02</pdfrwt>
<pdfrwt beam="2">  1       -1 0.39465691E-02 0.79626421E+02</pdfrwt>
<totfact> 0.15873409E+05</totfact>
</mgrwt>
</event>
<event>
 8    1  0.2389776E-016  0.7704401E+02  0.7818608E-02  0.1337656E+00
          2   -1    0    0  501    0  0.00000000000E+00  0.00000000000E+00  0.13289834568E+04  0.13289834568E+04  0.25500000000E-02 0. -1.
         -1   -1    0    0    0  501 -0.00000000000E+00 -0.00000000000E+00 -0.11165957677E+01  0.11166071423E+01  0.50400000000E-02 0.  1.
         24    2    1    2    0    0  0.17763568394E-14  0.00000000000E+00  0.13278668610E+04  0.13301000639E+04  0.77044010008E+02 0.  0.
         66    2    3    3    0    0  0.13390432263E+02  0.18174605664E+02  0.12027114024E+04  0.12029249093E+04  0.20000015861E+01 0.  0.
        -13    1    3    3    0    0 -0.13390432263E+02 -0.18174605664E+02  0.12515545867E+03  0.12717515467E+03  0.10566000000E+00 0.  1.
         13    1    4    4    0    0  0.14787947253E+01  0.28963192721E+01  0.16235241826E+03  0.16238501894E+03  0.10566000000E+00 0. -1.
        -13    1    4    4    0    0  0.44363752780E+00  0.90853621436E+00  0.56628387474E+02  0.56637511283E+02  0.10566000000E+00 0.  1.
         14    1    4    4    0    0  0.11468000010E+02  0.14369750177E+02  0.98373059663E+03  0.98390237905E+03  0.00000000000E+00 0. -1.
<mgrwt>
<rscale>  0 0.77044010E+02</rscale>
<asrwt>0</asrwt>
<pdfrwt beam="1">  1        2 0.20445852E+00 0.77044010E+02</pdfrwt>
<pdfrwt beam="2">  1       -1 0.17178524E-03 0.77044010E+02</pdfrwt>
<totfact> 0.37992486E+05</totfact>
</mgrwt>
</event>
<event>
 8    1  0.2389776E-016  0.8209293E+02  0.7818608E-02  0.1323215E+00
         -1   -1    0    0    0  501 -0.00000000000E+00  0.00000000000E+00  0.52747671925E+02  0.52747672165E+02  0.50400000000E-02 0.  1.
          2   -1    0    0  501    0  0.00000000000E+00 -0.00000000000E+00 -0.31940977121E+02  0.31940977223E+02  0.25500000000E-02 0. -1.
         24    2    1    2    0    0  0.00000000000E+00  0.00000000000E+00  0.20806694804E+02  0.84688649388E+02  0.82092927750E+02 0.  0.
         66    2    3    3    0    0 -0.45059070334E+01 -0.31903041752E+02 -0.15784280835E+02  0.35933978499E+02  0.20000045164E+01 0.  0.
        -13    1    3    3    0    0  0.45059070334E+01  0.31903041752E+02  0.36590975639E+02  0.48754670889E+02  0.10566000000E+00 0.  1.
         13    1    4    4    0    0 -0.35270696596E+01 -0.22235161288E+02 -0.11273768089E+02  0.25178396074E+02  0.10566000000E+00 0. -1.
        -13    1    4    4    0    0 -0.49097733762E+00 -0.20013889910E+01 -0.68812590726E+00  0.21751546932E+01  0.10566000000E+00 0.  1.
         14    1    4    4    0    0 -0.48786003617E+00 -0.76664914731E+01 -0.38223868383E+01  0.85804277320E+01  0.00000000000E+00 0. -1.
<mgrwt>
<rscale>  0 0.82092928E+02</rscale>
<asrwt>0</asrwt>
<pdfrwt beam="1">  1        2 0.49139965E-02 0.82092928E+02</pdfrwt>
<pdfrwt beam="2">  1       -1 0.81150265E-02 0.82092928E+02</pdfrwt>
<totfact> 0.12672865E+05</totfact>
</mgrwt>
</event>
<event>
 8    1  0.2389776E-016  0.8683439E+02  0.7818608E-02  0.1310704E+00
         -1   -1    0    0    0  501 -0.00000000000E+00  0.00000000000E+00  0.12333556796E+02  0.12333557826E+02  0.50400000000E-02 0.  1.
          2   -1    0    0  501    0  0.00000000000E+00 -0.00000000000E+00 -0.15283933957E+03  0.15283933959E+03  0.25500000000E-02 0. -1.
         24    2    1    2    0    0  0.00000000000E+00  0.00000000000E+00 -0.14050578277E+03  0.16517289742E+03  0.86834388628E+02 0.  0.
         66    2    3    3    0    0 -0.10813031911E+02  0.49682447087E+01 -0.14966832356E+03  0.15015396162E+03  0.19999994547E+01 0.  0.
        -13    1    3    3    0    0  0.10813031911E+02 -0.49682447087E+01  0.91625407916E+01  0.15018935794E+02  0.10566000000E+00 0.  1.
         13    1    4    4    0    0 -0.77841386992E+00  0.18544482951E+00 -0.10043342934E+02  0.10075724256E+02  0.10566000000E+00 0. -1.
        -13    1    4    4    0    0 -0.38637052215E+01  0.26185889263E+01 -0.51670137378E+02  0.51880627278E+02  0.10566000000E+00 0.  1.
         14    1    4    4    0    0 -0.61709128195E+01  0.21642109529E+01 -0.87954843251E+02  0.88197610089E+02  0.00000000000E+00 0. -1.
<mgrwt>
<rscale>  0 0.86834389E+02</rscale>
<asrwt>0</asrwt>
<pdfrwt beam="1">  1        2 0.23513743E-01 0.86834389E+02</pdfrwt>
<pdfrwt beam="2">  1       -1 0.18974705E-02 0.86834389E+02</pdfrwt>
<totfact> 0.16197925E+05</totfact>
</mgrwt>
</event>
<event>
 8    1  0.2389776E-016  0.7972201E+02  0.7818608E-02  0.1329842E+00
         -1   -1    0    0    0  501 -0.00000000000E+00  0.00000000000E+00  0.16217076211E+01  0.16217154528E+01  0.50400000000E-02 0.  1.
          2   -1    0    0  501    0  0.00000000000E+00 -0.00000000000E+00 -0.97976704244E+03  0.97976704244E+03  0.25500000000E-02 0. -1.
         24    2    1    2    0    0  0.00000000000E+00 -0.11102230246E-15 -0.97814533482E+03  0.98138875789E+03  0.79722005098E+02 0.  0.
         66    2    3    3    0    0  0.11176649550E+02 -0.78327090869E-01 -0.96006664855E+03  0.96013378926E+03  0.19999995574E+01 0.  0.
        -13    1    3    3    0    0 -0.11176649550E+02  0.78327090869E-01 -0.18078686269E+02  0.21254968632E+02  0.10566000000E+00 0.  1.
         13    1    4    4    0    0  0.60513131267E+01 -0.83335159112E+00 -0.53903848680E+03  0.53907310662E+03  0.10566000000E+00 0.  1.
        -13    1    4    4    0    0  0.42741813208E+01  0.35244457771E+00 -0.34912813591E+03  0.34915449201E+03  0.10566000000E+00 0. -1.
         14    1    4    4    0    0  0.85115510280E+00  0.40257992254E+00 -0.71900025848E+02  0.71906190641E+02  0.00000000000E+00 0. -1.
<mgrwt>
<rscale>  0 0.79722005E+02</rscale>
<asrwt>0</asrwt>
<pdfrwt beam="1">  1        2 0.15073292E+00 0.79722005E+02</pdfrwt>
<pdfrwt beam="2">  1       -1 0.24949487E-03 0.79722005E+02</pdfrwt>
<totfact> 0.35515364E+05</totfact>
</mgrwt>
</event>
<event>
 8    1  0.2389776E-016  0.8040244E+02  0.7818608E-02  0.1327913E+00
          2   -1    0    0  501    0  0.00000000000E+00  0.00000000000E+00  0.12861424286E+04  0.12861424286E+04  0.25500000000E-02 0. -1.
         -1   -1    0    0    0  501 -0.00000000000E+00 -0.00000000000E+00 -0.12565727980E+01  0.12565829055E+01  0.50400000000E-02 0.  1.
         24    2    1    2    0    0  0.00000000000E+00 -0.17763568394E-14  0.12848858558E+04  0.12873990116E+04  0.80402440211E+02 0.  0.
         66    2    3    3    0    0  0.17254807520E+02  0.14150007431E+02  0.11777871981E+04  0.11780002695E+04  0.20000001132E+01 0.  0.
        -13    1    3    3    0    0 -0.17254807520E+02 -0.14150007431E+02  0.10709865777E+03  0.10939874201E+03  0.10566000000E+00 0.  1.
         13    1    4    4    0    0  0.89138411466E+01  0.76706695290E+01  0.60417320296E+03  0.60428765176E+03  0.10566000000E+00 0. -1.
        -13    1    4    4    0    0  0.34984144925E+01  0.19790220702E+01  0.22612150514E+03  0.22615724990E+03  0.10566000000E+00 0.  1.
        -14    1    4    4    0    0  0.48425518809E+01  0.45003158313E+01  0.34749248998E+03  0.34755536788E+03  0.00000000000E+00 0.  1.
<mgrwt>
<rscale>  0 0.80402440E+02</rscale>
<asrwt>0</asrwt>
<pdfrwt beam="1">  1        2 0.19786891E+00 0.80402440E+02</pdfrwt>
<pdfrwt beam="2">  1       -1 0.19331885E-03 0.80402440E+02</pdfrwt>
<totfact> 0.34237519E+05</totfact>
</mgrwt>
</event>
<event>
 8    1  0.2389776E-016  0.8400707E+02  0.7818608E-02  0.1318050E+00
          2   -1    0    0  501    0  0.00000000000E+00  0.00000000000E+00  0.23601883838E+03  0.23601883839E+03  0.25500000000E-02 0. -1.
         -1   -1    0    0    0  501 -0.00000000000E+00 -0.00000000000E+00 -0.74752361524E+01  0.74752378514E+01  0.50400000000E-02 0.  1.
         24    2    1    2    0    0  0.00000000000E+00  0.00000000000E+00  0.22854360223E+03  0.24349407624E+03  0.84007065460E+02 0.  0.
         66    2    3    3    0    0 -0.11209932120E+02  0.56761177914E+01  0.23043589792E+03  0.23078687992E+03  0.19999999717E+01 0.  0.
        -13    1    3    3    0    0  0.11209932120E+02 -0.56761177914E+01 -0.18922956992E+01  0.12707196322E+02  0.10566000000E+00 0.  1.
         13    1    4    4    0    0 -0.54503947384E+01  0.28301314870E+01  0.11331111470E+03  0.11347747056E+03  0.10566000000E+00 0. -1.
        -13    1    4    4    0    0 -0.50483638100E+01  0.19300860639E+01  0.93402476973E+02  0.93558778733E+02  0.10566000000E+00 0.  1.
        -14    1    4    4    0    0 -0.71117357184E+00  0.91590024053E+00  0.23722306257E+02  0.23750630628E+02  0.00000000000E+00 0.  1.
<mgrwt>
<rscale>  0 0.84007065E+02</rscale>
<asrwt>0</asrwt>
<pdfrwt beam="1">  1        2 0.36310589E-01 0.84007065E+02</pdfrwt>
<pdfrwt beam="2">  1       -1 0.11500365E-02 0.84007065E+02</pdfrwt>
<totfact> 0.20554325E+05</totfact>
</mgrwt>
</event>
<event>
 8    1  0.2389776E-016  0.7807063E+02  0.7818608E-02  0.1334618E+00
         -1   -1    0    0    0  501 -0.00000000000E+00  0.00000000000E+00  0.20012757600E+02  0.20012758235E+02  0.50400000000E-02 0.  1.
          2   -1    0    0  501    0  0.00000000000E+00 -0.00000000000E+00 -0.76139213398E+02  0.76139213441E+02  0.25500000000E-02 0. -1.
         24    2    1    2    0    0  0.00000000000E+00  0.00000000000E+00 -0.56126455798E+02  0.96151971676E+02  0.78070625825E+02 0.  0.
         66    2    3    3    0    0  0.54880052015E+01 -0.26572547056E+02 -0.62600143934E+02  0.68256841989E+02  0.19999998918E+01 0.  0.
        -13    1    3    3    0    0 -0.54880052015E+01  0.26572547056E+02  0.64736881355E+01  0.27895129687E+02  0.10566000000E+00 0.  1.
         13    1    4    4    0    0  0.78562585515E+00 -0.33025740808E+01 -0.68475803789E+01  0.76436067811E+01  0.10566000000E+00 0. -1.
        -13    1    4    4    0    0  0.29771682918E+01 -0.12960472380E+02 -0.32752582236E+02  0.35349401445E+02  0.10566000000E+00 0.  1.
        -14    1    4    4    0    0  0.17252110545E+01 -0.10309500596E+02 -0.22999981319E+02  0.25263833763E+02  0.00000000000E+00 0.  1.
<mgrwt>
<rscale>  0 0.78070626E+02</rscale>
<asrwt>0</asrwt>
<pdfrwt beam="1">  1        2 0.11713725E-01 0.78070626E+02</pdfrwt>
<pdfrwt beam="2">  1       -1 0.30788859E-02 0.78070626E+02</pdfrwt>
<totfact> 0.17608309E+05</totfact>
</mgrwt>
</event>
<event>
 8    1  0.2389776E-016  0.7930307E+02  0.7818608E-02  0.1331041E+00
         -1   -1    0    0    0  501 -0.00000000000E+00  0.00000000000E+00  0.13905829552E+03  0.13905829561E+03  0.50400000000E-02 0.  1.
          2   -1    0    0  501    0  0.00000000000E+00 -0.00000000000E+00 -0.11306367660E+02  0.11306367947E+02  0.25500000000E-02 0. -1.
         24    2    1    2    0    0 -0.35527136788E-14  0.35527136788E-14  0.12775192786E+03  0.15036466356E+03  0.79303070401E+02 0.  0.
         66    2    3    3    0    0 -0.19441219953E+02  0.11385696948E+02  0.21077628847E+01  0.22716465433E+02  0.20000022851E+01 0.  0.
        -13    1    3    3    0    0  0.19441219953E+02 -0.11385696948E+02  0.12564416497E+03  0.12764819812E+03  0.10566000000E+00 0.  1.
         13    1    4    4    0    0 -0.75333573520E+01  0.48126370501E+01  0.94603113408E+00  0.89899436767E+01  0.10566000000E+00 0. -1.
        -13    1    4    4    0    0 -0.35602474333E+01  0.18909292282E+01  0.99700322251E+00  0.41540527914E+01  0.10566000000E+00 0.  1.
         14    1    4    4    0    0 -0.83476151678E+01  0.46821306695E+01  0.16472852813E+00  0.95724689649E+01  0.00000000000E+00 0. -1.
<mgrwt>
<rscale>  0 0.79303070E+02</rscale>
<asrwt>0</asrwt>
<pdfrwt beam="1">  1        2 0.17394410E-02 0.79303070E+02</pdfrwt>
<pdfrwt beam="2">  1       -1 0.21393586E-01 0.79303070E+02</pdfrwt>
<totfact> 0.11238755E+05</totfact>
</mgrwt>
</event>
<event>
 8    1  0.2389776E-016  0.7856309E+02  0.7818608E-02  0.1333179E+00
          2   -1    0    0  501    0  0.00000000000E+00  0.00000000000E+00  0.40115299504E+03  0.40115299505E+03  0.25500000000E-02 0. -1.
         -1   -1    0    0    0  501 -0.00000000000E+00 -0.00000000000E+00 -0.38465101958E+01  0.38465134977E+01  0.50400000000E-02 0.  1.
         24    2    1    2    0    0  0.00000000000E+00 -0.35527136788E-14  0.39730648484E+03  0.40499950855E+03  0.78563089445E+02 0.  0.
         66    2    3    3    0    0  0.22190856647E+02 -0.27201230495E+02  0.28935485706E+03  0.29148340324E+03  0.19999998407E+01 0.  0.
        -13    1    3    3    0    0 -0.22190856647E+02  0.27201230495E+02  0.10795162779E+03  0.11351610531E+03  0.10566000000E+00 0.  1.
         13    1    4    4    0    0  0.12266533513E+02 -0.15946900794E+02  0.16858909592E+03  0.16978535248E+03  0.10566000000E+00 0. -1.
        -13    1    4    4    0    0  0.75692234873E+01 -0.90589789585E+01  0.93046772405E+02  0.93792703677E+02  0.10566000000E+00 0.  1.
         14    1    4    4    0    0  0.23550996474E+01 -0.21953507418E+01  0.27718988729E+02  0.27905347075E+02  0.00000000000E+00 0. -1.
<mgrwt>
<rscale>  0 0.78563089E+02</rscale>
<asrwt>0</asrwt>
<pdfrwt beam="1">  1        2 0.61715828E-01 0.78563089E+02</pdfrwt>
<pdfrwt beam="2">  1       -1 0.59177122E-03 0.78563089E+02</pdfrwt>
<totfact> 0.29651968E+05</totfact>
</mgrwt>
</event>
<event>
 8    1  0.2389776E-016  0.7930967E+02  0.7818608E-02  0.1331022E+00
         -1   -1    0    0    0  501 -0.00000000000E+00  0.00000000000E+00  0.25005420469E+03  0.25005420474E+03  0.50400000000E-02 0.  1.
          2   -1    0    0  501    0  0.00000000000E+00 -0.00000000000E+00 -0.62886604732E+01  0.62886609902E+01  0.25500000000E-02 0. -1.
         24    2    1    2    0    0  0.00000000000E+00  0.00000000000E+00  0.24376554421E+03  0.25634286573E+03  0.79309673204E+02 0.  0.
         66    2    3    3    0    0  0.23771421385E+02 -0.22928536110E+02  0.51168544712E+02  0.60934540357E+02  0.19999994736E+01 0.  0.
        -13    1    3    3    0    0 -0.23771421385E+02  0.22928536110E+02  0.19259699950E+03  0.19540832537E+03  0.10566000000E+00 0.  1.
         13    1    4    4    0    0  0.96224326993E+01 -0.88679204561E+01  0.21197628709E+02  0.24911480309E+02  0.10566000000E+00 0. -1.
        -13    1    4    4    0    0  0.28063263401E+00 -0.44504704004E+00  0.60860365676E+00  0.81140864534E+00  0.10566000000E+00 0.  1.
         14    1    4    4    0    0  0.13868356051E+02 -0.13615568614E+02  0.29362312346E+02  0.35211651403E+02  0.00000000000E+00 0. -1.
<mgrwt>
<rscale>  0 0.79309673E+02</rscale>
<asrwt>0</asrwt>
<pdfrwt beam="1">  1        2 0.96748645E-03 0.79309673E+02</pdfrwt>
<pdfrwt beam="2">  1       -1 0.38469871E-01 0.79309673E+02</pdfrwt>
<totfact> 0.94674575E+04</totfact>
</mgrwt>
</event>
<event>
 8    1  0.2389776E-016  0.7847723E+02  0.7818608E-02  0.1333429E+00
          2   -1    0    0  501    0  0.00000000000E+00  0.00000000000E+00  0.16223066632E+04  0.16223066632E+04  0.25500000000E-02 0. -1.
         -1   -1    0    0    0  501 -0.00000000000E+00 -0.00000000000E+00 -0.94905492469E+00  0.94906830717E+00  0.50400000000E-02 0.  1.
         24    2    1    2    0    0  0.00000000000E+00  0.00000000000E+00  0.16213576083E+04  0.16232557315E+04  0.78477232144E+02 0.  0.
         66    2    3    3    0    0 -0.15882965643E+02  0.23429530182E+00  0.15527742419E+04  0.15528567770E+04  0.20000000539E+01 0.  0.
        -13    1    3    3    0    0  0.15882965643E+02 -0.23429530182E+00  0.68583366359E+02  0.70398954517E+02  0.10566000000E+00 0.  1.
         13    1    4    4    0    0 -0.10612450964E+02  0.71815374226E+00  0.10063263405E+04  0.10063825588E+04  0.10566000000E+00 0. -1.
        -13    1    4    4    0    0 -0.22194587605E+01  0.14299783547E+00  0.25236442532E+03  0.25237424745E+03  0.10566000000E+00 0.  1.
         14    1    4    4    0    0 -0.30510559184E+01 -0.62685627591E+00  0.29408347610E+03  0.29409997077E+03  0.00000000000E+00 0. -1.
<mgrwt>
<rscale>  0 0.78477232E+02</rscale>
<asrwt>0</asrwt>
<pdfrwt beam="1">  1        2 0.24958612E+00 0.78477232E+02</pdfrwt>
<pdfrwt beam="2">  1       -1 0.14600920E-03 0.78477232E+02</pdfrwt>
<totfact> 0.33779845E+05</totfact>
</mgrwt>
</event>
<event>
 8    1  0.2389776E-016  0.7926739E+02  0.7818608E-02  0.1331143E+00
         -1   -1    0    0    0  501 -0.00000000000E+00  0.00000000000E+00  0.14796660662E+02  0.14796661521E+02  0.50400000000E-02 0.  1.
          2   -1    0    0  501    0  0.00000000000E+00 -0.00000000000E+00 -0.10616110538E+03  0.10616110541E+03  0.25500000000E-02 0. -1.
         24    2    1    2    0    0  0.00000000000E+00 -0.35527136788E-14 -0.91364444715E+02  0.12095776693E+03  0.79267393184E+02 0.  0.
         66    2    3    3    0    0 -0.21061235424E+02  0.27256856405E+02 -0.15874661121E+02  0.37980478170E+02  0.19999994030E+01 0.  0.
        -13    1    3    3    0    0  0.21061235424E+02 -0.27256856405E+02 -0.75489783594E+02  0.82977288759E+02  0.10566000000E+00 0.  1.
         13    1    4    4    0    0 -0.87594714974E+01  0.10452008160E+02 -0.64637772089E+01  0.15091865204E+02  0.10566000000E+00 0.  1.
        -13    1    4    4    0    0 -0.36905530144E+01  0.47868969582E+01 -0.21402394018E+01  0.64129831415E+01  0.10566000000E+00 0. -1.
         14    1    4    4    0    0 -0.86112109122E+01  0.12017951288E+02 -0.72706445107E+01  0.16475629825E+02  0.00000000000E+00 0. -1.
<mgrwt>
<rscale>  0 0.79267393E+02</rscale>
<asrwt>0</asrwt>
<pdfrwt beam="1">  1        2 0.16332477E-01 0.79267393E+02</pdfrwt>
<pdfrwt beam="2">  1       -1 0.22764095E-02 0.79267393E+02</pdfrwt>
<totfact> 0.18477253E+05</totfact>
</mgrwt>
</event>
<event>
 8    1  0.2389776E-016  0.7878925E+02  0.7818608E-02  0.1332523E+00
         -1   -1    0    0    0  501 -0.00000000000E+00  0.00000000000E+00  0.58183513014E+02  0.58183513233E+02  0.50400000000E-02 0.  1.
          2   -1    0    0  501    0  0.00000000000E+00 -0.00000000000E+00 -0.26673127814E+02  0.26673127936E+02  0.25500000000E-02 0. -1.
         24    2    1    2    0    0  0.00000000000E+00  0.00000000000E+00  0.31510385200E+02  0.84856641168E+02  0.78789245300E+02 0.  0.
         66    2    3    3    0    0  0.38812541208E+01  0.38303715867E+02  0.69041825339E+01  0.39165119455E+02  0.20000156808E+01 0.  0.
        -13    1    3    3    0    0 -0.38812541208E+01 -0.38303715867E+02  0.24606202666E+02  0.45691521713E+02  0.10566000000E+00 0.  1.
         13    1    4    4    0    0  0.28016935516E+01  0.24561065833E+02  0.47757523954E+01  0.25177657091E+02  0.10566000000E+00 0. -1.
        -13    1    4    4    0    0  0.17102842024E-01  0.33592132930E+01  0.88880979137E+00  0.34764570091E+01  0.10566000000E+00 0.  1.
         14    1    4    4    0    0  0.10624577271E+01  0.10383436741E+02  0.12396203471E+01  0.10511005355E+02  0.00000000000E+00 0. -1.
<mgrwt>
<rscale>  0 0.78789245E+02</rscale>
<asrwt>0</asrwt>
<pdfrwt beam="1">  1        2 0.41035582E-02 0.78789245E+02</pdfrwt>
<pdfrwt beam="2">  1       -1 0.89513097E-02 0.78789245E+02</pdfrwt>
<totfact> 0.13724391E+05</totfact>
</mgrwt>
</event>
<event>
 8    1  0.2389776E-016  0.8122992E+02  0.7818608E-02  0.1325597E+00
         -1   -1    0    0    0  501 -0.00000000000E+00  0.00000000000E+00  0.72302899027E+01  0.72302916593E+01  0.50400000000E-02 0.  1.
          2   -1    0    0  501    0  0.00000000000E+00 -0.00000000000E+00 -0.22814782518E+03  0.22814782519E+03  0.25500000000E-02 0. -1.
         24    2    1    2    0    0  0.00000000000E+00  0.35527136788E-14 -0.22091753527E+03  0.23537811685E+03  0.81229923676E+02 0.  0.
         66    2    3    3    0    0 -0.91522666262E+01 -0.28810210306E+02 -0.18901880241E+03  0.19143118835E+03  0.20000016504E+01 0.  0.
        -13    1    3    3    0    0  0.91522666262E+01  0.28810210306E+02 -0.31898732867E+02  0.43946928502E+02  0.10566000000E+00 0.  1.
         13    1    4    4    0    0 -0.19402045862E+01 -0.75967479364E+01 -0.45827502475E+02  0.46493506215E+02  0.10566000000E+00 0. -1.
        -13    1    4    4    0    0 -0.18076007993E+01 -0.67917367011E+01 -0.45697172385E+02  0.46234595662E+02  0.10566000000E+00 0.  1.
         14    1    4    4    0    0 -0.54044612406E+01 -0.14421725668E+02 -0.97494127548E+02  0.98703086471E+02  0.00000000000E+00 0. -1.
<mgrwt>
<rscale>  0 0.81229924E+02</rscale>
<asrwt>0</asrwt>
<pdfrwt beam="1">  1        2 0.35099660E-01 0.81229924E+02</pdfrwt>
<pdfrwt beam="2">  1       -1 0.11123526E-02 0.81229924E+02</pdfrwt>
<totfact> 0.22192238E+05</totfact>
</mgrwt>
</event>
<event>
 8    1  0.2389776E-016  0.8126734E+02  0.7818608E-02  0.1325493E+00
         -1   -1    0    0    0  501 -0.00000000000E+00  0.00000000000E+00  0.19786530691E+01  0.19786594880E+01  0.50400000000E-02 0.  1.
          2   -1    0    0  501    0  0.00000000000E+00 -0.00000000000E+00 -0.83445275337E+03  0.83445275337E+03  0.25500000000E-02 0. -1.
         24    2    1    2    0    0  0.00000000000E+00 -0.44408920985E-15 -0.83247410030E+03  0.83643141286E+03  0.81267341228E+02 0.  0.
         66    2    3    3    0    0  0.10172791171E+02  0.27812278948E+01 -0.82010966970E+03  0.82017991395E+03  0.19999999480E+01 0.  0.
        -13    1    3    3    0    0 -0.10172791171E+02 -0.27812278948E+01 -0.12364430599E+02  0.16251498912E+02  0.10566000000E+00 0.  1.
         13    1    4    4    0    0  0.11064362383E+01  0.60319786480E+00 -0.10574869785E+03  0.10575625897E+03  0.10566000000E+00 0. -1.
        -13    1    4    4    0    0  0.51905581118E+01  0.20521950799E+01 -0.41223326894E+03  0.41227106687E+03  0.10566000000E+00 0.  1.
        -14    1    4    4    0    0  0.38757968207E+01  0.12583495010E+00 -0.30212770291E+03  0.30215258811E+03  0.00000000000E+00 0.  1.
<mgrwt>
<rscale>  0 0.81267341E+02</rscale>
<asrwt>0</asrwt>
<pdfrwt beam="1">  1        2 0.12837707E+00 0.81267341E+02</pdfrwt>
<pdfrwt beam="2">  1       -1 0.30440933E-03 0.81267341E+02</pdfrwt>
<totfact> 0.33216257E+05</totfact>
</mgrwt>
</event>
<event>
 8    1  0.2389776E-016  0.7687659E+02  0.7818608E-02  0.1338156E+00
         -1   -1    0    0    0  501 -0.00000000000E+00  0.00000000000E+00  0.23656616812E+03  0.23656616817E+03  0.50400000000E-02 0.  1.
          2   -1    0    0  501    0  0.00000000000E+00 -0.00000000000E+00 -0.62456206834E+01  0.62456212040E+01  0.25500000000E-02 0. -1.
         24    2    1    2    0    0 -0.35527136788E-14  0.35527136788E-14  0.23032054743E+03  0.24281178937E+03  0.76876592596E+02 0.  0.
         66    2    3    3    0    0 -0.19818748792E+02  0.30951226522E+02  0.15051343538E+03  0.15494855744E+03  0.19999993019E+01 0.  0.
        -13    1    3    3    0    0  0.19818748792E+02 -0.30951226522E+02  0.79807112054E+02  0.87863231930E+02  0.10566000000E+00 0.  1.
         13    1    4    4    0    0 -0.10725581872E+02  0.16940866398E+02  0.79662063503E+02  0.82146738136E+02  0.10566000000E+00 0. -1.
        -13    1    4    4    0    0 -0.85267903260E+01  0.12708618262E+02  0.63932208515E+02  0.65738524330E+02  0.10566000000E+00 0.  1.
        -14    1    4    4    0    0 -0.56637659392E+00  0.13017418620E+01  0.69191633603E+01  0.70632949767E+01  0.00000000000E+00 0.  1.
<mgrwt>
<rscale>  0 0.76876593E+02</rscale>
<asrwt>0</asrwt>
<pdfrwt beam="1">  1        2 0.96086490E-03 0.76876593E+02</pdfrwt>
<pdfrwt beam="2">  1       -1 0.36394790E-01 0.76876593E+02</pdfrwt>
<totfact> 0.10448841E+05</totfact>
</mgrwt>
</event>
<event>
 8    1  0.2389776E-016  0.7821620E+02  0.7818608E-02  0.1334191E+00
          2   -1    0    0  501    0  0.00000000000E+00  0.00000000000E+00  0.81034552199E+01  0.81034556211E+01  0.25500000000E-02 0. -1.
         -1   -1    0    0    0  501 -0.00000000000E+00 -0.00000000000E+00 -0.18873965110E+03  0.18873965117E+03  0.50400000000E-02 0.  1.
         24    2    1    2    0    0 -0.35527136788E-14 -0.22204460493E-15 -0.18063619588E+03  0.19684310679E+03  0.78216196713E+02 0.  0.
         66    2    3    3    0    0  0.31089155993E+02  0.18493894668E+01 -0.30956095185E+02  0.43957203024E+02  0.20000017108E+01 0.  0.
        -13    1    3    3    0    0 -0.31089155993E+02 -0.18493894668E+01 -0.14968010070E+03  0.15288590377E+03  0.10566000000E+00 0.  1.
         13    1    4    4    0    0  0.99800918508E+01  0.13747600896E+01 -0.98727583959E+01  0.14105839962E+02  0.10566000000E+00 0. -1.
        -13    1    4    4    0    0  0.15591063532E+02  0.33631017291E-01 -0.15249330894E+02  0.21809072650E+02  0.10566000000E+00 0.  1.
        -14    1    4    4    0    0  0.55180006098E+01  0.44099835991E+00 -0.58340058956E+01  0.80422904121E+01  0.00000000000E+00 0.  1.
<mgrwt>
<rscale>  0 0.78216197E+02</rscale>
<asrwt>0</asrwt>
<pdfrwt beam="1">  1        2 0.12466856E-02 0.78216197E+02</pdfrwt>
<pdfrwt beam="2">  1       -1 0.29036866E-01 0.78216197E+02</pdfrwt>
<totfact> 0.10730947E+05</totfact>
</mgrwt>
</event>
<event>
 8    1  0.2389776E-016  0.7937204E+02  0.7818608E-02  0.1330843E+00
          2   -1    0    0  501    0  0.00000000000E+00  0.00000000000E+00  0.11644241448E+03  0.11644241451E+03  0.25500000000E-02 0. -1.
         -1   -1    0    0    0  501 -0.00000000000E+00 -0.00000000000E+00 -0.13525829507E+02  0.13525830446E+02  0.50400000000E-02 0.  1.
         24    2    1    2    0    0 -0.35527136788E-14  0.71054273576E-14  0.10291658497E+03  0.12996824496E+03  0.79372043152E+02 0.  0.
         66    2    3    3    0    0  0.22377620269E+02 -0.28023318125E+02  0.79226844545E+02  0.86988258761E+02  0.20000045141E+01 0.  0.
        -13    1    3    3    0    0 -0.22377620269E+02  0.28023318125E+02  0.23689740429E+02  0.42979986194E+02  0.10566000000E+00 0.  1.
         13    1    4    4    0    0  0.17625264542E+02 -0.22102783164E+02  0.64332724578E+02  0.70270147214E+02  0.10566000000E+00 0. -1.
        -13    1    4    4    0    0  0.39419470716E+01 -0.49503943949E+01  0.12355955395E+02  0.13882584383E+02  0.10566000000E+00 0.  1.
         14    1    4    4    0    0  0.81040865547E+00 -0.97014056620E+00  0.25381645709E+01  0.28355271637E+01  0.00000000000E+00 0. -1.
<mgrwt>
<rscale>  0 0.79372043E+02</rscale>
<asrwt>0</asrwt>
<pdfrwt beam="1">  1        2 0.17914217E-01 0.79372043E+02</pdfrwt>
<pdfrwt beam="2">  1       -1 0.20808970E-02 0.79372043E+02</pdfrwt>
<totfact> 0.18913428E+05</totfact>
</mgrwt>
</event>
<event>
 8    1  0.2389776E-016  0.8089281E+02  0.7818608E-02  0.1326537E+00
          2   -1    0    0  501    0  0.00000000000E+00  0.00000000000E+00  0.39538420613E+03  0.39538420614E+03  0.25500000000E-02 0. -1.
         -1   -1    0    0    0  501 -0.00000000000E+00 -0.00000000000E+00 -0.41375230064E+01  0.41375260760E+01  0.50400000000E-02 0.  1.
         24    2    1    2    0    0  0.00000000000E+00  0.17763568394E-14  0.39124668312E+03  0.39952173221E+03  0.80892814614E+02 0.  0.
         66    2    3    3    0    0 -0.25096357069E+02  0.10551177180E+02  0.34331187490E+03  0.34439540927E+03  0.20000000428E+01 0.  0.
        -13    1    3    3    0    0  0.25096357069E+02 -0.10551177180E+02  0.47934808226E+02  0.55126322948E+02  0.10566000000E+00 0.  1.
         13    1    4    4    0    0 -0.48684895762E+01  0.26724877693E+01  0.67645740938E+02  0.67873424937E+02  0.10566000000E+00 0.  1.
        -13    1    4    4    0    0 -0.17868896288E+02  0.73283969726E+01  0.24642192688E+03  0.24717762858E+03  0.10566000000E+00 0. -1.
         14    1    4    4    0    0 -0.23589712048E+01  0.55029243862E+00  0.29244207074E+02  0.29344355749E+02  0.00000000000E+00 0. -1.
<mgrwt>
<rscale>  0 0.80892815E+02</rscale>
<asrwt>0</asrwt>
<pdfrwt beam="1">  1        2 0.60828331E-01 0.80892815E+02</pdfrwt>
<pdfrwt beam="2">  1       -1 0.63654233E-03 0.80892815E+02</pdfrwt>
<totfact> 0.27334436E+05</totfact>
</mgrwt>
</event>
<event>
 8    1  0.2389776E-016  0.7437246E+02  0.7818608E-02  0.1345825E+00
         -1   -1    0    0    0  501 -0.00000000000E+00  0.00000000000E+00  0.64842665795E+02  0.64842665991E+02  0.50400000000E-02 0.  1.
          2   -1    0    0  501    0  0.00000000000E+00 -0.00000000000E+00 -0.21325706078E+02  0.21325706230E+02  0.25500000000E-02 0. -1.
         24    2    1    2    0    0  0.71054273576E-14  0.00000000000E+00  0.43516959718E+02  0.86168372221E+02  0.74372458533E+02 0.  0.
         66    2    3    3    0    0 -0.33264930240E+02 -0.80186305420E+01  0.49861044274E+01  0.34636906173E+02  0.20000030539E+01 0.  0.
        -13    1    3    3    0    0  0.33264930240E+02  0.80186305420E+01  0.38530855290E+02  0.51531466048E+02  0.10566000000E+00 0.  1.
         13    1    4    4    0    0 -0.16808392382E+02 -0.41214108371E+01  0.32399266170E+01  0.17607281740E+02  0.10566000000E+00 0. -1.
        -13    1    4    4    0    0 -0.56429891071E+01 -0.16490900990E+01  0.94978887472E+00  0.59561805849E+01  0.10566000000E+00 0.  1.
        -14    1    4    4    0    0 -0.10813548751E+02 -0.22481296060E+01  0.79638893571E+00  0.11073443848E+02  0.00000000000E+00 0.  1.
<mgrwt>
<rscale>  0 0.74372459E+02</rscale>
<asrwt>0</asrwt>
<pdfrwt beam="1">  1        2 0.32808779E-02 0.74372459E+02</pdfrwt>
<pdfrwt beam="2">  1       -1 0.99757948E-02 0.74372459E+02</pdfrwt>
<totfact> 0.15470292E+05</totfact>
</mgrwt>
</event>
<event>
 8    1  0.2389776E-016  0.7890855E+02  0.7818608E-02  0.1332178E+00
          2   -1    0    0  501    0  0.00000000000E+00  0.00000000000E+00  0.79894043905E+02  0.79894043946E+02  0.25500000000E-02 0. -1.
         -1   -1    0    0    0  501 -0.00000000000E+00 -0.00000000000E+00 -0.19483802699E+02  0.19483803351E+02  0.50400000000E-02 0.  1.
         24    2    1    2    0    0  0.00000000000E+00  0.00000000000E+00  0.60410241206E+02  0.99377847297E+02  0.78908550175E+02 0.  0.
         66    2    3    3    0    0  0.41775136926E+01  0.30253238378E+02  0.61632049971E+02  0.68812932219E+02  0.20000009681E+01 0.  0.
        -13    1    3    3    0    0 -0.41775136926E+01 -0.30253238378E+02 -0.12218087649E+01  0.30564915078E+02  0.10566000000E+00 0.  1.
         13    1    4    4    0    0  0.70762534041E+00  0.37507734946E+01  0.68817861234E+01  0.78701448344E+01  0.10566000000E+00 0. -1.
        -13    1    4    4    0    0  0.30335997795E+01  0.19339901924E+02  0.40916859898E+02  0.45358958564E+02  0.10566000000E+00 0.  1.
        -14    1    4    4    0    0  0.43628857269E+00  0.71625629595E+01  0.13833403950E+02  0.15583828821E+02  0.00000000000E+00 0.  1.
<mgrwt>
<rscale>  0 0.78908550E+02</rscale>
<asrwt>0</asrwt>
<pdfrwt beam="1">  1        2 0.12291392E-01 0.78908550E+02</pdfrwt>
<pdfrwt beam="2">  1       -1 0.29975081E-02 0.78908550E+02</pdfrwt>
<totfact> 0.17319116E+05</totfact>
</mgrwt>
</event>
<event>
 8    1  0.2389776E-016  0.7994696E+02  0.7818608E-02  0.1329202E+00
         -1   -1    0    0    0  501 -0.00000000000E+00  0.00000000000E+00  0.58486285208E+01  0.58486306923E+01  0.50400000000E-02 0.  1.
          2   -1    0    0  501    0  0.00000000000E+00 -0.00000000000E+00 -0.27320573103E+03  0.27320573105E+03  0.25500000000E-02 0. -1.
         24    2    1    2    0    0  0.00000000000E+00  0.00000000000E+00 -0.26735710251E+03  0.27905436174E+03  0.79946960798E+02 0.  0.
         66    2    3    3    0    0 -0.51752117092E+00  0.37474042940E+02 -0.18203973940E+03  0.18586833631E+03  0.19999998696E+01 0.  0.
        -13    1    3    3    0    0  0.51752117092E+00 -0.37474042940E+02 -0.85317363112E+02  0.93186025427E+02  0.10566000000E+00 0.  1.
         13    1    4    4    0    0  0.30310261881E+00  0.38946372167E+01 -0.21455061105E+02  0.21808046251E+02  0.10566000000E+00 0. -1.
        -13    1    4    4    0    0 -0.53829943909E+00  0.20417517375E+02 -0.97037001380E+02  0.99163277391E+02  0.10566000000E+00 0.  1.
         14    1    4    4    0    0 -0.28232435065E+00  0.13161888348E+02 -0.63547676916E+02  0.64897012669E+02  0.00000000000E+00 0. -1.
<mgrwt>
<rscale>  0 0.79946961E+02</rscale>
<asrwt>0</asrwt>
<pdfrwt beam="1">  1        2 0.42031641E-01 0.79946961E+02</pdfrwt>
<pdfrwt beam="2">  1       -1 0.89978938E-03 0.79946961E+02</pdfrwt>
<totfact> 0.24687879E+05</totfact>
</mgrwt>
</event>
<event>
 8    1  0.2389776E-016  0.8434834E+02  0.7818608E-02  0.1317146E+00
         -1   -1    0    0    0  501 -0.00000000000E+00  0.00000000000E+00  0.10366224256E+01  0.10366346777E+01  0.50400000000E-02 0.  1.
          2   -1    0    0  501    0  0.00000000000E+00 -0.00000000000E+00 -0.17158128486E+04  0.17158128486E+04  0.25500000000E-02 0. -1.
         24    2    1    2    0    0 -0.44408920985E-15  0.00000000000E+00 -0.17147762261E+04  0.17168494833E+04  0.84348339547E+02 0.  0.
         66    2    3    3    0    0 -0.34290390002E+01 -0.22102481372E+02 -0.15850544044E+04  0.15852134692E+04  0.20000177011E+01 0.  0.
        -13    1    3    3    0    0  0.34290390002E+01  0.22102481372E+02 -0.12972182179E+03  0.13163601409E+03  0.10566000000E+00 0.  1.
         13    1    4    4    0    0 -0.20258639267E+01 -0.14742651314E+02 -0.10742839461E+04  0.10743870149E+04  0.10566000000E+00 0. -1.
        -13    1    4    4    0    0 -0.88579592931E-01 -0.25982728983E+01 -0.15824896563E+03  0.15827035464E+03  0.10566000000E+00 0.  1.
         14    1    4    4    0    0 -0.13145954806E+01 -0.47615571594E+01 -0.35252149265E+03  0.35255609961E+03  0.00000000000E+00 0. -1.
<mgrwt>
<rscale>  0 0.84348340E+02</rscale>
<asrwt>0</asrwt>
<pdfrwt beam="1">  1        2 0.26396893E+00 0.84348340E+02</pdfrwt>
<pdfrwt beam="2">  1       -1 0.15948269E-03 0.84348340E+02</pdfrwt>
<totfact> 0.27143504E+05</totfact>
</mgrwt>
</event>
<event>
 8    1  0.2389776E-016  0.8222480E+02  0.7818608E-02  0.1322854E+00
          2   -1    0    0  501    0  0.00000000000E+00  0.00000000000E+00  0.98456082690E+03  0.98456082690E+03  0.25500000000E-02 0. -1.
         -1   -1    0    0    0  501 -0.00000000000E+00 -0.00000000000E+00 -0.17167304894E+01  0.17167378876E+01  0.50400000000E-02 0.  1.
         24    2    1    2    0    0 -0.17763568394E-14  0.00000000000E+00  0.98284409641E+03  0.98627756479E+03  0.82224795292E+02 0.  0.
         66    2    3    3    0    0  0.11806778324E+02  0.22285331794E+02  0.88079570975E+03  0.88115896315E+03  0.19999980798E+01 0.  0.
        -13    1    3    3    0    0 -0.11806778324E+02 -0.22285331794E+02  0.10204838666E+03  0.10511860164E+03  0.10566000000E+00 0.  1.
         13    1    4    4    0    0  0.21796131686E+00  0.43483766410E+00  0.12094898358E+02  0.12105136152E+02  0.10566000000E+00 0. -1.
        -13    1    4    4    0    0  0.65084167798E+01  0.11379741121E+02  0.47754478519E+03  0.47772470213E+03  0.10566000000E+00 0. -1.
         14    1    4    4    0    0  0.50804002272E+01  0.10470753008E+02  0.39115602620E+03  0.39132912487E+03  0.00000000000E+00 0. -1.
<mgrwt>
<rscale>  0 0.82224795E+02</rscale>
<asrwt>0</asrwt>
<pdfrwt beam="1">  1        2 0.15147081E+00 0.82224795E+02</pdfrwt>
<pdfrwt beam="2">  1       -1 0.26411310E-03 0.82224795E+02</pdfrwt>
<totfact> 0.32782033E+05</totfact>
</mgrwt>
</event>
<event>
 8    1  0.2389776E-016  0.7979643E+02  0.7818608E-02  0.1329630E+00
          2   -1    0    0  501    0  0.00000000000E+00  0.00000000000E+00  0.84515937452E+02  0.84515937491E+02  0.25500000000E-02 0. -1.
         -1   -1    0    0    0  501 -0.00000000000E+00 -0.00000000000E+00 -0.18835118774E+02  0.18835119448E+02  0.50400000000E-02 0.  1.
         24    2    1    2    0    0  0.00000000000E+00  0.22204460493E-15  0.65680818678E+02  0.10335105694E+03  0.79796434934E+02 0.  0.
         66    2    3    3    0    0 -0.19981104404E+02  0.12856858955E+01  0.77520704339E+02  0.80089681702E+02  0.19999981381E+01 0.  0.
        -13    1    3    3    0    0  0.19981104404E+02 -0.12856858955E+01 -0.11839885661E+02  0.23261375237E+02  0.10566000000E+00 0.  1.
         13    1    4    4    0    0 -0.14229431512E+02  0.29582680488E+00  0.53578089423E+02  0.55436333437E+02  0.10566000000E+00 0. -1.
        -13    1    4    4    0    0 -0.72456992319E+00  0.28130700131E+00  0.38676040819E+01  0.39463477511E+01  0.10566000000E+00 0.  1.
         14    1    4    4    0    0 -0.50271029689E+01  0.70855208932E+00  0.20075010834E+02  0.20707000514E+02  0.00000000000E+00 0. -1.
<mgrwt>
<rscale>  0 0.79796435E+02</rscale>
<asrwt>0</asrwt>
<pdfrwt beam="1">  1        2 0.13002452E-01 0.79796435E+02</pdfrwt>
<pdfrwt beam="2">  1       -1 0.28977106E-02 0.79796435E+02</pdfrwt>
<totfact> 0.17051902E+05</totfact>
</mgrwt>
</event>
<event>
 8    1  0.2389776E-016  0.8029574E+02  0.7818608E-02  0.1328214E+00
          2   -1    0    0  501    0  0.00000000000E+00  0.00000000000E+00  0.42667455051E+03  0.42667455052E+03  0.25500000000E-02 0. -1.
         -1   -1    0    0    0  501 -0.00000000000E+00 -0.00000000000E+00 -0.37777050398E+01  0.37777084019E+01  0.50400000000E-02 0.  1.
         24    2    1    2    0    0  0.00000000000E+00  0.88817841970E-15  0.42289684547E+03  0.43045225892E+03  0.80295736501E+02 0.  0.
         66    2    3    3    0    0  0.36462728150E+02 -0.61641133357E+01  0.29502931060E+03  0.29734461649E+03  0.20000001463E+01 0.  0.
        -13    1    3    3    0    0 -0.36462728150E+02  0.61641133357E+01  0.12786753487E+03  0.13310764243E+03  0.10566000000E+00 0.  1.
         13    1    4    4    0    0  0.16203144683E+02 -0.29433183121E+01  0.13299398209E+03  0.13400975881E+03  0.10566000000E+00 0. -1.
        -13    1    4    4    0    0  0.95644382415E+01 -0.21508707421E+01  0.79889822502E+02  0.80489127386E+02  0.10566000000E+00 0.  1.
        -14    1    4    4    0    0  0.10695145225E+02 -0.10699242815E+01  0.82145506009E+02  0.82845730287E+02  0.00000000000E+00 0.  1.
<mgrwt>
<rscale>  0 0.80295737E+02</rscale>
<asrwt>0</asrwt>
<pdfrwt beam="1">  1        2 0.65642235E-01 0.80295737E+02</pdfrwt>
<pdfrwt beam="2">  1       -1 0.58118568E-03 0.80295737E+02</pdfrwt>
<totfact> 0.28615144E+05</totfact>
</mgrwt>
</event>
<event>
 8    1  0.2389776E-016  0.7948182E+02  0.7818608E-02  0.1330528E+00
         -1   -1    0    0    0  501 -0.00000000000E+00  0.00000000000E+00  0.51150815253E+02  0.51150815501E+02  0.50400000000E-02 0.  1.
          2   -1    0    0  501    0  0.00000000000E+00 -0.00000000000E+00 -0.30876146918E+02  0.30876147023E+02  0.25500000000E-02 0. -1.
         24    2    1    2    0    0  0.00000000000E+00  0.00000000000E+00  0.20274668335E+02  0.82026962525E+02  0.79481824369E+02 0.  0.
         66    2    3    3    0    0 -0.33722618401E+02  0.88269100968E+01 -0.94973969013E+01  0.36184663650E+02  0.20000004547E+01 0.  0.
        -13    1    3    3    0    0  0.33722618401E+02 -0.88269100968E+01  0.29772065236E+02  0.45842298875E+02  0.10566000000E+00 0.  1.
         13    1    4    4    0    0 -0.18951756139E+02  0.53081939225E+01 -0.56284707251E+01  0.20470389108E+02  0.10566000000E+00 0. -1.
        -13    1    4    4    0    0 -0.95580704075E+01  0.28373782425E+01 -0.23966642465E+01  0.10254881216E+02  0.10566000000E+00 0.  1.
        -14    1    4    4    0    0 -0.52127918548E+01  0.68133793185E+00 -0.14722619296E+01  0.54593933260E+01  0.00000000000E+00 0.  1.
<mgrwt>
<rscale>  0 0.79481824E+02</rscale>
<asrwt>0</asrwt>
<pdfrwt beam="1">  1        2 0.47501765E-02 0.79481824E+02</pdfrwt>
<pdfrwt beam="2">  1       -1 0.78693562E-02 0.79481824E+02</pdfrwt>
<totfact> 0.13780190E+05</totfact>
</mgrwt>
</event>
<event>
 8    1  0.2389776E-016  0.7872117E+02  0.7818608E-02  0.1332720E+00
          2   -1    0    0  501    0  0.00000000000E+00  0.00000000000E+00  0.71311335899E+02  0.71311335945E+02  0.25500000000E-02 0. -1.
         -1   -1    0    0    0  501 -0.00000000000E+00 -0.00000000000E+00 -0.21725235439E+02  0.21725236024E+02  0.50400000000E-02 0.  1.
         24    2    1    2    0    0  0.88817841970E-15  0.00000000000E+00  0.49586100460E+02  0.93036571969E+02  0.78721168467E+02 0.  0.
         66    2    3    3    0    0 -0.76398499292E+01  0.10682747675E+02  0.68629371356E+02  0.69903354828E+02  0.19999996632E+01 0.  0.
        -13    1    3    3    0    0  0.76398499292E+01 -0.10682747675E+02 -0.19043270896E+02  0.23133217141E+02  0.10566000000E+00 0.  1.
         13    1    4    4    0    0 -0.36478026867E+01  0.41914814113E+01  0.27295518476E+02  0.27855546553E+02  0.10566000000E+00 0. -1.
        -13    1    4    4    0    0 -0.34885467828E+01  0.62126470507E+01  0.38856228559E+02  0.39504235265E+02  0.10566000000E+00 0.  1.
        -14    1    4    4    0    0 -0.50350045980E+00  0.27861921293E+00  0.24776243211E+01  0.25435730096E+01  0.00000000000E+00 0.  1.
<mgrwt>
<rscale>  0 0.78721168E+02</rscale>
<asrwt>0</asrwt>
<pdfrwt beam="1">  1        2 0.10970975E-01 0.78721168E+02</pdfrwt>
<pdfrwt beam="2">  1       -1 0.33423440E-02 0.78721168E+02</pdfrwt>
<totfact> 0.16942096E+05</totfact>
</mgrwt>
</event>
<event>
 8    1  0.2389776E-016  0.8215892E+02  0.7818608E-02  0.1323034E+00
         -1   -1    0    0    0  501 -0.00000000000E+00  0.00000000000E+00  0.26734844463E+01  0.26734891970E+01  0.50400000000E-02 0.  1.
          2   -1    0    0  501    0  0.00000000000E+00 -0.00000000000E+00 -0.63120640099E+03  0.63120640099E+03  0.25500000000E-02 0. -1.
         24    2    1    2    0    0  0.00000000000E+00  0.00000000000E+00 -0.62853291654E+03  0.63387989019E+03  0.82158919242E+02 0.  0.
         66    2    3    3    0    0 -0.21372824053E+02  0.15122194197E+02 -0.55843577523E+03  0.55905276443E+03  0.19999988663E+01 0.  0.
        -13    1    3    3    0    0  0.21372824053E+02 -0.15122194197E+02 -0.70097141312E+02  0.74827125760E+02  0.10566000000E+00 0.  1.
         13    1    4    4    0    0 -0.13840611629E+02  0.96392568317E+01 -0.36802359735E+03  0.36840990374E+03  0.10566000000E+00 0. -1.
        -13    1    4    4    0    0 -0.55144038103E+01  0.34201141528E+01 -0.13113199717E+03  0.13129248904E+03  0.10566000000E+00 0.  1.
        -14    1    4    4    0    0 -0.20178086138E+01  0.20628232121E+01 -0.59280180706E+02  0.59350371656E+02  0.00000000000E+00 0.  1.
<mgrwt>
<rscale>  0 0.82158919E+02</rscale>
<asrwt>0</asrwt>
<pdfrwt beam="1">  1        2 0.97108559E-01 0.82158919E+02</pdfrwt>
<pdfrwt beam="2">  1       -1 0.41130617E-03 0.82158919E+02</pdfrwt>
<totfact> 0.30423566E+05</totfact>
</mgrwt>
</event>
<event>
 8    1  0.2389776E-016  0.8014270E+02  0.7818608E-02  0.1328647E+00
          2   -1    0    0  501    0  0.00000000000E+00  0.00000000000E+00  0.38910767393E+03  0.38910767394E+03  0.25500000000E-02 0. -1.
         -1   -1    0    0    0  501 -0.00000000000E+00 -0.00000000000E+00 -0.41266532034E+01  0.41266562812E+01  0.50400000000E-02 0.  1.
         24    2    1    2    0    0 -0.71054273576E-14  0.44408920985E-15  0.38498102072E+03  0.39323433022E+03  0.80142698629E+02 0.  0.
         66    2    3    3    0    0 -0.37752908527E+02  0.35324964031E+01  0.25581815511E+03  0.25862074379E+03  0.20000003856E+01 0.  0.
        -13    1    3    3    0    0  0.37752908527E+02 -0.35324964031E+01  0.12916286561E+03  0.13461358642E+03  0.10566000000E+00 0.  1.
         13    1    4    4    0    0 -0.27104276202E+02  0.17797466208E+01  0.18254959103E+03  0.18455940408E+03  0.10566000000E+00 0. -1.
        -13    1    4    4    0    0 -0.26709406022E+01  0.63070746868E+00  0.19598766920E+02  0.19790263879E+02  0.10566000000E+00 0.  1.
         14    1    4    4    0    0 -0.79776917230E+01  0.11220423137E+01  0.53669797167E+02  0.54271075833E+02  0.00000000000E+00 0. -1.
<mgrwt>
<rscale>  0 0.80142699E+02</rscale>
<asrwt>0</asrwt>
<pdfrwt beam="1">  1        2 0.59862736E-01 0.80142699E+02</pdfrwt>
<pdfrwt beam="2">  1       -1 0.63486978E-03 0.80142699E+02</pdfrwt>
<totfact> 0.27851284E+05</totfact>
</mgrwt>
</event>
<event>
 8    1  0.2389776E-016  0.8061235E+02  0.7818608E-02  0.1327323E+00
         -1   -1    0    0    0  501 -0.00000000000E+00  0.00000000000E+00  0.35589812021E+02  0.35589812378E+02  0.50400000000E-02 0.  1.
          2   -1    0    0  501    0  0.00000000000E+00 -0.00000000000E+00 -0.45647547762E+02  0.45647547833E+02  0.25500000000E-02 0. -1.
         24    2    1    2    0    0 -0.35527136788E-14 -0.35527136788E-14 -0.10057735741E+02  0.81237360211E+02  0.80612347974E+02 0.  0.
         66    2    3    3    0    0  0.25975743372E+02  0.28228085863E+02 -0.17416198192E+02  0.42176865989E+02  0.19999975041E+01 0.  0.
        -13    1    3    3    0    0 -0.25975743372E+02 -0.28228085863E+02  0.73584624508E+01  0.39060494222E+02  0.10566000000E+00 0.  1.
         13    1    4    4    0    0  0.11113779755E+02  0.12571160480E+02 -0.77221666031E+01  0.18471415683E+02  0.10566000000E+00 0. -1.
        -13    1    4    4    0    0  0.21606633245E+01  0.16455523748E+01 -0.10819160536E+01  0.29254085190E+01  0.10566000000E+00 0.  1.
        -14    1    4    4    0    0  0.12701300292E+02  0.14011373008E+02 -0.86121155351E+01  0.20780041787E+02  0.00000000000E+00 0.  1.
<mgrwt>
<rscale>  0 0.80612348E+02</rscale>
<asrwt>0</asrwt>
<pdfrwt beam="1">  1        2 0.70226996E-02 0.80612348E+02</pdfrwt>
<pdfrwt beam="2">  1       -1 0.54753558E-02 0.80612348E+02</pdfrwt>
<totfact> 0.14349347E+05</totfact>
</mgrwt>
</event>
<event>
 8    1  0.2389776E-016  0.7491617E+02  0.7818608E-02  0.1344131E+00
          2   -1    0    0  501    0  0.00000000000E+00  0.00000000000E+00  0.29148811214E+03  0.29148811215E+03  0.25500000000E-02 0. -1.
         -1   -1    0    0    0  501 -0.00000000000E+00 -0.00000000000E+00 -0.48136023111E+01  0.48136049497E+01  0.50400000000E-02 0.  1.
         24    2    1    2    0    0  0.00000000000E+00  0.00000000000E+00  0.28667450983E+03  0.29630171710E+03  0.74916172962E+02 0.  0.
         66    2    3    3    0    0  0.16933676566E+02 -0.25186938498E+02  0.23008873039E+03  0.23209040289E+03  0.19999979847E+01 0.  0.
        -13    1    3    3    0    0 -0.16933676566E+02  0.25186938498E+02  0.56585779443E+02  0.64211314207E+02  0.10566000000E+00 0.  1.
         13    1    4    4    0    0  0.16076020294E+02 -0.23688695139E+02  0.21914721118E+03  0.22100928496E+03  0.10566000000E+00 0. -1.
        -13    1    4    4    0    0  0.67622267319E+00 -0.13130646561E+01  0.97432074792E+01  0.98550835569E+01  0.10566000000E+00 0.  1.
         14    1    4    4    0    0  0.18143359903E+00 -0.18517870367E+00  0.11983117248E+01  0.12260343768E+01  0.00000000000E+00 0. -1.
<mgrwt>
<rscale>  0 0.74916173E+02</rscale>
<asrwt>0</asrwt>
<pdfrwt beam="1">  1        2 0.44844333E-01 0.74916173E+02</pdfrwt>
<pdfrwt beam="2">  1       -1 0.74055428E-03 0.74916173E+02</pdfrwt>
<totfact> 0.29953802E+05</totfact>
</mgrwt>
</event>
<event>
 8    1  0.2389776E-016  0.7981067E+02  0.7818608E-02  0.1329590E+00
          2   -1    0    0  501    0  0.00000000000E+00  0.00000000000E+00  0.10348150947E+02  0.10348151262E+02  0.25500000000E-02 0. -1.
         -1   -1    0    0    0  501 -0.00000000000E+00 -0.00000000000E+00 -0.15388603503E+03  0.15388603511E+03  0.50400000000E-02 0.  1.
         24    2    1    2    0    0  0.35527136788E-14  0.35527136788E-14 -0.14353788408E+03  0.16423418637E+03  0.79810674768E+02 0.  0.
         66    2    3    3    0    0 -0.27276938780E+02 -0.29081381100E+02 -0.70125887118E+02  0.80693234870E+02  0.19999984404E+01 0.  0.
        -13    1    3    3    0    0  0.27276938780E+02  0.29081381100E+02 -0.73411996961E+02  0.83540951501E+02  0.10566000000E+00 0.  1.
         13    1    4    4    0    0 -0.48173653958E+01 -0.42162111307E+01 -0.11262209787E+02  0.12954998224E+02  0.10566000000E+00 0. -1.
        -13    1    4    4    0    0 -0.20288640986E+02 -0.22061929928E+02 -0.52490729023E+02  0.60445392733E+02  0.10566000000E+00 0.  1.
        -14    1    4    4    0    0 -0.21709323975E+01 -0.28032400412E+01 -0.63729483080E+01  0.72928439130E+01  0.00000000000E+00 0.  1.
<mgrwt>
<rscale>  0 0.79810675E+02</rscale>
<asrwt>0</asrwt>
<pdfrwt beam="1">  1        2 0.15920234E-02 0.79810675E+02</pdfrwt>
<pdfrwt beam="2">  1       -1 0.23674773E-01 0.79810675E+02</pdfrwt>
<totfact> 0.10781097E+05</totfact>
</mgrwt>
</event>
<event>
 8    1  0.2389776E-016  0.7965496E+02  0.7818608E-02  0.1330033E+00
          2   -1    0    0  501    0  0.00000000000E+00  0.00000000000E+00  0.73748380115E+03  0.73748380116E+03  0.25500000000E-02 0. -1.
         -1   -1    0    0    0  501 -0.00000000000E+00 -0.00000000000E+00 -0.21508621409E+01  0.21508680459E+01  0.50400000000E-02 0.  1.
         24    2    1    2    0    0  0.00000000000E+00  0.00000000000E+00  0.73533293901E+03  0.73963466920E+03  0.79654960243E+02 0.  0.
         66    2    3    3    0    0 -0.12603499832E+02 -0.24757403702E+02  0.63256575781E+03  0.63317865978E+03  0.20000002570E+01 0.  0.
        -13    1    3    3    0    0  0.12603499832E+02  0.24757403702E+02  0.10276718121E+03  0.10645600943E+03  0.10566000000E+00 0.  1.
         13    1    4    4    0    0 -0.70872557237E+01 -0.13071405674E+02  0.33140978178E+03  0.33174319204E+03  0.10566000000E+00 0. -1.
        -13    1    4    4    0    0 -0.38703485102E+01 -0.92774538208E+01  0.23760221616E+03  0.23781479146E+03  0.10566000000E+00 0.  1.
        -14    1    4    4    0    0 -0.16458955982E+01 -0.24085442068E+01  0.63553759858E+02  0.63620676274E+02  0.00000000000E+00 0.  1.
<mgrwt>
<rscale>  0 0.79654960E+02</rscale>
<asrwt>0</asrwt>
<pdfrwt beam="1">  1        2 0.11345917E+00 0.79654960E+02</pdfrwt>
<pdfrwt beam="2">  1       -1 0.33090196E-03 0.79654960E+02</pdfrwt>
<totfact> 0.34217925E+05</totfact>
</mgrwt>
</event>
<event>
 8    1  0.2389776E-016  0.7934837E+02  0.7818608E-02  0.1330911E+00
         -1   -1    0    0    0  501 -0.00000000000E+00  0.00000000000E+00  0.57848948992E+02  0.57848949211E+02  0.50400000000E-02 0.  1.
          2   -1    0    0  501    0  0.00000000000E+00 -0.00000000000E+00 -0.27209501239E+02  0.27209501358E+02  0.25500000000E-02 0. -1.
         24    2    1    2    0    0  0.71054273576E-14  0.00000000000E+00  0.30639447753E+02  0.85058450569E+02  0.79348372729E+02 0.  0.
         66    2    3    3    0    0 -0.32454570021E+02 -0.19363499526E+02  0.24751827981E+01  0.37925858729E+02  0.20000003364E+01 0.  0.
        -13    1    3    3    0    0  0.32454570021E+02  0.19363499526E+02  0.28164264954E+02  0.47132591840E+02  0.10566000000E+00 0.  1.
         13    1    4    4    0    0 -0.19726009119E+02 -0.10825179923E+02  0.13505287199E+01  0.22541851033E+02  0.10566000000E+00 0.  1.
        -13    1    4    4    0    0 -0.75229672044E+01 -0.54031182664E+01  0.52529367252E+00  0.92777055374E+01  0.10566000000E+00 0. -1.
         14    1    4    4    0    0 -0.52055936972E+01 -0.31352013362E+01  0.59936040564E+00  0.61063021588E+01  0.00000000000E+00 0. -1.
<mgrwt>
<rscale>  0 0.79348373E+02</rscale>
<asrwt>0</asrwt>
<pdfrwt beam="1">  1        2 0.41860771E-02 0.79348373E+02</pdfrwt>
<pdfrwt beam="2">  1       -1 0.88998383E-02 0.79348373E+02</pdfrwt>
<totfact> 0.13506405E+05</totfact>
</mgrwt>
</event>
<event>
 8    1  0.2389776E-016  0.7973665E+02  0.7818608E-02  0.1329800E+00
         -1   -1    0    0    0  501 -0.00000000000E+00  0.00000000000E+00  0.33853148598E+01  0.33853186116E+01  0.50400000000E-02 0.  1.
          2   -1    0    0  501    0  0.00000000000E+00 -0.00000000000E+00 -0.46952278648E+03  0.46952278648E+03  0.25500000000E-02 0. -1.
         24    2    1    2    0    0  0.00000000000E+00 -0.35527136788E-14 -0.46613747162E+03  0.47290810509E+03  0.79736650414E+02 0.  0.
         66    2    3    3    0    0 -0.35120574593E+02  0.16747029970E+02 -0.28408258499E+03  0.28674175292E+03  0.20000004900E+01 0.  0.
        -13    1    3    3    0    0  0.35120574593E+02 -0.16747029970E+02 -0.18205488663E+03  0.18616635217E+03  0.10566000000E+00 0.  1.
         13    1    4    4    0    0 -0.20542911892E+02  0.10300516920E+02 -0.16934174169E+03  0.17089396865E+03  0.10566000000E+00 0. -1.
        -13    1    4    4    0    0 -0.30546517026E+01  0.89124038276E+00 -0.23233684049E+02  0.23450809047E+02  0.10566000000E+00 0.  1.
        -14    1    4    4    0    0 -0.11523010998E+02  0.55552726669E+01 -0.91507159251E+02  0.92396975227E+02  0.00000000000E+00 0.  1.
<mgrwt>
<rscale>  0 0.79736650E+02</rscale>
<asrwt>0</asrwt>
<pdfrwt beam="1">  1        2 0.72234223E-01 0.79736650E+02</pdfrwt>
<pdfrwt beam="2">  1       -1 0.52081833E-03 0.79736650E+02</pdfrwt>
<totfact> 0.30094523E+05</totfact>
</mgrwt>
</event>
<event>
 8    1  0.2389776E-016  0.7866811E+02  0.7818608E-02  0.1332874E+00
         -1   -1    0    0    0  501 -0.00000000000E+00  0.00000000000E+00  0.35018740171E+01  0.35018776440E+01  0.50400000000E-02 0.  1.
          2   -1    0    0  501    0  0.00000000000E+00 -0.00000000000E+00 -0.44181117251E+03  0.44181117251E+03  0.25500000000E-02 0. -1.
         24    2    1    2    0    0  0.00000000000E+00  0.35527136788E-14 -0.43830929849E+03  0.44531305016E+03  0.78668109794E+02 0.  0.
         66    2    3    3    0    0  0.23974621993E+02 -0.31090577705E+02 -0.20832472099E+03  0.21200140541E+03  0.19999999986E+01 0.  0.
        -13    1    3    3    0    0 -0.23974621993E+02  0.31090577705E+02 -0.22998457750E+03  0.23331164475E+03  0.10566000000E+00 0.  1.
         13    1    4    4    0    0  0.10148403037E+02 -0.14067766980E+02 -0.90573205678E+02  0.92219352106E+02  0.10566000000E+00 0. -1.
        -13    1    4    4    0    0  0.91622467547E+01 -0.10388298555E+02 -0.74103645428E+02  0.75387166960E+02  0.10566000000E+00 0.  1.
        -14    1    4    4    0    0  0.46639722012E+01 -0.66345121697E+01 -0.43647869880E+02  0.44394886343E+02  0.00000000000E+00 0.  1.
<mgrwt>
<rscale>  0 0.78668110E+02</rscale>
<asrwt>0</asrwt>
<pdfrwt beam="1">  1        2 0.67970906E-01 0.78668110E+02</pdfrwt>
<pdfrwt beam="2">  1       -1 0.53875048E-03 0.78668110E+02</pdfrwt>
<totfact> 0.30545234E+05</totfact>
</mgrwt>
</event>
<event>
 8    1  0.2389776E-016  0.8168219E+02  0.7818608E-02  0.1324344E+00
          2   -1    0    0  501    0  0.00000000000E+00  0.00000000000E+00  0.59888411605E+02  0.59888411659E+02  0.25500000000E-02 0. -1.
         -1   -1    0    0    0  501 -0.00000000000E+00 -0.00000000000E+00 -0.27851715005E+02  0.27851715461E+02  0.50400000000E-02 0.  1.
         24    2    1    2    0    0  0.00000000000E+00  0.00000000000E+00  0.32036696599E+02  0.87740127120E+02  0.81682188866E+02 0.  0.
         66    2    3    3    0    0  0.16310993937E+02  0.45469518170E+01  0.55920770807E+02  0.58462431534E+02  0.19999997839E+01 0.  0.
        -13    1    3    3    0    0 -0.16310993937E+02 -0.45469518170E+01 -0.23884074208E+02  0.29277695586E+02  0.10566000000E+00 0.  1.
         13    1    4    4    0    0  0.36395160686E+01  0.79693255530E+00  0.12047422518E+02  0.12610818057E+02  0.10566000000E+00 0. -1.
        -13    1    4    4    0    0  0.36348749341E+01  0.15970289491E+01  0.15242049171E+02  0.15751001372E+02  0.10566000000E+00 0.  1.
        -14    1    4    4    0    0  0.90366029339E+01  0.21529903125E+01  0.28631299119E+02  0.30100612105E+02  0.00000000000E+00 0.  1.
<mgrwt>
<rscale>  0 0.81682189E+02</rscale>
<asrwt>0</asrwt>
<pdfrwt beam="1">  1        2 0.92136018E-02 0.81682189E+02</pdfrwt>
<pdfrwt beam="2">  1       -1 0.42848793E-02 0.81682189E+02</pdfrwt>
<totfact> 0.14701793E+05</totfact>
</mgrwt>
</event>
<event>
 8    1  0.2389776E-016  0.7993550E+02  0.7818608E-02  0.1329235E+00
         -1   -1    0    0    0  501 -0.00000000000E+00  0.00000000000E+00  0.10721959850E+02  0.10721961034E+02  0.50400000000E-02 0.  1.
          2   -1    0    0  501    0  0.00000000000E+00 -0.00000000000E+00 -0.14898589708E+03  0.14898589710E+03  0.25500000000E-02 0. -1.
         24    2    1    2    0    0 -0.17763568394E-14 -0.35527136788E-14 -0.13826393723E+03  0.15970785814E+03  0.79935496571E+02 0.  0.
         66    2    3    3    0    0  0.12100466503E+02  0.24171256145E+02 -0.12792820625E+03  0.13076810326E+03  0.19999908673E+01 0.  0.
        -13    1    3    3    0    0 -0.12100466503E+02 -0.24171256145E+02 -0.10335730980E+02  0.28939754873E+02  0.10566000000E+00 0.  1.
         13    1    4    4    0    0  0.74604865346E+00  0.16630808630E+01 -0.90784021249E+01  0.92601822729E+01  0.10566000000E+00 0. -1.
        -13    1    4    4    0    0  0.97462528155E+01  0.17784576079E+02 -0.96441572649E+02  0.98550843169E+02  0.10566000000E+00 0.  1.
        -14    1    4    4    0    0  0.16081650340E+01  0.47235992027E+01 -0.22408231475E+02  0.22957077821E+02  0.00000000000E+00 0.  1.
<mgrwt>
<rscale>  0 0.79935497E+02</rscale>
<asrwt>0</asrwt>
<pdfrwt beam="1">  1        2 0.22920906E-01 0.79935497E+02</pdfrwt>
<pdfrwt beam="2">  1       -1 0.16495325E-02 0.79935497E+02</pdfrwt>
<totfact> 0.20029150E+05</totfact>
</mgrwt>
</event>
<event>
 8    1  0.2389776E-016  0.7977232E+02  0.7818608E-02  0.1329699E+00
          2   -1    0    0  501    0  0.00000000000E+00  0.00000000000E+00  0.44334162189E+03  0.44334162190E+03  0.25500000000E-02 0. -1.
         -1   -1    0    0    0  501 -0.00000000000E+00 -0.00000000000E+00 -0.35884407458E+01  0.35884442852E+01  0.50400000000E-02 0.  1.
         24    2    1    2    0    0 -0.15959455979E-15  0.00000000000E+00  0.43975318114E+03  0.44693006618E+03  0.79772324345E+02 0.  0.
         66    2    3    3    0    0  0.34133957014E-01 -0.13345863440E+02  0.43044950515E+03  0.43066099162E+03  0.19999959814E+01 0.  0.
        -13    1    3    3    0    0 -0.34133957014E-01  0.13345863440E+02  0.93036759966E+01  0.16269074564E+02  0.10566000000E+00 0.  1.
         13    1    4    4    0    0 -0.50252450342E+00 -0.95648528940E+01  0.30084740890E+03  0.30099985639E+03  0.10566000000E+00 0. -1.
        -13    1    4    4    0    0 -0.12590129159E+00 -0.11023196285E+01  0.46050331151E+02  0.46063815765E+02  0.10566000000E+00 0.  1.
         14    1    4    4    0    0  0.66255975203E+00 -0.26786909174E+01  0.83551765098E+02  0.83597319464E+02  0.00000000000E+00 0. -1.
<mgrwt>
<rscale>  0 0.79772324E+02</rscale>
<asrwt>0</asrwt>
<pdfrwt beam="1">  1        2 0.68206435E-01 0.79772324E+02</pdfrwt>
<pdfrwt beam="2">  1       -1 0.55206783E-03 0.79772324E+02</pdfrwt>
<totfact> 0.29489687E+05</totfact>
</mgrwt>
</event>
<event>
 8    1  0.2389776E-016  0.7421483E+02  0.7818608E-02  0.1346320E+00
         -1   -1    0    0    0  501 -0.00000000000E+00  0.00000000000E+00  0.22488610625E+02  0.22488611190E+02  0.50400000000E-02 0.  1.
          2   -1    0    0  501    0  0.00000000000E+00 -0.00000000000E+00 -0.61229218165E+02  0.61229218218E+02  0.25500000000E-02 0. -1.
         24    2    1    2    0    0 -0.35527136788E-14  0.00000000000E+00 -0.38740607540E+02  0.83717829408E+02  0.74214825259E+02 0.  0.
         66    2    3    3    0    0 -0.28098157342E+02  0.27429751312E+01 -0.46502664307E+02  0.54438296490E+02  0.19999946419E+01 0.  0.
        -13    1    3    3    0    0  0.28098157342E+02 -0.27429751312E+01  0.77620567663E+01  0.29279532918E+02  0.10566000000E+00 0.  1.
         13    1    4    4    0    0 -0.21259069479E+02  0.24594646653E+01 -0.35201076941E+02  0.41196164669E+02  0.10566000000E+00 0. -1.
        -13    1    4    4    0    0 -0.47545453704E+01 -0.15976798240E+00 -0.74410169744E+01  0.88323906806E+01  0.10566000000E+00 0.  1.
         14    1    4    4    0    0 -0.20845424925E+01  0.44327844838E+00 -0.38605703909E+01  0.44097411408E+01  0.00000000000E+00 0. -1.
<mgrwt>
<rscale>  0 0.74214825E+02</rscale>
<asrwt>0</asrwt>
<pdfrwt beam="1">  1        2 0.94198797E-02 0.74214825E+02</pdfrwt>
<pdfrwt beam="2">  1       -1 0.34597863E-02 0.74214825E+02</pdfrwt>
<totfact> 0.19158864E+05</totfact>
</mgrwt>
</event>
<event>
 8    1  0.2389776E-016  0.7939466E+02  0.7818608E-02  0.1330778E+00
          2   -1    0    0  501    0  0.00000000000E+00  0.00000000000E+00  0.14525676574E+03  0.14525676576E+03  0.25500000000E-02 0. -1.
         -1   -1    0    0    0  501 -0.00000000000E+00 -0.00000000000E+00 -0.10848913430E+02  0.10848914600E+02  0.50400000000E-02 0.  1.
         24    2    1    2    0    0  0.00000000000E+00  0.00000000000E+00  0.13440785231E+03  0.15610568037E+03  0.79394664046E+02 0.  0.
         66    2    3    3    0    0 -0.18341186158E+02  0.28620547141E+02  0.10746174693E+03  0.11272782210E+03  0.19999984012E+01 0.  0.
        -13    1    3    3    0    0  0.18341186158E+02 -0.28620547141E+02  0.26946105380E+02  0.43377858263E+02  0.10566000000E+00 0.  1.
         13    1    4    4    0    0 -0.12194715198E+02  0.19549362753E+02  0.74630042334E+02  0.78105973175E+02  0.10566000000E+00 0. -1.
        -13    1    4    4    0    0 -0.41833814357E+01  0.67527829161E+01  0.23207482683E+02  0.24529557147E+02  0.10566000000E+00 0.  1.
         14    1    4    4    0    0 -0.19630895244E+01  0.23184014725E+01  0.96242219170E+01  0.10092291780E+02  0.00000000000E+00 0. -1.
<mgrwt>
<rscale>  0 0.79394664E+02</rscale>
<asrwt>0</asrwt>
<pdfrwt beam="1">  1        2 0.22347195E-01 0.79394664E+02</pdfrwt>
<pdfrwt beam="2">  1       -1 0.16690637E-02 0.79394664E+02</pdfrwt>
<totfact> 0.20228391E+05</totfact>
</mgrwt>
</event>
<event>
 8    1  0.2389776E-016  0.8196999E+02  0.7818608E-02  0.1323552E+00
         -1   -1    0    0    0  501 -0.00000000000E+00  0.00000000000E+00  0.21952542114E+02  0.21952542693E+02  0.50400000000E-02 0.  1.
          2   -1    0    0  501    0  0.00000000000E+00 -0.00000000000E+00 -0.76518226310E+02  0.76518226352E+02  0.25500000000E-02 0. -1.
         24    2    1    2    0    0  0.71054273576E-14 -0.17763568394E-14 -0.54565684196E+02  0.98470769045E+02  0.81969985145E+02 0.  0.
         66    2    3    3    0    0 -0.38017010299E+02  0.13080226993E+02 -0.36710632146E+02  0.54479867054E+02  0.19999978680E+01 0.  0.
        -13    1    3    3    0    0  0.38017010299E+02 -0.13080226993E+02 -0.17855052050E+02  0.43990901991E+02  0.10566000000E+00 0.  1.
         13    1    4    4    0    0 -0.37253960920E+02  0.12742026096E+02 -0.35935840341E+02  0.53306778352E+02  0.10566000000E+00 0. -1.
        -13    1    4    4    0    0 -0.19147284594E+00  0.60555032142E-02 -0.16934662809E+00  0.27666014512E+00  0.10566000000E+00 0. -1.
         14    1    4    4    0    0 -0.57157653256E+00  0.33214539397E+00 -0.60544517706E+00  0.89642855695E+00  0.00000000000E+00 0. -1.
<mgrwt>
<rscale>  0 0.81969985E+02</rscale>
<asrwt>0</asrwt>
<pdfrwt beam="1">  1        2 0.11772035E-01 0.81969985E+02</pdfrwt>
<pdfrwt beam="2">  1       -1 0.33773143E-02 0.81969985E+02</pdfrwt>
<totfact> 0.15456731E+05</totfact>
</mgrwt>
</event>
<event>
 8    1  0.2389776E-016  0.8037500E+02  0.7818608E-02  0.1327991E+00
         -1   -1    0    0    0  501 -0.00000000000E+00  0.00000000000E+00  0.11428224927E+01  0.11428336062E+01  0.50400000000E-02 0.  1.
          2   -1    0    0  501    0  0.00000000000E+00 -0.00000000000E+00 -0.14131915963E+04  0.14131915963E+04  0.25500000000E-02 0. -1.
         24    2    1    2    0    0  0.22204460493E-15  0.00000000000E+00 -0.14120487738E+04  0.14143344299E+04  0.80374996196E+02 0.  0.
         66    2    3    3    0    0  0.19316358234E+01 -0.11025039599E+02 -0.13851882790E+04  0.13852349444E+04  0.20000008511E+01 0.  0.
        -13    1    3    3    0    0 -0.19316358234E+01  0.11025039599E+02 -0.26860494721E+02  0.29099485490E+02  0.10566000000E+00 0.  1.
         13    1    4    4    0    0  0.70277472807E+00 -0.65476791459E+01 -0.78609353275E+03  0.78612112259E+03  0.10566000000E+00 0. -1.
        -13    1    4    4    0    0  0.88000676797E+00 -0.40491226973E+01 -0.48393998222E+03  0.48395773304E+03  0.10566000000E+00 0.  1.
        -14    1    4    4    0    0  0.34885432735E+00 -0.42823775599E+00 -0.11515476407E+03  0.11515608874E+03  0.00000000000E+00 0.  1.
<mgrwt>
<rscale>  0 0.80374996E+02</rscale>
<asrwt>0</asrwt>
<pdfrwt beam="1">  1        2 0.21741269E+00 0.80374996E+02</pdfrwt>
<pdfrwt beam="2">  1       -1 0.17582083E-03 0.80374996E+02</pdfrwt>
<totfact> 0.33512181E+05</totfact>
</mgrwt>
</event>
<event>
 8    1  0.2389776E-016  0.7681540E+02  0.7818608E-02  0.1338340E+00
         -1   -1    0    0    0  501 -0.00000000000E+00  0.00000000000E+00  0.15363612493E+02  0.15363613319E+02  0.50400000000E-02 0.  1.
          2   -1    0    0  501    0  0.00000000000E+00 -0.00000000000E+00 -0.96015913830E+02  0.96015913864E+02  0.25500000000E-02 0. -1.
         24    2    1    2    0    0  0.00000000000E+00  0.00000000000E+00 -0.80652301338E+02  0.11137952718E+03  0.76815397965E+02 0.  0.
         66    2    3    3    0    0 -0.34765398520E+02  0.14443740804E+02 -0.51193462479E+02  0.63576923347E+02  0.19999997426E+01 0.  0.
        -13    1    3    3    0    0  0.34765398520E+02 -0.14443740804E+02 -0.29458838859E+02  0.47802603837E+02  0.10566000000E+00 0.  1.
         13    1    4    4    0    0 -0.66148626075E+01  0.29640384809E+01 -0.98081643840E+01  0.12196441450E+02  0.10566000000E+00 0.  1.
        -13    1    4    4    0    0 -0.57655355278E+01  0.30534714790E+01 -0.93176838042E+01  0.11375213559E+02  0.10566000000E+00 0.  1.
         14    1    4    4    0    0 -0.22385000384E+02  0.84262308439E+01 -0.32067614291E+02  0.40005268337E+02  0.00000000000E+00 0. -1.
<mgrwt>
<rscale>  0 0.76815398E+02</rscale>
<asrwt>0</asrwt>
<pdfrwt beam="1">  1        2 0.14771679E-01 0.76815398E+02</pdfrwt>
<pdfrwt beam="2">  1       -1 0.23636328E-02 0.76815398E+02</pdfrwt>
<totfact> 0.19538822E+05</totfact>
</mgrwt>
</event>
<event>
 8    1  0.2389776E-016  0.7874449E+02  0.7818608E-02  0.1332653E+00
          2   -1    0    0  501    0  0.00000000000E+00  0.00000000000E+00  0.64235296325E+03  0.64235296325E+03  0.25500000000E-02 0. -1.
         -1   -1    0    0    0  501 -0.00000000000E+00 -0.00000000000E+00 -0.24132711633E+01  0.24132764262E+01  0.50400000000E-02 0.  1.
         24    2    1    2    0    0  0.35527136788E-14  0.00000000000E+00  0.63993969208E+03  0.64476623968E+03  0.78744487582E+02 0.  0.
         66    2    3    3    0    0  0.30878388077E+02  0.79904122636E+01  0.50883004226E+03  0.50983265239E+03  0.19999987701E+01 0.  0.
        -13    1    3    3    0    0 -0.30878388077E+02 -0.79904122636E+01  0.13110964982E+03  0.13493358729E+03  0.10566000000E+00 0.  1.
         13    1    4    4    0    0  0.14132190400E+02  0.37219592966E+01  0.22393198809E+03  0.22440837382E+03  0.10566000000E+00 0. -1.
        -13    1    4    4    0    0  0.94099619788E+01  0.18689496888E+01  0.15283614973E+03  0.15313699810E+03  0.10566000000E+00 0.  1.
         14    1    4    4    0    0  0.73362356982E+01  0.23995032783E+01  0.13206190443E+03  0.13228728046E+03  0.00000000000E+00 0. -1.
<mgrwt>
<rscale>  0 0.78744488E+02</rscale>
<asrwt>0</asrwt>
<pdfrwt beam="1">  1        2 0.98823538E-01 0.78744488E+02</pdfrwt>
<pdfrwt beam="2">  1       -1 0.37127287E-03 0.78744488E+02</pdfrwt>
<totfact> 0.34132574E+05</totfact>
</mgrwt>
</event>
<event>
 8    1  0.2389776E-016  0.7609663E+02  0.7818608E-02  0.1340508E+00
          2   -1    0    0  501    0  0.00000000000E+00  0.00000000000E+00  0.12588638559E+02  0.12588638817E+02  0.25500000000E-02 0. -1.
         -1   -1    0    0    0  501 -0.00000000000E+00 -0.00000000000E+00 -0.11499848079E+03  0.11499848090E+03  0.50400000000E-02 0.  1.
         24    2    1    2    0    0  0.35527136788E-14  0.00000000000E+00 -0.10240984223E+03  0.12758711972E+03  0.76096631542E+02 0.  0.
         66    2    3    3    0    0  0.30308007592E+02  0.22834661898E+02 -0.47246981559E+02  0.60632288154E+02  0.19999980218E+01 0.  0.
        -13    1    3    3    0    0 -0.30308007592E+02 -0.22834661898E+02 -0.55162860669E+02  0.66954831562E+02  0.10566000000E+00 0.  1.
         13    1    4    4    0    0  0.26446087874E+02  0.20515942525E+02 -0.41341658974E+02  0.53192512559E+02  0.10566000000E+00 0. -1.
        -13    1    4    4    0    0  0.30257324004E+01  0.17763906734E+01 -0.48640262732E+01  0.59983777812E+01  0.10566000000E+00 0.  1.
         14    1    4    4    0    0  0.83618731747E+00  0.54232870022E+00 -0.10412963117E+01  0.14413978138E+01  0.00000000000E+00 0. -1.
<mgrwt>
<rscale>  0 0.76096632E+02</rscale>
<asrwt>0</asrwt>
<pdfrwt beam="1">  1        2 0.19367137E-02 0.76096632E+02</pdfrwt>
<pdfrwt beam="2">  1       -1 0.17692073E-01 0.76096632E+02</pdfrwt>
<totfact> 0.13029930E+05</totfact>
</mgrwt>
</event>
<event>
 8    1  0.2389776E-016  0.7709053E+02  0.7818608E-02  0.1337517E+00
         -1   -1    0    0    0  501 -0.00000000000E+00  0.00000000000E+00  0.12711754816E+02  0.12711755816E+02  0.50400000000E-02 0.  1.
          2   -1    0    0  501    0  0.00000000000E+00 -0.00000000000E+00 -0.11687902152E+03  0.11687902155E+03  0.25500000000E-02 0. -1.
         24    2    1    2    0    0  0.00000000000E+00 -0.35527136788E-14 -0.10416726671E+03  0.12959077737E+03  0.77090532008E+02 0.  0.
         66    2    3    3    0    0 -0.20378616300E+02 -0.22129090449E+02 -0.92559210076E+02  0.97345734504E+02  0.20000024957E+01 0.  0.
        -13    1    3    3    0    0  0.20378616300E+02  0.22129090449E+02 -0.11608056630E+02  0.32245042861E+02  0.10566000000E+00 0.  1.
         13    1    4    4    0    0 -0.90752920425E+01 -0.98628672948E+01 -0.43694385373E+02  0.45703911803E+02  0.10566000000E+00 0. -1.
        -13    1    4    4    0    0 -0.20164123792E+01 -0.24760379746E+01 -0.10310227347E+02  0.10793916570E+02  0.10566000000E+00 0. -1.
         14    1    4    4    0    0 -0.92869118777E+01 -0.97901851791E+01 -0.38554597356E+02  0.40847906131E+02  0.00000000000E+00 0. -1.
<mgrwt>
<rscale>  0 0.77090532E+02</rscale>
<asrwt>0</asrwt>
<pdfrwt beam="1">  1        2 0.17981387E-01 0.77090532E+02</pdfrwt>
<pdfrwt beam="2">  1       -1 0.19556548E-02 0.77090532E+02</pdfrwt>
<totfact> 0.20462705E+05</totfact>
</mgrwt>
</event>
<event>
 8    1  0.2389776E-016  0.7939128E+02  0.7818608E-02  0.1330788E+00
         -1   -1    0    0    0  501 -0.00000000000E+00  0.00000000000E+00  0.12612556615E+02  0.12612557622E+02  0.50400000000E-02 0.  1.
          2   -1    0    0  501    0  0.00000000000E+00 -0.00000000000E+00 -0.12493453069E+03  0.12493453071E+03  0.25500000000E-02 0. -1.
         24    2    1    2    0    0  0.00000000000E+00  0.00000000000E+00 -0.11232197407E+03  0.13754708834E+03  0.79391281952E+02 0.  0.
         66    2    3    3    0    0  0.20835645625E+02 -0.16712841747E+01 -0.11461157856E+03  0.11651923129E+03  0.20000000062E+01 0.  0.
        -13    1    3    3    0    0 -0.20835645625E+02  0.16712841747E+01  0.22896044861E+01  0.21027857051E+02  0.10566000000E+00 0.  1.
         13    1    4    4    0    0  0.67414994036E+01 -0.51364402861E+00 -0.35483515344E+02  0.36122052401E+02  0.10566000000E+00 0. -1.
        -13    1    4    4    0    0  0.74688667796E+01 -0.60473468500E-01 -0.38524729427E+02  0.39242242156E+02  0.10566000000E+00 0.  1.
        -14    1    4    4    0    0  0.66252794421E+01 -0.10971666776E+01 -0.40603333788E+02  0.41154936728E+02  0.00000000000E+00 0.  1.
<mgrwt>
<rscale>  0 0.79391282E+02</rscale>
<asrwt>0</asrwt>
<pdfrwt beam="1">  1        2 0.19220696E-01 0.79391282E+02</pdfrwt>
<pdfrwt beam="2">  1       -1 0.19403935E-02 0.79391282E+02</pdfrwt>
<totfact> 0.19303733E+05</totfact>
</mgrwt>
</event>
<event>
 8    1  0.2389776E-016  0.7578593E+02  0.7818608E-02  0.1341454E+00
         -1   -1    0    0    0  501 -0.00000000000E+00  0.00000000000E+00  0.84965926428E+02  0.84965926577E+02  0.50400000000E-02 0.  1.
          2   -1    0    0  501    0  0.00000000000E+00 -0.00000000000E+00 -0.16899444206E+02  0.16899444399E+02  0.25500000000E-02 0. -1.
         24    2    1    2    0    0  0.00000000000E+00  0.00000000000E+00  0.68066482221E+02  0.10186537098E+03  0.75785934065E+02 0.  0.
         66    2    3    3    0    0 -0.18318508948E+02  0.90923053727E+01 -0.87788988394E+01  0.22345175167E+02  0.20000003382E+01 0.  0.
        -13    1    3    3    0    0  0.18318508948E+02 -0.90923053727E+01  0.76845381061E+02  0.79520195809E+02  0.10566000000E+00 0.  1.
         13    1    4    4    0    0 -0.34799504832E+01  0.17217141081E+01 -0.10387961361E+01  0.40205243792E+01  0.10566000000E+00 0. -1.
        -13    1    4    4    0    0 -0.14136665104E+02  0.67688484686E+01 -0.74592731033E+01  0.17358413785E+02  0.10566000000E+00 0.  1.
        -14    1    4    4    0    0 -0.70189336060E+00  0.60174279596E+00 -0.28082959991E+00  0.96623700319E+00  0.00000000000E+00 0.  1.
<mgrwt>
<rscale>  0 0.75785934E+02</rscale>
<asrwt>0</asrwt>
<pdfrwt beam="1">  1        2 0.25999145E-02 0.75785934E+02</pdfrwt>
<pdfrwt beam="2">  1       -1 0.13071681E-01 0.75785934E+02</pdfrwt>
<totfact> 0.14022497E+05</totfact>
</mgrwt>
</event>
<event>
 8    1  0.2389776E-016  0.7759921E+02  0.7818608E-02  0.1336006E+00
          2   -1    0    0  501    0  0.00000000000E+00  0.00000000000E+00  0.74418475116E+03  0.74418475117E+03  0.25500000000E-02 0. -1.
         -1   -1    0    0    0  501 -0.00000000000E+00 -0.00000000000E+00 -0.20228939547E+01  0.20229002332E+01  0.50400000000E-02 0.  1.
         24    2    1    2    0    0  0.35527136788E-14 -0.35527136788E-14  0.74216185721E+03  0.74620765140E+03  0.77599205626E+02 0.  0.
         66    2    3    3    0    0  0.10936887465E+02 -0.21597088829E+02  0.66258015067E+03  0.66302526785E+03  0.19999986253E+01 0.  0.
        -13    1    3    3    0    0 -0.10936887465E+02  0.21597088829E+02  0.79581706539E+02  0.83182383549E+02  0.10566000000E+00 0.  1.
         13    1    4    4    0    0  0.56146360802E+00 -0.77702988488E+00  0.30380789108E+02  0.30396093955E+02  0.10566000000E+00 0. -1.
        -13    1    4    4    0    0  0.42362504690E+01 -0.10213265810E+02  0.29459368464E+03  0.29480113095E+03  0.10566000000E+00 0.  1.
        -14    1    4    4    0    0  0.61391733882E+01 -0.10606793134E+02  0.33760567692E+03  0.33782804294E+03  0.00000000000E+00 0.  1.
<mgrwt>
<rscale>  0 0.77599206E+02</rscale>
<asrwt>0</asrwt>
<pdfrwt beam="1">  1        2 0.11448989E+00 0.77599206E+02</pdfrwt>
<pdfrwt beam="2">  1       -1 0.31121512E-03 0.77599206E+02</pdfrwt>
<totfact> 0.36687859E+05</totfact>
</mgrwt>
</event>
<event>
 8    1  0.2389776E-016  0.7993166E+02  0.7818608E-02  0.1329245E+00
          2   -1    0    0  501    0  0.00000000000E+00  0.00000000000E+00  0.11192257279E+04  0.11192257279E+04  0.25500000000E-02 0. -1.
         -1   -1    0    0    0  501 -0.00000000000E+00 -0.00000000000E+00 -0.14271138996E+01  0.14271227992E+01  0.50400000000E-02 0.  1.
         24    2    1    2    0    0  0.00000000000E+00 -0.35527136788E-14  0.11177986140E+04  0.11206528507E+04  0.79931660347E+02 0.  0.
         66    2    3    3    0    0 -0.17199440060E+02  0.16003828949E+02  0.10121050423E+04  0.10123796520E+04  0.19999995392E+01 0.  0.
        -13    1    3    3    0    0  0.17199440060E+02 -0.16003828949E+02  0.10569357176E+03  0.10827319870E+03  0.10566000000E+00 0.  1.
         13    1    4    4    0    0 -0.67692627249E+01  0.71183022210E+01  0.39782016166E+03  0.39794143455E+03  0.10566000000E+00 0. -1.
        -13    1    4    4    0    0 -0.19759317772E+01  0.17389098502E+01  0.13232770892E+03  0.13235392637E+03  0.10566000000E+00 0. -1.
         14    1    4    4    0    0 -0.84542455575E+01  0.71466168779E+01  0.48195717170E+03  0.48208429113E+03  0.00000000000E+00 0. -1.
<mgrwt>
<rscale>  0 0.79931660E+02</rscale>
<asrwt>0</asrwt>
<pdfrwt beam="1">  1        2 0.17218841E+00 0.79931660E+02</pdfrwt>
<pdfrwt beam="2">  1       -1 0.21955688E-03 0.79931660E+02</pdfrwt>
<totfact> 0.35306374E+05</totfact>
</mgrwt>
</event>
<event>
 8    1  0.2389776E-016  0.8084522E+02  0.7818608E-02  0.1326670E+00
          2   -1    0    0  501    0  0.00000000000E+00  0.00000000000E+00  0.10235765188E+03  0.10235765191E+03  0.25500000000E-02 0. -1.
         -1   -1    0    0    0  501 -0.00000000000E+00 -0.00000000000E+00 -0.15963509314E+02  0.15963510110E+02  0.50400000000E-02 0.  1.
         24    2    1    2    0    0  0.71054273576E-14  0.35527136788E-14  0.86394142561E+02  0.11832116202E+03  0.80845219476E+02 0.  0.
         66    2    3    3    0    0 -0.29836483052E+02 -0.23313924532E+02  0.22617602281E+02  0.44150999201E+02  0.19999998788E+01 0.  0.
        -13    1    3    3    0    0  0.29836483052E+02  0.23313924532E+02  0.63776540280E+02  0.74170162816E+02  0.10566000000E+00 0.  1.
         13    1    4    4    0    0 -0.13186856888E+02 -0.95196365015E+01  0.10272753716E+02  0.19236873620E+02  0.10566000000E+00 0. -1.
        -13    1    4    4    0    0 -0.13521464367E+02 -0.10918968403E+02  0.10242375049E+02  0.20173529197E+02  0.10566000000E+00 0.  1.
        -14    1    4    4    0    0 -0.31281617974E+01 -0.28753196277E+01  0.21024735155E+01  0.47405963840E+01  0.00000000000E+00 0.  1.
<mgrwt>
<rscale>  0 0.80845219E+02</rscale>
<asrwt>0</asrwt>
<pdfrwt beam="1">  1        2 0.15747331E-01 0.80845219E+02</pdfrwt>
<pdfrwt beam="2">  1       -1 0.24559246E-02 0.80845219E+02</pdfrwt>
<totfact> 0.17347006E+05</totfact>
</mgrwt>
</event>
<event>
 8    1  0.2389776E-016  0.7972498E+02  0.7818608E-02  0.1329834E+00
         -1   -1    0    0    0  501 -0.00000000000E+00  0.00000000000E+00  0.31383715166E+03  0.31383715170E+03  0.50400000000E-02 0.  1.
          2   -1    0    0  501    0  0.00000000000E+00 -0.00000000000E+00 -0.50631932274E+01  0.50631938696E+01  0.25500000000E-02 0. -1.
         24    2    1    2    0    0  0.00000000000E+00  0.00000000000E+00  0.30877395843E+03  0.31890034557E+03  0.79724983528E+02 0.  0.
         66    2    3    3    0    0 -0.35889540766E+02  0.17250521011E+02  0.15917203676E+03  0.16408953928E+03  0.20000009107E+01 0.  0.
        -13    1    3    3    0    0  0.35889540766E+02 -0.17250521011E+02  0.14960192167E+03  0.15481080629E+03  0.10566000000E+00 0.  1.
         13    1    4    4    0    0 -0.18930629264E+02  0.86813671764E+01  0.82380526879E+02  0.84972332163E+02  0.10566000000E+00 0. -1.
        -13    1    4    4    0    0 -0.56524933141E+01  0.35166197888E+01  0.26803203052E+02  0.27617750692E+02  0.10566000000E+00 0.  1.
        -14    1    4    4    0    0 -0.11306418188E+02  0.50525340462E+01  0.49988306830E+02  0.51499456427E+02  0.00000000000E+00 0.  1.
<mgrwt>
<rscale>  0 0.79724984E+02</rscale>
<asrwt>0</asrwt>
<pdfrwt beam="1">  1        2 0.77895270E-03 0.79724984E+02</pdfrwt>
<pdfrwt beam="2">  1       -1 0.48282649E-01 0.79724984E+02</pdfrwt>
<totfact> 0.85591999E+04</totfact>
</mgrwt>
</event>
<event>
 8    1  0.2389776E-016  0.7997760E+02  0.7818608E-02  0.1329115E+00
         -1   -1    0    0    0  501 -0.00000000000E+00  0.00000000000E+00  0.13035199311E+03  0.13035199320E+03  0.50400000000E-02 0.  1.
          2   -1    0    0  501    0  0.00000000000E+00 -0.00000000000E+00 -0.12267583971E+02  0.12267584236E+02  0.25500000000E-02 0. -1.
         24    2    1    2    0    0  0.00000000000E+00 -0.71054273576E-14  0.11808440914E+03  0.14261957744E+03  0.79977598039E+02 0.  0.
         66    2    3    3    0    0 -0.18359466733E+02 -0.35211545057E+02  0.67088978174E+02  0.77986241869E+02  0.20000010857E+01 0.  0.
        -13    1    3    3    0    0  0.18359466733E+02  0.35211545057E+02  0.50995430961E+02  0.64633335570E+02  0.10566000000E+00 0.  1.
         13    1    4    4    0    0 -0.14169049287E+02 -0.28521982511E+02  0.53551942402E+02  0.62306397289E+02  0.10566000000E+00 0. -1.
        -13    1    4    4    0    0 -0.13227805326E+01 -0.19061373027E+01  0.35840526396E+01  0.42707967773E+01  0.10566000000E+00 0.  1.
        -14    1    4    4    0    0 -0.28676369125E+01 -0.47834252435E+01  0.99529831331E+01  0.11409047803E+02  0.00000000000E+00 0.  1.
<mgrwt>
<rscale>  0 0.79977598E+02</rscale>
<asrwt>0</asrwt>
<pdfrwt beam="1">  1        2 0.18873208E-02 0.79977598E+02</pdfrwt>
<pdfrwt beam="2">  1       -1 0.20054151E-01 0.79977598E+02</pdfrwt>
<totfact> 0.11174448E+05</totfact>
</mgrwt>
</event>
<event>
 8    1  0.2389776E-016  0.8009338E+02  0.7818608E-02  0.1328787E+00
         -1   -1    0    0    0  501 -0.00000000000E+00  0.00000000000E+00  0.12220501330E+03  0.12220501340E+03  0.50400000000E-02 0.  1.
          2   -1    0    0  501    0  0.00000000000E+00 -0.00000000000E+00 -0.13123335594E+02  0.13123335842E+02  0.25500000000E-02 0. -1.
         24    2    1    2    0    0 -0.22204460493E-15  0.00000000000E+00  0.10908167771E+03  0.13532834925E+03  0.80093381116E+02 0.  0.
         66    2    3    3    0    0  0.10051231500E+01 -0.30868499274E+02  0.11568455501E+02  0.33040939519E+02  0.20000004111E+01 0.  0.
        -13    1    3    3    0    0 -0.10051231500E+01  0.30868499274E+02  0.97513222204E+02  0.10228740973E+03  0.10566000000E+00 0.  1.
         13    1    4    4    0    0  0.56798373914E-01 -0.11114994403E+02  0.47317594627E+01  0.12080854203E+02  0.10566000000E+00 0. -1.
        -13    1    4    4    0    0  0.78764061595E+00 -0.17987819298E+02  0.58547186207E+01  0.18933328155E+02  0.10566000000E+00 0.  1.
        -14    1    4    4    0    0  0.16068416011E+00 -0.17656855728E+01  0.98197741784E+00  0.20267571612E+01  0.00000000000E+00 0.  1.
<mgrwt>
<rscale>  0 0.80093381E+02</rscale>
<asrwt>0</asrwt>
<pdfrwt beam="1">  1        2 0.20189747E-02 0.80093381E+02</pdfrwt>
<pdfrwt beam="2">  1       -1 0.18800772E-01 0.80093381E+02</pdfrwt>
<totfact> 0.11303729E+05</totfact>
</mgrwt>
</event>
<event>
 8    1  0.2389776E-016  0.7126083E+02  0.7818608E-02  0.1355857E+00
         -1   -1    0    0    0  501 -0.00000000000E+00  0.00000000000E+00  0.19793028391E+02  0.19793029033E+02  0.50400000000E-02 0.  1.
          2   -1    0    0  501    0  0.00000000000E+00 -0.00000000000E+00 -0.64140080007E+02  0.64140080057E+02  0.25500000000E-02 0. -1.
         24    2    1    2    0    0 -0.17763568394E-14 -0.17763568394E-14 -0.44347051616E+02  0.83933109090E+02  0.71260829455E+02 0.  0.
         66    2    3    3    0    0  0.82543159432E+01  0.11151100293E+02 -0.60809400983E+02  0.62404038507E+02  0.20000011601E+01 0.  0.
        -13    1    3    3    0    0 -0.82543159432E+01 -0.11151100293E+02  0.16462349368E+02  0.21529070583E+02  0.10566000000E+00 0.  1.
         13    1    4    4    0    0  0.32600886603E+01  0.55558553593E+01 -0.29299890466E+02  0.29999840869E+02  0.10566000000E+00 0. -1.
        -13    1    4    4    0    0  0.32730115685E+01  0.43093653196E+01 -0.22791106239E+02  0.23424963646E+02  0.10566000000E+00 0.  1.
        -14    1    4    4    0    0  0.17212157144E+01  0.12858796143E+01 -0.87184042783E+01  0.89792339917E+01  0.00000000000E+00 0.  1.
<mgrwt>
<rscale>  0 0.71260829E+02</rscale>
<asrwt>0</asrwt>
<pdfrwt beam="1">  1        2 0.98677045E-02 0.71260829E+02</pdfrwt>
<pdfrwt beam="2">  1       -1 0.30450814E-02 0.71260829E+02</pdfrwt>
<totfact> 0.21585132E+05</totfact>
</mgrwt>
</event>
<event>
 8    1  0.2389776E-016  0.8145139E+02  0.7818608E-02  0.1324982E+00
          2   -1    0    0  501    0  0.00000000000E+00  0.00000000000E+00  0.19879494360E+04  0.19879494360E+04  0.25500000000E-02 0. -1.
         -1   -1    0    0    0  501 -0.00000000000E+00 -0.00000000000E+00 -0.83431044920E+00  0.83432567217E+00  0.50400000000E-02 0.  1.
         24    2    1    2    0    0 -0.17763568394E-14  0.00000000000E+00  0.19871151256E+04  0.19887837617E+04  0.81451387371E+02 0.  0.
         66    2    3    3    0    0  0.10016042503E+02  0.33148967610E+01  0.19539774037E+04  0.19540069099E+04  0.19999998788E+01 0.  0.
        -13    1    3    3    0    0 -0.10016042503E+02 -0.33148967610E+01  0.33137721861E+02  0.34776851814E+02  0.10566000000E+00 0.  1.
         13    1    4    4    0    0  0.50846570390E+01  0.15203827821E+01  0.10516666337E+04  0.10516800298E+04  0.10566000000E+00 0. -1.
        -13    1    4    4    0    0  0.67264543609E+00  0.69819871189E+00  0.19513982856E+03  0.19514226551E+03  0.10566000000E+00 0.  1.
        -14    1    4    4    0    0  0.42587400278E+01  0.10963152670E+01  0.70717094142E+03  0.70718461463E+03  0.00000000000E+00 0.  1.
<mgrwt>
<rscale>  0 0.81451387E+02</rscale>
<asrwt>0</asrwt>
<pdfrwt beam="1">  1        2 0.30583348E+00 0.81451387E+02</pdfrwt>
<pdfrwt beam="2">  1       -1 0.12835868E-03 0.81451387E+02</pdfrwt>
<totfact> 0.26636498E+05</totfact>
</mgrwt>
</event>
<event>
 8    1  0.2389776E-016  0.7965526E+02  0.7818608E-02  0.1330033E+00
         -1   -1    0    0    0  501 -0.00000000000E+00  0.00000000000E+00  0.21126845493E+01  0.21126905610E+01  0.50400000000E-02 0.  1.
          2   -1    0    0  501    0  0.00000000000E+00 -0.00000000000E+00 -0.75081620058E+03  0.75081620058E+03  0.25500000000E-02 0. -1.
         24    2    1    2    0    0  0.00000000000E+00  0.00000000000E+00 -0.74870351603E+03  0.75292889114E+03  0.79655258487E+02 0.  0.
         66    2    3    3    0    0  0.16131312494E+02  0.16946741764E+01 -0.71815657919E+03  0.71834251120E+03  0.19999998146E+01 0.  0.
        -13    1    3    3    0    0 -0.16131312494E+02 -0.16946741764E+01 -0.30546936836E+02  0.34586379942E+02  0.10566000000E+00 0.  1.
         13    1    4    4    0    0  0.26456734230E+01  0.41968496068E+00 -0.11751074328E+03  0.11754131901E+03  0.10566000000E+00 0. -1.
        -13    1    4    4    0    0  0.54085493883E-01 -0.62646283130E-01 -0.11325102975E+02  0.11325898253E+02  0.10566000000E+00 0.  1.
        -14    1    4    4    0    0  0.13431553577E+02  0.13376354988E+01 -0.58932073293E+03  0.58947529394E+03  0.00000000000E+00 0.  1.
<mgrwt>
<rscale>  0 0.79655258E+02</rscale>
<asrwt>0</asrwt>
<pdfrwt beam="1">  1        2 0.11550997E+00 0.79655258E+02</pdfrwt>
<pdfrwt beam="2">  1       -1 0.32502946E-03 0.79655258E+02</pdfrwt>
<totfact> 0.34343350E+05</totfact>
</mgrwt>
</event>
<event>
 8    1  0.2389776E-016  0.7918202E+02  0.7818608E-02  0.1331389E+00
          2   -1    0    0  501    0  0.00000000000E+00  0.00000000000E+00  0.59753352347E+01  0.59753357788E+01  0.25500000000E-02 0. -1.
         -1   -1    0    0    0  501 -0.00000000000E+00 -0.00000000000E+00 -0.26231966817E+03  0.26231966822E+03  0.50400000000E-02 0.  1.
         24    2    1    2    0    0 -0.35527136788E-14  0.00000000000E+00 -0.25634433294E+03  0.26829500400E+03  0.79182019056E+02 0.  0.
         66    2    3    3    0    0 -0.15642380967E+02 -0.33947156343E+02 -0.17221718697E+03  0.17623805771E+03  0.19999985217E+01 0.  0.
        -13    1    3    3    0    0  0.15642380967E+02  0.33947156343E+02 -0.84127145971E+02  0.92056946285E+02  0.10566000000E+00 0.  1.
         13    1    4    4    0    0 -0.83615849714E+01 -0.18865853418E+02 -0.98380542708E+02  0.10052153439E+03  0.10566000000E+00 0. -1.
        -13    1    4    4    0    0 -0.63588925905E+01 -0.12601890461E+02 -0.61408976944E+02  0.63010449701E+02  0.10566000000E+00 0.  1.
        -14    1    4    4    0    0 -0.92190340506E+00 -0.24794124639E+01 -0.12427667314E+02  0.12706073623E+02  0.00000000000E+00 0.  1.
<mgrwt>
<rscale>  0 0.79182019E+02</rscale>
<asrwt>0</asrwt>
<pdfrwt beam="1">  1        2 0.91928259E-03 0.79182019E+02</pdfrwt>
<pdfrwt beam="2">  1       -1 0.40356863E-01 0.79182019E+02</pdfrwt>
<totfact> 0.93445317E+04</totfact>
</mgrwt>
</event>
<event>
 8    1  0.2389776E-016  0.8028082E+02  0.7818608E-02  0.1328256E+00
          2   -1    0    0  501    0  0.00000000000E+00  0.00000000000E+00  0.12543898754E+02  0.12543899013E+02  0.25500000000E-02 0. -1.
         -1   -1    0    0    0  501 -0.00000000000E+00 -0.00000000000E+00 -0.12844910142E+03  0.12844910152E+03  0.50400000000E-02 0.  1.
         24    2    1    2    0    0 -0.35527136788E-14  0.35527136788E-14 -0.11590520267E+03  0.14099300054E+03  0.80280820836E+02 0.  0.
         66    2    3    3    0    0 -0.18342385973E+02  0.29525350599E+02 -0.22817087591E+02  0.41627021528E+02  0.19999959981E+01 0.  0.
        -13    1    3    3    0    0  0.18342385973E+02 -0.29525350599E+02 -0.93088115080E+02  0.99365979008E+02  0.10566000000E+00 0.  1.
         13    1    4    4    0    0 -0.71639555656E+01  0.11567371614E+02 -0.91623795665E+01  0.16403862617E+02  0.10566000000E+00 0. -1.
        -13    1    4    4    0    0 -0.91634130096E+01  0.15121463317E+02 -0.12009429276E+02  0.21374385288E+02  0.10566000000E+00 0.  1.
         14    1    4    4    0    0 -0.20150173977E+01  0.28365156674E+01 -0.16452787482E+01  0.38487736233E+01  0.00000000000E+00 0. -1.
<mgrwt>
<rscale>  0 0.80280821E+02</rscale>
<asrwt>0</asrwt>
<pdfrwt beam="1">  1        2 0.19298307E-02 0.80280821E+02</pdfrwt>
<pdfrwt beam="2">  1       -1 0.19761399E-01 0.80280821E+02</pdfrwt>
<totfact> 0.11107250E+05</totfact>
</mgrwt>
</event>
<event>
 8    1  0.2389776E-016  0.7817651E+02  0.7818608E-02  0.1334307E+00
          2   -1    0    0  501    0  0.00000000000E+00  0.00000000000E+00  0.63755866268E+01  0.63755871367E+01  0.25500000000E-02 0. -1.
         -1   -1    0    0    0  501 -0.00000000000E+00 -0.00000000000E+00 -0.23964721612E+03  0.23964721617E+03  0.50400000000E-02 0.  1.
         24    2    1    2    0    0  0.44408920985E-15  0.71054273576E-14 -0.23327162949E+03  0.24602280331E+03  0.78176509399E+02 0.  0.
         66    2    3    3    0    0  0.33559173654E+01  0.34476699934E+02 -0.59892662466E+02  0.69217310208E+02  0.19999988321E+01 0.  0.
        -13    1    3    3    0    0 -0.33559173654E+01 -0.34476699934E+02 -0.17337896702E+03  0.17680549310E+03  0.10566000000E+00 0.  1.
         13    1    4    4    0    0  0.43605829812E+00  0.21680916338E+01 -0.31162973513E+01  0.38227269572E+01  0.10566000000E+00 0. -1.
        -13    1    4    4    0    0  0.43941101017E+00  0.64379319835E+01 -0.10829487505E+02  0.12606705117E+02  0.10566000000E+00 0. -1.
         14    1    4    4    0    0  0.24804480571E+01  0.25870676317E+02 -0.45946877610E+02  0.52787878133E+02  0.00000000000E+00 0. -1.
<mgrwt>
<rscale>  0 0.78176509E+02</rscale>
<asrwt>0</asrwt>
<pdfrwt beam="1">  1        2 0.98085971E-03 0.78176509E+02</pdfrwt>
<pdfrwt beam="2">  1       -1 0.36868796E-01 0.78176509E+02</pdfrwt>
<totfact> 0.99675772E+04</totfact>
</mgrwt>
</event>
<event>
 8    1  0.2389776E-016  0.8242894E+02  0.7818608E-02  0.1322296E+00
          2   -1    0    0  501    0  0.00000000000E+00  0.00000000000E+00  0.27438503260E+03  0.27438503261E+03  0.25500000000E-02 0. -1.
         -1   -1    0    0    0  501 -0.00000000000E+00 -0.00000000000E+00 -0.61906884141E+01  0.61906904657E+01  0.50400000000E-02 0.  1.
         24    2    1    2    0    0  0.35527136788E-14  0.35527136788E-14  0.26819434418E+03  0.28057572308E+03  0.82428939864E+02 0.  0.
         66    2    3    3    0    0  0.21099875756E+02  0.30502800376E+02  0.19516106199E+03  0.19866420338E+03  0.19999993645E+01 0.  0.
        -13    1    3    3    0    0 -0.21099875756E+02 -0.30502800376E+02  0.73033282189E+02  0.81911519697E+02  0.10566000000E+00 0.  1.
         13    1    4    4    0    0  0.12389479242E+02  0.18455279553E+02  0.11248112421E+03  0.11465649134E+03  0.10566000000E+00 0.  1.
        -13    1    4    4    0    0  0.27370333342E+01  0.41838488931E+01  0.27314172660E+02  0.27768167660E+02  0.10566000000E+00 0. -1.
        -14    1    4    4    0    0  0.59733631802E+01  0.78636719300E+01  0.55365765128E+02  0.56239544380E+02  0.00000000000E+00 0.  1.
<mgrwt>
<rscale>  0 0.82428940E+02</rscale>
<asrwt>0</asrwt>
<pdfrwt beam="1">  1        2 0.42213080E-01 0.82428940E+02</pdfrwt>
<pdfrwt beam="2">  1       -1 0.95241380E-03 0.82428940E+02</pdfrwt>
<totfact> 0.22816793E+05</totfact>
</mgrwt>
</event>
<event>
 8    1  0.2389776E-016  0.8001266E+02  0.7818608E-02  0.1329016E+00
         -1   -1    0    0    0  501 -0.00000000000E+00  0.00000000000E+00  0.78392755356E+01  0.78392771558E+01  0.50400000000E-02 0.  1.
          2   -1    0    0  501    0  0.00000000000E+00 -0.00000000000E+00 -0.20416508004E+03  0.20416508005E+03  0.25500000000E-02 0. -1.
         24    2    1    2    0    0  0.00000000000E+00  0.00000000000E+00 -0.19632580450E+03  0.21200435721E+03  0.80012661263E+02 0.  0.
         66    2    3    3    0    0 -0.26033307289E+02 -0.17350161744E+02 -0.16418562843E+03  0.16715167297E+03  0.19999987457E+01 0.  0.
        -13    1    3    3    0    0  0.26033307289E+02  0.17350161744E+02 -0.32140176074E+02  0.44852684235E+02  0.10566000000E+00 0.  1.
         13    1    4    4    0    0 -0.80172435931E+01 -0.56242018538E+01 -0.55845891735E+02  0.56698171303E+02  0.10566000000E+00 0. -1.
        -13    1    4    4    0    0 -0.13249628732E+02 -0.83858863705E+01 -0.78023049793E+02  0.79583184246E+02  0.10566000000E+00 0.  1.
        -14    1    4    4    0    0 -0.47664349634E+01 -0.33400735201E+01 -0.30316686898E+02  0.30870317424E+02  0.00000000000E+00 0.  1.
<mgrwt>
<rscale>  0 0.80012661E+02</rscale>
<asrwt>0</asrwt>
<pdfrwt beam="1">  1        2 0.31410008E-01 0.80012661E+02</pdfrwt>
<pdfrwt beam="2">  1       -1 0.12060427E-02 0.80012661E+02</pdfrwt>
<totfact> 0.22208049E+05</totfact>
</mgrwt>
</event>
<event>
 8    1  0.2389776E-016  0.8082319E+02  0.7818608E-02  0.1326731E+00
         -1   -1    0    0    0  501 -0.00000000000E+00  0.00000000000E+00  0.17864865916E+02  0.17864866626E+02  0.50400000000E-02 0.  1.
          2   -1    0    0  501    0  0.00000000000E+00 -0.00000000000E+00 -0.91413884430E+02  0.91413884466E+02  0.25500000000E-02 0. -1.
         24    2    1    2    0    0  0.00000000000E+00 -0.35527136788E-14 -0.73549018515E+02  0.10927875109E+03  0.80823185509E+02 0.  0.
         66    2    3    3    0    0  0.20575305412E+02 -0.29723686518E+02 -0.61143687088E+02  0.71059068403E+02  0.19999996475E+01 0.  0.
        -13    1    3    3    0    0 -0.20575305412E+02  0.29723686518E+02 -0.12405331426E+02  0.38219682689E+02  0.10566000000E+00 0.  1.
         13    1    4    4    0    0  0.17292530949E+02 -0.25312385264E+02 -0.51122893968E+02  0.59609646250E+02  0.10566000000E+00 0. -1.
        -13    1    4    4    0    0  0.30108546609E+00 -0.54168062895E+00 -0.15209869763E+01  0.16457933586E+01  0.10566000000E+00 0.  1.
        -14    1    4    4    0    0  0.29816889968E+01 -0.38696206253E+01 -0.84998061439E+01  0.98036287945E+01  0.00000000000E+00 0.  1.
<mgrwt>
<rscale>  0 0.80823186E+02</rscale>
<asrwt>0</asrwt>
<pdfrwt beam="1">  1        2 0.14063674E-01 0.80823186E+02</pdfrwt>
<pdfrwt beam="2">  1       -1 0.27484410E-02 0.80823186E+02</pdfrwt>
<totfact> 0.16824078E+05</totfact>
</mgrwt>
</event>
<event>
 8    1  0.2389776E-016  0.8024544E+02  0.7818608E-02  0.1328356E+00
         -1   -1    0    0    0  501 -0.00000000000E+00  0.00000000000E+00  0.12001365642E+02  0.12001366700E+02  0.50400000000E-02 0.  1.
          2   -1    0    0  501    0  0.00000000000E+00 -0.00000000000E+00 -0.13413745654E+03  0.13413745656E+03  0.25500000000E-02 0. -1.
         24    2    1    2    0    0 -0.88817841970E-15  0.00000000000E+00 -0.12213609090E+03  0.14613882326E+03  0.80245442022E+02 0.  0.
         66    2    3    3    0    0  0.42419275075E+01 -0.12113037960E+02 -0.13028812207E+03  0.13093400778E+03  0.20000006463E+01 0.  0.
        -13    1    3    3    0    0 -0.42419275075E+01  0.12113037960E+02  0.81520311745E+01  0.15204815484E+02  0.10566000000E+00 0.  1.
         13    1    4    4    0    0  0.68763303136E+00 -0.20621477619E+01 -0.27957793912E+02  0.28042373242E+02  0.10566000000E+00 0. -1.
        -13    1    4    4    0    0  0.34892301664E+01 -0.87572640277E+01 -0.88437807816E+02  0.88938863360E+02  0.10566000000E+00 0.  1.
        -14    1    4    4    0    0  0.65064309724E-01 -0.12936261708E+01 -0.13892520343E+02  0.13952771177E+02  0.00000000000E+00 0.  1.
<mgrwt>
<rscale>  0 0.80245442E+02</rscale>
<asrwt>0</asrwt>
<pdfrwt beam="1">  1        2 0.20636531E-01 0.80245442E+02</pdfrwt>
<pdfrwt beam="2">  1       -1 0.18463641E-02 0.80245442E+02</pdfrwt>
<totfact> 0.19176290E+05</totfact>
</mgrwt>
</event>
<event>
 8    1  0.2389776E-016  0.7930724E+02  0.7818608E-02  0.1331029E+00
         -1   -1    0    0    0  501 -0.00000000000E+00  0.00000000000E+00  0.65174096484E+02  0.65174096679E+02  0.50400000000E-02 0.  1.
          2   -1    0    0  501    0  0.00000000000E+00 -0.00000000000E+00 -0.24126297579E+02  0.24126297714E+02  0.25500000000E-02 0. -1.
         24    2    1    2    0    0  0.00000000000E+00  0.00000000000E+00  0.41047798905E+02  0.89300394392E+02  0.79307242063E+02 0.  0.
         66    2    3    3    0    0  0.13902351112E+02 -0.31419888070E+02 -0.16976306031E+01  0.34458187647E+02  0.20000033685E+01 0.  0.
        -13    1    3    3    0    0 -0.13902351112E+02  0.31419888070E+02  0.42745429508E+02  0.54842206745E+02  0.10566000000E+00 0.  1.
         13    1    4    4    0    0  0.11755269510E+02 -0.27015245253E+02 -0.15296141928E+01  0.29501876567E+02  0.10566000000E+00 0. -1.
        -13    1    4    4    0    0  0.70372939496E+00 -0.17268925365E+01 -0.38342978502E+00  0.19067184715E+01  0.10566000000E+00 0.  1.
        -14    1    4    4    0    0  0.14433522067E+01 -0.26777502804E+01  0.21541337474E+00  0.30495926086E+01  0.00000000000E+00 0.  1.
<mgrwt>
<rscale>  0 0.79307242E+02</rscale>
<asrwt>0</asrwt>
<pdfrwt beam="1">  1        2 0.37117382E-02 0.79307242E+02</pdfrwt>
<pdfrwt beam="2">  1       -1 0.10026784E-01 0.79307242E+02</pdfrwt>
<totfact> 0.13211299E+05</totfact>
</mgrwt>
</event>
<event>
 8    1  0.2389776E-016  0.7973227E+02  0.7818608E-02  0.1329813E+00
         -1   -1    0    0    0  501 -0.00000000000E+00  0.00000000000E+00  0.16617412647E+02  0.16617413411E+02  0.50400000000E-02 0.  1.
          2   -1    0    0  501    0  0.00000000000E+00 -0.00000000000E+00 -0.95641168801E+02  0.95641168835E+02  0.25500000000E-02 0. -1.
         24    2    1    2    0    0  0.88817841970E-15  0.00000000000E+00 -0.79023756155E+02  0.11225858225E+03  0.79732272332E+02 0.  0.
         66    2    3    3    0    0 -0.74505588509E+01  0.26436958373E+02 -0.80169464688E+02  0.84767721814E+02  0.19999994796E+01 0.  0.
        -13    1    3    3    0    0  0.74505588509E+01 -0.26436958373E+02  0.11457085335E+01  0.27490860432E+02  0.10566000000E+00 0.  1.
         13    1    4    4    0    0 -0.42561197375E+01  0.17898231169E+02 -0.52146462706E+02  0.55296708500E+02  0.10566000000E+00 0. -1.
        -13    1    4    4    0    0 -0.24351957876E+01  0.61768237843E+01 -0.20730229164E+02  0.21767794923E+02  0.10566000000E+00 0.  1.
         14    1    4    4    0    0 -0.75924332579E+00  0.23619034204E+01 -0.72927728184E+01  0.77032183908E+01  0.00000000000E+00 0. -1.
<mgrwt>
<rscale>  0 0.79732272E+02</rscale>
<asrwt>0</asrwt>
<pdfrwt beam="1">  1        2 0.14714026E-01 0.79732272E+02</pdfrwt>
<pdfrwt beam="2">  1       -1 0.25565252E-02 0.79732272E+02</pdfrwt>
<totfact> 0.17666014E+05</totfact>
</mgrwt>
</event>
<event>
 8    1  0.2389776E-016  0.7937969E+02  0.7818608E-02  0.1330821E+00
         -1   -1    0    0    0  501 -0.00000000000E+00  0.00000000000E+00  0.22001856062E+01  0.22001913788E+01  0.50400000000E-02 0.  1.
          2   -1    0    0  501    0  0.00000000000E+00 -0.00000000000E+00 -0.71597665300E+03  0.71597665300E+03  0.25500000000E-02 0. -1.
         24    2    1    2    0    0  0.00000000000E+00  0.00000000000E+00 -0.71377646739E+03  0.71817684438E+03  0.79379685079E+02 0.  0.
         66    2    3    3    0    0 -0.17716068831E+02  0.31221184995E+02 -0.50975933262E+03  0.51102563407E+03  0.20000000202E+01 0.  0.
        -13    1    3    3    0    0  0.17716068831E+02 -0.31221184995E+02 -0.20401713477E+03  0.20715121031E+03  0.10566000000E+00 0.  1.
         13    1    4    4    0    0 -0.86542227896E+01  0.15499426476E+02 -0.26019929147E+03  0.26080416070E+03  0.10566000000E+00 0. -1.
        -13    1    4    4    0    0 -0.17615141550E+01  0.26732461762E+01 -0.39106044765E+02  0.39237011589E+02  0.10566000000E+00 0.  1.
         14    1    4    4    0    0 -0.73003318863E+01  0.13048512343E+02 -0.21045399639E+03  0.21098446178E+03  0.00000000000E+00 0. -1.
<mgrwt>
<rscale>  0 0.79379685E+02</rscale>
<asrwt>0</asrwt>
<pdfrwt beam="1">  1        2 0.11015007E+00 0.79379685E+02</pdfrwt>
<pdfrwt beam="2">  1       -1 0.33849111E-03 0.79379685E+02</pdfrwt>
<totfact> 0.34308579E+05</totfact>
</mgrwt>
</event>
<event>
 8    1  0.2389776E-016  0.7964013E+02  0.7818608E-02  0.1330076E+00
          2   -1    0    0  501    0  0.00000000000E+00  0.00000000000E+00  0.12360274758E+04  0.12360274758E+04  0.25500000000E-02 0. -1.
         -1   -1    0    0    0  501 -0.00000000000E+00 -0.00000000000E+00 -0.12828448922E+01  0.12828547926E+01  0.50400000000E-02 0.  1.
         24    2    1    2    0    0  0.00000000000E+00  0.69388939039E-17  0.12347446309E+04  0.12373103306E+04  0.79640132106E+02 0.  0.
         66    2    3    3    0    0  0.19981938167E+02  0.48805598915E-01  0.11524322258E+04  0.11526071817E+04  0.19999989027E+01 0.  0.
        -13    1    3    3    0    0 -0.19981938167E+02 -0.48805598915E-01  0.82312405067E+02  0.84703148860E+02  0.10566000000E+00 0.  1.
         13    1    4    4    0    0  0.35018257314E+00 -0.11727683970E+00  0.30547133932E+02  0.30549548887E+02  0.10566000000E+00 0.  1.
        -13    1    4    4    0    0  0.50934924295E+00  0.18845230225E+00  0.29738672066E+02  0.29743818370E+02  0.10566000000E+00 0.  1.
         14    1    4    4    0    0  0.19122406351E+02 -0.22369863626E-01  0.10921464198E+04  0.10923138144E+04  0.00000000000E+00 0. -1.
<mgrwt>
<rscale>  0 0.79640132E+02</rscale>
<asrwt>0</asrwt>
<pdfrwt beam="1">  1        2 0.19015905E+00 0.79640132E+02</pdfrwt>
<pdfrwt beam="2">  1       -1 0.19736050E-03 0.79640132E+02</pdfrwt>
<totfact> 0.35319754E+05</totfact>
</mgrwt>
</event>
<event>
 8    1  0.2389776E-016  0.7830487E+02  0.7818608E-02  0.1333932E+00
          2   -1    0    0  501    0  0.00000000000E+00  0.00000000000E+00  0.96627364117E+03  0.96627364118E+03  0.25500000000E-02 0. -1.
         -1   -1    0    0    0  501 -0.00000000000E+00 -0.00000000000E+00 -0.15864133139E+01  0.15864213198E+01  0.50400000000E-02 0.  1.
         24    2    1    2    0    0  0.88817841970E-15  0.00000000000E+00  0.96468722786E+03  0.96786006250E+03  0.78304872010E+02 0.  0.
         66    2    3    3    0    0  0.56346787362E+01 -0.22120409749E+02  0.87543923260E+03  0.87573906623E+03  0.20000018650E+01 0.  0.
        -13    1    3    3    0    0 -0.56346787362E+01  0.22120409749E+02  0.89247995255E+02  0.92120996266E+02  0.10566000000E+00 0.  1.
         13    1    4    4    0    0  0.29226636391E+01 -0.12736126589E+02  0.51688762075E+03  0.51705277732E+03  0.10566000000E+00 0. -1.
        -13    1    4    4    0    0  0.24408265486E+01 -0.67467851603E+01  0.25910991406E+03  0.25920925036E+03  0.10566000000E+00 0.  1.
        -14    1    4    4    0    0  0.27118854854E+00 -0.26374980006E+01  0.99441697796E+02  0.99477038554E+02  0.00000000000E+00 0.  1.
<mgrwt>
<rscale>  0 0.78304872E+02</rscale>
<asrwt>0</asrwt>
<pdfrwt beam="1">  1        2 0.14865739E+00 0.78304872E+02</pdfrwt>
<pdfrwt beam="2">  1       -1 0.24406435E-03 0.78304872E+02</pdfrwt>
<totfact> 0.37174748E+05</totfact>
</mgrwt>
</event>
<event>
 8    1  0.2389776E-016  0.7839307E+02  0.7818608E-02  0.1333675E+00
          2   -1    0    0  501    0  0.00000000000E+00  0.00000000000E+00  0.34113310684E+03  0.34113310685E+03  0.25500000000E-02 0. -1.
         -1   -1    0    0    0  501 -0.00000000000E+00 -0.00000000000E+00 -0.45037197247E+01  0.45037225447E+01  0.50400000000E-02 0.  1.
         24    2    1    2    0    0  0.00000000000E+00  0.00000000000E+00  0.33662938712E+03  0.34563682940E+03  0.78393070894E+02 0.  0.
         66    2    3    3    0    0  0.23320937456E+02 -0.30794506878E+02  0.13978372409E+03  0.14503674467E+03  0.20000011966E+01 0.  0.
        -13    1    3    3    0    0 -0.23320937456E+02  0.30794506878E+02  0.19684566303E+03  0.20060008473E+03  0.10566000000E+00 0.  1.
         13    1    4    4    0    0  0.40110924931E+01 -0.49182821064E+01  0.23197441105E+02  0.24050172550E+02  0.10566000000E+00 0. -1.
        -13    1    4    4    0    0  0.13517421753E+02 -0.18034577301E+02  0.84252296894E+02  0.87214834548E+02  0.10566000000E+00 0.  1.
        -14    1    4    4    0    0  0.57924232098E+01 -0.78416474707E+01  0.32333986093E+02  0.33771737568E+02  0.00000000000E+00 0.  1.
<mgrwt>
<rscale>  0 0.78393071E+02</rscale>
<asrwt>0</asrwt>
<pdfrwt beam="1">  1        2 0.52482019E-01 0.78393071E+02</pdfrwt>
<pdfrwt beam="2">  1       -1 0.69288015E-03 0.78393071E+02</pdfrwt>
<totfact> 0.28158368E+05</totfact>
</mgrwt>
</event>
<event>
 8    1  0.2389776E-016  0.7698817E+02  0.7818608E-02  0.1337823E+00
          2   -1    0    0  501    0  0.00000000000E+00  0.00000000000E+00  0.17587380105E+02  0.17587380290E+02  0.25500000000E-02 0. -1.
         -1   -1    0    0    0  501 -0.00000000000E+00 -0.00000000000E+00 -0.84253295583E+02  0.84253295734E+02  0.50400000000E-02 0.  1.
         24    2    1    2    0    0  0.35527136788E-14  0.00000000000E+00 -0.66665915478E+02  0.10184067602E+03  0.76988174459E+02 0.  0.
         66    2    3    3    0    0  0.22627066779E+02  0.16829711582E+02  0.12548869255E+01  0.28298375909E+02  0.19999987340E+01 0.  0.
        -13    1    3    3    0    0 -0.22627066779E+02 -0.16829711582E+02 -0.67920802403E+02  0.73542300114E+02  0.10566000000E+00 0.  1.
         13    1    4    4    0    0  0.14716790195E+02  0.10333599000E+02  0.10161845006E+01  0.18011412408E+02  0.10566000000E+00 0. -1.
        -13    1    4    4    0    0  0.28676600478E+01  0.21771485324E+01  0.53199755718E+00  0.36411035852E+01  0.10566000000E+00 0.  1.
        -14    1    4    4    0    0  0.50426165363E+01  0.43189640496E+01 -0.29329513221E+00  0.66458599164E+01  0.00000000000E+00 0.  1.
<mgrwt>
<rscale>  0 0.76988174E+02</rscale>
<asrwt>0</asrwt>
<pdfrwt beam="1">  1        2 0.27057509E-02 0.76988174E+02</pdfrwt>
<pdfrwt beam="2">  1       -1 0.12962045E-01 0.76988174E+02</pdfrwt>
<totfact> 0.13509333E+05</totfact>
</mgrwt>
</event>
<event>
 8    1  0.2389776E-016  0.7937991E+02  0.7818608E-02  0.1330820E+00
         -1   -1    0    0    0  501 -0.00000000000E+00  0.00000000000E+00  0.28893184279E+01  0.28893228237E+01  0.50400000000E-02 0.  1.
          2   -1    0    0  501    0  0.00000000000E+00 -0.00000000000E+00 -0.54521206135E+03  0.54521206136E+03  0.25500000000E-02 0. -1.
         24    2    1    2    0    0  0.00000000000E+00  0.00000000000E+00 -0.54232274293E+03  0.54810138418E+03  0.79379908347E+02 0.  0.
         66    2    3    3    0    0 -0.19113165792E+02  0.21527638916E+02 -0.45973823729E+03  0.46064302793E+03  0.20000018431E+01 0.  0.
        -13    1    3    3    0    0  0.19113165792E+02 -0.21527638916E+02 -0.82584505633E+02  0.87458356254E+02  0.10566000000E+00 0.  1.
         13    1    4    4    0    0 -0.17236309473E+02  0.19398407129E+02 -0.41598344788E+03  0.41679206883E+03  0.10566000000E+00 0. -1.
        -13    1    4    4    0    0 -0.56796228018E+00  0.90890265893E+00 -0.19915104565E+02  0.19944203144E+02  0.10566000000E+00 0. -1.
         14    1    4    4    0    0 -0.13088940383E+01  0.12203291281E+01 -0.23839684843E+02  0.23906755953E+02  0.00000000000E+00 0. -1.
<mgrwt>
<rscale>  0 0.79379908E+02</rscale>
<asrwt>0</asrwt>
<pdfrwt beam="1">  1        2 0.83878697E-01 0.79379908E+02</pdfrwt>
<pdfrwt beam="2">  1       -1 0.44451130E-03 0.79379908E+02</pdfrwt>
<totfact> 0.31920628E+05</totfact>
</mgrwt>
</event>
<event>
 8    1  0.2389776E-016  0.7841741E+02  0.7818608E-02  0.1333604E+00
         -1   -1    0    0    0  501 -0.00000000000E+00  0.00000000000E+00  0.51347346197E+01  0.51347370932E+01  0.50400000000E-02 0.  1.
          2   -1    0    0  501    0  0.00000000000E+00 -0.00000000000E+00 -0.29939663833E+03  0.29939663834E+03  0.25500000000E-02 0. -1.
         24    2    1    2    0    0 -0.88817841970E-15  0.00000000000E+00 -0.29426190371E+03  0.30453137543E+03  0.78417412916E+02 0.  0.
         66    2    3    3    0    0  0.60079383434E+01 -0.34925866260E+02 -0.21214027647E+03  0.21508930322E+03  0.20000004973E+01 0.  0.
        -13    1    3    3    0    0 -0.60079383434E+01  0.34925866260E+02 -0.82121627234E+02  0.89442072208E+02  0.10566000000E+00 0.  1.
         13    1    4    4    0    0  0.43662335602E+01 -0.21157061844E+02 -0.13163003375E+03  0.13339101248E+03  0.10566000000E+00 0. -1.
        -13    1    4    4    0    0  0.49467911238E+00 -0.23224719589E+01 -0.13343133782E+02  0.13553190274E+02  0.10566000000E+00 0.  1.
        -14    1    4    4    0    0  0.11470256708E+01 -0.11446332457E+02 -0.67167108942E+02  0.68145100471E+02  0.00000000000E+00 0.  1.
<mgrwt>
<rscale>  0 0.78417413E+02</rscale>
<asrwt>0</asrwt>
<pdfrwt beam="1">  1        2 0.46061008E-01 0.78417413E+02</pdfrwt>
<pdfrwt beam="2">  1       -1 0.78995960E-03 0.78417413E+02</pdfrwt>
<totfact> 0.26844682E+05</totfact>
</mgrwt>
</event>
<event>
 8    1  0.2389776E-016  0.8074401E+02  0.7818608E-02  0.1326953E+00
         -1   -1    0    0    0  501 -0.00000000000E+00  0.00000000000E+00  0.11042448999E+01  0.11042564017E+01  0.50400000000E-02 0.  1.
          2   -1    0    0  501    0  0.00000000000E+00 -0.00000000000E+00 -0.14760223968E+04  0.14760223968E+04  0.25500000000E-02 0. -1.
         24    2    1    2    0    0  0.17763568394E-14 -0.35527136788E-14 -0.14749181519E+04  0.14771266532E+04  0.80744007834E+02 0.  0.
         66    2    3    3    0    0  0.91171208951E+01 -0.10006881430E+02 -0.14332329128E+04  0.14332982390E+04  0.20000000600E+01 0.  0.
        -13    1    3    3    0    0 -0.91171208951E+01  0.10006881430E+02 -0.41685239118E+02  0.43828414228E+02  0.10566000000E+00 0.  1.
         13    1    4    4    0    0  0.62105805559E+01 -0.71448030670E+01 -0.99108081030E+03  0.99112602793E+03  0.10566000000E+00 0. -1.
        -13    1    4    4    0    0  0.74016386598E+00 -0.31391438653E+00 -0.12023792379E+03  0.12024065813E+03  0.10566000000E+00 0.  1.
        -14    1    4    4    0    0  0.21663764733E+01 -0.25481639768E+01 -0.32191417872E+03  0.32193155296E+03  0.00000000000E+00 0.  1.
<mgrwt>
<rscale>  0 0.80744008E+02</rscale>
<asrwt>0</asrwt>
<pdfrwt beam="1">  1        2 0.22707879E+00 0.80744008E+02</pdfrwt>
<pdfrwt beam="2">  1       -1 0.16988590E-03 0.80744008E+02</pdfrwt>
<totfact> 0.32652253E+05</totfact>
</mgrwt>
</event>
<event>
 8    1  0.2389776E-016  0.7921203E+02  0.7818608E-02  0.1331303E+00
         -1   -1    0    0    0  501 -0.00000000000E+00  0.00000000000E+00  0.21458261385E+01  0.21458320573E+01  0.50400000000E-02 0.  1.
          2   -1    0    0  501    0  0.00000000000E+00 -0.00000000000E+00 -0.73101654581E+03  0.73101654581E+03  0.25500000000E-02 0. -1.
         24    2    1    2    0    0  0.35527136788E-14  0.00000000000E+00 -0.72887071967E+03  0.73316237787E+03  0.79212034011E+02 0.  0.
         66    2    3    3    0    0  0.26702345700E+02  0.12981676324E+02 -0.60692808830E+03  0.60765717600E+03  0.19999988364E+01 0.  0.
        -13    1    3    3    0    0 -0.26702345700E+02 -0.12981676324E+02 -0.12194263137E+03  0.12550520187E+03  0.10566000000E+00 0.  1.
         13    1    4    4    0    0  0.12068665039E+02  0.58375457949E+01 -0.26366837584E+03  0.26400900212E+03  0.10566000000E+00 0.  1.
        -13    1    4    4    0    0  0.97838698872E+01  0.41005034557E+01 -0.22170127274E+03  0.22195495881E+03  0.10566000000E+00 0. -1.
        -14    1    4    4    0    0  0.48498107742E+01  0.30436270737E+01 -0.12155843972E+03  0.12169321508E+03  0.00000000000E+00 0.  1.
<mgrwt>
<rscale>  0 0.79212034E+02</rscale>
<asrwt>0</asrwt>
<pdfrwt beam="1">  1        2 0.11246389E+00 0.79212034E+02</pdfrwt>
<pdfrwt beam="2">  1       -1 0.33012814E-03 0.79212034E+02</pdfrwt>
<totfact> 0.34652787E+05</totfact>
</mgrwt>
</event>
<event>
 8    1  0.2389776E-016  0.8059775E+02  0.7818608E-02  0.1327364E+00
          2   -1    0    0  501    0  0.00000000000E+00  0.00000000000E+00  0.10365683525E+04  0.10365683526E+04  0.25500000000E-02 0. -1.
         -1   -1    0    0    0  501 -0.00000000000E+00 -0.00000000000E+00 -0.15667034995E+01  0.15667116062E+01  0.50400000000E-02 0.  1.
         24    2    1    2    0    0 -0.88817841970E-15  0.00000000000E+00  0.10350016490E+04  0.10381350642E+04  0.80597753691E+02 0.  0.
         66    2    3    3    0    0  0.73229896868E+01 -0.16288424199E+02  0.98277516431E+03  0.98293945008E+03  0.20000011939E+01 0.  0.
        -13    1    3    3    0    0 -0.73229896868E+01  0.16288424199E+02  0.52226484738E+02  0.55195614074E+02  0.10566000000E+00 0.  1.
         13    1    4    4    0    0  0.10419953491E+01 -0.15428153217E+01  0.11563230997E+03  0.11564734457E+03  0.10566000000E+00 0.  1.
        -13    1    4    4    0    0  0.50335891483E+01 -0.12262456017E+02  0.68783330507E+03  0.68796102474E+03  0.10566000000E+00 0. -1.
        -14    1    4    4    0    0  0.12474051894E+01 -0.24831528601E+01  0.17930954927E+03  0.17933108077E+03  0.00000000000E+00 0.  1.
<mgrwt>
<rscale>  0 0.80597754E+02</rscale>
<asrwt>0</asrwt>
<pdfrwt beam="1">  1        2 0.15947224E+00 0.80597754E+02</pdfrwt>
<pdfrwt beam="2">  1       -1 0.24103165E-03 0.80597754E+02</pdfrwt>
<totfact> 0.34592473E+05</totfact>
</mgrwt>
</event>
<event>
 8    1  0.2389776E-016  0.8150792E+02  0.7818608E-02  0.1324826E+00
          2   -1    0    0  501    0  0.00000000000E+00  0.00000000000E+00  0.28878600836E+03  0.28878600837E+03  0.25500000000E-02 0. -1.
         -1   -1    0    0    0  501 -0.00000000000E+00 -0.00000000000E+00 -0.57512647202E+01  0.57512669285E+01  0.50400000000E-02 0.  1.
         24    2    1    2    0    0 -0.71054273576E-14  0.00000000000E+00  0.28303474364E+03  0.29453727530E+03  0.81507916387E+02 0.  0.
         66    2    3    3    0    0 -0.32585098473E+02  0.13515387390E+02  0.21516608996E+03  0.21804793189E+03  0.19999986279E+01 0.  0.
        -13    1    3    3    0    0  0.32585098473E+02 -0.13515387390E+02  0.67868653684E+02  0.76489343413E+02  0.10566000000E+00 0.  1.
         13    1    4    4    0    0 -0.19358882618E+02  0.83471880185E+01  0.12778387588E+03  0.12951128129E+03  0.10566000000E+00 0. -1.
        -13    1    4    4    0    0 -0.83487899844E+01  0.28708304746E+01  0.51411096994E+02  0.52163742389E+02  0.10566000000E+00 0.  1.
         14    1    4    4    0    0 -0.48774258706E+01  0.22973688966E+01  0.35971117087E+02  0.36372908207E+02  0.00000000000E+00 0. -1.
<mgrwt>
<rscale>  0 0.81507916E+02</rscale>
<asrwt>0</asrwt>
<pdfrwt beam="1">  1        2 0.44428624E-01 0.81507916E+02</pdfrwt>
<pdfrwt beam="2">  1       -1 0.88480998E-03 0.81507916E+02</pdfrwt>
<totfact> 0.23941982E+05</totfact>
</mgrwt>
</event>
<event>
 8    1  0.2389776E-016  0.8109551E+02  0.7818608E-02  0.1325971E+00
          2   -1    0    0  501    0  0.00000000000E+00  0.00000000000E+00  0.10352802862E+03  0.10352802865E+03  0.25500000000E-02 0. -1.
         -1   -1    0    0    0  501 -0.00000000000E+00 -0.00000000000E+00 -0.15880921170E+02  0.15880921969E+02  0.50400000000E-02 0.  1.
         24    2    1    2    0    0  0.00000000000E+00 -0.22204460493E-15  0.87647107451E+02  0.11940895062E+03  0.81095511861E+02 0.  0.
         66    2    3    3    0    0  0.25631429258E+02 -0.17846176413E+01  0.89991141495E+02  0.93608549741E+02  0.20000028026E+01 0.  0.
        -13    1    3    3    0    0 -0.25631429258E+02  0.17846176413E+01 -0.23440340440E+01  0.25800400880E+02  0.10566000000E+00 0.  1.
         13    1    4    4    0    0  0.12001679938E+02 -0.10226412450E+01  0.40847926927E+02  0.42586974708E+02  0.10566000000E+00 0. -1.
        -13    1    4    4    0    0  0.42499179524E+01 -0.76137446595E+00  0.14305980168E+02  0.14943685164E+02  0.10566000000E+00 0.  1.
        -14    1    4    4    0    0  0.93798313675E+01 -0.60193031796E-03  0.34837234399E+02  0.36077889869E+02  0.00000000000E+00 0.  1.
<mgrwt>
<rscale>  0 0.81095512E+02</rscale>
<asrwt>0</asrwt>
<pdfrwt beam="1">  1        2 0.15927389E-01 0.81095512E+02</pdfrwt>
<pdfrwt beam="2">  1       -1 0.24432187E-02 0.81095512E+02</pdfrwt>
<totfact> 0.17259449E+05</totfact>
</mgrwt>
</event>
<event>
 8    1  0.2389776E-016  0.8111849E+02  0.7818608E-02  0.1325907E+00
         -1   -1    0    0    0  501 -0.00000000000E+00  0.00000000000E+00  0.42788782615E+01  0.42788812298E+01  0.50400000000E-02 0.  1.
          2   -1    0    0  501    0  0.00000000000E+00 -0.00000000000E+00 -0.38445866607E+03  0.38445866608E+03  0.25500000000E-02 0. -1.
         24    2    1    2    0    0  0.35527136788E-14  0.00000000000E+00 -0.38017978781E+03  0.38873754731E+03  0.81118491290E+02 0.  0.
         66    2    3    3    0    0  0.20428171582E+02  0.28395816968E+02 -0.28834793868E+03  0.29046887329E+03  0.19999981033E+01 0.  0.
        -13    1    3    3    0    0 -0.20428171582E+02 -0.28395816968E+02 -0.91831849129E+02  0.98268674022E+02  0.10566000000E+00 0.  1.
         13    1    4    4    0    0  0.11588228551E+02  0.15677054022E+02 -0.15894286985E+03  0.16013401919E+03  0.10566000000E+00 0. -1.
        -13    1    4    4    0    0  0.15597526315E+01  0.18034963360E+01 -0.23188060367E+02  0.23310571313E+02  0.10566000000E+00 0.  1.
        -14    1    4    4    0    0  0.72801903992E+01  0.10915266610E+02 -0.10621700846E+03  0.10702428278E+03  0.00000000000E+00 0.  1.
<mgrwt>
<rscale>  0 0.81118491E+02</rscale>
<asrwt>0</asrwt>
<pdfrwt beam="1">  1        2 0.59147460E-01 0.81118491E+02</pdfrwt>
<pdfrwt beam="2">  1       -1 0.65828950E-03 0.81118491E+02</pdfrwt>
<totfact> 0.26869415E+05</totfact>
</mgrwt>
</event>
<event>
 8    1  0.2389776E-016  0.8161128E+02  0.7818608E-02  0.1324540E+00
         -1   -1    0    0    0  501 -0.00000000000E+00  0.00000000000E+00  0.17462749448E+01  0.17462822178E+01  0.50400000000E-02 0.  1.
          2   -1    0    0  501    0  0.00000000000E+00 -0.00000000000E+00 -0.95351358598E+03  0.95351358599E+03  0.25500000000E-02 0. -1.
         24    2    1    2    0    0  0.00000000000E+00  0.35527136788E-14 -0.95176731104E+03  0.95525986820E+03  0.81611282557E+02 0.  0.
         66    2    3    3    0    0  0.16945750669E+02  0.21575764004E+02 -0.82934614667E+03  0.82980220719E+03  0.20000003165E+01 0.  0.
        -13    1    3    3    0    0 -0.16945750669E+02 -0.21575764004E+02 -0.12242116436E+03  0.12545766101E+03  0.10566000000E+00 0.  1.
         13    1    4    4    0    0  0.58806506482E+01  0.81205918371E+01 -0.29127287532E+03  0.29144540676E+03  0.10566000000E+00 0. -1.
        -13    1    4    4    0    0  0.44640789016E+01  0.63809820130E+01 -0.23289314497E+03  0.23302333160E+03  0.10566000000E+00 0.  1.
         14    1    4    4    0    0  0.66010211190E+01  0.70741901538E+01 -0.30518012639E+03  0.30533346883E+03  0.00000000000E+00 0. -1.
<mgrwt>
<rscale>  0 0.81611283E+02</rscale>
<asrwt>0</asrwt>
<pdfrwt beam="1">  1        2 0.14669398E+00 0.81611283E+02</pdfrwt>
<pdfrwt beam="2">  1       -1 0.26865901E-03 0.81611283E+02</pdfrwt>
<totfact> 0.33359157E+05</totfact>
</mgrwt>
</event>
<event>
 8    1  0.2389776E-016  0.7957741E+02  0.7818608E-02  0.1330255E+00
          2   -1    0    0  501    0  0.00000000000E+00  0.00000000000E+00  0.16440977520E+04  0.16440977520E+04  0.25500000000E-02 0. -1.
         -1   -1    0    0    0  501 -0.00000000000E+00 -0.00000000000E+00 -0.96291737959E+00  0.96293056941E+00  0.50400000000E-02 0.  1.
         24    2    1    2    0    0  0.00000000000E+00 -0.88817841970E-15  0.16431348346E+04  0.16450606826E+04  0.79577412619E+02 0.  0.
         66    2    3    3    0    0  0.17346962781E+02 -0.40195663714E+01  0.15570662745E+04  0.15571693734E+04  0.20000190916E+01 0.  0.
        -13    1    3    3    0    0 -0.17346962781E+02  0.40195663714E+01  0.86068560066E+02  0.87891309169E+02  0.10566000000E+00 0.  1.
         13    1    4    4    0    0  0.28547354708E+01 -0.10254181126E+01  0.28130213181E+03  0.28131850547E+03  0.10566000000E+00 0. -1.
        -13    1    4    4    0    0  0.59143903648E+01 -0.15428688427E+01  0.46976684155E+03  0.46980661664E+03  0.10566000000E+00 0.  1.
         14    1    4    4    0    0  0.85778369458E+01 -0.14512794161E+01  0.80599730119E+03  0.80604425128E+03  0.00000000000E+00 0. -1.
<mgrwt>
<rscale>  0 0.79577413E+02</rscale>
<asrwt>0</asrwt>
<pdfrwt beam="1">  1        2 0.25293664E+00 0.79577413E+02</pdfrwt>
<pdfrwt beam="2">  1       -1 0.14814302E-03 0.79577413E+02</pdfrwt>
<totfact> 0.32359509E+05</totfact>
</mgrwt>
</event>
<event>
 8    1  0.2389776E-016  0.7808224E+02  0.7818608E-02  0.1334584E+00
          2   -1    0    0  501    0  0.00000000000E+00  0.00000000000E+00  0.78021447834E+03  0.78021447835E+03  0.25500000000E-02 0. -1.
         -1   -1    0    0    0  501 -0.00000000000E+00 -0.00000000000E+00 -0.19535735315E+01  0.19535800328E+01  0.50400000000E-02 0.  1.
         24    2    1    2    0    0 -0.44408920985E-15  0.17763568394E-14  0.77826090481E+03  0.78216805838E+03  0.78082236083E+02 0.  0.
         66    2    3    3    0    0 -0.39139113971E+01  0.11737157145E+02  0.76003955169E+03  0.76014288111E+03  0.20000010734E+01 0.  0.
        -13    1    3    3    0    0  0.39139113971E+01 -0.11737157145E+02  0.18221353121E+02  0.22025177272E+02  0.10566000000E+00 0.  1.
         13    1    4    4    0    0 -0.28017704268E+01  0.60911131601E+01  0.43653091739E+03  0.43658241442E+03  0.10566000000E+00 0. -1.
        -13    1    4    4    0    0  0.37513035102E-02  0.85837470406E+00  0.41868045754E+02  0.41876977452E+02  0.10566000000E+00 0.  1.
         14    1    4    4    0    0 -0.11158922739E+01  0.47876692812E+01  0.28164058854E+03  0.28168348923E+03  0.00000000000E+00 0. -1.
<mgrwt>
<rscale>  0 0.78082236E+02</rscale>
<asrwt>0</asrwt>
<pdfrwt beam="1">  1        2 0.12003305E+00 0.78082236E+02</pdfrwt>
<pdfrwt beam="2">  1       -1 0.30055015E-03 0.78082236E+02</pdfrwt>
<totfact> 0.36435790E+05</totfact>
</mgrwt>
</event>
<event>
 8    1  0.2389776E-016  0.8332431E+02  0.7818608E-02  0.1319874E+00
         -1   -1    0    0    0  501 -0.00000000000E+00  0.00000000000E+00  0.29988269908E+02  0.29988270332E+02  0.50400000000E-02 0.  1.
          2   -1    0    0  501    0  0.00000000000E+00 -0.00000000000E+00 -0.57880468799E+02  0.57880468855E+02  0.25500000000E-02 0. -1.
         24    2    1    2    0    0  0.00000000000E+00 -0.35527136788E-14 -0.27892198891E+02  0.87868739187E+02  0.83324309582E+02 0.  0.
         66    2    3    3    0    0  0.13889750609E+02 -0.16801714312E+02 -0.51364356548E+02  0.55834755280E+02  0.19999994343E+01 0.  0.
        -13    1    3    3    0    0 -0.13889750609E+02  0.16801714312E+02  0.23472157658E+02  0.32033983907E+02  0.10566000000E+00 0.  1.
         13    1    4    4    0    0  0.15037886255E+01 -0.22134359329E+01 -0.57826040823E+01  0.63726252728E+01  0.10566000000E+00 0. -1.
        -13    1    4    4    0    0  0.11399373522E+02 -0.12788937054E+02 -0.39969824527E+02  0.43486787240E+02  0.10566000000E+00 0.  1.
        -14    1    4    4    0    0  0.98658846161E+00 -0.17993413246E+01 -0.56119279388E+01  0.59753427672E+01  0.00000000000E+00 0.  1.
<mgrwt>
<rscale>  0 0.83324310E+02</rscale>
<asrwt>0</asrwt>
<pdfrwt beam="1">  1        2 0.89046875E-02 0.83324310E+02</pdfrwt>
<pdfrwt beam="2">  1       -1 0.46135800E-02 0.83324310E+02</pdfrwt>
<totfact> 0.13812956E+05</totfact>
</mgrwt>
</event>
<event>
 8    1  0.2389776E-016  0.7921582E+02  0.7818608E-02  0.1331292E+00
         -1   -1    0    0    0  501 -0.00000000000E+00  0.00000000000E+00  0.70613638203E+01  0.70613656189E+01  0.50400000000E-02 0.  1.
          2   -1    0    0  501    0  0.00000000000E+00 -0.00000000000E+00 -0.22216476813E+03  0.22216476814E+03  0.25500000000E-02 0. -1.
         24    2    1    2    0    0 -0.17763568394E-14  0.00000000000E+00 -0.21510340431E+03  0.22922613376E+03  0.79215818209E+02 0.  0.
         66    2    3    3    0    0 -0.13293820279E+02 -0.24613283970E+02 -0.18865593694E+03  0.19072913258E+03  0.20000171112E+01 0.  0.
        -13    1    3    3    0    0  0.13293820279E+02  0.24613283970E+02 -0.26447467368E+02  0.38497001177E+02  0.10566000000E+00 0.  1.
         13    1    4    4    0    0 -0.60303209935E+01 -0.98881115756E+01 -0.75411993674E+02  0.76296261217E+02  0.10566000000E+00 0. -1.
        -13    1    4    4    0    0 -0.16264753071E+01 -0.43288273583E+01 -0.31289620773E+02  0.31629664879E+02  0.10566000000E+00 0.  1.
         14    1    4    4    0    0 -0.56370239786E+01 -0.10396345036E+02 -0.81954322492E+02  0.82803206487E+02  0.00000000000E+00 0. -1.
<mgrwt>
<rscale>  0 0.79215818E+02</rscale>
<asrwt>0</asrwt>
<pdfrwt beam="1">  1        2 0.34179190E-01 0.79215818E+02</pdfrwt>
<pdfrwt beam="2">  1       -1 0.10863640E-02 0.79215818E+02</pdfrwt>
<totfact> 0.23487491E+05</totfact>
</mgrwt>
</event>
<event>
 8    1  0.2389776E-016  0.7950872E+02  0.7818608E-02  0.1330451E+00
          2   -1    0    0  501    0  0.00000000000E+00  0.00000000000E+00  0.19465940624E+02  0.19465940791E+02  0.25500000000E-02 0. -1.
         -1   -1    0    0    0  501 -0.00000000000E+00 -0.00000000000E+00 -0.81188430547E+02  0.81188430703E+02  0.50400000000E-02 0.  1.
         24    2    1    2    0    0  0.35527136788E-14  0.00000000000E+00 -0.61722489923E+02  0.10065437149E+03  0.79508721148E+02 0.  0.
         66    2    3    3    0    0  0.19328896564E+02 -0.22384747081E+02  0.27021790644E+01  0.29765498725E+02  0.19999995988E+01 0.  0.
        -13    1    3    3    0    0 -0.19328896564E+02  0.22384747081E+02 -0.64424668988E+02  0.70888872769E+02  0.10566000000E+00 0.  1.
         13    1    4    4    0    0  0.80919680280E+01 -0.91122005890E+01  0.15840648831E+01  0.12289530981E+02  0.10566000000E+00 0. -1.
        -13    1    4    4    0    0  0.53302638726E+01 -0.72566158320E+01  0.37379418189E+00  0.90122734319E+01  0.10566000000E+00 0.  1.
         14    1    4    4    0    0  0.59066646631E+01 -0.60159306604E+01  0.74431999937E+00  0.84636943124E+01  0.00000000000E+00 0. -1.
<mgrwt>
<rscale>  0 0.79508721E+02</rscale>
<asrwt>0</asrwt>
<pdfrwt beam="1">  1        2 0.29947602E-02 0.79508721E+02</pdfrwt>
<pdfrwt beam="2">  1       -1 0.12490528E-01 0.79508721E+02</pdfrwt>
<totfact> 0.12568437E+05</totfact>
</mgrwt>
</event>
<event>
 8    1  0.2389776E-016  0.7998358E+02  0.7818608E-02  0.1329098E+00
         -1   -1    0    0    0  501 -0.00000000000E+00  0.00000000000E+00  0.87802332424E+02  0.87802332569E+02  0.50400000000E-02 0.  1.
          2   -1    0    0  501    0  0.00000000000E+00 -0.00000000000E+00 -0.18215272828E+02  0.18215273006E+02  0.25500000000E-02 0. -1.
         24    2    1    2    0    0  0.35527136788E-14  0.00000000000E+00  0.69587059596E+02  0.10601760557E+03  0.79983584745E+02 0.  0.
         66    2    3    3    0    0  0.18062991682E+02  0.19724331477E+01 -0.12368873320E+02  0.22071502239E+02  0.20000057141E+01 0.  0.
        -13    1    3    3    0    0 -0.18062991682E+02 -0.19724331477E+01  0.81955932916E+02  0.83946103336E+02  0.10566000000E+00 0.  1.
         13    1    4    4    0    0  0.14466443205E+02  0.15206695008E+01 -0.94516019311E+01  0.17347459694E+02  0.10566000000E+00 0. -1.
        -13    1    4    4    0    0  0.50312227060E+00 -0.82561302851E-01 -0.15693231162E+00  0.54381998302E+00  0.10566000000E+00 0. -1.
        -14    1    4    4    0    0  0.30934262061E+01  0.53432494982E+00 -0.27603390776E+01  0.41802225620E+01  0.00000000000E+00 0.  1.
<mgrwt>
<rscale>  0 0.79983585E+02</rscale>
<asrwt>0</asrwt>
<pdfrwt beam="1">  1        2 0.28023497E-02 0.79983585E+02</pdfrwt>
<pdfrwt beam="2">  1       -1 0.13508051E-01 0.79983585E+02</pdfrwt>
<totfact> 0.12187966E+05</totfact>
</mgrwt>
</event>
<event>
 8    1  0.2389776E-016  0.7291250E+02  0.7818608E-02  0.1350460E+00
         -1   -1    0    0    0  501 -0.00000000000E+00  0.00000000000E+00  0.26019978569E+01  0.26020027381E+01  0.50400000000E-02 0.  1.
          2   -1    0    0  501    0  0.00000000000E+00 -0.00000000000E+00 -0.51078322822E+03  0.51078322823E+03  0.25500000000E-02 0. -1.
         24    2    1    2    0    0  0.35527136788E-14  0.88817841970E-15 -0.50818123036E+03  0.51338523096E+03  0.72912498785E+02 0.  0.
         66    2    3    3    0    0  0.19414794109E+02 -0.79617387138E+01 -0.46395161911E+03  0.46443021907E+03  0.20000000031E+01 0.  0.
        -13    1    3    3    0    0 -0.19414794109E+02  0.79617387138E+01 -0.44229611253E+02  0.48955011891E+02  0.10566000000E+00 0.  1.
         13    1    4    4    0    0  0.44255793568E+01 -0.19974581450E+01 -0.11778734763E+03  0.11788742943E+03  0.10566000000E+00 0. -1.
        -13    1    4    4    0    0  0.24978676999E+01 -0.46112170452E+00 -0.53333536468E+02  0.53394093798E+02  0.10566000000E+00 0.  1.
         14    1    4    4    0    0  0.12491347052E+02 -0.55031588642E+01 -0.29283073501E+03  0.29314869584E+03  0.00000000000E+00 0. -1.
<mgrwt>
<rscale>  0 0.72912499E+02</rscale>
<asrwt>0</asrwt>
<pdfrwt beam="1">  1        2 0.78581955E-01 0.72912499E+02</pdfrwt>
<pdfrwt beam="2">  1       -1 0.40030815E-03 0.72912499E+02</pdfrwt>
<totfact> 0.38994585E+05</totfact>
</mgrwt>
</event>
<event>
 8    1  0.2389776E-016  0.7679799E+02  0.7818608E-02  0.1338392E+00
         -1   -1    0    0    0  501 -0.00000000000E+00  0.00000000000E+00  0.14037570995E+03  0.14037571004E+03  0.50400000000E-02 0.  1.
          2   -1    0    0  501    0  0.00000000000E+00 -0.00000000000E+00 -0.10503830068E+02  0.10503830377E+02  0.25500000000E-02 0. -1.
         24    2    1    2    0    0 -0.17763568394E-14 -0.35527136788E-14  0.12987187988E+03  0.15087954042E+03  0.76797985212E+02 0.  0.
         66    2    3    3    0    0 -0.81549978324E+01  0.25295868883E+02  0.10602110581E+02  0.28684311356E+02  0.19999992570E+01 0.  0.
        -13    1    3    3    0    0  0.81549978324E+01 -0.25295868883E+02  0.11926976930E+03  0.12219522906E+03  0.10566000000E+00 0.  1.
         13    1    4    4    0    0 -0.40296942343E+01  0.11730666946E+02  0.44300042937E+01  0.13171297761E+02  0.10566000000E+00 0. -1.
        -13    1    4    4    0    0 -0.36033957885E+01  0.12836212083E+02  0.57054477164E+01  0.14502279115E+02  0.10566000000E+00 0.  1.
        -14    1    4    4    0    0 -0.52190780960E+00  0.72898985355E+00  0.46665857049E+00  0.10107344803E+01  0.00000000000E+00 0.  1.
<mgrwt>
<rscale>  0 0.76797985E+02</rscale>
<asrwt>0</asrwt>
<pdfrwt beam="1">  1        2 0.16159740E-02 0.76797985E+02</pdfrwt>
<pdfrwt beam="2">  1       -1 0.21596261E-01 0.76797985E+02</pdfrwt>
<totfact> 0.12157971E+05</totfact>
</mgrwt>
</event>
<event>
 8    1  0.2389776E-016  0.7770111E+02  0.7818608E-02  0.1335705E+00
          2   -1    0    0  501    0  0.00000000000E+00  0.00000000000E+00  0.41890683525E+03  0.41890683526E+03  0.25500000000E-02 0. -1.
         -1   -1    0    0    0  501 -0.00000000000E+00 -0.00000000000E+00 -0.36031038836E+01  0.36031074086E+01  0.50400000000E-02 0.  1.
         24    2    1    2    0    0 -0.35527136788E-14  0.00000000000E+00  0.41530373136E+03  0.42250994266E+03  0.77701109163E+02 0.  0.
         66    2    3    3    0    0 -0.29708430451E+02 -0.15122366263E+02  0.31600800069E+03  0.31776773486E+03  0.20000044113E+01 0.  0.
        -13    1    3    3    0    0  0.29708430451E+02  0.15122366263E+02  0.99295730677E+02  0.10474220781E+03  0.10566000000E+00 0.  1.
         13    1    4    4    0    0 -0.11298668473E+02 -0.59643800631E+01  0.12183883025E+03  0.12250692005E+03  0.10566000000E+00 0. -1.
        -13    1    4    4    0    0 -0.13828826701E+02 -0.62248920015E+01  0.14594132034E+03  0.14672718179E+03  0.10566000000E+00 0.  1.
        -14    1    4    4    0    0 -0.45809352777E+01 -0.29330941980E+01  0.48227850095E+02  0.48533633023E+02  0.00000000000E+00 0.  1.
<mgrwt>
<rscale>  0 0.77701109E+02</rscale>
<asrwt>0</asrwt>
<pdfrwt beam="1">  1        2 0.64447158E-01 0.77701109E+02</pdfrwt>
<pdfrwt beam="2">  1       -1 0.55432435E-03 0.77701109E+02</pdfrwt>
<totfact> 0.30977834E+05</totfact>
</mgrwt>
</event>
<event>
 8    1  0.2389776E-016  0.8019970E+02  0.7818608E-02  0.1328486E+00
         -1   -1    0    0    0  501 -0.00000000000E+00  0.00000000000E+00  0.26825091021E+01  0.26825138368E+01  0.50400000000E-02 0.  1.
          2   -1    0    0  501    0  0.00000000000E+00 -0.00000000000E+00 -0.59943748002E+03  0.59943748003E+03  0.25500000000E-02 0. -1.
         24    2    1    2    0    0  0.00000000000E+00  0.00000000000E+00 -0.59675497092E+03  0.60211999386E+03  0.80199698836E+02 0.  0.
         66    2    3    3    0    0  0.18519551897E+02 -0.89765430873E+01 -0.55672910509E+03  0.55711295855E+03  0.20000005658E+01 0.  0.
        -13    1    3    3    0    0 -0.18519551897E+02  0.89765430873E+01 -0.40025865829E+02  0.45007035312E+02  0.10566000000E+00 0.  1.
         13    1    4    4    0    0  0.15300251625E+02 -0.80346252418E+01 -0.46868431557E+03  0.46900282699E+03  0.10566000000E+00 0. -1.
        -13    1    4    4    0    0  0.96808781235E+00 -0.34139997060E+00 -0.32806141248E+02  0.32822367611E+02  0.10566000000E+00 0.  1.
         14    1    4    4    0    0  0.22512124596E+01 -0.60051787487E+00 -0.55238648277E+02  0.55287763951E+02  0.00000000000E+00 0. -1.
<mgrwt>
<rscale>  0 0.80199699E+02</rscale>
<asrwt>0</asrwt>
<pdfrwt beam="1">  1        2 0.92221044E-01 0.80199699E+02</pdfrwt>
<pdfrwt beam="2">  1       -1 0.41269455E-03 0.80199699E+02</pdfrwt>
<totfact> 0.31947159E+05</totfact>
</mgrwt>
</event>
<event>
 8    1  0.2389776E-016  0.7983400E+02  0.7818608E-02  0.1329523E+00
         -1   -1    0    0    0  501 -0.00000000000E+00  0.00000000000E+00  0.63748244759E+01  0.63748264682E+01  0.50400000000E-02 0.  1.
          2   -1    0    0  501    0  0.00000000000E+00 -0.00000000000E+00 -0.24994676500E+03  0.24994676502E+03  0.25500000000E-02 0. -1.
         24    2    1    2    0    0  0.00000000000E+00  0.17763568394E-14 -0.24357194053E+03  0.25632159148E+03  0.79834003087E+02 0.  0.
         66    2    3    3    0    0  0.87152135450E+01 -0.10927519762E+02 -0.24182301305E+03  0.24223487623E+03  0.19999967272E+01 0.  0.
        -13    1    3    3    0    0 -0.87152135450E+01  0.10927519762E+02 -0.17489274780E+01  0.14086715254E+02  0.10566000000E+00 0.  1.
         13    1    4    4    0    0  0.52460295476E+01 -0.64901621330E+01 -0.12875326044E+03  0.12902347177E+03  0.10566000000E+00 0. -1.
        -13    1    4    4    0    0  0.72233861249E+00 -0.89352073069E+00 -0.27633115297E+02  0.27657193954E+02  0.10566000000E+00 0.  1.
         14    1    4    4    0    0  0.27468453849E+01 -0.35438368984E+01 -0.85436637313E+02  0.85554210504E+02  0.00000000000E+00 0. -1.
<mgrwt>
<rscale>  0 0.79834003E+02</rscale>
<asrwt>0</asrwt>
<pdfrwt beam="1">  1        2 0.38453341E-01 0.79834003E+02</pdfrwt>
<pdfrwt beam="2">  1       -1 0.98074258E-03 0.79834003E+02</pdfrwt>
<totfact> 0.23997217E+05</totfact>
</mgrwt>
</event>
<event>
 8    1  0.2389776E-016  0.7401388E+02  0.7818608E-02  0.1346952E+00
         -1   -1    0    0    0  501 -0.00000000000E+00  0.00000000000E+00  0.51741387290E+01  0.51741411836E+01  0.50400000000E-02 0.  1.
          2   -1    0    0  501    0  0.00000000000E+00 -0.00000000000E+00 -0.26468427520E+03  0.26468427521E+03  0.25500000000E-02 0. -1.
         24    2    1    2    0    0  0.00000000000E+00  0.00000000000E+00 -0.25951013647E+03  0.26985841639E+03  0.74013876864E+02 0.  0.
         66    2    3    3    0    0 -0.53186618525E+01  0.31098188910E+02 -0.20018368245E+03  0.20266448194E+03  0.20000003917E+01 0.  0.
        -13    1    3    3    0    0  0.53186618525E+01 -0.31098188910E+02 -0.59326454013E+02  0.67193934453E+02  0.10566000000E+00 0.  1.
         13    1    4    4    0    0 -0.17247916145E+01  0.87230172419E+01 -0.55210152946E+02  0.55921713924E+02  0.10566000000E+00 0. -1.
        -13    1    4    4    0    0 -0.23855894747E+01  0.13077144750E+02 -0.89683124457E+02  0.90662984334E+02  0.10566000000E+00 0.  1.
         14    1    4    4    0    0 -0.12082807632E+01  0.92980269189E+01 -0.55290405051E+02  0.56079783681E+02  0.00000000000E+00 0. -1.
<mgrwt>
<rscale>  0 0.74013877E+02</rscale>
<asrwt>0</asrwt>
<pdfrwt beam="1">  1        2 0.40720647E-01 0.74013877E+02</pdfrwt>
<pdfrwt beam="2">  1       -1 0.79602174E-03 0.74013877E+02</pdfrwt>
<totfact> 0.29859674E+05</totfact>
</mgrwt>
</event>
<event>
 8    1  0.2389776E-016  0.7820971E+02  0.7818608E-02  0.1334210E+00
          2   -1    0    0  501    0  0.00000000000E+00  0.00000000000E+00  0.62128365831E+02  0.62128365883E+02  0.25500000000E-02 0. -1.
         -1   -1    0    0    0  501 -0.00000000000E+00 -0.00000000000E+00 -0.24613387461E+02  0.24613387977E+02  0.50400000000E-02 0.  1.
         24    2    1    2    0    0 -0.17763568394E-14  0.00000000000E+00  0.37514978370E+02  0.86741753860E+02  0.78209706947E+02 0.  0.
         66    2    3    3    0    0 -0.14008552172E+02  0.24832957383E+02  0.48411109576E+02  0.56218776522E+02  0.19999992337E+01 0.  0.
        -13    1    3    3    0    0  0.14008552172E+02 -0.24832957383E+02 -0.10896131206E+02  0.30522977338E+02  0.10566000000E+00 0.  1.
         13    1    4    4    0    0 -0.21035378626E+01  0.26758227257E+01  0.65135433805E+01  0.73499870887E+01  0.10566000000E+00 0. -1.
        -13    1    4    4    0    0 -0.17311519755E+01  0.32429135878E+01  0.60666168960E+01  0.70942498052E+01  0.10566000000E+00 0.  1.
         14    1    4    4    0    0 -0.10173862334E+02  0.18914221069E+02  0.35830949300E+02  0.41774539628E+02  0.00000000000E+00 0. -1.
<mgrwt>
<rscale>  0 0.78209707E+02</rscale>
<asrwt>0</asrwt>
<pdfrwt beam="1">  1        2 0.95582101E-02 0.78209707E+02</pdfrwt>
<pdfrwt beam="2">  1       -1 0.37866751E-02 0.78209707E+02</pdfrwt>
<totfact> 0.16686698E+05</totfact>
</mgrwt>
</event>
<event>
 8    1  0.2389776E-016  0.8082246E+02  0.7818608E-02  0.1326733E+00
          2   -1    0    0  501    0  0.00000000000E+00  0.00000000000E+00  0.26029565665E+03  0.26029565667E+03  0.25500000000E-02 0. -1.
         -1   -1    0    0    0  501 -0.00000000000E+00 -0.00000000000E+00 -0.62738935066E+01  0.62738955310E+01  0.50400000000E-02 0.  1.
         24    2    1    2    0    0 -0.71054273576E-14  0.00000000000E+00  0.25402176315E+03  0.26656955220E+03  0.80822459788E+02 0.  0.
         66    2    3    3    0    0  0.36661359621E+02  0.53729169023E+01  0.18007982845E+03  0.18386317762E+03  0.19999859003E+01 0.  0.
        -13    1    3    3    0    0 -0.36661359621E+02 -0.53729169023E+01  0.73941934695E+02  0.82706374577E+02  0.10566000000E+00 0.  1.
         13    1    4    4    0    0  0.16281649405E+02  0.20304252955E+01  0.75509050490E+02  0.77271227531E+02  0.10566000000E+00 0.  1.
        -13    1    4    4    0    0  0.34654011502E+01  0.59000927620E+00  0.16908913761E+02  0.17270774293E+02  0.10566000000E+00 0. -1.
        -14    1    4    4    0    0  0.16914309066E+02  0.27524823307E+01  0.87661864201E+02  0.89321175795E+02  0.00000000000E+00 0.  1.
<mgrwt>
<rscale>  0 0.80822460E+02</rscale>
<asrwt>0</asrwt>
<pdfrwt beam="1">  1        2 0.40045493E-01 0.80822460E+02</pdfrwt>
<pdfrwt beam="2">  1       -1 0.96521438E-03 0.80822460E+02</pdfrwt>
<totfact> 0.23574763E+05</totfact>
</mgrwt>
</event>
<event>
 8    1  0.2389776E-016  0.7964055E+02  0.7818608E-02  0.1330075E+00
         -1   -1    0    0    0  501 -0.00000000000E+00  0.00000000000E+00  0.16060033404E+01  0.16060112487E+01  0.50400000000E-02 0.  1.
          2   -1    0    0  501    0  0.00000000000E+00 -0.00000000000E+00 -0.98732690313E+03  0.98732690313E+03  0.25500000000E-02 0. -1.
         24    2    1    2    0    0 -0.17763568394E-14 -0.17763568394E-14 -0.98572089978E+03  0.98893291438E+03  0.79640547875E+02 0.  0.
         66    2    3    3    0    0  0.11029427240E+02  0.10198969294E+02 -0.95076364996E+03  0.95088442270E+03  0.19999997950E+01 0.  0.
        -13    1    3    3    0    0 -0.11029427240E+02 -0.10198969294E+02 -0.34957249824E+02  0.38048491681E+02  0.10566000000E+00 0.  1.
         13    1    4    4    0    0  0.67157098535E+01  0.65032060030E+01 -0.56327223039E+03  0.56334981063E+03  0.10566000000E+00 0. -1.
        -13    1    4    4    0    0  0.39964054864E+01  0.31568914897E+01 -0.36026818078E+03  0.36030419158E+03  0.10566000000E+00 0.  1.
         14    1    4    4    0    0  0.31731190034E+00  0.53887180176E+00 -0.27223238788E+02  0.27230420484E+02  0.00000000000E+00 0. -1.
<mgrwt>
<rscale>  0 0.79640548E+02</rscale>
<asrwt>0</asrwt>
<pdfrwt beam="1">  1        2 0.15189596E+00 0.79640548E+02</pdfrwt>
<pdfrwt beam="2">  1       -1 0.24707884E-03 0.79640548E+02</pdfrwt>
<totfact> 0.35624340E+05</totfact>
</mgrwt>
</event>
<event>
 8    1  0.2389776E-016  0.7985304E+02  0.7818608E-02  0.1329469E+00
          2   -1    0    0  501    0  0.00000000000E+00  0.00000000000E+00  0.13738507620E+03  0.13738507623E+03  0.25500000000E-02 0. -1.
         -1   -1    0    0    0  501 -0.00000000000E+00 -0.00000000000E+00 -0.11603348718E+02  0.11603349813E+02  0.50400000000E-02 0.  1.
         24    2    1    2    0    0  0.00000000000E+00 -0.35527136788E-14  0.12578172749E+03  0.14898842604E+03  0.79853040798E+02 0.  0.
         66    2    3    3    0    0 -0.11823906167E+02 -0.22577379334E+02  0.12021244800E+03  0.12290067312E+03  0.19999957659E+01 0.  0.
        -13    1    3    3    0    0  0.11823906167E+02  0.22577379334E+02  0.55692794843E+01  0.26087752925E+02  0.10566000000E+00 0.  1.
         13    1    4    4    0    0 -0.30932423043E+01 -0.52500459390E+01  0.28086568197E+02  0.28740174102E+02  0.10566000000E+00 0. -1.
        -13    1    4    4    0    0 -0.43145040973E+01 -0.68292762368E+01  0.37838125049E+02  0.38690939906E+02  0.10566000000E+00 0.  1.
         14    1    4    4    0    0 -0.44161597658E+01 -0.10498057158E+02  0.54287754755E+02  0.55469559107E+02  0.00000000000E+00 0. -1.
<mgrwt>
<rscale>  0 0.79853041E+02</rscale>
<asrwt>0</asrwt>
<pdfrwt beam="1">  1        2 0.21136165E-01 0.79853041E+02</pdfrwt>
<pdfrwt beam="2">  1       -1 0.17851307E-02 0.79853041E+02</pdfrwt>
<totfact> 0.19573686E+05</totfact>
</mgrwt>
</event>
<event>
 8    1  0.2389776E-016  0.8116312E+02  0.7818608E-02  0.1325783E+00
         -1   -1    0    0    0  501 -0.00000000000E+00  0.00000000000E+00  0.84916804583E+01  0.84916819540E+01  0.50400000000E-02 0.  1.
          2   -1    0    0  501    0  0.00000000000E+00 -0.00000000000E+00 -0.19393837185E+03  0.19393837186E+03  0.25500000000E-02 0. -1.
         24    2    1    2    0    0 -0.17763568394E-14  0.88817841970E-15 -0.18544669139E+03  0.20243005382E+03  0.81163115647E+02 0.  0.
         66    2    3    3    0    0 -0.12929176502E+02  0.75163038960E+01 -0.18680458908E+03  0.18741294759E+03  0.19999979641E+01 0.  0.
        -13    1    3    3    0    0  0.12929176502E+02 -0.75163038960E+01  0.13578976959E+01  0.15017106228E+02  0.10566000000E+00 0.  1.
         13    1    4    4    0    0 -0.66142074508E+01  0.30906666409E+01 -0.84217105966E+02  0.84533023499E+02  0.10566000000E+00 0. -1.
        -13    1    4    4    0    0 -0.25014077186E+01  0.13098592381E+01 -0.36453520450E+02  0.36562864891E+02  0.10566000000E+00 0. -1.
        -14    1    4    4    0    0 -0.38135613327E+01  0.31157780169E+01 -0.66133962667E+02  0.66317059199E+02  0.00000000000E+00 0.  1.
<mgrwt>
<rscale>  0 0.81163116E+02</rscale>
<asrwt>0</asrwt>
<pdfrwt beam="1">  1        2 0.29836669E-01 0.81163116E+02</pdfrwt>
<pdfrwt beam="2">  1       -1 0.13064126E-02 0.81163116E+02</pdfrwt>
<totfact> 0.21008100E+05</totfact>
</mgrwt>
</event>
<event>
 8    1  0.2389776E-016  0.8199088E+02  0.7818608E-02  0.1323495E+00
          2   -1    0    0  501    0  0.00000000000E+00  0.00000000000E+00  0.14248541698E+02  0.14248541926E+02  0.25500000000E-02 0. -1.
         -1   -1    0    0    0  501 -0.00000000000E+00 -0.00000000000E+00 -0.11795073129E+03  0.11795073140E+03  0.50400000000E-02 0.  1.
         24    2    1    2    0    0  0.00000000000E+00  0.00000000000E+00 -0.10370218959E+03  0.13219927332E+03  0.81990875962E+02 0.  0.
         66    2    3    3    0    0  0.19888417603E+02  0.67070009383E+01  0.48516008848E+01  0.21634949931E+02  0.20000027624E+01 0.  0.
        -13    1    3    3    0    0 -0.19888417603E+02 -0.67070009383E+01 -0.10855379048E+03  0.11056432339E+03  0.10566000000E+00 0.  1.
         13    1    4    4    0    0  0.89535688858E+01  0.22389696643E+01  0.15133325707E+01  0.93531128752E+01  0.10566000000E+00 0. -1.
        -13    1    4    4    0    0  0.25934719309E+01  0.10875956884E+01  0.64595878425E+00  0.28874535190E+01  0.10566000000E+00 0.  1.
         14    1    4    4    0    0  0.83413767858E+01  0.33804355855E+01  0.26923095299E+01  0.93943835367E+01  0.00000000000E+00 0. -1.
<mgrwt>
<rscale>  0 0.81990876E+02</rscale>
<asrwt>0</asrwt>
<pdfrwt beam="1">  1        2 0.21920834E-02 0.81990876E+02</pdfrwt>
<pdfrwt beam="2">  1       -1 0.18146266E-01 0.81990876E+02</pdfrwt>
<totfact> 0.10745796E+05</totfact>
</mgrwt>
</event>
<event>
 8    1  0.2389776E-016  0.7873985E+02  0.7818608E-02  0.1332666E+00
          2   -1    0    0  501    0  0.00000000000E+00  0.00000000000E+00  0.60810388651E+01  0.60810393997E+01  0.25500000000E-02 0. -1.
         -1   -1    0    0    0  501 -0.00000000000E+00 -0.00000000000E+00 -0.25488915515E+03  0.25488915520E+03  0.50400000000E-02 0.  1.
         24    2    1    2    0    0  0.00000000000E+00  0.00000000000E+00 -0.24880811629E+03  0.26097019460E+03  0.78739848490E+02 0.  0.
         66    2    3    3    0    0  0.36919666776E+02  0.30316405457E+01 -0.80547799768E+02  0.88680328624E+02  0.19999995739E+01 0.  0.
        -13    1    3    3    0    0 -0.36919666776E+02 -0.30316405457E+01 -0.16826031652E+03  0.17228986598E+03  0.10566000000E+00 0.  1.
         13    1    4    4    0    0  0.98944547988E+01  0.61381924562E+00 -0.20047985530E+02  0.22365372737E+02  0.10566000000E+00 0. -1.
        -13    1    4    4    0    0  0.21228678243E+02  0.14575684644E+01 -0.47694393335E+02  0.52225928478E+02  0.10566000000E+00 0.  1.
         14    1    4    4    0    0  0.57965337336E+01  0.96025283567E+00 -0.12805420903E+02  0.14089027410E+02  0.00000000000E+00 0. -1.
<mgrwt>
<rscale>  0 0.78739848E+02</rscale>
<asrwt>0</asrwt>
<pdfrwt beam="1">  1        2 0.93554468E-03 0.78739848E+02</pdfrwt>
<pdfrwt beam="2">  1       -1 0.39213708E-01 0.78739848E+02</pdfrwt>
<totfact> 0.95782751E+04</totfact>
</mgrwt>
</event>
<event>
 8    1  0.2389776E-016  0.7771325E+02  0.7818608E-02  0.1335669E+00
         -1   -1    0    0    0  501 -0.00000000000E+00  0.00000000000E+00  0.41024530312E+01  0.41024561271E+01  0.50400000000E-02 0.  1.
          2   -1    0    0  501    0  0.00000000000E+00 -0.00000000000E+00 -0.36803266221E+03  0.36803266222E+03  0.25500000000E-02 0. -1.
         24    2    1    2    0    0  0.00000000000E+00 -0.35527136788E-14 -0.36393020918E+03  0.37213511835E+03  0.77713249536E+02 0.  0.
         66    2    3    3    0    0 -0.62539552957E+01  0.20402355907E+02 -0.33743457693E+03  0.33811456903E+03  0.19999998573E+01 0.  0.
        -13    1    3    3    0    0  0.62539552957E+01 -0.20402355907E+02 -0.26495632247E+02  0.34020549313E+02  0.10566000000E+00 0.  1.
         13    1    4    4    0    0 -0.21801494696E+01  0.68852120646E+01 -0.11906257347E+03  0.11928146026E+03  0.10566000000E+00 0. -1.
        -13    1    4    4    0    0 -0.14927743126E+01  0.64216739324E+01 -0.11140865143E+03  0.11160360679E+03  0.10566000000E+00 0.  1.
         14    1    4    4    0    0 -0.25810315136E+01  0.70954699097E+01 -0.10696335204E+03  0.10722950199E+03  0.00000000000E+00 0. -1.
<mgrwt>
<rscale>  0 0.77713250E+02</rscale>
<asrwt>0</asrwt>
<pdfrwt beam="1">  1        2 0.56620383E-01 0.77713250E+02</pdfrwt>
<pdfrwt beam="2">  1       -1 0.63114715E-03 0.77713250E+02</pdfrwt>
<totfact> 0.29593534E+05</totfact>
</mgrwt>
</event>
<event>
 8    1  0.2389776E-016  0.8234956E+02  0.7818608E-02  0.1322513E+00
         -1   -1    0    0    0  501 -0.00000000000E+00  0.00000000000E+00  0.41563354235E+01  0.41563384792E+01  0.50400000000E-02 0.  1.
          2   -1    0    0  501    0  0.00000000000E+00 -0.00000000000E+00 -0.40789819687E+03  0.40789819688E+03  0.25500000000E-02 0. -1.
         24    2    1    2    0    0  0.22204460493E-15  0.00000000000E+00 -0.40374186145E+03  0.41205453536E+03  0.82349556308E+02 0.  0.
         66    2    3    3    0    0 -0.12046473264E+01 -0.26423204552E+02 -0.35972375485E+03  0.36070045289E+03  0.19999989636E+01 0.  0.
        -13    1    3    3    0    0  0.12046473264E+01  0.26423204552E+02 -0.44018106600E+02  0.51354082473E+02  0.10566000000E+00 0.  1.
         13    1    4    4    0    0 -0.11461419826E+01 -0.20052251069E+02 -0.28208452009E+03  0.28279868114E+03  0.10566000000E+00 0. -1.
        -13    1    4    4    0    0 -0.11655480457E+00 -0.22760911868E+01 -0.25402386724E+02  0.25504638626E+02  0.10566000000E+00 0.  1.
         14    1    4    4    0    0  0.58049460764E-01 -0.40948622964E+01 -0.52236848035E+02  0.52397133123E+02  0.00000000000E+00 0. -1.
<mgrwt>
<rscale>  0 0.82349556E+02</rscale>
<asrwt>0</asrwt>
<pdfrwt beam="1">  1        2 0.62753537E-01 0.82349556E+02</pdfrwt>
<pdfrwt beam="2">  1       -1 0.63943678E-03 0.82349556E+02</pdfrwt>
<totfact> 0.26372770E+05</totfact>
</mgrwt>
</event>
<event>
 8    1  0.2389776E-016  0.8297054E+02  0.7818608E-02  0.1320827E+00
          2   -1    0    0  501    0  0.00000000000E+00  0.00000000000E+00  0.42106133627E+03  0.42106133627E+03  0.25500000000E-02 0. -1.
         -1   -1    0    0    0  501 -0.00000000000E+00 -0.00000000000E+00 -0.40873550174E+01  0.40873581247E+01  0.50400000000E-02 0.  1.
         24    2    1    2    0    0  0.00000000000E+00  0.00000000000E+00  0.41697398125E+03  0.42514869440E+03  0.82970544836E+02 0.  0.
         66    2    3    3    0    0 -0.35659237978E+02 -0.21152249154E+02  0.20781487763E+03  0.21191984858E+03  0.19999903557E+01 0.  0.
        -13    1    3    3    0    0  0.35659237978E+02  0.21152249154E+02  0.20915910362E+03  0.21322884581E+03  0.10566000000E+00 0.  1.
         13    1    4    4    0    0 -0.20467039245E+02 -0.12136825538E+02  0.11962923214E+03  0.12197281081E+03  0.10566000000E+00 0. -1.
        -13    1    4    4    0    0 -0.12959261071E+02 -0.73782244069E+01  0.72310984909E+02  0.73832718665E+02  0.10566000000E+00 0.  1.
         14    1    4    4    0    0 -0.22329376616E+01 -0.16371992096E+01  0.15874660582E+02  0.16114319112E+02  0.00000000000E+00 0. -1.
<mgrwt>
<rscale>  0 0.82970545E+02</rscale>
<asrwt>0</asrwt>
<pdfrwt beam="1">  1        2 0.64778690E-01 0.82970545E+02</pdfrwt>
<pdfrwt beam="2">  1       -1 0.62882387E-03 0.82970545E+02</pdfrwt>
<totfact> 0.26145268E+05</totfact>
</mgrwt>
</event>
<event>
 8    1  0.2389776E-016  0.7073854E+02  0.7818608E-02  0.1357599E+00
         -1   -1    0    0    0  501 -0.00000000000E+00  0.00000000000E+00  0.16644133335E+01  0.16644209643E+01  0.50400000000E-02 0.  1.
          2   -1    0    0  501    0  0.00000000000E+00 -0.00000000000E+00 -0.75160564692E+03  0.75160564693E+03  0.25500000000E-02 0. -1.
         24    2    1    2    0    0  0.00000000000E+00  0.35527136788E-14 -0.74994123359E+03  0.75327006789E+03  0.70738542138E+02 0.  0.
         66    2    3    3    0    0 -0.16336256809E+02 -0.18057853483E+02 -0.64801247366E+03  0.64847291801E+03  0.20000029606E+01 0.  0.
        -13    1    3    3    0    0  0.16336256809E+02  0.18057853483E+02 -0.10192875993E+03  0.10479714988E+03  0.10566000000E+00 0.  1.
         13    1    4    4    0    0 -0.60310868938E+00 -0.10535715709E+01 -0.36787092818E+02  0.36807269869E+02  0.10566000000E+00 0. -1.
        -13    1    4    4    0    0 -0.13843951649E+01 -0.16562876974E+01 -0.66977073710E+02  0.67011934800E+02  0.10566000000E+00 0.  1.
         14    1    4    4    0    0 -0.14348752955E+02 -0.15347994215E+02 -0.54424830713E+03  0.54465371334E+03  0.00000000000E+00 0. -1.
<mgrwt>
<rscale>  0 0.70738542E+02</rscale>
<asrwt>0</asrwt>
<pdfrwt beam="1">  1        2 0.11563137E+00 0.70738542E+02</pdfrwt>
<pdfrwt beam="2">  1       -1 0.25606478E-03 0.70738542E+02</pdfrwt>
<totfact> 0.46668117E+05</totfact>
</mgrwt>
</event>
<event>
 8    1  0.2389776E-016  0.7940984E+02  0.7818608E-02  0.1330735E+00
         -1   -1    0    0    0  501 -0.00000000000E+00  0.00000000000E+00  0.42315371946E+01  0.42315401960E+01  0.50400000000E-02 0.  1.
          2   -1    0    0  501    0  0.00000000000E+00 -0.00000000000E+00 -0.37255490482E+03  0.37255490483E+03  0.25500000000E-02 0. -1.
         24    2    1    2    0    0  0.00000000000E+00  0.00000000000E+00 -0.36832336763E+03  0.37678644503E+03  0.79409835760E+02 0.  0.
         66    2    3    3    0    0  0.38746141332E+01 -0.15794283422E+02 -0.35601253984E+03  0.35638939455E+03  0.19999992277E+01 0.  0.
        -13    1    3    3    0    0 -0.38746141332E+01  0.15794283422E+02 -0.12310827785E+02  0.20397050479E+02  0.10566000000E+00 0.  1.
         13    1    4    4    0    0  0.20034383326E+01 -0.10965388123E+02 -0.25385387156E+03  0.25409850998E+03  0.10566000000E+00 0. -1.
        -13    1    4    4    0    0  0.52286984580E+00 -0.19227719654E+01 -0.38864544853E+02  0.38915735321E+02  0.10566000000E+00 0. -1.
         14    1    4    4    0    0  0.13483059549E+01 -0.29061233333E+01 -0.63294123427E+02  0.63375149248E+02  0.00000000000E+00 0. -1.
<mgrwt>
<rscale>  0 0.79409836E+02</rscale>
<asrwt>0</asrwt>
<pdfrwt beam="1">  1        2 0.57316114E-01 0.79409836E+02</pdfrwt>
<pdfrwt beam="2">  1       -1 0.65100625E-03 0.79409836E+02</pdfrwt>
<totfact> 0.28092633E+05</totfact>
</mgrwt>
</event>
<event>
 8    1  0.2389776E-016  0.7993397E+02  0.7818608E-02  0.1329239E+00
         -1   -1    0    0    0  501 -0.00000000000E+00  0.00000000000E+00  0.11156266392E+03  0.11156266404E+03  0.50400000000E-02 0.  1.
          2   -1    0    0  501    0  0.00000000000E+00 -0.00000000000E+00 -0.14318049272E+02  0.14318049499E+02  0.25500000000E-02 0. -1.
         24    2    1    2    0    0  0.00000000000E+00  0.00000000000E+00  0.97244614651E+02  0.12588071354E+03  0.79933966257E+02 0.  0.
         66    2    3    3    0    0  0.69517244113E+01  0.17175514021E+02 -0.70704295988E+01  0.19932781158E+02  0.20000089520E+01 0.  0.
        -13    1    3    3    0    0 -0.69517244113E+01 -0.17175514021E+02  0.10431504425E+03  0.10594793238E+03  0.10566000000E+00 0.  1.
         13    1    4    4    0    0  0.13398237317E+01  0.42702357059E+01 -0.11759538394E+01  0.46286144885E+01  0.10566000000E+00 0.  1.
        -13    1    4    4    0    0  0.33579554731E+01  0.90681025347E+01 -0.41790608740E+01  0.10534802436E+02  0.10566000000E+00 0. -1.
         14    1    4    4    0    0  0.22539452066E+01  0.38371757804E+01 -0.17154148854E+01  0.47693642337E+01  0.00000000000E+00 0. -1.
<mgrwt>
<rscale>  0 0.79933966E+02</rscale>
<asrwt>0</asrwt>
<pdfrwt beam="1">  1        2 0.22027769E-02 0.79933966E+02</pdfrwt>
<pdfrwt beam="2">  1       -1 0.17163486E-01 0.79933966E+02</pdfrwt>
<totfact> 0.11597267E+05</totfact>
</mgrwt>
</event>
<event>
 8    1  0.2389776E-016  0.7530945E+02  0.7818608E-02  0.1342915E+00
         -1   -1    0    0    0  501 -0.00000000000E+00  0.00000000000E+00  0.19137499182E+01  0.19137565548E+01  0.50400000000E-02 0.  1.
          2   -1    0    0  501    0  0.00000000000E+00 -0.00000000000E+00 -0.74088869410E+03  0.74088869411E+03  0.25500000000E-02 0. -1.
         24    2    1    2    0    0  0.00000000000E+00  0.00000000000E+00 -0.73897494419E+03  0.74280245066E+03  0.75309445468E+02 0.  0.
         66    2    3    3    0    0  0.24503189570E+02  0.22472017935E+02 -0.54354240867E+03  0.54456197802E+03  0.19999999610E+01 0.  0.
        -13    1    3    3    0    0 -0.24503189570E+02 -0.22472017935E+02 -0.19543253552E+03  0.19824047264E+03  0.10566000000E+00 0.  1.
         13    1    4    4    0    0  0.14413403614E+02  0.12740487086E+02 -0.32359727991E+03  0.32416859339E+03  0.10566000000E+00 0. -1.
        -13    1    4    4    0    0  0.99890133972E+01  0.95415723000E+01 -0.21774837778E+03  0.21818613426E+03  0.10566000000E+00 0.  1.
         14    1    4    4    0    0  0.10077255843E+00  0.18995854934E+00 -0.21967509751E+01  0.22072503723E+01  0.00000000000E+00 0. -1.
<mgrwt>
<rscale>  0 0.75309445E+02</rscale>
<asrwt>0</asrwt>
<pdfrwt beam="1">  1        2 0.11398265E+00 0.75309445E+02</pdfrwt>
<pdfrwt beam="2">  1       -1 0.29442417E-03 0.75309445E+02</pdfrwt>
<totfact> 0.39607036E+05</totfact>
</mgrwt>
</event>
<event>
 8    1  0.2389776E-016  0.7665541E+02  0.7818608E-02  0.1338820E+00
         -1   -1    0    0    0  501 -0.00000000000E+00  0.00000000000E+00  0.14104957829E+02  0.14104958730E+02  0.50400000000E-02 0.  1.
          2   -1    0    0  501    0  0.00000000000E+00 -0.00000000000E+00 -0.10414869409E+03  0.10414869412E+03  0.25500000000E-02 0. -1.
         24    2    1    2    0    0  0.17763568394E-14 -0.35527136788E-14 -0.90043736258E+02  0.11825365285E+03  0.76655410590E+02 0.  0.
         66    2    3    3    0    0 -0.11753948398E+02  0.26117815768E+02 -0.84283249217E+02  0.89039102049E+02  0.19999978937E+01 0.  0.
        -13    1    3    3    0    0  0.11753948398E+02 -0.26117815768E+02 -0.57604870406E+01  0.29214550800E+02  0.10566000000E+00 0.  1.
         13    1    4    4    0    0 -0.19706595203E+01  0.35221330718E+01 -0.12211726848E+02  0.12861817794E+02  0.10566000000E+00 0.  1.
        -13    1    4    4    0    0 -0.50435222557E+01  0.10619951008E+02 -0.36411687842E+02  0.38262810296E+02  0.10566000000E+00 0. -1.
        -14    1    4    4    0    0 -0.47397666222E+01  0.11975731689E+02 -0.35659834527E+02  0.37914473959E+02  0.00000000000E+00 0.  1.
<mgrwt>
<rscale>  0 0.76655411E+02</rscale>
<asrwt>0</asrwt>
<pdfrwt beam="1">  1        2 0.16022876E-01 0.76655411E+02</pdfrwt>
<pdfrwt beam="2">  1       -1 0.21699937E-02 0.76655411E+02</pdfrwt>
<totfact> 0.20095381E+05</totfact>
</mgrwt>
</event>
<event>
 8    1  0.2389776E-016  0.7851943E+02  0.7818608E-02  0.1333306E+00
          2   -1    0    0  501    0  0.00000000000E+00  0.00000000000E+00  0.57069888336E+03  0.57069888336E+03  0.25500000000E-02 0. -1.
         -1   -1    0    0    0  501 -0.00000000000E+00 -0.00000000000E+00 -0.27007652499E+01  0.27007699526E+01  0.50400000000E-02 0.  1.
         24    2    1    2    0    0 -0.71054273576E-14  0.88817841970E-15  0.56799811811E+03  0.57339965332E+03  0.78519425933E+02 0.  0.
         66    2    3    3    0    0 -0.35633660829E+02  0.61842562309E+01  0.39524963281E+03  0.39690587680E+03  0.19999998605E+01 0.  0.
        -13    1    3    3    0    0  0.35633660829E+02 -0.61842562309E+01  0.17274848530E+03  0.17649377651E+03  0.10566000000E+00 0.  1.
         13    1    4    4    0    0 -0.63123293102E+01  0.13347824606E+01  0.78102683000E+02  0.78368790991E+02  0.10566000000E+00 0. -1.
        -13    1    4    4    0    0 -0.18994918777E+01  0.26349183511E+00  0.19304057453E+02  0.19399363276E+02  0.10566000000E+00 0. -1.
         14    1    4    4    0    0 -0.27421839641E+02  0.45859819352E+01  0.29784289235E+03  0.29913772254E+03  0.00000000000E+00 0. -1.
<mgrwt>
<rscale>  0 0.78519426E+02</rscale>
<asrwt>0</asrwt>
<pdfrwt beam="1">  1        2 0.87799944E-01 0.78519426E+02</pdfrwt>
<pdfrwt beam="2">  1       -1 0.41550216E-03 0.78519426E+02</pdfrwt>
<totfact> 0.33286369E+05</totfact>
</mgrwt>
</event>
<event>
 8    1  0.2389776E-016  0.8234065E+02  0.7818608E-02  0.1322537E+00
          2   -1    0    0  501    0  0.00000000000E+00  0.00000000000E+00  0.46486528305E+03  0.46486528305E+03  0.25500000000E-02 0. -1.
         -1   -1    0    0    0  501 -0.00000000000E+00 -0.00000000000E+00 -0.36462067482E+01  0.36462102315E+01  0.50400000000E-02 0.  1.
         24    2    1    2    0    0  0.00000000000E+00  0.00000000000E+00  0.46121907630E+03  0.46851149328E+03  0.82340652163E+02 0.  0.
         66    2    3    3    0    0 -0.39776786331E+02 -0.84983842900E+01  0.26608481393E+03  0.26918310399E+03  0.20000002977E+01 0.  0.
        -13    1    3    3    0    0  0.39776786331E+02  0.84983842900E+01  0.19513426237E+03  0.19932838930E+03  0.10566000000E+00 0.  1.
         13    1    4    4    0    0 -0.25282736854E+02 -0.51616712867E+01  0.17392934726E+03  0.17583312724E+03  0.10566000000E+00 0. -1.
        -13    1    4    4    0    0 -0.16745509972E+01 -0.55897278944E+00  0.10756262870E+02  0.10900684684E+02  0.10566000000E+00 0.  1.
         14    1    4    4    0    0 -0.12819498480E+02 -0.27777402139E+01  0.81399203805E+02  0.82449292065E+02  0.00000000000E+00 0. -1.
<mgrwt>
<rscale>  0 0.82340652E+02</rscale>
<asrwt>0</asrwt>
<pdfrwt beam="1">  1        2 0.71517704E-01 0.82340652E+02</pdfrwt>
<pdfrwt beam="2">  1       -1 0.56095540E-03 0.82340652E+02</pdfrwt>
<totfact> 0.27581276E+05</totfact>
</mgrwt>
</event>
<event>
 8    1  0.2389776E-016  0.8085968E+02  0.7818608E-02  0.1326629E+00
          2   -1    0    0  501    0  0.00000000000E+00  0.00000000000E+00  0.18593403832E+02  0.18593404007E+02  0.25500000000E-02 0. -1.
         -1   -1    0    0    0  501 -0.00000000000E+00 -0.00000000000E+00 -0.87911388594E+02  0.87911388738E+02  0.50400000000E-02 0.  1.
         24    2    1    2    0    0 -0.88817841970E-15  0.00000000000E+00 -0.69317984762E+02  0.10650479275E+03  0.80859680103E+02 0.  0.
         66    2    3    3    0    0  0.51615767832E+01  0.39146915844E+02 -0.45968100741E+02  0.60631585502E+02  0.19999949239E+01 0.  0.
        -13    1    3    3    0    0 -0.51615767832E+01 -0.39146915844E+02 -0.23349884020E+02  0.45873207244E+02  0.10566000000E+00 0.  1.
         13    1    4    4    0    0  0.30905165199E+01  0.24086282111E+02 -0.28274187474E+02  0.37271183502E+02  0.10566000000E+00 0. -1.
        -13    1    4    4    0    0 -0.15699402072E-01  0.33744700833E+01 -0.41736674769E+01  0.53682361216E+01  0.10566000000E+00 0.  1.
        -14    1    4    4    0    0  0.20867596654E+01  0.11686163650E+02 -0.13520245791E+02  0.17992165878E+02  0.00000000000E+00 0.  1.
<mgrwt>
<rscale>  0 0.80859680E+02</rscale>
<asrwt>0</asrwt>
<pdfrwt beam="1">  1        2 0.28605237E-02 0.80859680E+02</pdfrwt>
<pdfrwt beam="2">  1       -1 0.13524829E-01 0.80859680E+02</pdfrwt>
<totfact> 0.11860274E+05</totfact>
</mgrwt>
</event>
<event>
 8    1  0.2389776E-016  0.8004940E+02  0.7818608E-02  0.1328911E+00
          2   -1    0    0  501    0  0.00000000000E+00  0.00000000000E+00  0.61248925865E+03  0.61248925865E+03  0.25500000000E-02 0. -1.
         -1   -1    0    0    0  501 -0.00000000000E+00 -0.00000000000E+00 -0.26155157676E+01  0.26155206236E+01  0.50400000000E-02 0.  1.
         24    2    1    2    0    0  0.35527136788E-14  0.00000000000E+00  0.60987374288E+03  0.61510477928E+03  0.80049404959E+02 0.  0.
         66    2    3    3    0    0 -0.18092117471E+02 -0.41768985610E+01  0.57736395455E+03  0.57766591314E+03  0.19999990219E+01 0.  0.
        -13    1    3    3    0    0  0.18092117471E+02  0.41768985610E+01  0.32509788331E+02  0.37438866136E+02  0.10566000000E+00 0.  1.
         13    1    4    4    0    0 -0.64157214729E+00 -0.39774193826E+00  0.33901306061E+02  0.33909873638E+02  0.10566000000E+00 0. -1.
        -13    1    4    4    0    0 -0.12916221193E+02 -0.26671798848E+01  0.39761609700E+03  0.39783478276E+03  0.10566000000E+00 0.  1.
         14    1    4    4    0    0 -0.45343241311E+01 -0.11119767379E+01  0.14584655149E+03  0.14592125675E+03  0.00000000000E+00 0. -1.
<mgrwt>
<rscale>  0 0.80049405E+02</rscale>
<asrwt>0</asrwt>
<pdfrwt beam="1">  1        2 0.94229150E-01 0.80049405E+02</pdfrwt>
<pdfrwt beam="2">  1       -1 0.40238727E-03 0.80049405E+02</pdfrwt>
<totfact> 0.32294627E+05</totfact>
</mgrwt>
</event>
<event>
 8    1  0.2389776E-016  0.7918506E+02  0.7818608E-02  0.1331380E+00
         -1   -1    0    0    0  501 -0.00000000000E+00  0.00000000000E+00  0.72331886502E+01  0.72331904061E+01  0.50400000000E-02 0.  1.
          2   -1    0    0  501    0  0.00000000000E+00 -0.00000000000E+00 -0.21671883344E+03  0.21671883346E+03  0.25500000000E-02 0. -1.
         24    2    1    2    0    0  0.00000000000E+00  0.00000000000E+00 -0.20948564479E+03  0.22395202387E+03  0.79185059315E+02 0.  0.
         66    2    3    3    0    0 -0.23660452706E+02 -0.15085256079E+02 -0.18370494706E+03  0.18584641387E+03  0.20000006182E+01 0.  0.
        -13    1    3    3    0    0  0.23660452706E+02  0.15085256079E+02 -0.25780697739E+02  0.38105609996E+02  0.10566000000E+00 0.  1.
         13    1    4    4    0    0 -0.17833830852E+02 -0.11146391945E+02 -0.13760613586E+03  0.13920397755E+03  0.10566000000E+00 0. -1.
        -13    1    4    4    0    0 -0.37184040370E+01 -0.25677745124E+01 -0.32530950030E+02  0.32843475280E+02  0.10566000000E+00 0.  1.
        -14    1    4    4    0    0 -0.21082178168E+01 -0.13710896210E+01 -0.13567861168E+02  0.13798961040E+02  0.00000000000E+00 0.  1.
<mgrwt>
<rscale>  0 0.79185059E+02</rscale>
<asrwt>0</asrwt>
<pdfrwt beam="1">  1        2 0.33341354E-01 0.79185059E+02</pdfrwt>
<pdfrwt beam="2">  1       -1 0.11127986E-02 0.79185059E+02</pdfrwt>
<totfact> 0.23306832E+05</totfact>
</mgrwt>
</event>
<event>
 8    1  0.2389776E-016  0.7798149E+02  0.7818608E-02  0.1334879E+00
          2   -1    0    0  501    0  0.00000000000E+00  0.00000000000E+00  0.14238947646E+03  0.14238947648E+03  0.25500000000E-02 0. -1.
         -1   -1    0    0    0  501 -0.00000000000E+00 -0.00000000000E+00 -0.10676899335E+02  0.10676900525E+02  0.50400000000E-02 0.  1.
         24    2    1    2    0    0  0.00000000000E+00 -0.71054273576E-14  0.13171257712E+03  0.15306637701E+03  0.77981490094E+02 0.  0.
         66    2    3    3    0    0 -0.13527656624E+02  0.35473847000E+02  0.48688708931E+02  0.61773632670E+02  0.20000002894E+01 0.  0.
        -13    1    3    3    0    0  0.13527656624E+02 -0.35473847000E+02  0.83023868191E+02  0.91292744335E+02  0.10566000000E+00 0.  1.
         13    1    4    4    0    0 -0.14840320371E+01  0.47037199556E+01  0.68906736934E+01  0.84746610842E+01  0.10566000000E+00 0. -1.
        -13    1    4    4    0    0 -0.10181891606E+02  0.25040969941E+02  0.33547150310E+02  0.43082984463E+02  0.10566000000E+00 0.  1.
        -14    1    4    4    0    0 -0.18617329808E+01  0.57291571036E+01  0.82508849279E+01  0.10215987123E+02  0.00000000000E+00 0.  1.
<mgrwt>
<rscale>  0 0.77981490E+02</rscale>
<asrwt>0</asrwt>
<pdfrwt beam="1">  1        2 0.21906073E-01 0.77981490E+02</pdfrwt>
<pdfrwt beam="2">  1       -1 0.16426001E-02 0.77981490E+02</pdfrwt>
<totfact> 0.21081021E+05</totfact>
</mgrwt>
</event>
<event>
 8    1  0.2389776E-016  0.8048500E+02  0.7818608E-02  0.1327681E+00
          2   -1    0    0  501    0  0.00000000000E+00  0.00000000000E+00  0.25855477142E+03  0.25855477143E+03  0.25500000000E-02 0. -1.
         -1   -1    0    0    0  501 -0.00000000000E+00 -0.00000000000E+00 -0.62635031961E+01  0.62635052239E+01  0.50400000000E-02 0.  1.
         24    2    1    2    0    0  0.00000000000E+00  0.35527136788E-14  0.25229126822E+03  0.26481827665E+03  0.80485002511E+02 0.  0.
         66    2    3    3    0    0  0.14728342703E+02 -0.29853168581E+02  0.20047863224E+03  0.20323340704E+03  0.20000005889E+01 0.  0.
        -13    1    3    3    0    0 -0.14728342703E+02  0.29853168581E+02  0.51812635985E+02  0.61584869610E+02  0.10566000000E+00 0.  1.
         13    1    4    4    0    0  0.51354386677E+01 -0.11841744419E+02  0.75075272052E+02  0.76176815888E+02  0.10566000000E+00 0. -1.
        -13    1    4    4    0    0  0.27056402533E+01 -0.44475271917E+01  0.30231827336E+02  0.30676954467E+02  0.10566000000E+00 0.  1.
        -14    1    4    4    0    0  0.68872637823E+01 -0.13563896970E+02  0.95171532849E+02  0.96379636689E+02  0.00000000000E+00 0.  1.
<mgrwt>
<rscale>  0 0.80485003E+02</rscale>
<asrwt>0</asrwt>
<pdfrwt beam="1">  1        2 0.39777656E-01 0.80485003E+02</pdfrwt>
<pdfrwt beam="2">  1       -1 0.96361605E-03 0.80485003E+02</pdfrwt>
<totfact> 0.23777813E+05</totfact>
</mgrwt>
</event>
<event>
 8    1  0.2389776E-016  0.7917313E+02  0.7818608E-02  0.1331414E+00
         -1   -1    0    0    0  501 -0.00000000000E+00  0.00000000000E+00  0.29579832856E+03  0.29579832860E+03  0.50400000000E-02 0.  1.
          2   -1    0    0  501    0  0.00000000000E+00 -0.00000000000E+00 -0.52978522585E+01  0.52978528722E+01  0.25500000000E-02 0. -1.
         24    2    1    2    0    0  0.00000000000E+00 -0.88817841970E-15  0.29050047630E+03  0.30109618147E+03  0.79173125285E+02 0.  0.
         66    2    3    3    0    0 -0.37788976945E+02 -0.54408099513E+01  0.10591555894E+03  0.11260423981E+03  0.20000015099E+01 0.  0.
        -13    1    3    3    0    0  0.37788976945E+02  0.54408099513E+01  0.18458491736E+03  0.18849194166E+03  0.10566000000E+00 0.  1.
         13    1    4    4    0    0 -0.26944666882E+02 -0.32958570553E+01  0.76781460103E+02  0.81438820759E+02  0.10566000000E+00 0. -1.
        -13    1    4    4    0    0 -0.77202061470E+01 -0.12954587224E+01  0.20417274863E+02  0.21866780127E+02  0.10566000000E+00 0.  1.
         14    1    4    4    0    0 -0.31241039161E+01 -0.84949417355E+00  0.87168239756E+01  0.92986389247E+01  0.00000000000E+00 0. -1.
<mgrwt>
<rscale>  0 0.79173125E+02</rscale>
<asrwt>0</asrwt>
<pdfrwt beam="1">  1        2 0.81505416E-03 0.79173125E+02</pdfrwt>
<pdfrwt beam="2">  1       -1 0.45507440E-01 0.79173125E+02</pdfrwt>
<totfact> 0.89270905E+04</totfact>
</mgrwt>
</event>
<event>
 8    1  0.2389776E-016  0.8068177E+02  0.7818608E-02  0.1327128E+00
          2   -1    0    0  501    0  0.00000000000E+00  0.00000000000E+00  0.13617777674E+04  0.13617777674E+04  0.25500000000E-02 0. -1.
         -1   -1    0    0    0  501 -0.00000000000E+00 -0.00000000000E+00 -0.11950406782E+01  0.11950513061E+01  0.50400000000E-02 0.  1.
         24    2    1    2    0    0  0.35527136788E-14  0.44408920985E-15  0.13605827267E+04  0.13629728187E+04  0.80681771698E+02 0.  0.
         66    2    3    3    0    0  0.19874993249E+02 -0.37632785615E+01  0.12698435532E+04  0.12700062311E+04  0.19999998058E+01 0.  0.
        -13    1    3    3    0    0 -0.19874993249E+02  0.37632785615E+01  0.90739173549E+02  0.92966587560E+02  0.10566000000E+00 0.  1.
         13    1    4    4    0    0  0.11357854162E+02 -0.16427385851E+01  0.74056863232E+03  0.74065755230E+03  0.10566000000E+00 0. -1.
        -13    1    4    4    0    0  0.43156158739E+01 -0.71052073105E+00  0.24129724803E+03  0.24133690653E+03  0.10566000000E+00 0.  1.
        -14    1    4    4    0    0  0.42015232123E+01 -0.14100192453E+01  0.28797767281E+03  0.28801177231E+03  0.00000000000E+00 0.  1.
<mgrwt>
<rscale>  0 0.80681772E+02</rscale>
<asrwt>0</asrwt>
<pdfrwt beam="1">  1        2 0.20950370E+00 0.80681772E+02</pdfrwt>
<pdfrwt beam="2">  1       -1 0.18385373E-03 0.80681772E+02</pdfrwt>
<totfact> 0.33516939E+05</totfact>
</mgrwt>
</event>
<event>
 8    1  0.2389776E-016  0.7914315E+02  0.7818608E-02  0.1331501E+00
         -1   -1    0    0    0  501 -0.00000000000E+00  0.00000000000E+00  0.51262470679E+01  0.51262495455E+01  0.50400000000E-02 0.  1.
          2   -1    0    0  501    0  0.00000000000E+00 -0.00000000000E+00 -0.30546892675E+03  0.30546892676E+03  0.25500000000E-02 0. -1.
         24    2    1    2    0    0  0.22204460493E-15 -0.35527136788E-14 -0.30034267968E+03  0.31059517631E+03  0.79143150721E+02 0.  0.
         66    2    3    3    0    0 -0.15950652807E+01  0.22376394215E+02 -0.27807817765E+03  0.27898874553E+03  0.19999998981E+01 0.  0.
        -13    1    3    3    0    0  0.15950652807E+01 -0.22376394215E+02 -0.22264502036E+02  0.31606430774E+02  0.10566000000E+00 0.  1.
         13    1    4    4    0    0 -0.11665090696E+01  0.13183228774E+02 -0.15802015712E+03  0.15857345139E+03  0.10566000000E+00 0. -1.
        -13    1    4    4    0    0  0.18839227926E+00  0.60021851361E+01 -0.80882024429E+02  0.81104714769E+02  0.10566000000E+00 0.  1.
        -14    1    4    4    0    0 -0.61694849040E+00  0.31909803047E+01 -0.39175996094E+02  0.39310579373E+02  0.00000000000E+00 0.  1.
<mgrwt>
<rscale>  0 0.79143151E+02</rscale>
<asrwt>0</asrwt>
<pdfrwt beam="1">  1        2 0.46995205E-01 0.79143151E+02</pdfrwt>
<pdfrwt beam="2">  1       -1 0.78865383E-03 0.79143151E+02</pdfrwt>
<totfact> 0.26395960E+05</totfact>
</mgrwt>
</event>
<event>
 8    1  0.2389776E-016  0.8091297E+02  0.7818608E-02  0.1326480E+00
         -1   -1    0    0    0  501 -0.00000000000E+00  0.00000000000E+00  0.21679738802E+01  0.21679797386E+01  0.50400000000E-02 0.  1.
          2   -1    0    0  501    0  0.00000000000E+00 -0.00000000000E+00 -0.75495600572E+03  0.75495600572E+03  0.25500000000E-02 0. -1.
         24    2    1    2    0    0  0.00000000000E+00  0.00000000000E+00 -0.75278803184E+03  0.75712398546E+03  0.80912968564E+02 0.  0.
         66    2    3    3    0    0  0.28773664553E+02  0.22266685882E+01 -0.64159096824E+03  0.64224282973E+03  0.19999975478E+01 0.  0.
        -13    1    3    3    0    0 -0.28773664553E+02 -0.22266685882E+01 -0.11119706360E+03  0.11488115573E+03  0.10566000000E+00 0.  1.
         13    1    4    4    0    0  0.22922680856E+01  0.45967259275E+00 -0.61169730152E+02  0.61214482296E+02  0.10566000000E+00 0.  1.
        -13    1    4    4    0    0  0.33550531953E+01 -0.30192947782E-01 -0.75312371515E+02  0.75387145859E+02  0.10566000000E+00 0. -1.
         14    1    4    4    0    0  0.23126343272E+02  0.17971889432E+01 -0.50510886657E+03  0.50564120158E+03  0.00000000000E+00 0. -1.
<mgrwt>
<rscale>  0 0.80912969E+02</rscale>
<asrwt>0</asrwt>
<pdfrwt beam="1">  1        2 0.11614687E+00 0.80912969E+02</pdfrwt>
<pdfrwt beam="2">  1       -1 0.33353550E-03 0.80912969E+02</pdfrwt>
<totfact> 0.33009175E+05</totfact>
</mgrwt>
</event>
<event>
 8    1  0.2389776E-016  0.8006074E+02  0.7818608E-02  0.1328879E+00
         -1   -1    0    0    0  501 -0.00000000000E+00  0.00000000000E+00  0.15991569784E+01  0.15991649206E+01  0.50400000000E-02 0.  1.
          2   -1    0    0  501    0  0.00000000000E+00 -0.00000000000E+00 -0.10020445690E+04  0.10020445691E+04  0.25500000000E-02 0. -1.
         24    2    1    2    0    0  0.35527136788E-14 -0.88817841970E-15 -0.10004454121E+04  0.10036437340E+04  0.80060740753E+02 0.  0.
         66    2    3    3    0    0 -0.22791513252E+02  0.65328047512E+01 -0.90447724472E+03  0.90479015071E+03  0.20000002122E+01 0.  0.
        -13    1    3    3    0    0  0.22791513252E+02 -0.65328047512E+01 -0.95968167353E+02  0.98853583260E+02  0.10566000000E+00 0.  1.
         13    1    4    4    0    0 -0.46812012603E+01  0.79192418837E+00 -0.17830822656E+03  0.17837145403E+03  0.10566000000E+00 0. -1.
        -13    1    4    4    0    0 -0.35262463336E+01  0.10500171198E+01 -0.12226997373E+03  0.12232536364E+03  0.10566000000E+00 0.  1.
         14    1    4    4    0    0 -0.14584065658E+02  0.46908634430E+01 -0.60389904443E+03  0.60409333305E+03  0.00000000000E+00 0. -1.
<mgrwt>
<rscale>  0 0.80060741E+02</rscale>
<asrwt>0</asrwt>
<pdfrwt beam="1">  1        2 0.15416020E+00 0.80060741E+02</pdfrwt>
<pdfrwt beam="2">  1       -1 0.24602556E-03 0.80060741E+02</pdfrwt>
<totfact> 0.35164774E+05</totfact>
</mgrwt>
</event>
<event>
 8    1  0.2389776E-016  0.8043216E+02  0.7818608E-02  0.1327829E+00
         -1   -1    0    0    0  501 -0.00000000000E+00  0.00000000000E+00  0.24043104129E+02  0.24043104657E+02  0.50400000000E-02 0.  1.
          2   -1    0    0  501    0  0.00000000000E+00 -0.00000000000E+00 -0.67268069417E+02  0.67268069465E+02  0.25500000000E-02 0. -1.
         24    2    1    2    0    0 -0.55511151231E-16 -0.35527136788E-14 -0.43224965288E+02  0.91311174122E+02  0.80432163315E+02 0.  0.
         66    2    3    3    0    0  0.16800078242E+00 -0.23556661450E+02 -0.58593787146E+02  0.63183672061E+02  0.20000000203E+01 0.  0.
        -13    1    3    3    0    0 -0.16800078242E+00  0.23556661450E+02  0.15368821858E+02  0.28127502062E+02  0.10566000000E+00 0.  1.
         13    1    4    4    0    0 -0.18086145342E+00 -0.14336320679E+02 -0.36297625893E+02  0.39026806313E+02  0.10566000000E+00 0. -1.
        -13    1    4    4    0    0  0.67262884675E+00 -0.58162542889E+01 -0.14857762090E+02  0.15970144078E+02  0.10566000000E+00 0.  1.
        -14    1    4    4    0    0 -0.32376661091E+00 -0.34040864813E+01 -0.74383991627E+01  0.81867216695E+01  0.00000000000E+00 0.  1.
<mgrwt>
<rscale>  0 0.80432163E+02</rscale>
<asrwt>0</asrwt>
<pdfrwt beam="1">  1        2 0.10348934E-01 0.80432163E+02</pdfrwt>
<pdfrwt beam="2">  1       -1 0.36989392E-02 0.80432163E+02</pdfrwt>
<totfact> 0.15759546E+05</totfact>
</mgrwt>
</event>
<event>
 8    1  0.2389776E-016  0.7632739E+02  0.7818608E-02  0.1339809E+00
         -1   -1    0    0    0  501 -0.00000000000E+00  0.00000000000E+00  0.72718362080E+01  0.72718379546E+01  0.50400000000E-02 0.  1.
          2   -1    0    0  501    0  0.00000000000E+00 -0.00000000000E+00 -0.20028880523E+03  0.20028880524E+03  0.25500000000E-02 0. -1.
         24    2    1    2    0    0  0.00000000000E+00  0.00000000000E+00 -0.19301696902E+03  0.20756064320E+03  0.76327388763E+02 0.  0.
         66    2    3    3    0    0  0.34466406329E+02  0.16183427235E+02 -0.10242349162E+03  0.10929047584E+03  0.19999975759E+01 0.  0.
        -13    1    3    3    0    0 -0.34466406329E+02 -0.16183427235E+02 -0.90593477399E+02  0.98270167363E+02  0.10566000000E+00 0.  1.
         13    1    4    4    0    0  0.67203163092E+01  0.33984719101E+01 -0.20808012348E+02  0.22129094074E+02  0.10566000000E+00 0. -1.
        -13    1    4    4    0    0  0.21230678600E+01  0.58208527424E+00 -0.53259871764E+01  0.57639868011E+01  0.10566000000E+00 0.  1.
        -14    1    4    4    0    0  0.25623022159E+02  0.12202870050E+02 -0.76289492096E+02  0.81397394960E+02  0.00000000000E+00 0.  1.
<mgrwt>
<rscale>  0 0.76327389E+02</rscale>
<asrwt>0</asrwt>
<pdfrwt beam="1">  1        2 0.30813658E-01 0.76327389E+02</pdfrwt>
<pdfrwt beam="2">  1       -1 0.11187443E-02 0.76327389E+02</pdfrwt>
<totfact> 0.24975646E+05</totfact>
</mgrwt>
</event>
<event>
 8    1  0.2389776E-016  0.8202976E+02  0.7818608E-02  0.1323388E+00
         -1   -1    0    0    0  501 -0.00000000000E+00  0.00000000000E+00  0.70066800340E+01  0.70066818467E+01  0.50400000000E-02 0.  1.
          2   -1    0    0  501    0  0.00000000000E+00 -0.00000000000E+00 -0.24008803689E+03  0.24008803690E+03  0.25500000000E-02 0. -1.
         24    2    1    2    0    0  0.00000000000E+00  0.00000000000E+00 -0.23308135685E+03  0.24709471875E+03  0.82029757530E+02 0.  0.
         66    2    3    3    0    0  0.25164045716E+02  0.51954274878E+01 -0.21281323896E+03  0.21436813276E+03  0.20000004621E+01 0.  0.
        -13    1    3    3    0    0 -0.25164045716E+02 -0.51954274878E+01 -0.20268117894E+02  0.32726585990E+02  0.10566000000E+00 0.  1.
         13    1    4    4    0    0  0.12249226415E+02  0.24086429428E+01 -0.99476328101E+02  0.10025665128E+03  0.10566000000E+00 0. -1.
        -13    1    4    4    0    0  0.11474595089E+02  0.28758771540E+01 -0.10117818171E+03  0.10186742668E+03  0.10566000000E+00 0.  1.
        -14    1    4    4    0    0  0.14402242125E+01 -0.89092608961E-01 -0.12158729153E+02  0.12244054798E+02  0.00000000000E+00 0.  1.
<mgrwt>
<rscale>  0 0.82029758E+02</rscale>
<asrwt>0</asrwt>
<pdfrwt beam="1">  1        2 0.36936615E-01 0.82029758E+02</pdfrwt>
<pdfrwt beam="2">  1       -1 0.10779511E-02 0.82029758E+02</pdfrwt>
<totfact> 0.22023159E+05</totfact>
</mgrwt>
</event>
<event>
 8    1  0.2389776E-016  0.7617169E+02  0.7818608E-02  0.1340281E+00
         -1   -1    0    0    0  501 -0.00000000000E+00  0.00000000000E+00  0.70047442529E+01  0.70047460660E+01  0.50400000000E-02 0.  1.
          2   -1    0    0  501    0  0.00000000000E+00 -0.00000000000E+00 -0.20707840032E+03  0.20707840033E+03  0.25500000000E-02 0. -1.
         24    2    1    2    0    0 -0.88817841970E-15  0.00000000000E+00 -0.20007365607E+03  0.21408314640E+03  0.76171685823E+02 0.  0.
         66    2    3    3    0    0 -0.48734923104E+01  0.21123047672E+02 -0.18802603949E+03  0.18928213232E+03  0.20000048292E+01 0.  0.
        -13    1    3    3    0    0  0.48734923104E+01 -0.21123047672E+02 -0.12047616578E+02  0.24801014082E+02  0.10566000000E+00 0.  1.
         13    1    4    4    0    0 -0.11315444617E+01  0.63261435639E+01 -0.54456465494E+02  0.54834462552E+02  0.10566000000E+00 0. -1.
        -13    1    4    4    0    0 -0.11579227673E+01  0.76201422407E+01 -0.65449202369E+02  0.65901567566E+02  0.10566000000E+00 0.  1.
         14    1    4    4    0    0 -0.25840250815E+01  0.71767618671E+01 -0.68120371625E+02  0.68546102200E+02  0.00000000000E+00 0. -1.
<mgrwt>
<rscale>  0 0.76171686E+02</rscale>
<asrwt>0</asrwt>
<pdfrwt beam="1">  1        2 0.31858211E-01 0.76171686E+02</pdfrwt>
<pdfrwt beam="2">  1       -1 0.10776533E-02 0.76171686E+02</pdfrwt>
<totfact> 0.25401421E+05</totfact>
</mgrwt>
</event>
<event>
 8    1  0.2389776E-016  0.7954254E+02  0.7818608E-02  0.1330355E+00
         -1   -1    0    0    0  501 -0.00000000000E+00  0.00000000000E+00  0.20568719923E+02  0.20568720541E+02  0.50400000000E-02 0.  1.
          2   -1    0    0  501    0  0.00000000000E+00 -0.00000000000E+00 -0.76900941105E+02  0.76900941148E+02  0.25500000000E-02 0. -1.
         24    2    1    2    0    0 -0.17763568394E-14  0.00000000000E+00 -0.56332221182E+02  0.97469661688E+02  0.79542540859E+02 0.  0.
         66    2    3    3    0    0  0.13880042468E+02  0.30777727772E+02 -0.53882493658E+02  0.63617978795E+02  0.19999993564E+01 0.  0.
        -13    1    3    3    0    0 -0.13880042468E+02 -0.30777727772E+02 -0.24497275244E+01  0.33851682893E+02  0.10566000000E+00 0.  1.
         13    1    4    4    0    0  0.35240704903E+00  0.62544252754E+00 -0.81012418608E+00  0.10875818663E+01  0.10566000000E+00 0.  1.
        -13    1    4    4    0    0  0.36023029361E+01  0.85567620573E+01 -0.15745715974E+02  0.18279318885E+02  0.10566000000E+00 0.  1.
         14    1    4    4    0    0  0.99253324831E+01  0.21595523187E+02 -0.37326653498E+02  0.44251078043E+02  0.00000000000E+00 0. -1.
<mgrwt>
<rscale>  0 0.79542541E+02</rscale>
<asrwt>0</asrwt>
<pdfrwt beam="1">  1        2 0.11830914E-01 0.79542541E+02</pdfrwt>
<pdfrwt beam="2">  1       -1 0.31644186E-02 0.79542541E+02</pdfrwt>
<totfact> 0.16786051E+05</totfact>
</mgrwt>
</event>
<event>
 8    1  0.2389776E-016  0.7994000E+02  0.7818608E-02  0.1329222E+00
          2   -1    0    0  501    0  0.00000000000E+00  0.00000000000E+00  0.25191009940E+03  0.25191009941E+03  0.25500000000E-02 0. -1.
         -1   -1    0    0    0  501 -0.00000000000E+00 -0.00000000000E+00 -0.63419469879E+01  0.63419489905E+01  0.50400000000E-02 0.  1.
         24    2    1    2    0    0  0.00000000000E+00  0.35527136788E-14  0.24556815241E+03  0.25825204840E+03  0.79939996406E+02 0.  0.
         66    2    3    3    0    0  0.23931541576E+02 -0.31895060582E+02  0.13049350563E+03  0.13646453234E+03  0.20000011538E+01 0.  0.
        -13    1    3    3    0    0 -0.23931541576E+02  0.31895060582E+02  0.11507464678E+03  0.12178751606E+03  0.10566000000E+00 0.  1.
         13    1    4    4    0    0  0.10767811812E+02 -0.14733339818E+02  0.60369891169E+02  0.63067836472E+02  0.10566000000E+00 0. -1.
        -13    1    4    4    0    0  0.83666153138E+01 -0.10139023656E+02  0.44223094126E+02  0.46135596568E+02  0.10566000000E+00 0.  1.
        -14    1    4    4    0    0  0.47971144503E+01 -0.70226971079E+01  0.25900520332E+02  0.27261099303E+02  0.00000000000E+00 0.  1.
<mgrwt>
<rscale>  0 0.79939996E+02</rscale>
<asrwt>0</asrwt>
<pdfrwt beam="1">  1        2 0.38755402E-01 0.79939996E+02</pdfrwt>
<pdfrwt beam="2">  1       -1 0.97568426E-03 0.79939996E+02</pdfrwt>
<totfact> 0.23980803E+05</totfact>
</mgrwt>
</event>
<event>
 8    1  0.2389776E-016  0.8014433E+02  0.7818608E-02  0.1328642E+00
         -1   -1    0    0    0  501 -0.00000000000E+00  0.00000000000E+00  0.42057932032E+02  0.42057932334E+02  0.50400000000E-02 0.  1.
          2   -1    0    0  501    0  0.00000000000E+00 -0.00000000000E+00 -0.38180159157E+02  0.38180159243E+02  0.25500000000E-02 0. -1.
         24    2    1    2    0    0 -0.71054273576E-14  0.88817841970E-15  0.38777728743E+01  0.80238091576E+02  0.80144333657E+02 0.  0.
         66    2    3    3    0    0  0.34136628778E+02 -0.70796028277E+01 -0.17789393503E+02  0.39190467243E+02  0.20000002365E+01 0.  0.
        -13    1    3    3    0    0 -0.34136628778E+02  0.70796028277E+01  0.21667166377E+02  0.41047624333E+02  0.10566000000E+00 0.  1.
         13    1    4    4    0    0  0.47096166934E+01 -0.56443942682E+00 -0.27355452095E+01  0.54766278761E+01  0.10566000000E+00 0.  1.
        -13    1    4    4    0    0  0.11353004044E+02 -0.22593444368E+01 -0.51593176415E+01  0.12673794249E+02  0.10566000000E+00 0. -1.
         14    1    4    4    0    0  0.18074008041E+02 -0.42558189641E+01 -0.98945306521E+01  0.21040045118E+02  0.00000000000E+00 0. -1.
<mgrwt>
<rscale>  0 0.80144334E+02</rscale>
<asrwt>0</asrwt>
<pdfrwt beam="1">  1        2 0.58738706E-02 0.80144334E+02</pdfrwt>
<pdfrwt beam="2">  1       -1 0.64704512E-02 0.80144334E+02</pdfrwt>
<totfact> 0.14049714E+05</totfact>
</mgrwt>
</event>
<event>
 8    1  0.2389776E-016  0.7966242E+02  0.7818608E-02  0.1330012E+00
          2   -1    0    0  501    0  0.00000000000E+00  0.00000000000E+00  0.19407810382E+03  0.19407810383E+03  0.25500000000E-02 0. -1.
         -1   -1    0    0    0  501 -0.00000000000E+00 -0.00000000000E+00 -0.81746741395E+01  0.81746756932E+01  0.50400000000E-02 0.  1.
         24    2    1    2    0    0  0.00000000000E+00  0.00000000000E+00  0.18590342968E+03  0.20225277953E+03  0.79662423140E+02 0.  0.
         66    2    3    3    0    0  0.18887977153E+02 -0.20022183725E+01  0.18182556197E+03  0.18282587220E+03  0.19999998495E+01 0.  0.
        -13    1    3    3    0    0 -0.18887977153E+02  0.20022183725E+01  0.40778677077E+01  0.19426907331E+02  0.10566000000E+00 0.  1.
         13    1    4    4    0    0  0.63986704609E+01 -0.13360555728E+01  0.67145667916E+02  0.67463174488E+02  0.10566000000E+00 0. -1.
        -13    1    4    4    0    0  0.71165893139E+00  0.10635719390E+00  0.61198044692E+01  0.61628679253E+01  0.10566000000E+00 0.  1.
         14    1    4    4    0    0  0.11777647761E+02 -0.77251999364E+00  0.10856008959E+03  0.10919982978E+03  0.00000000000E+00 0. -1.
<mgrwt>
<rscale>  0 0.79662423E+02</rscale>
<asrwt>0</asrwt>
<pdfrwt beam="1">  1        2 0.29858168E-01 0.79662423E+02</pdfrwt>
<pdfrwt beam="2">  1       -1 0.12576424E-02 0.79662423E+02</pdfrwt>
<totfact> 0.22075200E+05</totfact>
</mgrwt>
</event>
<event>
 8    1  0.2389776E-016  0.7467505E+02  0.7818608E-02  0.1344880E+00
          2   -1    0    0  501    0  0.00000000000E+00  0.00000000000E+00  0.55645126937E+02  0.55645126995E+02  0.25500000000E-02 0. -1.
         -1   -1    0    0    0  501 -0.00000000000E+00 -0.00000000000E+00 -0.25053243071E+02  0.25053243578E+02  0.50400000000E-02 0.  1.
         24    2    1    2    0    0 -0.35527136788E-14  0.00000000000E+00  0.30591883866E+02  0.80698370573E+02  0.74675053764E+02 0.  0.
         66    2    3    3    0    0  0.26261922904E+02  0.20865423788E+02  0.32966061645E+02  0.47072452167E+02  0.20000070503E+01 0.  0.
        -13    1    3    3    0    0 -0.26261922904E+02 -0.20865423788E+02 -0.23741777788E+01  0.33625918406E+02  0.10566000000E+00 0.  1.
         13    1    4    4    0    0  0.10680893329E+02  0.89189411403E+01  0.12924814464E+02  0.18991866321E+02  0.10566000000E+00 0. -1.
        -13    1    4    4    0    0  0.56315368830E+01  0.50025942789E+01  0.74559013929E+01  0.10599140852E+02  0.10566000000E+00 0.  1.
        -14    1    4    4    0    0  0.99494926912E+01  0.69438883693E+01  0.12585345788E+02  0.17481444995E+02  0.00000000000E+00 0.  1.
<mgrwt>
<rscale>  0 0.74675054E+02</rscale>
<asrwt>0</asrwt>
<pdfrwt beam="1">  1        2 0.85607888E-02 0.74675054E+02</pdfrwt>
<pdfrwt beam="2">  1       -1 0.38543451E-02 0.74675054E+02</pdfrwt>
<totfact> 0.18446663E+05</totfact>
</mgrwt>
</event>
<event>
 8    1  0.2389776E-016  0.7635766E+02  0.7818608E-02  0.1339718E+00
          2   -1    0    0  501    0  0.00000000000E+00  0.00000000000E+00  0.16847194055E+02  0.16847194248E+02  0.25500000000E-02 0. -1.
         -1   -1    0    0    0  501 -0.00000000000E+00 -0.00000000000E+00 -0.86520219529E+02  0.86520219676E+02  0.50400000000E-02 0.  1.
         24    2    1    2    0    0 -0.44408920985E-15  0.00000000000E+00 -0.69673025474E+02  0.10336741392E+03  0.76357657001E+02 0.  0.
         66    2    3    3    0    0  0.31306095640E+01  0.19720870545E+02  0.91494094537E+01  0.22055047932E+02  0.19999986517E+01 0.  0.
        -13    1    3    3    0    0 -0.31306095640E+01 -0.19720870545E+02 -0.78822434928E+02  0.81312365993E+02  0.10566000000E+00 0.  1.
         13    1    4    4    0    0  0.20238506370E+01  0.15163283389E+02  0.72333022560E+01  0.16921966792E+02  0.10566000000E+00 0. -1.
        -13    1    4    4    0    0  0.11382691102E+01  0.32665947203E+01  0.15402648298E+01  0.37881232049E+01  0.10566000000E+00 0.  1.
         14    1    4    4    0    0 -0.31510183198E-01  0.12909924363E+01  0.37584236789E+00  0.13449579353E+01  0.00000000000E+00 0. -1.
<mgrwt>
<rscale>  0 0.76357657E+02</rscale>
<asrwt>0</asrwt>
<pdfrwt beam="1">  1        2 0.25918761E-02 0.76357657E+02</pdfrwt>
<pdfrwt beam="2">  1       -1 0.13310803E-01 0.76357657E+02</pdfrwt>
<totfact> 0.13714051E+05</totfact>
</mgrwt>
</event>
<event>
 8    1  0.2389776E-016  0.8507559E+02  0.7818608E-02  0.1315235E+00
         -1   -1    0    0    0  501 -0.00000000000E+00  0.00000000000E+00  0.13558807134E+03  0.13558807143E+03  0.50400000000E-02 0.  1.
          2   -1    0    0  501    0  0.00000000000E+00 -0.00000000000E+00 -0.13345302536E+02  0.13345302779E+02  0.25500000000E-02 0. -1.
         24    2    1    2    0    0  0.35527136788E-14  0.00000000000E+00  0.12224276880E+03  0.14893337421E+03  0.85075586566E+02 0.  0.
         66    2    3    3    0    0  0.31199485827E+02 -0.23547626499E+02  0.31884932634E+02  0.50483141349E+02  0.20000004376E+01 0.  0.
        -13    1    3    3    0    0 -0.31199485827E+02  0.23547626499E+02  0.90357836170E+02  0.98450232864E+02  0.10566000000E+00 0.  1.
         13    1    4    4    0    0  0.11599783541E+02 -0.79663093510E+01  0.11270543381E+02  0.18029236673E+02  0.10566000000E+00 0. -1.
        -13    1    4    4    0    0  0.17014971003E+02 -0.13395902077E+02  0.18313013910E+02  0.28360836962E+02  0.10566000000E+00 0.  1.
        -14    1    4    4    0    0  0.25847312828E+01 -0.21854150715E+01  0.23013753434E+01  0.40930677139E+01  0.00000000000E+00 0.  1.
<mgrwt>
<rscale>  0 0.85075587E+02</rscale>
<asrwt>0</asrwt>
<pdfrwt beam="1">  1        2 0.20531235E-02 0.85075587E+02</pdfrwt>
<pdfrwt beam="2">  1       -1 0.20859703E-01 0.85075587E+02</pdfrwt>
<totfact> 0.94725783E+04</totfact>
</mgrwt>
</event>
<event>
 8    1  0.2389776E-016  0.7886460E+02  0.7818608E-02  0.1332305E+00
          2   -1    0    0  501    0  0.00000000000E+00  0.00000000000E+00  0.13746610587E+03  0.13746610590E+03  0.25500000000E-02 0. -1.
         -1   -1    0    0    0  501 -0.00000000000E+00 -0.00000000000E+00 -0.11311197364E+02  0.11311198487E+02  0.50400000000E-02 0.  1.
         24    2    1    2    0    0  0.17763568394E-14  0.00000000000E+00  0.12615490851E+03  0.14877730439E+03  0.78864601430E+02 0.  0.
         66    2    3    3    0    0  0.14226102169E+02  0.36493330046E+01  0.13210265007E+03  0.13293159809E+03  0.20000000251E+01 0.  0.
        -13    1    3    3    0    0 -0.14226102169E+02 -0.36493330046E+01 -0.59477415613E+01  0.15845706296E+02  0.10566000000E+00 0.  1.
         13    1    4    4    0    0  0.88182417821E+01  0.22826830603E+01  0.81462600613E+02  0.81970351303E+02  0.10566000000E+00 0. -1.
        -13    1    4    4    0    0  0.11739219400E+01  0.77993966116E+00  0.14750188819E+02  0.14817747225E+02  0.10566000000E+00 0.  1.
         14    1    4    4    0    0  0.42339384473E+01  0.58671028314E+00  0.35889860640E+02  0.36143499561E+02  0.00000000000E+00 0. -1.
<mgrwt>
<rscale>  0 0.78864601E+02</rscale>
<asrwt>0</asrwt>
<pdfrwt beam="1">  1        2 0.21148630E-01 0.78864601E+02</pdfrwt>
<pdfrwt beam="2">  1       -1 0.17401844E-02 0.78864601E+02</pdfrwt>
<totfact> 0.20235787E+05</totfact>
</mgrwt>
</event>
<event>
 8    1  0.2389776E-016  0.7912349E+02  0.7818608E-02  0.1331557E+00
         -1   -1    0    0    0  501 -0.00000000000E+00  0.00000000000E+00  0.81801459608E+02  0.81801459763E+02  0.50400000000E-02 0.  1.
          2   -1    0    0  501    0  0.00000000000E+00 -0.00000000000E+00 -0.19133296588E+02  0.19133296758E+02  0.25500000000E-02 0. -1.
         24    2    1    2    0    0  0.00000000000E+00  0.00000000000E+00  0.62668163020E+02  0.10093475652E+03  0.79123488407E+02 0.  0.
         66    2    3    3    0    0 -0.22548894526E+02  0.32397655527E+02  0.34225259872E+02  0.52282206419E+02  0.19999916819E+01 0.  0.
        -13    1    3    3    0    0  0.22548894526E+02 -0.32397655527E+02  0.28442903148E+02  0.48652550103E+02  0.10566000000E+00 0.  1.
         13    1    4    4    0    0 -0.54199735366E+01  0.81584553639E+01  0.81130144883E+01  0.12718831518E+02  0.10566000000E+00 0.  1.
        -13    1    4    4    0    0 -0.14809582159E+01  0.15037840654E+01  0.16129835496E+01  0.26584739456E+01  0.10566000000E+00 0. -1.
         14    1    4    4    0    0 -0.15647962774E+02  0.22735416097E+02  0.24499261834E+02  0.36904900955E+02  0.00000000000E+00 0. -1.
<mgrwt>
<rscale>  0 0.79123488E+02</rscale>
<asrwt>0</asrwt>
<pdfrwt beam="1">  1        2 0.29435841E-02 0.79123488E+02</pdfrwt>
<pdfrwt beam="2">  1       -1 0.12584840E-01 0.79123488E+02</pdfrwt>
<totfact> 0.12700830E+05</totfact>
</mgrwt>
</event>
<event>
 8    1  0.2389776E-016  0.8003533E+02  0.7818608E-02  0.1328951E+00
          2   -1    0    0  501    0  0.00000000000E+00  0.00000000000E+00  0.73363580737E+03  0.73363580738E+03  0.25500000000E-02 0. -1.
         -1   -1    0    0    0  501 -0.00000000000E+00 -0.00000000000E+00 -0.21828425540E+01  0.21828483725E+01  0.50400000000E-02 0.  1.
         24    2    1    2    0    0  0.00000000000E+00  0.00000000000E+00  0.73145296482E+03  0.73581865575E+03  0.80035332243E+02 0.  0.
         66    2    3    3    0    0  0.28483849516E+02 -0.57927354683E+01  0.61849140798E+03  0.61917728249E+03  0.19999860755E+01 0.  0.
        -13    1    3    3    0    0 -0.28483849516E+02  0.57927354683E+01  0.11296155684E+03  0.11664137325E+03  0.10566000000E+00 0.  1.
         13    1    4    4    0    0  0.10426642470E+02 -0.23805188057E+01  0.23988258781E+03  0.24012090463E+03  0.10566000000E+00 0. -1.
        -13    1    4    4    0    0  0.77965960157E+01 -0.99516826499E+00  0.15482220952E+03  0.15502162750E+03  0.10566000000E+00 0.  1.
        -14    1    4    4    0    0  0.10260611031E+02 -0.24170483976E+01  0.22378661065E+03  0.22403475036E+03  0.00000000000E+00 0.  1.
<mgrwt>
<rscale>  0 0.80035332E+02</rscale>
<asrwt>0</asrwt>
<pdfrwt beam="1">  1        2 0.11286717E+00 0.80035332E+02</pdfrwt>
<pdfrwt beam="2">  1       -1 0.33582201E-03 0.80035332E+02</pdfrwt>
<totfact> 0.33759952E+05</totfact>
</mgrwt>
</event>
<event>
 8    1  0.2389776E-016  0.8025948E+02  0.7818608E-02  0.1328317E+00
         -1   -1    0    0    0  501 -0.00000000000E+00  0.00000000000E+00  0.16243891474E+01  0.16243969662E+01  0.50400000000E-02 0.  1.
          2   -1    0    0  501    0  0.00000000000E+00 -0.00000000000E+00 -0.99138316054E+03  0.99138316055E+03  0.25500000000E-02 0. -1.
         24    2    1    2    0    0  0.00000000000E+00  0.00000000000E+00 -0.98975877140E+03  0.99300755751E+03  0.80259477461E+02 0.  0.
         66    2    3    3    0    0 -0.23639185347E+02 -0.10189704128E+01 -0.89582098561E+03  0.89613564132E+03  0.19999998289E+01 0.  0.
        -13    1    3    3    0    0  0.23639185347E+02  0.10189704128E+01 -0.93937785790E+02  0.96871916198E+02  0.10566000000E+00 0.  1.
         13    1    4    4    0    0 -0.59381658828E+01 -0.89468801384E+00 -0.23218049734E+03  0.23225816840E+03  0.10566000000E+00 0. -1.
        -13    1    4    4    0    0 -0.35293022882E+01  0.15955588100E+00 -0.14798793587E+03  0.14803013801E+03  0.10566000000E+00 0.  1.
         14    1    4    4    0    0 -0.14171717176E+02 -0.28383827992E+00 -0.51565255240E+03  0.51584733490E+03  0.00000000000E+00 0. -1.
<mgrwt>
<rscale>  0 0.80259477E+02</rscale>
<asrwt>0</asrwt>
<pdfrwt beam="1">  1        2 0.15252000E+00 0.80259477E+02</pdfrwt>
<pdfrwt beam="2">  1       -1 0.24990742E-03 0.80259477E+02</pdfrwt>
<totfact> 0.34922603E+05</totfact>
</mgrwt>
</event>
<event>
 8    1  0.2389776E-016  0.7921063E+02  0.7818608E-02  0.1331307E+00
          2   -1    0    0  501    0  0.00000000000E+00  0.00000000000E+00  0.26300524075E+02  0.26300524199E+02  0.25500000000E-02 0. -1.
         -1   -1    0    0    0  501 -0.00000000000E+00 -0.00000000000E+00 -0.59640678106E+02  0.59640678319E+02  0.50400000000E-02 0.  1.
         24    2    1    2    0    0  0.71054273576E-14 -0.88817841970E-15 -0.33340154032E+02  0.85941202518E+02  0.79210633247E+02 0.  0.
         66    2    3    3    0    0 -0.37985549502E+02  0.49560623394E+01 -0.58792699516E+01  0.38807606820E+02  0.20000017671E+01 0.  0.
        -13    1    3    3    0    0  0.37985549502E+02 -0.49560623394E+01 -0.27460884080E+02  0.47133595698E+02  0.10566000000E+00 0.  1.
         13    1    4    4    0    0 -0.99297055665E+01  0.17191548092E+01 -0.12551278704E+01  0.10155838513E+02  0.10566000000E+00 0. -1.
        -13    1    4    4    0    0 -0.24170029167E+02  0.23228903156E+01 -0.41080528996E+01  0.24626680491E+02  0.10566000000E+00 0.  1.
        -14    1    4    4    0    0 -0.38858147687E+01  0.91401721470E+00 -0.51608918158E+00  0.40250878162E+01  0.00000000000E+00 0.  1.
<mgrwt>
<rscale>  0 0.79210633E+02</rscale>
<asrwt>0</asrwt>
<pdfrwt beam="1">  1        2 0.40462345E-02 0.79210633E+02</pdfrwt>
<pdfrwt beam="2">  1       -1 0.91754890E-02 0.79210633E+02</pdfrwt>
<totfact> 0.13482743E+05</totfact>
</mgrwt>
</event>
<event>
 8    1  0.2389776E-016  0.7594153E+02  0.7818608E-02  0.1340980E+00
         -1   -1    0    0    0  501 -0.00000000000E+00  0.00000000000E+00  0.14971760427E+02  0.14971761275E+02  0.50400000000E-02 0.  1.
          2   -1    0    0  501    0  0.00000000000E+00 -0.00000000000E+00 -0.96299889086E+02  0.96299889120E+02  0.25500000000E-02 0. -1.
         24    2    1    2    0    0  0.00000000000E+00  0.00000000000E+00 -0.81328128659E+02  0.11127165040E+03  0.75941527970E+02 0.  0.
         66    2    3    3    0    0  0.26638241027E+02  0.23101419315E+02 -0.20152716071E+02  0.40662063732E+02  0.20000006242E+01 0.  0.
        -13    1    3    3    0    0 -0.26638241027E+02 -0.23101419315E+02 -0.61175412588E+02  0.70609586663E+02  0.10566000000E+00 0.  1.
         13    1    4    4    0    0  0.79478030588E+01  0.68672197219E+01 -0.61749223804E+01  0.12184708064E+02  0.10566000000E+00 0. -1.
        -13    1    4    4    0    0  0.17712799283E+02  0.15486411068E+02 -0.12853734250E+02  0.26810479936E+02  0.10566000000E+00 0.  1.
        -14    1    4    4    0    0  0.97763868575E+00  0.74778852493E+00 -0.11240594409E+01  0.16668757316E+01  0.00000000000E+00 0.  1.
<mgrwt>
<rscale>  0 0.75941528E+02</rscale>
<asrwt>0</asrwt>
<pdfrwt beam="1">  1        2 0.14815367E-01 0.75941528E+02</pdfrwt>
<pdfrwt beam="2">  1       -1 0.23033479E-02 0.75941528E+02</pdfrwt>
<totfact> 0.20160427E+05</totfact>
</mgrwt>
</event>
<event>
 8    1  0.2389776E-016  0.8073457E+02  0.7818608E-02  0.1326980E+00
         -1   -1    0    0    0  501 -0.00000000000E+00  0.00000000000E+00  0.32696860920E+01  0.32696899764E+01  0.50400000000E-02 0.  1.
          2   -1    0    0  501    0  0.00000000000E+00 -0.00000000000E+00 -0.49837101309E+03  0.49837101310E+03  0.25500000000E-02 0. -1.
         24    2    1    2    0    0  0.35527136788E-14  0.00000000000E+00 -0.49510132700E+03  0.50164070307E+03  0.80734571184E+02 0.  0.
         66    2    3    3    0    0 -0.22947145122E+02  0.27887318722E+02 -0.35941289725E+03  0.36122832774E+03  0.20000095887E+01 0.  0.
        -13    1    3    3    0    0  0.22947145122E+02 -0.27887318722E+02 -0.13568842975E+03  0.14041237533E+03  0.10566000000E+00 0.  1.
         13    1    4    4    0    0 -0.15893151604E+02  0.19156836794E+02 -0.24968524783E+03  0.25092291807E+03  0.10566000000E+00 0. -1.
        -13    1    4    4    0    0 -0.60445762675E+01  0.68690065767E+01 -0.90583486200E+02  0.91044490717E+02  0.10566000000E+00 0.  1.
        -14    1    4    4    0    0 -0.10094172514E+01  0.18614753511E+01 -0.19144163218E+02  0.19260918955E+02  0.00000000000E+00 0.  1.
<mgrwt>
<rscale>  0 0.80734571E+02</rscale>
<asrwt>0</asrwt>
<pdfrwt beam="1">  1        2 0.76672404E-01 0.80734571E+02</pdfrwt>
<pdfrwt beam="2">  1       -1 0.50302932E-03 0.80734571E+02</pdfrwt>
<totfact> 0.29703237E+05</totfact>
</mgrwt>
</event>
<event>
 8    1  0.2389776E-016  0.7813035E+02  0.7818608E-02  0.1334443E+00
         -1   -1    0    0    0  501 -0.00000000000E+00  0.00000000000E+00  0.12399287796E+01  0.12399390227E+01  0.50400000000E-02 0.  1.
          2   -1    0    0  501    0  0.00000000000E+00 -0.00000000000E+00 -0.12307815866E+04  0.12307815866E+04  0.25500000000E-02 0. -1.
         24    2    1    2    0    0  0.35527136788E-14  0.00000000000E+00 -0.12295416579E+04  0.12320215257E+04  0.78130348064E+02 0.  0.
         66    2    3    3    0    0 -0.18462973900E+02  0.80315018734E+01 -0.11425902080E+04  0.11427693423E+04  0.19999994802E+01 0.  0.
        -13    1    3    3    0    0  0.18462973900E+02 -0.80315018734E+01 -0.86951449874E+02  0.89252183317E+02  0.10566000000E+00 0.  1.
         13    1    4    4    0    0 -0.98424638325E+01  0.48818303974E+01 -0.60792033479E+03  0.60801961398E+03  0.10566000000E+00 0. -1.
        -13    1    4    4    0    0 -0.79450475865E+01  0.25901509117E+01 -0.47755746975E+03  0.47763059025E+03  0.10566000000E+00 0.  1.
         14    1    4    4    0    0 -0.67546248095E+00  0.55952056432E+00 -0.57112403428E+02  0.57119138107E+02  0.00000000000E+00 0. -1.
<mgrwt>
<rscale>  0 0.78130348E+02</rscale>
<asrwt>0</asrwt>
<pdfrwt beam="1">  1        2 0.18935004E+00 0.78130348E+02</pdfrwt>
<pdfrwt beam="2">  1       -1 0.19076005E-03 0.78130348E+02</pdfrwt>
<totfact> 0.37138394E+05</totfact>
</mgrwt>
</event>
<event>
 8    1  0.2389776E-016  0.7999010E+02  0.7818608E-02  0.1329080E+00
          2   -1    0    0  501    0  0.00000000000E+00  0.00000000000E+00  0.46713708514E+02  0.46713708583E+02  0.25500000000E-02 0. -1.
         -1   -1    0    0    0  501 -0.00000000000E+00 -0.00000000000E+00 -0.34242708065E+02  0.34242708435E+02  0.50400000000E-02 0.  1.
         24    2    1    2    0    0  0.35527136788E-14  0.00000000000E+00  0.12471000449E+02  0.80956417019E+02  0.79990096914E+02 0.  0.
         66    2    3    3    0    0  0.22122819953E+02 -0.30035496306E+01  0.39793457850E+02  0.45672308478E+02  0.20000002376E+01 0.  0.
        -13    1    3    3    0    0 -0.22122819953E+02  0.30035496306E+01 -0.27322457401E+02  0.35284108541E+02  0.10566000000E+00 0.  1.
         13    1    4    4    0    0  0.11865552436E+02 -0.71315839909E+00  0.21265828892E+02  0.24362811250E+02  0.10566000000E+00 0.  1.
        -13    1    4    4    0    0  0.35068935416E+01 -0.71949627146E+00  0.57827635319E+01  0.68020214127E+01  0.10566000000E+00 0. -1.
        -14    1    4    4    0    0  0.67503739748E+01 -0.15708949600E+01  0.12744865427E+02  0.14507475815E+02  0.00000000000E+00 0.  1.
<mgrwt>
<rscale>  0 0.79990097E+02</rscale>
<asrwt>0</asrwt>
<pdfrwt beam="1">  1        2 0.71867244E-02 0.79990097E+02</pdfrwt>
<pdfrwt beam="2">  1       -1 0.52681090E-02 0.79990097E+02</pdfrwt>
<totfact> 0.14730653E+05</totfact>
</mgrwt>
</event>
<event>
 8    1  0.2389776E-016  0.8268958E+02  0.7818608E-02  0.1321588E+00
          2   -1    0    0  501    0  0.00000000000E+00  0.00000000000E+00  0.10651014444E+03  0.10651014447E+03  0.25500000000E-02 0. -1.
         -1   -1    0    0    0  501 -0.00000000000E+00 -0.00000000000E+00 -0.16049098191E+02  0.16049098983E+02  0.50400000000E-02 0.  1.
         24    2    1    2    0    0  0.00000000000E+00  0.00000000000E+00  0.90461046253E+02  0.12255924346E+03  0.82689583792E+02 0.  0.
         66    2    3    3    0    0  0.36402973817E+02  0.17381823699E+02  0.31993226429E+02  0.51525438710E+02  0.19999997702E+01 0.  0.
        -13    1    3    3    0    0 -0.36402973817E+02 -0.17381823699E+02  0.58467819825E+02  0.71033804748E+02  0.10566000000E+00 0.  1.
         13    1    4    4    0    0  0.26371112689E+02  0.12460398144E+02  0.23256773707E+02  0.37303964852E+02  0.10566000000E+00 0. -1.
        -13    1    4    4    0    0  0.60789280656E+01  0.35245944600E+01  0.55855754991E+01  0.89769677635E+01  0.10566000000E+00 0.  1.
         14    1    4    4    0    0  0.39529330621E+01  0.13968310951E+01  0.31508772229E+01  0.52445060945E+01  0.00000000000E+00 0. -1.
<mgrwt>
<rscale>  0 0.82689584E+02</rscale>
<asrwt>0</asrwt>
<pdfrwt beam="1">  1        2 0.16386176E-01 0.82689584E+02</pdfrwt>
<pdfrwt beam="2">  1       -1 0.24690921E-02 0.82689584E+02</pdfrwt>
<totfact> 0.16515090E+05</totfact>
</mgrwt>
</event>
<event>
 8    1  0.2389776E-016  0.7615777E+02  0.7818608E-02  0.1340323E+00
         -1   -1    0    0    0  501 -0.00000000000E+00  0.00000000000E+00  0.34583436580E+02  0.34583436947E+02  0.50400000000E-02 0.  1.
          2   -1    0    0  501    0  0.00000000000E+00 -0.00000000000E+00 -0.41927629311E+02  0.41927629389E+02  0.25500000000E-02 0. -1.
         24    2    1    2    0    0  0.00000000000E+00  0.00000000000E+00 -0.73441927312E+01  0.76511066336E+02  0.76157771140E+02 0.  0.
         66    2    3    3    0    0  0.24903806654E+02 -0.62102182392E+01 -0.31898187920E+02  0.40990984126E+02  0.19999976378E+01 0.  0.
        -13    1    3    3    0    0 -0.24903806654E+02  0.62102182392E+01  0.24553995189E+02  0.35520082210E+02  0.10566000000E+00 0.  1.
         13    1    4    4    0    0  0.52528381658E+01 -0.97889045609E+00 -0.76527531087E+01  0.93341485685E+01  0.10566000000E+00 0. -1.
        -13    1    4    4    0    0  0.15199341372E+02 -0.39558903696E+01 -0.19270122171E+02  0.24859964185E+02  0.10566000000E+00 0.  1.
        -14    1    4    4    0    0  0.44516271157E+01 -0.12754374134E+01 -0.49753126406E+01  0.67968713717E+01  0.00000000000E+00 0.  1.
<mgrwt>
<rscale>  0 0.76157771E+02</rscale>
<asrwt>0</asrwt>
<pdfrwt beam="1">  1        2 0.64504046E-02 0.76157771E+02</pdfrwt>
<pdfrwt beam="2">  1       -1 0.53205287E-02 0.76157771E+02</pdfrwt>
<totfact> 0.16479678E+05</totfact>
</mgrwt>
</event>
<event>
 8    1  0.2389776E-016  0.7772201E+02  0.7818608E-02  0.1335643E+00
         -1   -1    0    0    0  501 -0.00000000000E+00  0.00000000000E+00  0.27696290962E+01  0.27696336820E+01  0.50400000000E-02 0.  1.
          2   -1    0    0  501    0  0.00000000000E+00 -0.00000000000E+00 -0.54526308951E+03  0.54526308952E+03  0.25500000000E-02 0. -1.
         24    2    1    2    0    0  0.00000000000E+00  0.00000000000E+00 -0.54249346042E+03  0.54803272320E+03  0.77722011709E+02 0.  0.
         66    2    3    3    0    0  0.57208688427E+01  0.30359964647E+02 -0.43734877180E+03  0.43844315937E+03  0.20000010466E+01 0.  0.
        -13    1    3    3    0    0 -0.57208688427E+01 -0.30359964647E+02 -0.10514468861E+03  0.10958956384E+03  0.10566000000E+00 0.  1.
         13    1    4    4    0    0  0.75888356790E+00  0.60943093245E+01 -0.77877890871E+02  0.78119738613E+02  0.10566000000E+00 0. -1.
        -13    1    4    4    0    0  0.89753851656E+00  0.37318835969E+01 -0.55331415296E+02  0.55464486055E+02  0.10566000000E+00 0.  1.
         14    1    4    4    0    0  0.40644467583E+01  0.20533771725E+02 -0.30413946564E+03  0.30485893470E+03  0.00000000000E+00 0. -1.
<mgrwt>
<rscale>  0 0.77722012E+02</rscale>
<asrwt>0</asrwt>
<pdfrwt beam="1">  1        2 0.83886544E-01 0.77722012E+02</pdfrwt>
<pdfrwt beam="2">  1       -1 0.42609757E-03 0.77722012E+02</pdfrwt>
<totfact> 0.33721835E+05</totfact>
</mgrwt>
</event>
<event>
 8    1  0.2389776E-016  0.7828560E+02  0.7818608E-02  0.1333988E+00
         -1   -1    0    0    0  501 -0.00000000000E+00  0.00000000000E+00  0.48615551760E+01  0.48615577885E+01  0.50400000000E-02 0.  1.
          2   -1    0    0  501    0  0.00000000000E+00 -0.00000000000E+00 -0.31515808636E+03  0.31515808637E+03  0.25500000000E-02 0. -1.
         24    2    1    2    0    0  0.00000000000E+00  0.00000000000E+00 -0.31029653119E+03  0.32001964416E+03  0.78285601376E+02 0.  0.
         66    2    3    3    0    0  0.37108065933E+02 -0.70521765825E+01 -0.19681929467E+03  0.20042099817E+03  0.20000001566E+01 0.  0.
        -13    1    3    3    0    0 -0.37108065933E+02  0.70521765825E+01 -0.11347723652E+03  0.11959864599E+03  0.10566000000E+00 0.  1.
         13    1    4    4    0    0  0.61736654408E+01 -0.83630287978E+00 -0.29606032559E+02  0.30254617423E+02  0.10566000000E+00 0.  1.
        -13    1    4    4    0    0  0.14858939168E+02 -0.29055185591E+01 -0.77985292758E+02  0.79441470038E+02  0.10566000000E+00 0. -1.
        -14    1    4    4    0    0  0.16075461325E+02 -0.33103551436E+01 -0.89227969350E+02  0.90724910704E+02  0.00000000000E+00 0.  1.
<mgrwt>
<rscale>  0 0.78285601E+02</rscale>
<asrwt>0</asrwt>
<pdfrwt beam="1">  1        2 0.48485844E-01 0.78285601E+02</pdfrwt>
<pdfrwt beam="2">  1       -1 0.74793202E-03 0.78285601E+02</pdfrwt>
<totfact> 0.27466994E+05</totfact>
</mgrwt>
</event>
<event>
 8    1  0.2389776E-016  0.7996660E+02  0.7818608E-02  0.1329146E+00
         -1   -1    0    0    0  501 -0.00000000000E+00  0.00000000000E+00  0.10128710933E+02  0.10128712187E+02  0.50400000000E-02 0.  1.
          2   -1    0    0  501    0  0.00000000000E+00 -0.00000000000E+00 -0.15783492200E+03  0.15783492202E+03  0.25500000000E-02 0. -1.
         24    2    1    2    0    0  0.17763568394E-14 -0.88817841970E-15 -0.14770621107E+03  0.16796363421E+03  0.79966603206E+02 0.  0.
         66    2    3    3    0    0 -0.79332830326E+01  0.75223891074E+01 -0.15462581298E+03  0.15502472498E+03  0.19999993577E+01 0.  0.
        -13    1    3    3    0    0  0.79332830326E+01 -0.75223891074E+01  0.69196019075E+01  0.12938909234E+02  0.10566000000E+00 0.  1.
         13    1    4    4    0    0 -0.16668496578E+01  0.14218047822E+01 -0.26609396515E+02  0.26699645382E+02  0.10566000000E+00 0. -1.
        -13    1    4    4    0    0 -0.78691919770E-01  0.22952278386E+00 -0.87643587779E+01  0.87683534343E+01  0.10566000000E+00 0.  1.
        -14    1    4    4    0    0 -0.61877414550E+01  0.58710615413E+01 -0.11925205768E+03  0.11955672616E+03  0.00000000000E+00 0.  1.
<mgrwt>
<rscale>  0 0.79966603E+02</rscale>
<asrwt>0</asrwt>
<pdfrwt beam="1">  1        2 0.24282294E-01 0.79966603E+02</pdfrwt>
<pdfrwt beam="2">  1       -1 0.15582634E-02 0.79966603E+02</pdfrwt>
<totfact> 0.20386338E+05</totfact>
</mgrwt>
</event>
<event>
 8    1  0.2389776E-016  0.8127823E+02  0.7818608E-02  0.1325463E+00
          2   -1    0    0  501    0  0.00000000000E+00  0.00000000000E+00  0.64455439668E+02  0.64455439718E+02  0.25500000000E-02 0. -1.
         -1   -1    0    0    0  501 -0.00000000000E+00 -0.00000000000E+00 -0.25622939189E+02  0.25622939685E+02  0.50400000000E-02 0.  1.
         24    2    1    2    0    0  0.00000000000E+00  0.22204460493E-15  0.38832500478E+02  0.90078379403E+02  0.81278234125E+02 0.  0.
         66    2    3    3    0    0  0.22320504003E+02 -0.13048751019E+01  0.57005177073E+02  0.61265796446E+02  0.20000007621E+01 0.  0.
        -13    1    3    3    0    0 -0.22320504003E+02  0.13048751019E+01 -0.18172676595E+02  0.28812582957E+02  0.10566000000E+00 0.  1.
         13    1    4    4    0    0  0.76634821479E+01 -0.13641870395E+00  0.19840297915E+02  0.21269606345E+02  0.10566000000E+00 0. -1.
        -13    1    4    4    0    0  0.12198191812E+02 -0.15116681017E+01  0.30483464880E+02  0.32868431953E+02  0.10566000000E+00 0.  1.
        -14    1    4    4    0    0  0.24588300438E+01  0.34321170369E+00  0.66814142783E+01  0.71277581480E+01  0.00000000000E+00 0.  1.
<mgrwt>
<rscale>  0 0.81278234E+02</rscale>
<asrwt>0</asrwt>
<pdfrwt beam="1">  1        2 0.99162213E-02 0.81278234E+02</pdfrwt>
<pdfrwt beam="2">  1       -1 0.39419908E-02 0.81278234E+02</pdfrwt>
<totfact> 0.15161924E+05</totfact>
</mgrwt>
</event>
<event>
 8    1  0.2389776E-016  0.7912141E+02  0.7818608E-02  0.1331563E+00
          2   -1    0    0  501    0  0.00000000000E+00  0.00000000000E+00  0.39856866270E+02  0.39856866352E+02  0.25500000000E-02 0. -1.
         -1   -1    0    0    0  501 -0.00000000000E+00 -0.00000000000E+00 -0.39266743401E+02  0.39266743724E+02  0.50400000000E-02 0.  1.
         24    2    1    2    0    0  0.00000000000E+00 -0.35527136788E-14  0.59012286910E+00  0.79123610076E+02  0.79121409406E+02 0.  0.
         66    2    3    3    0    0 -0.30901600636E+02  0.24416037953E+02  0.37583756256E+01  0.39612841661E+02  0.20000014828E+01 0.  0.
        -13    1    3    3    0    0  0.30901600636E+02 -0.24416037953E+02 -0.31682527565E+01  0.39510768415E+02  0.10566000000E+00 0.  1.
         13    1    4    4    0    0 -0.26402744485E+02  0.20134000719E+02  0.33610959143E+01  0.33373507923E+02  0.10566000000E+00 0. -1.
        -13    1    4    4    0    0 -0.37669055842E+01  0.35666574391E+01  0.17266913085E+00  0.51914931988E+01  0.10566000000E+00 0.  1.
         14    1    4    4    0    0 -0.73195056620E+00  0.71537979554E+00  0.22461058041E+00  0.10478405394E+01  0.00000000000E+00 0. -1.
<mgrwt>
<rscale>  0 0.79121409E+02</rscale>
<asrwt>0</asrwt>
<pdfrwt beam="1">  1        2 0.61318256E-02 0.79121409E+02</pdfrwt>
<pdfrwt beam="2">  1       -1 0.60410375E-02 0.79121409E+02</pdfrwt>
<totfact> 0.14686010E+05</totfact>
</mgrwt>
</event>
<event>
 8    1  0.3369572E-016  0.7897623E+02  0.7818608E-02  0.1331982E+00
         -1   -1    0    0    0  501 -0.00000000000E+00  0.00000000000E+00  0.36260093717E+01  0.36260128744E+01  0.50400000000E-02 0.  1.
          2   -1    0    0  501    0  0.00000000000E+00 -0.00000000000E+00 -0.43003485991E+03  0.43003485992E+03  0.25500000000E-02 0. -1.
         24    2    1    2    0    0  0.00000000000E+00  0.17763568394E-14 -0.42640885054E+03  0.43366087280E+03  0.78976229167E+02 0.  0.
         66    2    3    3    0    0  0.32133044301E+02  0.91339626769E+01 -0.32869743409E+03  0.33039667823E+03  0.19999994933E+01 0.  0.
        -13    1    3    3    0    0 -0.32133044301E+02 -0.91339626769E+01 -0.97711416455E+02  0.10326419457E+03  0.10566000000E+00 0.  1.
         13    1    4    4    0    0  0.77041850914E+01  0.25598382648E+01 -0.76055673709E+02  0.76487802343E+02  0.10566000000E+00 0. -1.
        -13    1    4    4    0    0  0.90911328032E+00  0.40082817913E+00 -0.82089505281E+01  0.82695334206E+01  0.10566000000E+00 0. -1.
         14    1    4    4    0    0  0.23519745929E+02  0.61732962330E+01 -0.24443280985E+03  0.24563934246E+03  0.00000000000E+00 0. -1.
<mgrwt>
<rscale>  0 0.78976229E+02</rscale>
<asrwt>0</asrwt>
<pdfrwt beam="1">  1        2 0.66159169E-01 0.78976229E+02</pdfrwt>
<pdfrwt beam="2">  1       -1 0.55784821E-03 0.78976229E+02</pdfrwt>
<totfact> 0.29959600E+05</totfact>
</mgrwt>
</event>
<event>
 8    1  0.2389776E-016  0.7859161E+02  0.7818608E-02  0.1333096E+00
          2   -1    0    0  501    0  0.00000000000E+00  0.00000000000E+00  0.19618745007E+02  0.19618745172E+02  0.25500000000E-02 0. -1.
         -1   -1    0    0    0  501 -0.00000000000E+00 -0.00000000000E+00 -0.78708409562E+02  0.78708409723E+02  0.50400000000E-02 0.  1.
         24    2    1    2    0    0  0.00000000000E+00  0.00000000000E+00 -0.59089664555E+02  0.98327154896E+02  0.78591608538E+02 0.  0.
         66    2    3    3    0    0  0.18209267841E+02  0.85814701062E+01  0.12621796494E+02  0.23843842171E+02  0.19999995648E+01 0.  0.
        -13    1    3    3    0    0 -0.18209267841E+02 -0.85814701062E+01 -0.71711461049E+02  0.74483312724E+02  0.10566000000E+00 0.  1.
         13    1    4    4    0    0  0.12510901224E+02  0.50046219841E+01  0.84076502766E+01  0.15882966910E+02  0.10566000000E+00 0. -1.
        -13    1    4    4    0    0  0.23991020765E+01  0.14527845543E+01  0.14329254566E+01  0.31513034025E+01  0.10566000000E+00 0.  1.
         14    1    4    4    0    0  0.32992645406E+01  0.21240635678E+01  0.27812207606E+01  0.48095718591E+01  0.00000000000E+00 0. -1.
<mgrwt>
<rscale>  0 0.78591609E+02</rscale>
<asrwt>0</asrwt>
<pdfrwt beam="1">  1        2 0.30182685E-02 0.78591609E+02</pdfrwt>
<pdfrwt beam="2">  1       -1 0.12108986E-01 0.78591609E+02</pdfrwt>
<totfact> 0.13014363E+05</totfact>
</mgrwt>
</event>
<event>
 8    1  0.2389776E-016  0.8007364E+02  0.7818608E-02  0.1328843E+00
          2   -1    0    0  501    0  0.00000000000E+00  0.00000000000E+00  0.34256851576E+02  0.34256851671E+02  0.25500000000E-02 0. -1.
         -1   -1    0    0    0  501 -0.00000000000E+00 -0.00000000000E+00 -0.46792010164E+02  0.46792010435E+02  0.50400000000E-02 0.  1.
         24    2    1    2    0    0  0.00000000000E+00  0.00000000000E+00 -0.12535158587E+02  0.81048862107E+02  0.80073640157E+02 0.  0.
         66    2    3    3    0    0 -0.13639488834E+02 -0.15097724688E+02  0.28600478077E+02  0.35156284120E+02  0.20000051252E+01 0.  0.
        -13    1    3    3    0    0  0.13639488834E+02  0.15097724688E+02 -0.41135636664E+02  0.45892577986E+02  0.10566000000E+00 0.  1.
         13    1    4    4    0    0 -0.30257055172E+01 -0.29643628768E+01  0.48405049973E+01  0.64330392356E+01  0.10566000000E+00 0. -1.
        -13    1    4    4    0    0 -0.30821290542E+01 -0.40512717207E+01  0.73717425122E+01  0.89591335386E+01  0.10566000000E+00 0.  1.
        -14    1    4    4    0    0 -0.75316542625E+01 -0.80820900906E+01  0.16388230567E+02  0.19764111346E+02  0.00000000000E+00 0.  1.
<mgrwt>
<rscale>  0 0.80073640E+02</rscale>
<asrwt>0</asrwt>
<pdfrwt beam="1">  1        2 0.52702848E-02 0.80073640E+02</pdfrwt>
<pdfrwt beam="2">  1       -1 0.71987709E-02 0.80073640E+02</pdfrwt>
<totfact> 0.13779118E+05</totfact>
</mgrwt>
</event>
<event>
 8    1  0.2389776E-016  0.8113065E+02  0.7818608E-02  0.1325873E+00
         -1   -1    0    0    0  501 -0.00000000000E+00  0.00000000000E+00  0.28109862336E+02  0.28109862788E+02  0.50400000000E-02 0.  1.
          2   -1    0    0  501    0  0.00000000000E+00 -0.00000000000E+00 -0.58539795511E+02  0.58539795567E+02  0.25500000000E-02 0. -1.
         24    2    1    2    0    0  0.00000000000E+00  0.00000000000E+00 -0.30429933175E+02  0.86649658355E+02  0.81130650558E+02 0.  0.
         66    2    3    3    0    0 -0.27888814635E+02 -0.79069851092E+01 -0.45493530515E+02  0.53981179294E+02  0.20000009921E+01 0.  0.
        -13    1    3    3    0    0  0.27888814635E+02  0.79069851092E+01  0.15063597340E+02  0.32668479061E+02  0.10566000000E+00 0.  1.
         13    1    4    4    0    0 -0.33748630117E+01 -0.10514159508E+01 -0.53968785882E+01  0.64523358856E+01  0.10566000000E+00 0. -1.
        -13    1    4    4    0    0 -0.16806713071E+02 -0.51018419878E+01 -0.26231989997E+02  0.31569334158E+02  0.10566000000E+00 0.  1.
        -14    1    4    4    0    0 -0.77072385525E+01 -0.17537271706E+01 -0.13864661929E+02  0.15959509250E+02  0.00000000000E+00 0.  1.
<mgrwt>
<rscale>  0 0.81130651E+02</rscale>
<asrwt>0</asrwt>
<pdfrwt beam="1">  1        2 0.90061224E-02 0.81130651E+02</pdfrwt>
<pdfrwt beam="2">  1       -1 0.43245943E-02 0.81130651E+02</pdfrwt>
<totfact> 0.14897281E+05</totfact>
</mgrwt>
</event>
<event>
 8    1  0.2389776E-016  0.7922737E+02  0.7818608E-02  0.1331258E+00
         -1   -1    0    0    0  501 -0.00000000000E+00  0.00000000000E+00  0.14255567958E+02  0.14255568849E+02  0.50400000000E-02 0.  1.
          2   -1    0    0  501    0  0.00000000000E+00 -0.00000000000E+00 -0.11007937485E+03  0.11007937488E+03  0.25500000000E-02 0. -1.
         24    2    1    2    0    0  0.00000000000E+00  0.00000000000E+00 -0.95823806894E+02  0.12433494373E+03  0.79227370680E+02 0.  0.
         66    2    3    3    0    0 -0.13297693555E+02  0.21877432534E+02 -0.95329980493E+02  0.98728191951E+02  0.19999992751E+01 0.  0.
        -13    1    3    3    0    0  0.13297693555E+02 -0.21877432534E+02 -0.49382640105E+00  0.25606751779E+02  0.10566000000E+00 0.  1.
         13    1    4    4    0    0 -0.71106827580E+01  0.10198526915E+02 -0.45785485368E+02  0.47443583285E+02  0.10566000000E+00 0. -1.
        -13    1    4    4    0    0 -0.18175460430E+01  0.36478276967E+01 -0.13827261995E+02  0.14415771184E+02  0.10566000000E+00 0.  1.
         14    1    4    4    0    0 -0.43694647537E+01  0.80310779221E+01 -0.35717233130E+02  0.36868837482E+02  0.00000000000E+00 0. -1.
<mgrwt>
<rscale>  0 0.79227371E+02</rscale>
<asrwt>0</asrwt>
<pdfrwt beam="1">  1        2 0.16935288E-01 0.79227371E+02</pdfrwt>
<pdfrwt beam="2">  1       -1 0.21931645E-02 0.79227371E+02</pdfrwt>
<totfact> 0.18695972E+05</totfact>
</mgrwt>
</event>
<event>
 8    1  0.2389776E-016  0.7953648E+02  0.7818608E-02  0.1330372E+00
         -1   -1    0    0    0  501 -0.00000000000E+00  0.00000000000E+00  0.19081882559E+02  0.19081883225E+02  0.50400000000E-02 0.  1.
          2   -1    0    0  501    0  0.00000000000E+00 -0.00000000000E+00 -0.82880337110E+02  0.82880337149E+02  0.25500000000E-02 0. -1.
         24    2    1    2    0    0  0.00000000000E+00  0.00000000000E+00 -0.63798454551E+02  0.10196222037E+03  0.79536479558E+02 0.  0.
         66    2    3    3    0    0  0.11690737947E+02 -0.26521998413E+02 -0.66778586748E+02  0.72824922875E+02  0.19999975043E+01 0.  0.
        -13    1    3    3    0    0 -0.11690737947E+02  0.26521998413E+02  0.29801321976E+01  0.29137297499E+02  0.10566000000E+00 0.  1.
         13    1    4    4    0    0  0.50107772930E+01 -0.12634637969E+02 -0.30700065501E+02  0.33574501508E+02  0.10566000000E+00 0. -1.
        -13    1    4    4    0    0  0.32509236984E+01 -0.63180252513E+01 -0.15203878556E+02  0.16782581302E+02  0.10566000000E+00 0.  1.
         14    1    4    4    0    0  0.34290369558E+01 -0.75693351928E+01 -0.20874642691E+02  0.22467840065E+02  0.00000000000E+00 0. -1.
<mgrwt>
<rscale>  0 0.79536480E+02</rscale>
<asrwt>0</asrwt>
<pdfrwt beam="1">  1        2 0.12750821E-01 0.79536480E+02</pdfrwt>
<pdfrwt beam="2">  1       -1 0.29356743E-02 0.79536480E+02</pdfrwt>
<totfact> 0.17114732E+05</totfact>
</mgrwt>
</event>
<event>
 8    1  0.2389776E-016  0.7843711E+02  0.7818608E-02  0.1333546E+00
          2   -1    0    0  501    0  0.00000000000E+00  0.00000000000E+00  0.89413228525E+01  0.89413232162E+01  0.25500000000E-02 0. -1.
         -1   -1    0    0    0  501 -0.00000000000E+00 -0.00000000000E+00 -0.17202097654E+03  0.17202097661E+03  0.50400000000E-02 0.  1.
         24    2    1    2    0    0  0.00000000000E+00 -0.44408920985E-15 -0.16307965368E+03  0.18096229983E+03  0.78437111834E+02 0.  0.
         66    2    3    3    0    0 -0.38442677100E+02  0.24341186252E+01 -0.64903911957E+02  0.75500212877E+02  0.20000002643E+01 0.  0.
        -13    1    3    3    0    0  0.38442677100E+02 -0.24341186252E+01 -0.98175741728E+02  0.10546208695E+03  0.10566000000E+00 0.  1.
         13    1    4    4    0    0 -0.14745760024E+02  0.13576753610E+01 -0.23523908858E+02  0.27796873440E+02  0.10566000000E+00 0. -1.
        -13    1    4    4    0    0 -0.13217527376E+02  0.22147429987E+00 -0.23071767289E+02  0.26590782063E+02  0.10566000000E+00 0.  1.
         14    1    4    4    0    0 -0.10479389700E+02  0.85496896426E+00 -0.18308235810E+02  0.21112557374E+02  0.00000000000E+00 0. -1.
<mgrwt>
<rscale>  0 0.78437112E+02</rscale>
<asrwt>0</asrwt>
<pdfrwt beam="1">  1        2 0.13755883E-02 0.78437112E+02</pdfrwt>
<pdfrwt beam="2">  1       -1 0.26464763E-01 0.78437112E+02</pdfrwt>
<totfact> 0.10936921E+05</totfact>
</mgrwt>
</event>
<event>
 8    1  0.2389776E-016  0.8319291E+02  0.7818608E-02  0.1320227E+00
         -1   -1    0    0    0  501 -0.00000000000E+00  0.00000000000E+00  0.14098873094E+02  0.14098873995E+02  0.50400000000E-02 0.  1.
          2   -1    0    0  501    0  0.00000000000E+00 -0.00000000000E+00 -0.12272363736E+03  0.12272363739E+03  0.25500000000E-02 0. -1.
         24    2    1    2    0    0  0.00000000000E+00 -0.71054273576E-14 -0.10862476427E+03  0.13682251138E+03  0.83192909607E+02 0.  0.
         66    2    3    3    0    0  0.65226213021E+00  0.41269731754E+02 -0.46179263034E+02  0.61968867562E+02  0.20000019113E+01 0.  0.
        -13    1    3    3    0    0 -0.65226213021E+00 -0.41269731754E+02 -0.62445501233E+02  0.74853643820E+02  0.10566000000E+00 0.  1.
         13    1    4    4    0    0  0.26948653112E+00  0.80213747744E+00 -0.92395037652E+00  0.12573368113E+01  0.10566000000E+00 0. -1.
        -13    1    4    4    0    0  0.63841504720E-01  0.68528896017E+01 -0.76141186879E+01  0.10244615125E+02  0.10566000000E+00 0. -1.
         14    1    4    4    0    0  0.31893409437E+00  0.33614704674E+02 -0.37641193970E+02  0.50466915626E+02  0.00000000000E+00 0. -1.
<mgrwt>
<rscale>  0 0.83192910E+02</rscale>
<asrwt>0</asrwt>
<pdfrwt beam="1">  1        2 0.18880559E-01 0.83192910E+02</pdfrwt>
<pdfrwt beam="2">  1       -1 0.21690576E-02 0.83192910E+02</pdfrwt>
<totfact> 0.16945509E+05</totfact>
</mgrwt>
</event>
<event>
 8    1  0.2389776E-016  0.8611984E+02  0.7818608E-02  0.1312530E+00
          2   -1    0    0  501    0  0.00000000000E+00  0.00000000000E+00  0.91650725768E+01  0.91650729315E+01  0.25500000000E-02 0. -1.
         -1   -1    0    0    0  501 -0.00000000000E+00 -0.00000000000E+00 -0.20230679833E+03  0.20230679839E+03  0.50400000000E-02 0.  1.
         24    2    1    2    0    0  0.17763568394E-14 -0.35527136788E-14 -0.19314172575E+03  0.21147187132E+03  0.86119835894E+02 0.  0.
         66    2    3    3    0    0 -0.13191322786E+02  0.26065669729E+02 -0.19021039457E+02  0.34917475470E+02  0.20000039748E+01 0.  0.
        -13    1    3    3    0    0  0.13191322786E+02 -0.26065669729E+02 -0.17412068629E+03  0.17655439585E+03  0.10566000000E+00 0.  1.
         13    1    4    4    0    0 -0.41019898714E+01  0.92108558050E+01 -0.73005587067E+01  0.12448915898E+02  0.10566000000E+00 0. -1.
        -13    1    4    4    0    0 -0.57695428798E+01  0.98129994178E+01 -0.68921469159E+01  0.13307720908E+02  0.10566000000E+00 0.  1.
         14    1    4    4    0    0 -0.33197900344E+01  0.70418145062E+01 -0.48283338345E+01  0.91608386641E+01  0.00000000000E+00 0. -1.
<mgrwt>
<rscale>  0 0.86119836E+02</rscale>
<asrwt>0</asrwt>
<pdfrwt beam="1">  1        2 0.14100113E-02 0.86119836E+02</pdfrwt>
<pdfrwt beam="2">  1       -1 0.31124120E-01 0.86119836E+02</pdfrwt>
<totfact> 0.82253458E+04</totfact>
</mgrwt>
</event>
<event>
 8    1  0.2389776E-016  0.7878002E+02  0.7818608E-02  0.1332550E+00
          2   -1    0    0  501    0  0.00000000000E+00  0.00000000000E+00  0.22034198166E+03  0.22034198167E+03  0.25500000000E-02 0. -1.
         -1   -1    0    0    0  501 -0.00000000000E+00 -0.00000000000E+00 -0.70416562963E+01  0.70416581000E+01  0.50400000000E-02 0.  1.
         24    2    1    2    0    0  0.00000000000E+00  0.00000000000E+00  0.21330032536E+03  0.22738363977E+03  0.78780015467E+02 0.  0.
         66    2    3    3    0    0 -0.36639449226E+02  0.30953106368E+01  0.14728525236E+03  0.15181889128E+03  0.19999996958E+01 0.  0.
        -13    1    3    3    0    0  0.36639449226E+02 -0.30953106368E+01  0.66015072998E+02  0.75564748491E+02  0.10566000000E+00 0.  1.
         13    1    4    4    0    0 -0.25544718509E+02  0.22311858657E+01  0.10349304907E+03  0.10662238604E+03  0.10566000000E+00 0. -1.
        -13    1    4    4    0    0 -0.75882429568E+01  0.84419656212E+00  0.31654005996E+02  0.32561961836E+02  0.10566000000E+00 0.  1.
         14    1    4    4    0    0 -0.35064877596E+01  0.19928209010E-01  0.12138197295E+02  0.12634543408E+02  0.00000000000E+00 0. -1.
<mgrwt>
<rscale>  0 0.78780015E+02</rscale>
<asrwt>0</asrwt>
<pdfrwt beam="1">  1        2 0.33898765E-01 0.78780015E+02</pdfrwt>
<pdfrwt beam="2">  1       -1 0.10833319E-02 0.78780015E+02</pdfrwt>
<totfact> 0.23761719E+05</totfact>
</mgrwt>
</event>
<event>
 8    1  0.2389776E-016  0.8094192E+02  0.7818608E-02  0.1326399E+00
         -1   -1    0    0    0  501 -0.00000000000E+00  0.00000000000E+00  0.18660539618E+01  0.18660607680E+01  0.50400000000E-02 0.  1.
          2   -1    0    0  501    0  0.00000000000E+00 -0.00000000000E+00 -0.87773211929E+03  0.87773211929E+03  0.25500000000E-02 0. -1.
         24    2    1    2    0    0  0.00000000000E+00 -0.35527136788E-14 -0.87586606532E+03  0.87959818006E+03  0.80941917288E+02 0.  0.
         66    2    3    3    0    0  0.13574268619E+02  0.31658042125E+02 -0.66857071677E+03  0.66946045119E+03  0.19999945150E+01 0.  0.
        -13    1    3    3    0    0 -0.13574268619E+02 -0.31658042125E+02 -0.20729534855E+03  0.21013772887E+03  0.10566000000E+00 0.  1.
         13    1    4    4    0    0  0.33957583826E+01  0.98026665757E+01 -0.19895767832E+03  0.19922799094E+03  0.10566000000E+00 0. -1.
        -13    1    4    4    0    0  0.27322583545E+01  0.56665966522E+01 -0.13046346572E+03  0.13061509333E+03  0.10566000000E+00 0.  1.
         14    1    4    4    0    0  0.74462518824E+01  0.16188778897E+02 -0.33914957273E+03  0.33961736692E+03  0.00000000000E+00 0. -1.
<mgrwt>
<rscale>  0 0.80941917E+02</rscale>
<asrwt>0</asrwt>
<pdfrwt beam="1">  1        2 0.13503538E+00 0.80941917E+02</pdfrwt>
<pdfrwt beam="2">  1       -1 0.28708645E-03 0.80941917E+02</pdfrwt>
<totfact> 0.33800246E+05</totfact>
</mgrwt>
</event>
<event>
 8    1  0.2389776E-016  0.8211450E+02  0.7818608E-02  0.1323156E+00
         -1   -1    0    0    0  501 -0.00000000000E+00  0.00000000000E+00  0.58277256028E+01  0.58277277822E+01  0.50400000000E-02 0.  1.
          2   -1    0    0  501    0  0.00000000000E+00 -0.00000000000E+00 -0.28925478038E+03  0.28925478039E+03  0.25500000000E-02 0. -1.
         24    2    1    2    0    0  0.00000000000E+00  0.35527136788E-14 -0.28342705478E+03  0.29508250817E+03  0.82114500852E+02 0.  0.
         66    2    3    3    0    0 -0.20003445526E+02  0.20865691527E+02 -0.24645407290E+03  0.24815141540E+03  0.20000002213E+01 0.  0.
        -13    1    3    3    0    0  0.20003445526E+02 -0.20865691527E+02 -0.36972981876E+02  0.46931092771E+02  0.10566000000E+00 0.  1.
         13    1    4    4    0    0 -0.13301450979E+02  0.14418855274E+02 -0.17351940814E+03  0.17462482112E+03  0.10566000000E+00 0. -1.
        -13    1    4    4    0    0 -0.45593920480E+01  0.46518339356E+01 -0.51608681876E+02  0.52018216269E+02  0.10566000000E+00 0.  1.
        -14    1    4    4    0    0 -0.21426024991E+01  0.17950023174E+01 -0.21325982879E+02  0.21508378009E+02  0.00000000000E+00 0.  1.
<mgrwt>
<rscale>  0 0.82114501E+02</rscale>
<asrwt>0</asrwt>
<pdfrwt beam="1">  1        2 0.44500724E-01 0.82114501E+02</pdfrwt>
<pdfrwt beam="2">  1       -1 0.89657357E-03 0.82114501E+02</pdfrwt>
<totfact> 0.23493638E+05</totfact>
</mgrwt>
</event>
<event>
 8    1  0.2389776E-016  0.8031302E+02  0.7818608E-02  0.1328165E+00
          2   -1    0    0  501    0  0.00000000000E+00  0.00000000000E+00  0.19349208967E+02  0.19349209135E+02  0.25500000000E-02 0. -1.
         -1   -1    0    0    0  501 -0.00000000000E+00 -0.00000000000E+00 -0.83339070630E+02  0.83339070782E+02  0.50400000000E-02 0.  1.
         24    2    1    2    0    0  0.00000000000E+00  0.00000000000E+00 -0.63989861663E+02  0.10268827992E+03  0.80313015364E+02 0.  0.
         66    2    3    3    0    0  0.24839600988E+02 -0.27046120789E+02 -0.52712325106E+02  0.64273537672E+02  0.19999999263E+01 0.  0.
        -13    1    3    3    0    0 -0.24839600988E+02  0.27046120789E+02 -0.11277536556E+02  0.38414742246E+02  0.10566000000E+00 0.  1.
         13    1    4    4    0    0  0.66591430155E+01 -0.62704775935E+01 -0.13709849595E+02  0.16481329282E+02  0.10566000000E+00 0. -1.
        -13    1    4    4    0    0  0.14668216941E+02 -0.16245806267E+02 -0.30789476576E+02  0.37776789717E+02  0.10566000000E+00 0.  1.
        -14    1    4    4    0    0  0.35122410320E+01 -0.45298369289E+01 -0.82129989359E+01  0.10015418673E+02  0.00000000000E+00 0.  1.
<mgrwt>
<rscale>  0 0.80313015E+02</rscale>
<asrwt>0</asrwt>
<pdfrwt beam="1">  1        2 0.29768015E-02 0.80313015E+02</pdfrwt>
<pdfrwt beam="2">  1       -1 0.12821395E-01 0.80313015E+02</pdfrwt>
<totfact> 0.12194724E+05</totfact>
</mgrwt>
</event>
<event>
 8    1  0.2389776E-016  0.7816534E+02  0.7818608E-02  0.1334340E+00
         -1   -1    0    0    0  501 -0.00000000000E+00  0.00000000000E+00  0.21874217282E+03  0.21874217288E+03  0.50400000000E-02 0.  1.
          2   -1    0    0  501    0  0.00000000000E+00 -0.00000000000E+00 -0.69829023328E+01  0.69829027984E+01  0.25500000000E-02 0. -1.
         24    2    1    2    0    0  0.00000000000E+00  0.00000000000E+00  0.21175927049E+03  0.22572507568E+03  0.78165344955E+02 0.  0.
         66    2    3    3    0    0  0.35617782812E+02  0.12782904792E+02  0.78036923928E+02  0.86751314697E+02  0.19999995516E+01 0.  0.
        -13    1    3    3    0    0 -0.35617782812E+02 -0.12782904792E+02  0.13372234656E+03  0.13897376098E+03  0.10566000000E+00 0.  1.
         13    1    4    4    0    0  0.12292422387E+02  0.38733683271E+01  0.27166896988E+02  0.30069221579E+02  0.10566000000E+00 0. -1.
        -13    1    4    4    0    0  0.90200195641E+00  0.49610235802E+00  0.17169726777E+01  0.20047155137E+01  0.10566000000E+00 0. -1.
        -14    1    4    4    0    0  0.22423358468E+02  0.84134341072E+01  0.49153054262E+02  0.54677377605E+02  0.00000000000E+00 0.  1.
<mgrwt>
<rscale>  0 0.78165345E+02</rscale>
<asrwt>0</asrwt>
<pdfrwt beam="1">  1        2 0.10742927E-02 0.78165345E+02</pdfrwt>
<pdfrwt beam="2">  1       -1 0.33652643E-01 0.78165345E+02</pdfrwt>
<totfact> 0.10276266E+05</totfact>
</mgrwt>
</event>
<event>
 8    1  0.2389776E-016  0.7885526E+02  0.7818608E-02  0.1332332E+00
          2   -1    0    0  501    0  0.00000000000E+00  0.00000000000E+00  0.16200873558E+03  0.16200873560E+03  0.25500000000E-02 0. -1.
         -1   -1    0    0    0  501 -0.00000000000E+00 -0.00000000000E+00 -0.95953959388E+01  0.95953972625E+01  0.50400000000E-02 0.  1.
         24    2    1    2    0    0  0.00000000000E+00  0.00000000000E+00  0.15241333964E+03  0.17160413286E+03  0.78855261808E+02 0.  0.
         66    2    3    3    0    0  0.85440263950E+01 -0.94432598399E+01  0.15740028543E+03  0.15792727884E+03  0.20000012725E+01 0.  0.
        -13    1    3    3    0    0 -0.85440263950E+01  0.94432598399E+01 -0.49869457932E+01  0.13676854018E+02  0.10566000000E+00 0.  1.
         13    1    4    4    0    0  0.22100758931E+01 -0.21961790042E+01  0.39361274171E+02  0.39484537557E+02  0.10566000000E+00 0. -1.
        -13    1    4    4    0    0  0.23903050242E+01 -0.17715927732E+01  0.41655459950E+02  0.41761712210E+02  0.10566000000E+00 0.  1.
        -14    1    4    4    0    0  0.39436454777E+01 -0.54754880624E+01  0.76383551310E+02  0.76681029074E+02  0.00000000000E+00 0.  1.
<mgrwt>
<rscale>  0 0.78855262E+02</rscale>
<asrwt>0</asrwt>
<pdfrwt beam="1">  1        2 0.24924421E-01 0.78855262E+02</pdfrwt>
<pdfrwt beam="2">  1       -1 0.14762148E-02 0.78855262E+02</pdfrwt>
<totfact> 0.21337737E+05</totfact>
</mgrwt>
</event>
<event>
 8    1  0.2389776E-016  0.7910022E+02  0.7818608E-02  0.1331624E+00
          2   -1    0    0  501    0  0.00000000000E+00  0.00000000000E+00  0.77333379817E+03  0.77333379818E+03  0.25500000000E-02 0. -1.
         -1   -1    0    0    0  501 -0.00000000000E+00 -0.00000000000E+00 -0.20226825246E+01  0.20226888037E+01  0.50400000000E-02 0.  1.
         24    2    1    2    0    0  0.35527136788E-14  0.00000000000E+00  0.77131111565E+03  0.77535648698E+03  0.79100219852E+02 0.  0.
         66    2    3    3    0    0 -0.23491806723E+02  0.43620358884E+01  0.69452516197E+03  0.69493891312E+03  0.20000027977E+01 0.  0.
        -13    1    3    3    0    0  0.23491806723E+02 -0.43620358884E+01  0.76785953679E+02  0.80417573867E+02  0.10566000000E+00 0.  1.
         13    1    4    4    0    0 -0.31072051167E+01  0.50165326271E+00  0.82512923635E+02  0.82572998677E+02  0.10566000000E+00 0. -1.
        -13    1    4    4    0    0 -0.11526159813E+02  0.28902365484E+01  0.36101823424E+03  0.36121376282E+03  0.10566000000E+00 0.  1.
        -14    1    4    4    0    0 -0.88584417936E+01  0.97014607732E+00  0.25099400409E+03  0.25115215162E+03  0.00000000000E+00 0.  1.
<mgrwt>
<rscale>  0 0.79100220E+02</rscale>
<asrwt>0</asrwt>
<pdfrwt beam="1">  1        2 0.11897423E+00 0.79100220E+02</pdfrwt>
<pdfrwt beam="2">  1       -1 0.31118294E-03 0.79100220E+02</pdfrwt>
<totfact> 0.35174219E+05</totfact>
</mgrwt>
</event>
<event>
 8    1  0.2389776E-016  0.7913318E+02  0.7818608E-02  0.1331529E+00
          2   -1    0    0  501    0  0.00000000000E+00  0.00000000000E+00  0.55675449238E+03  0.55675449238E+03  0.25500000000E-02 0. -1.
         -1   -1    0    0    0  501 -0.00000000000E+00 -0.00000000000E+00 -0.28118564733E+01  0.28118609902E+01  0.50400000000E-02 0.  1.
         24    2    1    2    0    0 -0.88817841970E-15 -0.35527136788E-14  0.55394263591E+03  0.55956635338E+03  0.79133178600E+02 0.  0.
         66    2    3    3    0    0  0.53618168401E+01  0.19156553098E+02  0.51879111283E+03  0.51917621417E+03  0.20000006826E+01 0.  0.
        -13    1    3    3    0    0 -0.53618168401E+01 -0.19156553098E+02  0.35151523079E+02  0.40390139208E+02  0.10566000000E+00 0.  1.
         13    1    4    4    0    0 -0.41291716611E-01  0.11376985291E+01  0.26297978323E+02  0.26322820724E+02  0.10566000000E+00 0. -1.
        -13    1    4    4    0    0  0.15353726705E+01  0.36662867888E+01  0.10318564887E+03  0.10326223087E+03  0.10566000000E+00 0.  1.
         14    1    4    4    0    0  0.38677358862E+01  0.14352567780E+02  0.38930748564E+03  0.38959116258E+03  0.00000000000E+00 0. -1.
<mgrwt>
<rscale>  0 0.79133179E+02</rscale>
<asrwt>0</asrwt>
<pdfrwt beam="1">  1        2 0.85654524E-01 0.79133179E+02</pdfrwt>
<pdfrwt beam="2">  1       -1 0.43259372E-03 0.79133179E+02</pdfrwt>
<totfact> 0.32382870E+05</totfact>
</mgrwt>
</event>
<event>
 8    1  0.2389776E-016  0.8283546E+02  0.7818608E-02  0.1321192E+00
         -1   -1    0    0    0  501 -0.00000000000E+00  0.00000000000E+00  0.13816340002E+03  0.13816340012E+03  0.50400000000E-02 0.  1.
          2   -1    0    0  501    0  0.00000000000E+00 -0.00000000000E+00 -0.12415939495E+02  0.12415939757E+02  0.25500000000E-02 0. -1.
         24    2    1    2    0    0 -0.88817841970E-15  0.35527136788E-14  0.12574746053E+03  0.15057933987E+03  0.82835462015E+02 0.  0.
         66    2    3    3    0    0  0.69299294522E+01 -0.24156038614E+02  0.31187449764E+01  0.25402060921E+02  0.20000012740E+01 0.  0.
        -13    1    3    3    0    0 -0.69299294522E+01  0.24156038614E+02  0.12262871555E+03  0.12517727895E+03  0.10566000000E+00 0.  1.
         13    1    4    4    0    0  0.28812821081E+01 -0.87501959025E+01  0.12704459848E+01  0.93001565554E+01  0.10566000000E+00 0. -1.
        -13    1    4    4    0    0  0.14429946795E+01 -0.67717120167E+01  0.14477130545E+01  0.70742741257E+01  0.10566000000E+00 0.  1.
         14    1    4    4    0    0  0.26056526646E+01 -0.86341306947E+01  0.40058593705E+00  0.90276302402E+01  0.00000000000E+00 0. -1.
<mgrwt>
<rscale>  0 0.82835462E+02</rscale>
<asrwt>0</asrwt>
<pdfrwt beam="1">  1        2 0.19101446E-02 0.82835462E+02</pdfrwt>
<pdfrwt beam="2">  1       -1 0.21255908E-01 0.82835462E+02</pdfrwt>
<totfact> 0.10084986E+05</totfact>
</mgrwt>
</event>
<event>
 8    1  0.2389776E-016  0.8091981E+02  0.7818608E-02  0.1326461E+00
          2   -1    0    0  501    0  0.00000000000E+00  0.00000000000E+00  0.32375993003E+03  0.32375993004E+03  0.25500000000E-02 0. -1.
         -1   -1    0    0    0  501 -0.00000000000E+00 -0.00000000000E+00 -0.50562263022E+01  0.50562288141E+01  0.50400000000E-02 0.  1.
         24    2    1    2    0    0 -0.71054273576E-14  0.00000000000E+00  0.31870370372E+03  0.32881615885E+03  0.80919809402E+02 0.  0.
         66    2    3    3    0    0  0.37632662731E+02 -0.76714149756E+01  0.21083726856E+03  0.21431617234E+03  0.20000001532E+01 0.  0.
        -13    1    3    3    0    0 -0.37632662731E+02  0.76714149756E+01  0.10786643517E+03  0.11449998651E+03  0.10566000000E+00 0.  1.
         13    1    4    4    0    0  0.12864147061E+02 -0.33590109466E+01  0.73277183287E+02  0.74473659697E+02  0.10566000000E+00 0.  1.
        -13    1    4    4    0    0  0.98201024016E+01 -0.12713562227E+01  0.52755754566E+02  0.53677104632E+02  0.10566000000E+00 0. -1.
         14    1    4    4    0    0  0.14948413268E+02 -0.30410478063E+01  0.84804330704E+02  0.86165408007E+02  0.00000000000E+00 0. -1.
<mgrwt>
<rscale>  0 0.80919809E+02</rscale>
<asrwt>0</asrwt>
<pdfrwt beam="1">  1        2 0.49809227E-01 0.80919809E+02</pdfrwt>
<pdfrwt beam="2">  1       -1 0.77788105E-03 0.80919809E+02</pdfrwt>
<totfact> 0.25432918E+05</totfact>
</mgrwt>
</event>
<event>
 8    1  0.2389776E-016  0.8197508E+02  0.7818608E-02  0.1323538E+00
          2   -1    0    0  501    0  0.00000000000E+00  0.00000000000E+00  0.18915043012E+03  0.18915043014E+03  0.25500000000E-02 0. -1.
         -1   -1    0    0    0  501 -0.00000000000E+00 -0.00000000000E+00 -0.88817051136E+01  0.88817065436E+01  0.50400000000E-02 0.  1.
         24    2    1    2    0    0 -0.17763568394E-14  0.00000000000E+00  0.18026872501E+03  0.19803213668E+03  0.81975081232E+02 0.  0.
         66    2    3    3    0    0 -0.94117240498E+01  0.33544437202E+02  0.38141620736E+02  0.51697128056E+02  0.20000000300E+01 0.  0.
        -13    1    3    3    0    0  0.94117240498E+01 -0.33544437202E+02  0.14212710427E+03  0.14633500863E+03  0.10566000000E+00 0.  1.
         13    1    4    4    0    0 -0.10234571386E+01  0.25010937902E+01  0.30681058556E+01  0.40899110307E+01  0.10566000000E+00 0. -1.
        -13    1    4    4    0    0 -0.14117994237E+01  0.54283321335E+01  0.53168815806E+01  0.77291889058E+01  0.10566000000E+00 0.  1.
         14    1    4    4    0    0 -0.69764674874E+01  0.25615011278E+02  0.29756633300E+02  0.39878028120E+02  0.00000000000E+00 0. -1.
<mgrwt>
<rscale>  0 0.81975081E+02</rscale>
<asrwt>0</asrwt>
<pdfrwt beam="1">  1        2 0.29100067E-01 0.81975081E+02</pdfrwt>
<pdfrwt beam="2">  1       -1 0.13664162E-02 0.81975081E+02</pdfrwt>
<totfact> 0.20286159E+05</totfact>
</mgrwt>
</event>
<event>
 8    1  0.2389776E-016  0.8573568E+02  0.7818608E-02  0.1313520E+00
         -1   -1    0    0    0  501 -0.00000000000E+00  0.00000000000E+00  0.42932048480E+01  0.42932078063E+01  0.50400000000E-02 0.  1.
          2   -1    0    0  501    0  0.00000000000E+00 -0.00000000000E+00 -0.42803711286E+03  0.42803711286E+03  0.25500000000E-02 0. -1.
         24    2    1    2    0    0 -0.35527136788E-14  0.35527136788E-14 -0.42374390801E+03  0.43233032067E+03  0.85735678668E+02 0.  0.
         66    2    3    3    0    0  0.26894342131E+02 -0.28815477124E+02 -0.29666788949E+03  0.29928159649E+03  0.19999950655E+01 0.  0.
        -13    1    3    3    0    0 -0.26894342131E+02  0.28815477124E+02 -0.12707601852E+03  0.13304872418E+03  0.10566000000E+00 0.  1.
         13    1    4    4    0    0  0.14597106894E+02 -0.16427700525E+02 -0.16475536935E+03  0.16621458350E+03  0.10566000000E+00 0. -1.
        -13    1    4    4    0    0  0.77019267788E+01 -0.76206273067E+01 -0.85826588696E+02  0.86507850094E+02  0.10566000000E+00 0.  1.
        -14    1    4    4    0    0  0.45953084580E+01 -0.47671492926E+01 -0.46085931443E+02  0.46559162891E+02  0.00000000000E+00 0.  1.
<mgrwt>
<rscale>  0 0.85735679E+02</rscale>
<asrwt>0</asrwt>
<pdfrwt beam="1">  1        2 0.65851830E-01 0.85735679E+02</pdfrwt>
<pdfrwt beam="2">  1       -1 0.66049362E-03 0.85735679E+02</pdfrwt>
<totfact> 0.24126427E+05</totfact>
</mgrwt>
</event>
<event>
 8    1  0.2389776E-016  0.7622055E+02  0.7818608E-02  0.1340132E+00
          2   -1    0    0  501    0  0.00000000000E+00  0.00000000000E+00  0.25595630206E+03  0.25595630207E+03  0.25500000000E-02 0. -1.
         -1   -1    0    0    0  501 -0.00000000000E+00 -0.00000000000E+00 -0.56743784105E+01  0.56743806487E+01  0.50400000000E-02 0.  1.
         24    2    1    2    0    0 -0.35527136788E-14 -0.35527136788E-14  0.25028192365E+03  0.26163068272E+03  0.76220553892E+02 0.  0.
         66    2    3    3    0    0  0.20472492315E+02  0.26021767046E+02  0.18982201397E+03  0.19269834529E+03  0.19999965935E+01 0.  0.
        -13    1    3    3    0    0 -0.20472492315E+02 -0.26021767046E+02  0.60459909674E+02  0.68932337431E+02  0.10566000000E+00 0.  1.
         13    1    4    4    0    0  0.94711935813E+01  0.12724632523E+02  0.93869548123E+02  0.95200435974E+02  0.10566000000E+00 0. -1.
        -13    1    4    4    0    0  0.42349027199E+01  0.57412434903E+01  0.37779470295E+02  0.38447312229E+02  0.10566000000E+00 0.  1.
        -14    1    4    4    0    0  0.67663960139E+01  0.75558910332E+01  0.58172995556E+02  0.59050597086E+02  0.00000000000E+00 0.  1.
<mgrwt>
<rscale>  0 0.76220554E+02</rscale>
<asrwt>0</asrwt>
<pdfrwt beam="1">  1        2 0.39377888E-01 0.76220554E+02</pdfrwt>
<pdfrwt beam="2">  1       -1 0.87298157E-03 0.76220554E+02</pdfrwt>
<totfact> 0.27326619E+05</totfact>
</mgrwt>
</event>
<event>
 8    1  0.2389776E-016  0.8997168E+02  0.7818608E-02  0.1302920E+00
         -1   -1    0    0    0  501 -0.00000000000E+00  0.00000000000E+00  0.25615034714E+01  0.25615084297E+01  0.50400000000E-02 0.  1.
          2   -1    0    0  501    0  0.00000000000E+00 -0.00000000000E+00 -0.79005321196E+03  0.79005321197E+03  0.25500000000E-02 0. -1.
         24    2    1    2    0    0  0.00000000000E+00  0.00000000000E+00 -0.78749170849E+03  0.79261472040E+03  0.89971684694E+02 0.  0.
         66    2    3    3    0    0 -0.11944112335E+02  0.62587756607E+01 -0.77181807467E+03  0.77193845252E+03  0.19999982864E+01 0.  0.
        -13    1    3    3    0    0  0.11944112335E+02 -0.62587756607E+01 -0.15673633818E+02  0.20676267877E+02  0.10566000000E+00 0.  1.
         13    1    4    4    0    0 -0.31040242867E+01  0.17458233062E+01 -0.19542941545E+03  0.19546189002E+03  0.10566000000E+00 0.  1.
        -13    1    4    4    0    0 -0.82112891410E+01  0.46077823303E+01 -0.54677092497E+03  0.54685200236E+03  0.10566000000E+00 0. -1.
        -14    1    4    4    0    0 -0.62879890691E+00 -0.94829975811E-01 -0.29617734257E+02  0.29624560137E+02  0.00000000000E+00 0.  1.
<mgrwt>
<rscale>  0 0.89971685E+02</rscale>
<asrwt>0</asrwt>
<pdfrwt beam="1">  1        2 0.12154645E+00 0.89971685E+02</pdfrwt>
<pdfrwt beam="2">  1       -1 0.39407847E-03 0.89971685E+02</pdfrwt>
<totfact> 0.25226950E+05</totfact>
</mgrwt>
</event>
<event>
 8    1  0.2389776E-016  0.8214515E+02  0.7818608E-02  0.1323072E+00
          2   -1    0    0  501    0  0.00000000000E+00  0.00000000000E+00  0.55393095871E+03  0.55393095872E+03  0.25500000000E-02 0. -1.
         -1   -1    0    0    0  501 -0.00000000000E+00 -0.00000000000E+00 -0.30454249127E+01  0.30454290832E+01  0.50400000000E-02 0.  1.
         24    2    1    2    0    0  0.35527136788E-14  0.35527136788E-14  0.55088553380E+03  0.55697638780E+03  0.82145147261E+02 0.  0.
         66    2    3    3    0    0 -0.26106423575E+02 -0.11929246513E+02  0.47457275970E+03  0.47544416761E+03  0.19999981399E+01 0.  0.
        -13    1    3    3    0    0  0.26106423575E+02  0.11929246513E+02  0.76312774101E+02  0.81532220191E+02  0.10566000000E+00 0.  1.
         13    1    4    4    0    0 -0.53997610193E+01 -0.22131132282E+01  0.10621395859E+03  0.10637420483E+03  0.10566000000E+00 0. -1.
        -13    1    4    4    0    0 -0.15041459990E+02 -0.65737411856E+01  0.26010583500E+03  0.26062332236E+03  0.10566000000E+00 0.  1.
         14    1    4    4    0    0 -0.56652025651E+01 -0.31423920994E+01  0.10825296611E+03  0.10844664043E+03  0.00000000000E+00 0. -1.
<mgrwt>
<rscale>  0 0.82145147E+02</rscale>
<asrwt>0</asrwt>
<pdfrwt beam="1">  1        2 0.85220199E-01 0.82145147E+02</pdfrwt>
<pdfrwt beam="2">  1       -1 0.46852695E-03 0.82145147E+02</pdfrwt>
<totfact> 0.29334785E+05</totfact>
</mgrwt>
</event>
<event>
 8    1  0.2389776E-016  0.7873562E+02  0.7818608E-02  0.1332678E+00
          2   -1    0    0  501    0  0.00000000000E+00  0.00000000000E+00  0.72487270831E+03  0.72487270831E+03  0.25500000000E-02 0. -1.
         -1   -1    0    0    0  501 -0.00000000000E+00 -0.00000000000E+00 -0.21380613261E+01  0.21380672665E+01  0.50400000000E-02 0.  1.
         24    2    1    2    0    0 -0.35527136788E-14  0.35527136788E-14  0.72273464698E+03  0.72701077558E+03  0.78735620020E+02 0.  0.
         66    2    3    3    0    0  0.20624645539E+02 -0.23308196586E+02  0.58381474391E+03  0.58464716132E+03  0.19999999228E+01 0.  0.
        -13    1    3    3    0    0 -0.20624645539E+02  0.23308196586E+02  0.13891990307E+03  0.14236361426E+03  0.10566000000E+00 0.  1.
         13    1    4    4    0    0  0.10151190611E+02 -0.11574204791E+02  0.29997364426E+03  0.30036845257E+03  0.10566000000E+00 0. -1.
        -13    1    4    4    0    0  0.57770011707E+01 -0.56890434975E+01  0.14917435859E+03  0.14939457615E+03  0.10566000000E+00 0. -1.
         14    1    4    4    0    0  0.46964537565E+01 -0.60449482979E+01  0.13466674107E+03  0.13488413260E+03  0.00000000000E+00 0. -1.
<mgrwt>
<rscale>  0 0.78735620E+02</rscale>
<asrwt>0</asrwt>
<pdfrwt beam="1">  1        2 0.11151896E+00 0.78735620E+02</pdfrwt>
<pdfrwt beam="2">  1       -1 0.32893274E-03 0.78735620E+02</pdfrwt>
<totfact> 0.35136263E+05</totfact>
</mgrwt>
</event>
<event>
 8    1  0.2389776E-016  0.8020328E+02  0.7818608E-02  0.1328476E+00
          2   -1    0    0  501    0  0.00000000000E+00  0.00000000000E+00  0.33613004869E+02  0.33613004965E+02  0.25500000000E-02 0. -1.
         -1   -1    0    0    0  501 -0.00000000000E+00 -0.00000000000E+00 -0.47842837791E+02  0.47842838057E+02  0.50400000000E-02 0.  1.
         24    2    1    2    0    0  0.00000000000E+00 -0.71054273576E-14 -0.14229832922E+02  0.81455843022E+02  0.80203280590E+02 0.  0.
         66    2    3    3    0    0 -0.14982033953E+02  0.35587534029E+02  0.37815471388E+01  0.38848861254E+02  0.20000005777E+01 0.  0.
        -13    1    3    3    0    0  0.14982033953E+02 -0.35587534029E+02 -0.18011380061E+02  0.42606981768E+02  0.10566000000E+00 0.  1.
         13    1    4    4    0    0 -0.64391594603E+01  0.15366888588E+02  0.24914559676E+01  0.16847034051E+02  0.10566000000E+00 0. -1.
        -13    1    4    4    0    0 -0.43845182465E+01  0.94409988021E+01  0.64297745092E+00  0.10429815083E+02  0.10566000000E+00 0.  1.
         14    1    4    4    0    0 -0.41583562460E+01  0.10779646639E+02  0.64711372035E+00  0.11572012119E+02  0.00000000000E+00 0. -1.
<mgrwt>
<rscale>  0 0.80203281E+02</rscale>
<asrwt>0</asrwt>
<pdfrwt beam="1">  1        2 0.51712315E-02 0.80203281E+02</pdfrwt>
<pdfrwt beam="2">  1       -1 0.73604367E-02 0.80203281E+02</pdfrwt>
<totfact> 0.13665177E+05</totfact>
</mgrwt>
</event>
<event>
 8    1  0.2389776E-016  0.8229267E+02  0.7818608E-02  0.1322668E+00
         -1   -1    0    0    0  501 -0.00000000000E+00  0.00000000000E+00  0.45593297579E+01  0.45593325436E+01  0.50400000000E-02 0.  1.
          2   -1    0    0  501    0  0.00000000000E+00 -0.00000000000E+00 -0.37133092865E+03  0.37133092866E+03  0.25500000000E-02 0. -1.
         24    2    1    2    0    0  0.00000000000E+00  0.00000000000E+00 -0.36677159889E+03  0.37589026120E+03  0.82292665000E+02 0.  0.
         66    2    3    3    0    0  0.20443781280E+01  0.39919305671E+02 -0.22761085942E+03  0.23110264771E+03  0.20000009930E+01 0.  0.
        -13    1    3    3    0    0 -0.20443781280E+01 -0.39919305671E+02 -0.13916073947E+03  0.14478761349E+03  0.10566000000E+00 0.  1.
         13    1    4    4    0    0  0.32160832799E+00  0.60909717206E+01 -0.34321227599E+02  0.34859162301E+02  0.10566000000E+00 0. -1.
        -13    1    4    4    0    0  0.14257105189E+00  0.10707291246E+02 -0.56898658783E+02  0.57897624716E+02  0.10566000000E+00 0.  1.
        -14    1    4    4    0    0  0.15801987481E+01  0.23121042705E+02 -0.13639097304E+03  0.13834586069E+03  0.00000000000E+00 0.  1.
<mgrwt>
<rscale>  0 0.82292665E+02</rscale>
<asrwt>0</asrwt>
<pdfrwt beam="1">  1        2 0.57127812E-01 0.82292665E+02</pdfrwt>
<pdfrwt beam="2">  1       -1 0.70143585E-03 0.82292665E+02</pdfrwt>
<totfact> 0.25559548E+05</totfact>
</mgrwt>
</event>
<event>
 8    1  0.2389776E-016  0.8230860E+02  0.7818608E-02  0.1322625E+00
          2   -1    0    0  501    0  0.00000000000E+00  0.00000000000E+00  0.24848341690E+03  0.24848341692E+03  0.25500000000E-02 0. -1.
         -1   -1    0    0    0  501 -0.00000000000E+00 -0.00000000000E+00 -0.68160530958E+01  0.68160549592E+01  0.50400000000E-02 0.  1.
         24    2    1    2    0    0  0.00000000000E+00  0.00000000000E+00  0.24166736381E+03  0.25529947188E+03  0.82308599856E+02 0.  0.
         66    2    3    3    0    0  0.33165935019E+02  0.20054051231E+02  0.16360606478E+03  0.16814603369E+03  0.19999997192E+01 0.  0.
        -13    1    3    3    0    0 -0.33165935019E+02 -0.20054051231E+02  0.78061299031E+02  0.87153438182E+02  0.10566000000E+00 0.  1.
         13    1    4    4    0    0  0.73491727408E+01  0.51603113988E+01  0.39293100404E+02  0.40306302945E+02  0.10566000000E+00 0. -1.
        -13    1    4    4    0    0  0.18706670605E+02  0.10287414537E+02  0.88970151031E+02  0.91495734116E+02  0.10566000000E+00 0.  1.
        -14    1    4    4    0    0  0.71100916733E+01  0.46063252949E+01  0.35342813342E+02  0.36343996633E+02  0.00000000000E+00 0.  1.
<mgrwt>
<rscale>  0 0.82308600E+02</rscale>
<asrwt>0</asrwt>
<pdfrwt beam="1">  1        2 0.38228214E-01 0.82308600E+02</pdfrwt>
<pdfrwt beam="2">  1       -1 0.10486238E-02 0.82308600E+02</pdfrwt>
<totfact> 0.22097587E+05</totfact>
</mgrwt>
</event>
<event>
 8    1  0.2389776E-016  0.8164317E+02  0.7818608E-02  0.1324452E+00
         -1   -1    0    0    0  501 -0.00000000000E+00  0.00000000000E+00  0.62595575374E+02  0.62595575577E+02  0.50400000000E-02 0.  1.
          2   -1    0    0  501    0  0.00000000000E+00 -0.00000000000E+00 -0.26621715556E+02  0.26621715678E+02  0.25500000000E-02 0. -1.
         24    2    1    2    0    0  0.17763568394E-14  0.71054273576E-14  0.35973859817E+02  0.89217291255E+02  0.81643165475E+02 0.  0.
         66    2    3    3    0    0  0.11197216087E+02 -0.37397534950E+02  0.50473943749E+01  0.39413569534E+02  0.20000012459E+01 0.  0.
        -13    1    3    3    0    0 -0.11197216087E+02  0.37397534950E+02  0.30926465442E+02  0.49803721721E+02  0.10566000000E+00 0.  1.
         13    1    4    4    0    0  0.81465814498E+01 -0.26350216202E+02  0.38083288043E+01  0.27842686931E+02  0.10566000000E+00 0. -1.
        -13    1    4    4    0    0  0.83306077577E+00 -0.45880212133E+01  0.74866189359E+00  0.47239377193E+01  0.10566000000E+00 0.  1.
        -14    1    4    4    0    0  0.22175738619E+01 -0.64592975347E+01  0.49040367709E+00  0.68469448837E+01  0.00000000000E+00 0.  1.
<mgrwt>
<rscale>  0 0.81643165E+02</rscale>
<asrwt>0</asrwt>
<pdfrwt beam="1">  1        2 0.40956486E-02 0.81643165E+02</pdfrwt>
<pdfrwt beam="2">  1       -1 0.96300885E-02 0.81643165E+02</pdfrwt>
<totfact> 0.12408245E+05</totfact>
</mgrwt>
</event>
<event>
 8    1  0.2389776E-016  0.7910305E+02  0.7818608E-02  0.1331616E+00
         -1   -1    0    0    0  501 -0.00000000000E+00  0.00000000000E+00  0.55697663588E+01  0.55697686391E+01  0.50400000000E-02 0.  1.
          2   -1    0    0  501    0  0.00000000000E+00 -0.00000000000E+00 -0.28085970330E+03  0.28085970332E+03  0.25500000000E-02 0. -1.
         24    2    1    2    0    0  0.00000000000E+00  0.35527136788E-14 -0.27528993695E+03  0.28642947196E+03  0.79103053171E+02 0.  0.
         66    2    3    3    0    0 -0.86876732111E+01  0.21634144407E+02 -0.25330941463E+03  0.25438783662E+03  0.20000015066E+01 0.  0.
        -13    1    3    3    0    0  0.86876732111E+01 -0.21634144407E+02 -0.21980522311E+02  0.32041635339E+02  0.10566000000E+00 0.  1.
         13    1    4    4    0    0 -0.16498830961E+01  0.41916341212E+01 -0.44176672486E+02  0.44405871985E+02  0.10566000000E+00 0. -1.
        -13    1    4    4    0    0 -0.44798013835E+00  0.46924997000E+00 -0.69059705617E+01  0.69371806358E+01  0.10566000000E+00 0.  1.
         14    1    4    4    0    0 -0.65898099766E+01  0.16973260316E+02 -0.20222677159E+03  0.20304478400E+03  0.00000000000E+00 0. -1.
<mgrwt>
<rscale>  0 0.79103053E+02</rscale>
<asrwt>0</asrwt>
<pdfrwt beam="1">  1        2 0.43209174E-01 0.79103053E+02</pdfrwt>
<pdfrwt beam="2">  1       -1 0.85688753E-03 0.79103053E+02</pdfrwt>
<totfact> 0.25639929E+05</totfact>
</mgrwt>
</event>
<event>
 8    1  0.2389776E-016  0.8062126E+02  0.7818608E-02  0.1327298E+00
         -1   -1    0    0    0  501 -0.00000000000E+00  0.00000000000E+00  0.71594226723E+02  0.71594226901E+02  0.50400000000E-02 0.  1.
          2   -1    0    0  501    0  0.00000000000E+00 -0.00000000000E+00 -0.22696620825E+02  0.22696620968E+02  0.25500000000E-02 0. -1.
         24    2    1    2    0    0  0.00000000000E+00  0.00000000000E+00  0.48897605898E+02  0.94290847869E+02  0.80621263505E+02 0.  0.
         66    2    3    3    0    0 -0.18739628270E+02  0.35419138274E+02  0.29321753353E+02  0.49693603663E+02  0.20000003759E+01 0.  0.
        -13    1    3    3    0    0  0.18739628270E+02 -0.35419138274E+02  0.19575852545E+02  0.44597244206E+02  0.10566000000E+00 0.  1.
         13    1    4    4    0    0 -0.78381408805E+01  0.13942488718E+02  0.12008265498E+02  0.20000976187E+02  0.10566000000E+00 0. -1.
        -13    1    4    4    0    0 -0.97837724035E+01  0.19974978730E+02  0.15760784813E+02  0.27260511361E+02  0.10566000000E+00 0.  1.
        -14    1    4    4    0    0 -0.11177149863E+01  0.15016708268E+01  0.15527030417E+01  0.24321161153E+01  0.00000000000E+00 0.  1.
<mgrwt>
<rscale>  0 0.80621264E+02</rscale>
<asrwt>0</asrwt>
<pdfrwt beam="1">  1        2 0.34917879E-02 0.80621264E+02</pdfrwt>
<pdfrwt beam="2">  1       -1 0.11014496E-01 0.80621264E+02</pdfrwt>
<totfact> 0.12456649E+05</totfact>
</mgrwt>
</event>
<event>
 8    1  0.2389776E-016  0.8378728E+02  0.7818608E-02  0.1318635E+00
         -1   -1    0    0    0  501 -0.00000000000E+00  0.00000000000E+00  0.31852663482E+01  0.31852703356E+01  0.50400000000E-02 0.  1.
          2   -1    0    0  501    0  0.00000000000E+00 -0.00000000000E+00 -0.55099820473E+03  0.55099820474E+03  0.25500000000E-02 0. -1.
         24    2    1    2    0    0  0.00000000000E+00  0.00000000000E+00 -0.54781293838E+03  0.55418347507E+03  0.83787281755E+02 0.  0.
         66    2    3    3    0    0 -0.22887652273E+01  0.20127220151E+02 -0.51642693239E+03  0.51682794036E+03  0.20000010042E+01 0.  0.
        -13    1    3    3    0    0  0.22887652273E+01 -0.20127220151E+02 -0.31386005992E+02  0.37355534709E+02  0.10566000000E+00 0.  1.
         13    1    4    4    0    0 -0.62866963874E+00  0.99510694279E+01 -0.25421035196E+03  0.25440584351E+03  0.10566000000E+00 0. -1.
        -13    1    4    4    0    0 -0.82191366268E-01  0.49460034873E+00 -0.80450610468E+01  0.80613619326E+01  0.10566000000E+00 0.  1.
         14    1    4    4    0    0 -0.15779042223E+01  0.96815503742E+01 -0.25417151939E+03  0.25436073492E+03  0.00000000000E+00 0. -1.
<mgrwt>
<rscale>  0 0.83787282E+02</rscale>
<asrwt>0</asrwt>
<pdfrwt beam="1">  1        2 0.84768879E-01 0.83787282E+02</pdfrwt>
<pdfrwt beam="2">  1       -1 0.49004172E-03 0.83787282E+02</pdfrwt>
<totfact> 0.27811671E+05</totfact>
</mgrwt>
</event>
<event>
 8    1  0.2389776E-016  0.7980286E+02  0.7818608E-02  0.1329612E+00
          2   -1    0    0  501    0  0.00000000000E+00  0.00000000000E+00  0.11064109620E+02  0.11064109914E+02  0.25500000000E-02 0. -1.
         -1   -1    0    0    0  501 -0.00000000000E+00 -0.00000000000E+00 -0.14389987102E+03  0.14389987110E+03  0.50400000000E-02 0.  1.
         24    2    1    2    0    0  0.00000000000E+00  0.00000000000E+00 -0.13283576140E+03  0.15496398102E+03  0.79802856511E+02 0.  0.
         66    2    3    3    0    0  0.18280539451E+02  0.19383345959E+02 -0.88479227792E+01  0.28145656190E+02  0.20000004240E+01 0.  0.
        -13    1    3    3    0    0 -0.18280539451E+02 -0.19383345959E+02 -0.12398783862E+03  0.12681832483E+03  0.10566000000E+00 0.  1.
         13    1    4    4    0    0  0.46088760623E+01  0.46368709285E+01 -0.15765156765E+01  0.67259851530E+01  0.10566000000E+00 0. -1.
        -13    1    4    4    0    0  0.11617940398E+02  0.12771532978E+02 -0.58057203384E+01  0.18215546832E+02  0.10566000000E+00 0.  1.
        -14    1    4    4    0    0  0.20537229910E+01  0.19749420524E+01 -0.14656867644E+01  0.32041242057E+01  0.00000000000E+00 0.  1.
<mgrwt>
<rscale>  0 0.79802857E+02</rscale>
<asrwt>0</asrwt>
<pdfrwt beam="1">  1        2 0.17021708E-02 0.79802857E+02</pdfrwt>
<pdfrwt beam="2">  1       -1 0.22138441E-01 0.79802857E+02</pdfrwt>
<totfact> 0.10968911E+05</totfact>
</mgrwt>
</event>
<event>
 8    1  0.2389776E-016  0.7721935E+02  0.7818608E-02  0.1337133E+00
          2   -1    0    0  501    0  0.00000000000E+00  0.00000000000E+00  0.88896514913E+02  0.88896514949E+02  0.25500000000E-02 0. -1.
         -1   -1    0    0    0  501 -0.00000000000E+00 -0.00000000000E+00 -0.16769013534E+02  0.16769014291E+02  0.50400000000E-02 0.  1.
         24    2    1    2    0    0  0.00000000000E+00 -0.22204460493E-15  0.72127501378E+02  0.10566552924E+03  0.77219347411E+02 0.  0.
         66    2    3    3    0    0  0.15481460042E+02 -0.12363287989E+01  0.84419023760E+02  0.85859045443E+02  0.19999994541E+01 0.  0.
        -13    1    3    3    0    0 -0.15481460042E+02  0.12363287989E+01 -0.12291522382E+02  0.19806483798E+02  0.10566000000E+00 0.  1.
         13    1    4    4    0    0  0.49621617915E+01 -0.28637616038E+00  0.25331025756E+02  0.25814280754E+02  0.10566000000E+00 0. -1.
        -13    1    4    4    0    0  0.43976309149E+01 -0.86999221598E+00  0.21650185754E+02  0.22109675514E+02  0.10566000000E+00 0.  1.
         14    1    4    4    0    0  0.61216673356E+01 -0.79960422556E-01  0.37437812251E+02  0.37935089175E+02  0.00000000000E+00 0. -1.
<mgrwt>
<rscale>  0 0.77219347E+02</rscale>
<asrwt>0</asrwt>
<pdfrwt beam="1">  1        2 0.13676387E-01 0.77219347E+02</pdfrwt>
<pdfrwt beam="2">  1       -1 0.25798483E-02 0.77219347E+02</pdfrwt>
<totfact> 0.18871755E+05</totfact>
</mgrwt>
</event>
<event>
 8    1  0.2389776E-016  0.8439726E+02  0.7818608E-02  0.1317016E+00
         -1   -1    0    0    0  501 -0.00000000000E+00  0.00000000000E+00  0.54736207138E+02  0.54736207370E+02  0.50400000000E-02 0.  1.
          2   -1    0    0  501    0  0.00000000000E+00 -0.00000000000E+00 -0.32532839705E+02  0.32532839805E+02  0.25500000000E-02 0. -1.
         24    2    1    2    0    0  0.00000000000E+00  0.00000000000E+00  0.22203367433E+02  0.87269047175E+02  0.84397257476E+02 0.  0.
         66    2    3    3    0    0 -0.20528506321E+02 -0.22756287158E+02 -0.18851256416E+02  0.36036621110E+02  0.20000039039E+01 0.  0.
        -13    1    3    3    0    0  0.20528506321E+02  0.22756287158E+02  0.41054623850E+02  0.51232426064E+02  0.10566000000E+00 0.  1.
         13    1    4    4    0    0 -0.78975192020E+01 -0.91194975032E+01 -0.83156999576E+01  0.14652579093E+02  0.10566000000E+00 0. -1.
        -13    1    4    4    0    0 -0.72390382981E+01 -0.80301040623E+01 -0.56619874984E+01  0.12204733229E+02  0.10566000000E+00 0.  1.
        -14    1    4    4    0    0 -0.53919488208E+01 -0.56066855921E+01 -0.48735689603E+01  0.91793087880E+01  0.00000000000E+00 0.  1.
<mgrwt>
<rscale>  0 0.84397257E+02</rscale>
<asrwt>0</asrwt>
<pdfrwt beam="1">  1        2 0.50050523E-02 0.84397257E+02</pdfrwt>
<pdfrwt beam="2">  1       -1 0.84209549E-02 0.84397257E+02</pdfrwt>
<totfact> 0.11768053E+05</totfact>
</mgrwt>
</event>
<event>
 8    1  0.2389776E-016  0.7461068E+02  0.7818608E-02  0.1345081E+00
          2   -1    0    0  501    0  0.00000000000E+00  0.00000000000E+00  0.34280978841E+02  0.34280978936E+02  0.25500000000E-02 0. -1.
         -1   -1    0    0    0  501 -0.00000000000E+00 -0.00000000000E+00 -0.40596521972E+02  0.40596522285E+02  0.50400000000E-02 0.  1.
         24    2    1    2    0    0  0.00000000000E+00 -0.88817841970E-15 -0.63155431317E+01  0.74877501221E+02  0.74610683578E+02 0.  0.
         66    2    3    3    0    0 -0.36202268322E+02 -0.59180481565E+01  0.35011817165E+01  0.36903736904E+02  0.19999996007E+01 0.  0.
        -13    1    3    3    0    0  0.36202268322E+02  0.59180481565E+01 -0.98167248483E+01  0.37973764317E+02  0.10566000000E+00 0.  1.
         13    1    4    4    0    0 -0.13417921838E+02 -0.13123317539E+01  0.12499067373E+01  0.13540172524E+02  0.10566000000E+00 0. -1.
        -13    1    4    4    0    0 -0.13624600205E+02 -0.25665475981E+01  0.10771640372E+01  0.13906413762E+02  0.10566000000E+00 0.  1.
         14    1    4    4    0    0 -0.91597462794E+01 -0.20391688045E+01  0.11741109421E+01  0.94571506184E+01  0.00000000000E+00 0. -1.
<mgrwt>
<rscale>  0 0.74610684E+02</rscale>
<asrwt>0</asrwt>
<pdfrwt beam="1">  1        2 0.52739968E-02 0.74610684E+02</pdfrwt>
<pdfrwt beam="2">  1       -1 0.62456188E-02 0.74610684E+02</pdfrwt>
<totfact> 0.16758237E+05</totfact>
</mgrwt>
</event>
<event>
 8    1  0.2389776E-016  0.8030823E+02  0.7818608E-02  0.1328179E+00
          2   -1    0    0  501    0  0.00000000000E+00  0.00000000000E+00  0.11366452461E+02  0.11366452747E+02  0.25500000000E-02 0. -1.
         -1   -1    0    0    0  501 -0.00000000000E+00 -0.00000000000E+00 -0.14185190206E+03  0.14185190215E+03  0.50400000000E-02 0.  1.
         24    2    1    2    0    0  0.00000000000E+00  0.00000000000E+00 -0.13048544960E+03  0.15321835490E+03  0.80308229468E+02 0.  0.
         66    2    3    3    0    0 -0.31695297542E+02 -0.23622238756E+02 -0.52099937498E+02  0.65429393623E+02  0.20000031328E+01 0.  0.
        -13    1    3    3    0    0  0.31695297542E+02  0.23622238756E+02 -0.78385512102E+02  0.87788961274E+02  0.10566000000E+00 0.  1.
         13    1    4    4    0    0 -0.25017965699E+01 -0.23880575963E+01 -0.47380747083E+01  0.58670538720E+01  0.10566000000E+00 0.  1.
        -13    1    4    4    0    0 -0.35119636831E+01 -0.30235657181E+01 -0.60768727348E+01  0.76429958023E+01  0.10566000000E+00 0.  1.
         14    1    4    4    0    0 -0.25681537289E+02 -0.18210615442E+02 -0.41284990055E+02  0.51919343949E+02  0.00000000000E+00 0. -1.
<mgrwt>
<rscale>  0 0.80308229E+02</rscale>
<asrwt>0</asrwt>
<pdfrwt beam="1">  1        2 0.17486851E-02 0.80308229E+02</pdfrwt>
<pdfrwt beam="2">  1       -1 0.21823368E-01 0.80308229E+02</pdfrwt>
<totfact> 0.10834085E+05</totfact>
</mgrwt>
</event>
<event>
 8    1  0.2389776E-016  0.7849505E+02  0.7818608E-02  0.1333377E+00
         -1   -1    0    0    0  501 -0.00000000000E+00  0.00000000000E+00  0.39353926933E+01  0.39353959207E+01  0.50400000000E-02 0.  1.
          2   -1    0    0  501    0  0.00000000000E+00 -0.00000000000E+00 -0.39141395888E+03  0.39141395889E+03  0.25500000000E-02 0. -1.
         24    2    1    2    0    0  0.35527136788E-14  0.00000000000E+00 -0.38747856618E+03  0.39534935481E+03  0.78495051397E+02 0.  0.
         66    2    3    3    0    0  0.25361825022E+02  0.17585935629E+02 -0.31577535025E+03  0.31728624162E+03  0.19999995133E+01 0.  0.
        -13    1    3    3    0    0 -0.25361825022E+02 -0.17585935629E+02 -0.71703215937E+02  0.78063113185E+02  0.10566000000E+00 0.  1.
         13    1    4    4    0    0  0.43151134119E+01  0.32340194691E+01 -0.61171576166E+02  0.61408891704E+02  0.10566000000E+00 0. -1.
        -13    1    4    4    0    0  0.81091211276E+01  0.48986277127E+01 -0.94489980366E+02  0.94963792850E+02  0.10566000000E+00 0.  1.
        -14    1    4    4    0    0  0.12937590483E+02  0.94532884472E+01 -0.16011379371E+03  0.16091355707E+03  0.00000000000E+00 0.  1.
<mgrwt>
<rscale>  0 0.78495051E+02</rscale>
<asrwt>0</asrwt>
<pdfrwt beam="1">  1        2 0.60217501E-01 0.78495051E+02</pdfrwt>
<pdfrwt beam="2">  1       -1 0.60544559E-03 0.78495051E+02</pdfrwt>
<totfact> 0.29464590E+05</totfact>
</mgrwt>
</event>
<event>
 8    1  0.2389776E-016  0.8009302E+02  0.7818608E-02  0.1328788E+00
         -1   -1    0    0    0  501 -0.00000000000E+00  0.00000000000E+00  0.45017523665E+01  0.45017551878E+01  0.50400000000E-02 0.  1.
          2   -1    0    0  501    0  0.00000000000E+00 -0.00000000000E+00 -0.35624400380E+03  0.35624400381E+03  0.25500000000E-02 0. -1.
         24    2    1    2    0    0  0.00000000000E+00  0.00000000000E+00 -0.35174225143E+03  0.36074575900E+03  0.80093015868E+02 0.  0.
         66    2    3    3    0    0 -0.18366116520E+02 -0.11855699241E+02 -0.32697458751E+03  0.32771062345E+03  0.20000005750E+01 0.  0.
        -13    1    3    3    0    0  0.18366116520E+02  0.11855699241E+02 -0.24767663923E+02  0.33035135549E+02  0.10566000000E+00 0.  1.
         13    1    4    4    0    0 -0.53790510468E+01 -0.39481470320E+01 -0.10020860099E+03  0.10043055776E+03  0.10566000000E+00 0. -1.
        -13    1    4    4    0    0 -0.24853418496E+01 -0.22243240857E+01 -0.49390170774E+02  0.49502774416E+02  0.10566000000E+00 0.  1.
        -14    1    4    4    0    0 -0.10501723624E+02 -0.56832281233E+01 -0.17737581574E+03  0.17777729127E+03  0.00000000000E+00 0.  1.
<mgrwt>
<rscale>  0 0.80093016E+02</rscale>
<asrwt>0</asrwt>
<pdfrwt beam="1">  1        2 0.54806748E-01 0.80093016E+02</pdfrwt>
<pdfrwt beam="2">  1       -1 0.69257778E-03 0.80093016E+02</pdfrwt>
<totfact> 0.27037728E+05</totfact>
</mgrwt>
</event>
<event>
 8    1  0.2389776E-016  0.8079466E+02  0.7818608E-02  0.1326811E+00
          2   -1    0    0  501    0  0.00000000000E+00  0.00000000000E+00  0.71003797412E+03  0.71003797413E+03  0.25500000000E-02 0. -1.
         -1   -1    0    0    0  501 -0.00000000000E+00 -0.00000000000E+00 -0.22983872259E+01  0.22983927519E+01  0.50400000000E-02 0.  1.
         24    2    1    2    0    0  0.35527136788E-14 -0.17763568394E-14  0.70773958689E+03  0.71233636688E+03  0.80794657730E+02 0.  0.
         66    2    3    3    0    0 -0.29838904258E+02  0.13514633006E+02  0.56215351244E+03  0.56311062597E+03  0.20000024199E+01 0.  0.
        -13    1    3    3    0    0  0.29838904258E+02 -0.13514633006E+02  0.14558607445E+03  0.14922574091E+03  0.10566000000E+00 0.  1.
         13    1    4    4    0    0 -0.94752673842E+01  0.43948816895E+01  0.18085606045E+03  0.18115744932E+03  0.10566000000E+00 0. -1.
        -13    1    4    4    0    0 -0.60144141553E+01  0.35110289967E+01  0.11880573700E+03  0.11900972570E+03  0.10566000000E+00 0.  1.
         14    1    4    4    0    0 -0.14349222718E+02  0.56087223199E+01  0.26249171499E+03  0.26294345095E+03  0.00000000000E+00 0. -1.
<mgrwt>
<rscale>  0 0.80794658E+02</rscale>
<asrwt>0</asrwt>
<pdfrwt beam="1">  1        2 0.10923659E+00 0.80794658E+02</pdfrwt>
<pdfrwt beam="2">  1       -1 0.35359854E-03 0.80794658E+02</pdfrwt>
<totfact> 0.32707954E+05</totfact>
</mgrwt>
</event>
<event>
 8    1  0.2389776E-016  0.8010123E+02  0.7818608E-02  0.1328764E+00
         -1   -1    0    0    0  501 -0.00000000000E+00  0.00000000000E+00  0.30680894827E+01  0.30680936224E+01  0.50400000000E-02 0.  1.
          2   -1    0    0  501    0  0.00000000000E+00 -0.00000000000E+00 -0.52281749671E+03  0.52281749672E+03  0.25500000000E-02 0. -1.
         24    2    1    2    0    0  0.00000000000E+00 -0.35527136788E-14 -0.51974940723E+03  0.52588559034E+03  0.80101234776E+02 0.  0.
         66    2    3    3    0    0 -0.26311863579E+02  0.26495420714E+02 -0.35465931968E+03  0.35662522979E+03  0.20000001401E+01 0.  0.
        -13    1    3    3    0    0  0.26311863579E+02 -0.26495420714E+02 -0.16509008755E+03  0.16926036055E+03  0.10566000000E+00 0.  1.
         13    1    4    4    0    0 -0.17670028574E+02  0.18818850391E+02 -0.24003086109E+03  0.24141500467E+03  0.10566000000E+00 0. -1.
        -13    1    4    4    0    0 -0.30200977783E+01  0.25393508440E+01 -0.38507642900E+02  0.38709417705E+02  0.10566000000E+00 0. -1.
         14    1    4    4    0    0 -0.56217372266E+01  0.51372194787E+01 -0.76120815692E+02  0.76500807415E+02  0.00000000000E+00 0. -1.
<mgrwt>
<rscale>  0 0.80101235E+02</rscale>
<asrwt>0</asrwt>
<pdfrwt beam="1">  1        2 0.80433391E-01 0.80101235E+02</pdfrwt>
<pdfrwt beam="2">  1       -1 0.47201450E-03 0.80101235E+02</pdfrwt>
<totfact> 0.30780049E+05</totfact>
</mgrwt>
</event>
<event>
 8    1  0.2389776E-016  0.7826811E+02  0.7818608E-02  0.1334039E+00
         -1   -1    0    0    0  501 -0.00000000000E+00  0.00000000000E+00  0.62598660711E+01  0.62598681001E+01  0.50400000000E-02 0.  1.
          2   -1    0    0  501    0  0.00000000000E+00 -0.00000000000E+00 -0.24464965136E+03  0.24464965137E+03  0.25500000000E-02 0. -1.
         24    2    1    2    0    0  0.00000000000E+00  0.00000000000E+00 -0.23838978529E+03  0.25090951947E+03  0.78268111209E+02 0.  0.
         66    2    3    3    0    0  0.32073964829E+02 -0.22343199795E+02 -0.11533113583E+03  0.12179174313E+03  0.20000015188E+01 0.  0.
        -13    1    3    3    0    0 -0.32073964829E+02  0.22343199795E+02 -0.12305864946E+03  0.12911777634E+03  0.10566000000E+00 0.  1.
         13    1    4    4    0    0  0.99942046805E+01 -0.67444456698E+01 -0.33206815184E+02  0.35328110808E+02  0.10566000000E+00 0. -1.
        -13    1    4    4    0    0  0.17618123498E+01 -0.13745387498E+01 -0.73962993712E+01  0.77272082899E+01  0.10566000000E+00 0. -1.
         14    1    4    4    0    0  0.20317947799E+02 -0.14224215375E+02 -0.74728021273E+02  0.78736424031E+02  0.00000000000E+00 0. -1.
<mgrwt>
<rscale>  0 0.78268111E+02</rscale>
<asrwt>0</asrwt>
<pdfrwt beam="1">  1        2 0.37638401E-01 0.78268111E+02</pdfrwt>
<pdfrwt beam="2">  1       -1 0.96305667E-03 0.78268111E+02</pdfrwt>
<totfact> 0.25085930E+05</totfact>
</mgrwt>
</event>
<event>
 8    1  0.2389776E-016  0.8136805E+02  0.7818608E-02  0.1325213E+00
         -1   -1    0    0    0  501 -0.00000000000E+00  0.00000000000E+00  0.11815117028E+02  0.11815118103E+02  0.50400000000E-02 0.  1.
          2   -1    0    0  501    0  0.00000000000E+00 -0.00000000000E+00 -0.14009083696E+03  0.14009083699E+03  0.25500000000E-02 0. -1.
         24    2    1    2    0    0  0.35527136788E-14  0.00000000000E+00 -0.12827571994E+03  0.15190595509E+03  0.81368045736E+02 0.  0.
         66    2    3    3    0    0 -0.26864213294E+02 -0.40715548908E+01 -0.12064584821E+03  0.12368380738E+03  0.20000002211E+01 0.  0.
        -13    1    3    3    0    0  0.26864213294E+02  0.40715548908E+01 -0.76298717242E+01  0.28222147716E+02  0.10566000000E+00 0.  1.
         13    1    4    4    0    0 -0.22674798421E+01 -0.66179622579E+00 -0.10463918187E+02  0.10727729813E+02  0.10566000000E+00 0. -1.
        -13    1    4    4    0    0 -0.92076416349E+01 -0.52840698462E+00 -0.40650796232E+02  0.41684029037E+02  0.10566000000E+00 0.  1.
        -14    1    4    4    0    0 -0.15389091817E+02 -0.28813516804E+01 -0.69531133794E+02  0.71272048526E+02  0.00000000000E+00 0.  1.
<mgrwt>
<rscale>  0 0.81368046E+02</rscale>
<asrwt>0</asrwt>
<pdfrwt beam="1">  1        2 0.21552435E-01 0.81368046E+02</pdfrwt>
<pdfrwt beam="2">  1       -1 0.18177105E-02 0.81368046E+02</pdfrwt>
<totfact> 0.18733926E+05</totfact>
</mgrwt>
</event>
<event>
 8    1  0.2389776E-016  0.7786597E+02  0.7818608E-02  0.1335219E+00
         -1   -1    0    0    0  501 -0.00000000000E+00  0.00000000000E+00  0.40110967536E+02  0.40110967853E+02  0.50400000000E-02 0.  1.
          2   -1    0    0  501    0  0.00000000000E+00 -0.00000000000E+00 -0.37789596825E+02  0.37789596911E+02  0.25500000000E-02 0. -1.
         24    2    1    2    0    0  0.17763568394E-14  0.00000000000E+00  0.23213707118E+01  0.77900564764E+02  0.77865969643E+02 0.  0.
         66    2    3    3    0    0  0.14635381710E+02 -0.14391703698E+02 -0.31905570877E+02  0.37990538107E+02  0.19999998818E+01 0.  0.
        -13    1    3    3    0    0 -0.14635381710E+02  0.14391703698E+02  0.34226941589E+02  0.39910026656E+02  0.10566000000E+00 0.  1.
         13    1    4    4    0    0  0.31888498524E+01 -0.40189186156E+01 -0.86681009996E+01  0.10073113183E+02  0.10566000000E+00 0. -1.
        -13    1    4    4    0    0  0.10518767714E+02 -0.94097709175E+01 -0.21615632827E+02  0.25815402563E+02  0.10566000000E+00 0.  1.
        -14    1    4    4    0    0  0.92776414374E+00 -0.96301416475E+00 -0.16218370507E+01  0.21020223612E+01  0.00000000000E+00 0.  1.
<mgrwt>
<rscale>  0 0.77865970E+02</rscale>
<asrwt>0</asrwt>
<pdfrwt beam="1">  1        2 0.58137841E-02 0.77865970E+02</pdfrwt>
<pdfrwt beam="2">  1       -1 0.61709182E-02 0.77865970E+02</pdfrwt>
<totfact> 0.15184655E+05</totfact>
</mgrwt>
</event>
<event>
 8    1  0.2389776E-016  0.7991183E+02  0.7818608E-02  0.1329302E+00
         -1   -1    0    0    0  501 -0.00000000000E+00  0.00000000000E+00  0.26423457812E+01  0.26423505878E+01  0.50400000000E-02 0.  1.
          2   -1    0    0  501    0  0.00000000000E+00 -0.00000000000E+00 -0.60418805045E+03  0.60418805046E+03  0.25500000000E-02 0. -1.
         24    2    1    2    0    0  0.00000000000E+00  0.00000000000E+00 -0.60154570467E+03  0.60683040104E+03  0.79911831569E+02 0.  0.
         66    2    3    3    0    0 -0.35062572969E+02 -0.10918430138E+02 -0.42003354553E+03  0.42164057621E+03  0.20000005290E+01 0.  0.
        -13    1    3    3    0    0  0.35062572969E+02  0.10918430138E+02 -0.18151215914E+03  0.18518982483E+03  0.10566000000E+00 0.  1.
         13    1    4    4    0    0 -0.78718795938E+01 -0.30712205844E+01 -0.90981475176E+02  0.91373075211E+02  0.10566000000E+00 0. -1.
        -13    1    4    4    0    0 -0.81519241046E+01 -0.25192801982E+01 -0.10209054840E+03  0.10244653179E+03  0.10566000000E+00 0.  1.
         14    1    4    4    0    0 -0.19038769271E+02 -0.53279293557E+01 -0.22696152195E+03  0.22782096921E+03  0.00000000000E+00 0. -1.
<mgrwt>
<rscale>  0 0.79911832E+02</rscale>
<asrwt>0</asrwt>
<pdfrwt beam="1">  1        2 0.92951898E-01 0.79911832E+02</pdfrwt>
<pdfrwt beam="2">  1       -1 0.40651559E-03 0.79911832E+02</pdfrwt>
<totfact> 0.32318215E+05</totfact>
</mgrwt>
</event>
<event>
 8    1  0.2401866E-016  0.8252562E+02  0.7818608E-02  0.1322033E+00
          2   -1    0    0  501    0  0.00000000000E+00  0.00000000000E+00  0.70727679507E+03  0.70727679508E+03  0.25500000000E-02 0. -1.
         -1   -1    0    0    0  501 -0.00000000000E+00 -0.00000000000E+00 -0.24072859721E+01  0.24072912481E+01  0.50400000000E-02 0.  1.
         24    2    1    2    0    0  0.00000000000E+00  0.00000000000E+00  0.70486950910E+03  0.70968408633E+03  0.82525617379E+02 0.  0.
         66    2    3    3    0    0 -0.87262218545E+01  0.13347430909E+02  0.67968616832E+03  0.67987615657E+03  0.19999996896E+01 0.  0.
        -13    1    3    3    0    0  0.87262218545E+01 -0.13347430909E+02  0.25183340776E+02  0.29807929757E+02  0.10566000000E+00 0.  1.
         13    1    4    4    0    0 -0.60548889706E+01  0.90420604783E+01  0.45618188113E+03  0.45631167021E+03  0.10566000000E+00 0. -1.
        -13    1    4    4    0    0 -0.16505474017E+01  0.21594739456E+01  0.13987141138E+03  0.13989785746E+03  0.10566000000E+00 0.  1.
        -14    1    4    4    0    0 -0.10207854822E+01  0.21458964849E+01  0.83632875811E+02  0.83666628898E+02  0.00000000000E+00 0.  1.
<mgrwt>
<rscale>  0 0.82525617E+02</rscale>
<asrwt>0</asrwt>
<pdfrwt beam="1">  1        2 0.10881181E+00 0.82525617E+02</pdfrwt>
<pdfrwt beam="2">  1       -1 0.37035210E-03 0.82525617E+02</pdfrwt>
<totfact> 0.30923945E+05</totfact>
</mgrwt>
</event>
<event>
 8    1  0.2389776E-016  0.8208776E+02  0.7818608E-02  0.1323229E+00
         -1   -1    0    0    0  501 -0.00000000000E+00  0.00000000000E+00  0.41376186310E+02  0.41376186617E+02  0.50400000000E-02 0.  1.
          2   -1    0    0  501    0  0.00000000000E+00 -0.00000000000E+00 -0.40714240436E+02  0.40714240516E+02  0.25500000000E-02 0. -1.
         24    2    1    2    0    0  0.00000000000E+00  0.00000000000E+00  0.66194587360E+00  0.82090427133E+02  0.82087758251E+02 0.  0.
         66    2    3    3    0    0  0.13659597174E+02  0.38620160232E+02 -0.17887213993E+01  0.41052416638E+02  0.20000040520E+01 0.  0.
        -13    1    3    3    0    0 -0.13659597174E+02 -0.38620160232E+02  0.24506672729E+01  0.41038010496E+02  0.10566000000E+00 0.  1.
         13    1    4    4    0    0  0.37804963675E+01  0.11381967626E+02 -0.26773848967E+00  0.11996840741E+02  0.10566000000E+00 0. -1.
        -13    1    4    4    0    0  0.22654368099E+01  0.48120123498E+01 -0.61237128424E+00  0.53547949932E+01  0.10566000000E+00 0.  1.
        -14    1    4    4    0    0  0.76136639970E+01  0.22426180256E+02 -0.90861162538E+00  0.23700780903E+02  0.00000000000E+00 0.  1.
<mgrwt>
<rscale>  0 0.82087758E+02</rscale>
<asrwt>0</asrwt>
<pdfrwt beam="1">  1        2 0.62637293E-02 0.82087758E+02</pdfrwt>
<pdfrwt beam="2">  1       -1 0.63655672E-02 0.82087758E+02</pdfrwt>
<totfact> 0.13322586E+05</totfact>
</mgrwt>
</event>
<event>
 8    1  0.2389776E-016  0.8134318E+02  0.7818608E-02  0.1325282E+00
          2   -1    0    0  501    0  0.00000000000E+00  0.00000000000E+00  0.77011019639E+03  0.77011019639E+03  0.25500000000E-02 0. -1.
         -1   -1    0    0    0  501 -0.00000000000E+00 -0.00000000000E+00 -0.21479730334E+01  0.21479789463E+01  0.50400000000E-02 0.  1.
         24    2    1    2    0    0  0.00000000000E+00  0.00000000000E+00  0.76796222335E+03  0.77225817534E+03  0.81343179661E+02 0.  0.
         66    2    3    3    0    0  0.10162752842E+02  0.35272932531E+02  0.54993685395E+03  0.55116422657E+03  0.20000004482E+01 0.  0.
        -13    1    3    3    0    0 -0.10162752842E+02 -0.35272932531E+02  0.21802536940E+03  0.22109394877E+03  0.10566000000E+00 0.  1.
         13    1    4    4    0    0  0.52807408514E+01  0.18499600099E+02  0.27833237633E+03  0.27899649515E+03  0.10566000000E+00 0. -1.
        -13    1    4    4    0    0  0.25869876253E+01  0.70758740942E+01  0.11829245455E+03  0.11853217481E+03  0.10566000000E+00 0.  1.
        -14    1    4    4    0    0  0.22950243655E+01  0.96974583382E+01  0.15331202307E+03  0.15363555661E+03  0.00000000000E+00 0.  1.
<mgrwt>
<rscale>  0 0.81343180E+02</rscale>
<asrwt>0</asrwt>
<pdfrwt beam="1">  1        2 0.11847854E+00 0.81343180E+02</pdfrwt>
<pdfrwt beam="2">  1       -1 0.33045771E-03 0.81343180E+02</pdfrwt>
<totfact> 0.32683037E+05</totfact>
</mgrwt>
</event>
<event>
 8    1  0.2389776E-016  0.8137038E+02  0.7818608E-02  0.1325207E+00
          2   -1    0    0  501    0  0.00000000000E+00  0.00000000000E+00  0.10806537926E+04  0.10806537926E+04  0.25500000000E-02 0. -1.
         -1   -1    0    0    0  501 -0.00000000000E+00 -0.00000000000E+00 -0.15317396705E+01  0.15317479623E+01  0.50400000000E-02 0.  1.
         24    2    1    2    0    0  0.00000000000E+00  0.00000000000E+00  0.10791220529E+04  0.10821855406E+04  0.81370382141E+02 0.  0.
         66    2    3    3    0    0 -0.21419471326E+02 -0.16254470823E+02  0.94552703518E+03  0.94591139957E+03  0.19999996331E+01 0.  0.
        -13    1    3    3    0    0  0.21419471326E+02  0.16254470823E+02  0.13359501774E+03  0.13627414099E+03  0.10566000000E+00 0.  1.
         13    1    4    4    0    0 -0.30245261648E+01 -0.25814751568E+01  0.13195094970E+03  0.13201089373E+03  0.10566000000E+00 0.  1.
        -13    1    4    4    0    0 -0.93286061442E+01 -0.78973982938E+01  0.42421908905E+03  0.42439514426E+03  0.10566000000E+00 0. -1.
         14    1    4    4    0    0 -0.90663390168E+01 -0.57755973725E+01  0.38935699643E+03  0.38950536158E+03  0.00000000000E+00 0. -1.
<mgrwt>
<rscale>  0 0.81370382E+02</rscale>
<asrwt>0</asrwt>
<pdfrwt beam="1">  1        2 0.16625421E+00 0.81370382E+02</pdfrwt>
<pdfrwt beam="2">  1       -1 0.23565321E-03 0.81370382E+02</pdfrwt>
<totfact> 0.33744469E+05</totfact>
</mgrwt>
</event>
<event>
 8    1  0.2389776E-016  0.8038095E+02  0.7818608E-02  0.1327974E+00
         -1   -1    0    0    0  501 -0.00000000000E+00  0.00000000000E+00  0.35986506402E+01  0.35986541695E+01  0.50400000000E-02 0.  1.
          2   -1    0    0  501    0  0.00000000000E+00 -0.00000000000E+00 -0.44885527232E+03  0.44885527233E+03  0.25500000000E-02 0. -1.
         24    2    1    2    0    0  0.00000000000E+00  0.35527136788E-14 -0.44525662168E+03  0.45245392650E+03  0.80380945830E+02 0.  0.
         66    2    3    3    0    0 -0.27558604024E+02  0.18370739944E+02 -0.35066731472E+03  0.35223362468E+03  0.19999994178E+01 0.  0.
        -13    1    3    3    0    0  0.27558604024E+02 -0.18370739944E+02 -0.94589306957E+02  0.10022030182E+03  0.10566000000E+00 0.  1.
         13    1    4    4    0    0 -0.13293434760E+02  0.89293800958E+01 -0.17194955511E+03  0.17269368808E+03  0.10566000000E+00 0. -1.
        -13    1    4    4    0    0 -0.13207597349E+02  0.85326870413E+01 -0.16025709100E+03  0.16102668647E+03  0.10566000000E+00 0.  1.
        -14    1    4    4    0    0 -0.10575719138E+01  0.90867280688E+00 -0.18460668617E+02  0.18513250131E+02  0.00000000000E+00 0.  1.
<mgrwt>
<rscale>  0 0.80380946E+02</rscale>
<asrwt>0</asrwt>
<pdfrwt beam="1">  1        2 0.69054613E-01 0.80380946E+02</pdfrwt>
<pdfrwt beam="2">  1       -1 0.55363919E-03 0.80380946E+02</pdfrwt>
<totfact> 0.29031203E+05</totfact>
</mgrwt>
</event>
<event>
 8    1  0.2389776E-016  0.7959238E+02  0.7818608E-02  0.1330212E+00
          2   -1    0    0  501    0  0.00000000000E+00  0.00000000000E+00  0.19603425067E+03  0.19603425068E+03  0.25500000000E-02 0. -1.
         -1   -1    0    0    0  501 -0.00000000000E+00 -0.00000000000E+00 -0.80788775755E+01  0.80788791476E+01  0.50400000000E-02 0.  1.
         24    2    1    2    0    0  0.00000000000E+00  0.00000000000E+00  0.18795537309E+03  0.20411312983E+03  0.79592383401E+02 0.  0.
         66    2    3    3    0    0  0.22377505450E+02  0.88779948562E+01  0.17522041161E+03  0.17687782277E+03  0.20000001448E+01 0.  0.
        -13    1    3    3    0    0 -0.22377505450E+02 -0.88779948562E+01  0.12734961486E+02  0.27235307065E+02  0.10566000000E+00 0.  1.
         13    1    4    4    0    0  0.81600319621E+01  0.39129302448E+01  0.64639380577E+02  0.65269884558E+02  0.10566000000E+00 0. -1.
        -13    1    4    4    0    0  0.83745232062E+01  0.30022611853E+01  0.69468326274E+02  0.70035746091E+02  0.10566000000E+00 0.  1.
         14    1    4    4    0    0  0.58429502817E+01  0.19628034260E+01  0.41112704755E+02  0.41572192119E+02  0.00000000000E+00 0. -1.
<mgrwt>
<rscale>  0 0.79592383E+02</rscale>
<asrwt>0</asrwt>
<pdfrwt beam="1">  1        2 0.30159117E-01 0.79592383E+02</pdfrwt>
<pdfrwt beam="2">  1       -1 0.12429043E-02 0.79592383E+02</pdfrwt>
<totfact> 0.22203261E+05</totfact>
</mgrwt>
</event>
<event>
 8    1  0.2389776E-016  0.7998678E+02  0.7818608E-02  0.1329089E+00
          2   -1    0    0  501    0  0.00000000000E+00  0.00000000000E+00  0.57025281122E+03  0.57025281123E+03  0.25500000000E-02 0. -1.
         -1   -1    0    0    0  501 -0.00000000000E+00 -0.00000000000E+00 -0.28048436611E+01  0.28048481893E+01  0.50400000000E-02 0.  1.
         24    2    1    2    0    0  0.00000000000E+00  0.00000000000E+00  0.56744796756E+03  0.57305765942E+03  0.79986780955E+02 0.  0.
         66    2    3    3    0    0 -0.20429165718E+02  0.24404726612E+02  0.45711431368E+03  0.45822531277E+03  0.20000005678E+01 0.  0.
        -13    1    3    3    0    0  0.20429165718E+02 -0.24404726612E+02  0.11033365388E+03  0.11483234665E+03  0.10566000000E+00 0.  1.
         13    1    4    4    0    0 -0.20342759980E+01  0.27761633179E+01  0.46394800619E+02  0.46522403744E+02  0.10566000000E+00 0. -1.
        -13    1    4    4    0    0 -0.14772011863E+02  0.16344366629E+02  0.31964176358E+03  0.32040009183E+03  0.10566000000E+00 0.  1.
        -14    1    4    4    0    0 -0.36228778562E+01  0.52841966654E+01  0.91077749478E+02  0.91302817199E+02  0.00000000000E+00 0.  1.
<mgrwt>
<rscale>  0 0.79986781E+02</rscale>
<asrwt>0</asrwt>
<pdfrwt beam="1">  1        2 0.87731144E-01 0.79986781E+02</pdfrwt>
<pdfrwt beam="2">  1       -1 0.43151504E-03 0.79986781E+02</pdfrwt>
<totfact> 0.31714251E+05</totfact>
</mgrwt>
</event>
<event>
 8    1  0.2389776E-016  0.8005056E+02  0.7818608E-02  0.1328908E+00
          2   -1    0    0  501    0  0.00000000000E+00  0.00000000000E+00  0.17860255797E+03  0.17860255799E+03  0.25500000000E-02 0. -1.
         -1   -1    0    0    0  501 -0.00000000000E+00 -0.00000000000E+00 -0.89697654147E+01  0.89697668307E+01  0.50400000000E-02 0.  1.
         24    2    1    2    0    0  0.17763568394E-14  0.00000000000E+00  0.16963279255E+03  0.18757232482E+03  0.80050563570E+02 0.  0.
         66    2    3    3    0    0 -0.98836105043E+01  0.83013486255E+01  0.17358297681E+03  0.17407368543E+03  0.19999935602E+01 0.  0.
        -13    1    3    3    0    0  0.98836105043E+01 -0.83013486255E+01 -0.39501842592E+01  0.13498639388E+02  0.10566000000E+00 0.  1.
         13    1    4    4    0    0 -0.24210313560E+01  0.31312325029E+01  0.51055362287E+02  0.51208663252E+02  0.10566000000E+00 0.  1.
        -13    1    4    4    0    0 -0.13841456028E+01  0.82232673277E+00  0.19400165393E+02  0.19467143130E+02  0.10566000000E+00 0. -1.
        -14    1    4    4    0    0 -0.60784335454E+01  0.43477893898E+01  0.10312744913E+03  0.10339787905E+03  0.00000000000E+00 0.  1.
<mgrwt>
<rscale>  0 0.80050564E+02</rscale>
<asrwt>0</asrwt>
<pdfrwt beam="1">  1        2 0.27477314E-01 0.80050564E+02</pdfrwt>
<pdfrwt beam="2">  1       -1 0.13799641E-02 0.80050564E+02</pdfrwt>
<totfact> 0.21182841E+05</totfact>
</mgrwt>
</event>
<event>
 8    1  0.2389776E-016  0.8534337E+02  0.7818608E-02  0.1314537E+00
          2   -1    0    0  501    0  0.00000000000E+00  0.00000000000E+00  0.46145276521E+03  0.46145276522E+03  0.25500000000E-02 0. -1.
         -1   -1    0    0    0  501 -0.00000000000E+00 -0.00000000000E+00 -0.39459554427E+01  0.39459586614E+01  0.50400000000E-02 0.  1.
         24    2    1    2    0    0  0.00000000000E+00  0.00000000000E+00  0.45750680977E+03  0.46539872388E+03  0.85343372351E+02 0.  0.
         66    2    3    3    0    0 -0.18389952773E+02 -0.19965830449E+02  0.40826018273E+03  0.40916647168E+03  0.19999995252E+01 0.  0.
        -13    1    3    3    0    0  0.18389952773E+02  0.19965830449E+02  0.49246627046E+02  0.56232252205E+02  0.10566000000E+00 0.  1.
         13    1    4    4    0    0 -0.11597849674E+02 -0.12016302497E+02  0.24756718700E+03  0.24812985488E+03  0.10566000000E+00 0. -1.
        -13    1    4    4    0    0 -0.34212678817E+00 -0.25126403134E+00  0.45560135244E+01  0.45769648920E+01  0.10566000000E+00 0.  1.
         14    1    4    4    0    0 -0.64499763107E+01 -0.76982639208E+01  0.15613698221E+03  0.15645965190E+03  0.00000000000E+00 0. -1.
<mgrwt>
<rscale>  0 0.85343372E+02</rscale>
<asrwt>0</asrwt>
<pdfrwt beam="1">  1        2 0.70992670E-01 0.85343372E+02</pdfrwt>
<pdfrwt beam="2">  1       -1 0.60707086E-03 0.85343372E+02</pdfrwt>
<totfact> 0.25049185E+05</totfact>
</mgrwt>
</event>
<event>
 8    1  0.2389776E-016  0.7982723E+02  0.7818608E-02  0.1329542E+00
         -1   -1    0    0    0  501 -0.00000000000E+00  0.00000000000E+00  0.23398943702E+03  0.23398943707E+03  0.50400000000E-02 0.  1.
          2   -1    0    0  501    0  0.00000000000E+00 -0.00000000000E+00 -0.68084123160E+01  0.68084127935E+01  0.25500000000E-02 0. -1.
         24    2    1    2    0    0  0.00000000000E+00  0.00000000000E+00  0.22718102470E+03  0.24079784986E+03  0.79827229159E+02 0.  0.
         66    2    3    3    0    0 -0.38152009799E+02 -0.10099131806E+02  0.13112688562E+03  0.13695192017E+03  0.19999979080E+01 0.  0.
        -13    1    3    3    0    0  0.38152009799E+02  0.10099131806E+02  0.96054139082E+02  0.10384592969E+03  0.10566000000E+00 0.  1.
         13    1    4    4    0    0 -0.99444563488E+01 -0.27458960575E+01  0.35104474278E+02  0.36589171016E+02  0.10566000000E+00 0. -1.
        -13    1    4    4    0    0 -0.63056839396E+01 -0.22940349584E+01  0.21225739908E+02  0.22261344187E+02  0.10566000000E+00 0.  1.
         14    1    4    4    0    0 -0.21901869511E+02 -0.50592007899E+01  0.74796671432E+02  0.78101404968E+02  0.00000000000E+00 0. -1.
<mgrwt>
<rscale>  0 0.79827229E+02</rscale>
<asrwt>0</asrwt>
<pdfrwt beam="1">  1        2 0.10474481E-02 0.79827229E+02</pdfrwt>
<pdfrwt beam="2">  1       -1 0.35998375E-01 0.79827229E+02</pdfrwt>
<totfact> 0.95265888E+04</totfact>
</mgrwt>
</event>
<event>
 8    1  0.2389776E-016  0.7875962E+02  0.7818608E-02  0.1332609E+00
          2   -1    0    0  501    0  0.00000000000E+00  0.00000000000E+00  0.10319146751E+02  0.10319147066E+02  0.25500000000E-02 0. -1.
         -1   -1    0    0    0  501 -0.00000000000E+00 -0.00000000000E+00 -0.15028076292E+03  0.15028076300E+03  0.50400000000E-02 0.  1.
         24    2    1    2    0    0  0.00000000000E+00  0.17763568394E-14 -0.13996161616E+03  0.16059991007E+03  0.78759616010E+02 0.  0.
         66    2    3    3    0    0 -0.36569232663E+02  0.14134779753E+02 -0.63061831999E+02  0.74282537859E+02  0.19999998399E+01 0.  0.
        -13    1    3    3    0    0  0.36569232663E+02 -0.14134779753E+02 -0.76899784164E+02  0.86317372208E+02  0.10566000000E+00 0.  1.
         13    1    4    4    0    0 -0.21585247328E+02  0.80607376825E+01 -0.36051961591E+02  0.42786136689E+02  0.10566000000E+00 0. -1.
        -13    1    4    4    0    0 -0.10386933842E+02  0.39181626671E+01 -0.19284906337E+02  0.22252172249E+02  0.10566000000E+00 0.  1.
         14    1    4    4    0    0 -0.45970514933E+01  0.21558794038E+01 -0.77249640714E+01  0.92442289208E+01  0.00000000000E+00 0. -1.
<mgrwt>
<rscale>  0 0.78759616E+02</rscale>
<asrwt>0</asrwt>
<pdfrwt beam="1">  1        2 0.15875612E-02 0.78759616E+02</pdfrwt>
<pdfrwt beam="2">  1       -1 0.23120116E-01 0.78759616E+02</pdfrwt>
<totfact> 0.11216420E+05</totfact>
</mgrwt>
</event>
<event>
 8    1  0.2389776E-016  0.8002607E+02  0.7818608E-02  0.1328977E+00
         -1   -1    0    0    0  501 -0.00000000000E+00  0.00000000000E+00  0.62290573106E+01  0.62290593495E+01  0.50400000000E-02 0.  1.
          2   -1    0    0  501    0  0.00000000000E+00 -0.00000000000E+00 -0.25702810332E+03  0.25702810333E+03  0.25500000000E-02 0. -1.
         24    2    1    2    0    0  0.00000000000E+00  0.00000000000E+00 -0.25079904600E+03  0.26325716268E+03  0.80026072152E+02 0.  0.
         66    2    3    3    0    0  0.10365638339E+01 -0.24277229544E+02 -0.22995056844E+03  0.23123953441E+03  0.20000026577E+01 0.  0.
        -13    1    3    3    0    0 -0.10365638339E+01  0.24277229544E+02 -0.20848477566E+02  0.32017628266E+02  0.10566000000E+00 0.  1.
         13    1    4    4    0    0  0.88919102671E-01 -0.10983508248E+02 -0.10227261547E+03  0.10286080109E+03  0.10566000000E+00 0. -1.
        -13    1    4    4    0    0  0.15562316542E+00 -0.38515261343E+01 -0.42877827439E+02  0.43050873650E+02  0.10566000000E+00 0.  1.
        -14    1    4    4    0    0  0.79202156585E+00 -0.94421951618E+01 -0.84800125525E+02  0.85327859675E+02  0.00000000000E+00 0.  1.
<mgrwt>
<rscale>  0 0.80026072E+02</rscale>
<asrwt>0</asrwt>
<pdfrwt beam="1">  1        2 0.39542777E-01 0.80026072E+02</pdfrwt>
<pdfrwt beam="2">  1       -1 0.95831687E-03 0.80026072E+02</pdfrwt>
<totfact> 0.24086343E+05</totfact>
</mgrwt>
</event>
<event>
 8    1  0.2389776E-016  0.8033107E+02  0.7818608E-02  0.1328115E+00
          2   -1    0    0  501    0  0.00000000000E+00  0.00000000000E+00  0.49495441347E+03  0.49495441348E+03  0.25500000000E-02 0. -1.
         -1   -1    0    0    0  501 -0.00000000000E+00 -0.00000000000E+00 -0.32594302662E+01  0.32594341629E+01  0.50400000000E-02 0.  1.
         24    2    1    2    0    0  0.71054273576E-14 -0.17763568394E-14  0.49169498320E+03  0.49821384764E+03  0.80331074137E+02 0.  0.
         66    2    3    3    0    0  0.37419266843E+02 -0.12050226684E+02  0.29632976487E+03  0.29893266641E+03  0.20000009763E+01 0.  0.
        -13    1    3    3    0    0 -0.37419266843E+02  0.12050226684E+02  0.19536521833E+03  0.19928118123E+03  0.10566000000E+00 0.  1.
         13    1    4    4    0    0  0.19377184065E+02 -0.71507352779E+01  0.15290840302E+03  0.15429711325E+03  0.10566000000E+00 0. -1.
        -13    1    4    4    0    0  0.98448551557E+01 -0.24376776653E+01  0.78062919788E+02  0.78719083171E+02  0.10566000000E+00 0.  1.
         14    1    4    4    0    0  0.81972276229E+01 -0.24618137404E+01  0.65358442063E+02  0.65916469994E+02  0.00000000000E+00 0. -1.
<mgrwt>
<rscale>  0 0.80331074E+02</rscale>
<asrwt>0</asrwt>
<pdfrwt beam="1">  1        2 0.76146848E-01 0.80331074E+02</pdfrwt>
<pdfrwt beam="2">  1       -1 0.50145101E-03 0.80331074E+02</pdfrwt>
<totfact> 0.30027761E+05</totfact>
</mgrwt>
</event>
<event>
 8    1  0.2389776E-016  0.7954016E+02  0.7818608E-02  0.1330361E+00
         -1   -1    0    0    0  501 -0.00000000000E+00  0.00000000000E+00  0.44981549945E+01  0.44981578181E+01  0.50400000000E-02 0.  1.
          2   -1    0    0  501    0  0.00000000000E+00 -0.00000000000E+00 -0.35162391935E+03  0.35162391936E+03  0.25500000000E-02 0. -1.
         24    2    1    2    0    0  0.88817841970E-15  0.71054273576E-14 -0.34712576436E+03  0.35612207718E+03  0.79540163275E+02 0.  0.
         66    2    3    3    0    0 -0.69633866703E+01 -0.32687723337E+02 -0.26997802244E+03  0.27204615163E+03  0.20000005940E+01 0.  0.
        -13    1    3    3    0    0  0.69633866703E+01  0.32687723337E+02 -0.77147741916E+02  0.84075925554E+02  0.10566000000E+00 0.  1.
         13    1    4    4    0    0 -0.53225840671E+01 -0.24592991528E+02 -0.19814801255E+03  0.19973930804E+03  0.10566000000E+00 0. -1.
        -13    1    4    4    0    0 -0.13168985670E+01 -0.55317663145E+01 -0.47024935973E+02  0.47367609479E+02  0.10566000000E+00 0.  1.
         14    1    4    4    0    0 -0.32390403614E+00 -0.25629654941E+01 -0.24805073913E+02  0.24939234106E+02  0.00000000000E+00 0. -1.
<mgrwt>
<rscale>  0 0.79540163E+02</rscale>
<asrwt>0</asrwt>
<pdfrwt beam="1">  1        2 0.54095966E-01 0.79540163E+02</pdfrwt>
<pdfrwt beam="2">  1       -1 0.69202434E-03 0.79540163E+02</pdfrwt>
<totfact> 0.27404243E+05</totfact>
</mgrwt>
</event>
<event>
 8    1  0.2389776E-016  0.7549243E+02  0.7818608E-02  0.1342353E+00
          2   -1    0    0  501    0  0.00000000000E+00  0.00000000000E+00  0.25779728591E+03  0.25779728592E+03  0.25500000000E-02 0. -1.
         -1   -1    0    0    0  501 -0.00000000000E+00 -0.00000000000E+00 -0.55267310677E+01  0.55267333657E+01  0.50400000000E-02 0.  1.
         24    2    1    2    0    0  0.00000000000E+00  0.00000000000E+00  0.25227055484E+03  0.26332401928E+03  0.75492425406E+02 0.  0.
         66    2    3    3    0    0 -0.75527237226E+01 -0.14938559478E+02  0.24412742163E+03  0.24470881105E+03  0.20000057319E+01 0.  0.
        -13    1    3    3    0    0  0.75527237226E+01  0.14938559478E+02  0.81431332125E+01  0.18615208230E+02  0.10566000000E+00 0.  1.
         13    1    4    4    0    0 -0.26835547186E+01 -0.65806472566E+01  0.98941268526E+02  0.99196230603E+02  0.10566000000E+00 0. -1.
        -13    1    4    4    0    0 -0.39531860826E+01 -0.73378629592E+01  0.12859659455E+03  0.12886647046E+03  0.10566000000E+00 0.  1.
        -14    1    4    4    0    0 -0.91598292145E+00 -0.10200492621E+01  0.16589558546E+02  0.16646109995E+02  0.00000000000E+00 0.  1.
<mgrwt>
<rscale>  0 0.75492425E+02</rscale>
<asrwt>0</asrwt>
<pdfrwt beam="1">  1        2 0.39661127E-01 0.75492425E+02</pdfrwt>
<pdfrwt beam="2">  1       -1 0.85026637E-03 0.75492425E+02</pdfrwt>
<totfact> 0.28092901E+05</totfact>
</mgrwt>
</event>
<event>
 8    1  0.2389776E-016  0.8037312E+02  0.7818608E-02  0.1327996E+00
         -1   -1    0    0    0  501 -0.00000000000E+00  0.00000000000E+00  0.11040909523E+03  0.11040909534E+03  0.50400000000E-02 0.  1.
          2   -1    0    0  501    0  0.00000000000E+00 -0.00000000000E+00 -0.14627053445E+02  0.14627053668E+02  0.25500000000E-02 0. -1.
         24    2    1    2    0    0  0.00000000000E+00  0.71054273576E-14  0.95782041781E+02  0.12503614901E+03  0.80373123812E+02 0.  0.
         66    2    3    3    0    0  0.16866638587E+01 -0.39176906304E+02  0.61418438776E+02  0.72896498090E+02  0.19999973830E+01 0.  0.
        -13    1    3    3    0    0 -0.16866638587E+01  0.39176906304E+02  0.34363603005E+02  0.52139650920E+02  0.10566000000E+00 0.  1.
         13    1    4    4    0    0  0.10361127987E+01 -0.89409701205E+01  0.13524891457E+02  0.16246486678E+02  0.10566000000E+00 0. -1.
        -13    1    4    4    0    0  0.74359885394E+00 -0.29586882108E+02  0.46715073059E+02  0.55301408184E+02  0.10566000000E+00 0.  1.
         14    1    4    4    0    0 -0.93047793873E-01 -0.64905407464E+00  0.11784742605E+01  0.13486032280E+01  0.00000000000E+00 0. -1.
<mgrwt>
<rscale>  0 0.80373124E+02</rscale>
<asrwt>0</asrwt>
<pdfrwt beam="1">  1        2 0.22503160E-02 0.80373124E+02</pdfrwt>
<pdfrwt beam="2">  1       -1 0.16986014E-01 0.80373124E+02</pdfrwt>
<totfact> 0.11465772E+05</totfact>
</mgrwt>
</event>
<event>
 8    1  0.2389776E-016  0.8088440E+02  0.7818608E-02  0.1326560E+00
         -1   -1    0    0    0  501 -0.00000000000E+00  0.00000000000E+00  0.21154354494E+01  0.21154414533E+01  0.50400000000E-02 0.  1.
          2   -1    0    0  501    0  0.00000000000E+00 -0.00000000000E+00 -0.77315955862E+03  0.77315955863E+03  0.25500000000E-02 0. -1.
         24    2    1    2    0    0 -0.17763568394E-14  0.71054273576E-14 -0.77104412318E+03  0.77527500008E+03  0.80884398183E+02 0.  0.
         66    2    3    3    0    0 -0.76771787466E+01  0.32461242951E+02 -0.60451623612E+03  0.60543913903E+03  0.19999930321E+01 0.  0.
        -13    1    3    3    0    0  0.76771787466E+01 -0.32461242951E+02 -0.16652788706E+03  0.16983586105E+03  0.10566000000E+00 0.  1.
         13    1    4    4    0    0 -0.46751643670E+01  0.18117033774E+02 -0.32858872618E+03  0.32912102061E+03  0.10566000000E+00 0. -1.
        -13    1    4    4    0    0 -0.49595893987E+00  0.44865896377E+01 -0.83512166193E+02  0.83634134945E+02  0.10566000000E+00 0.  1.
        -14    1    4    4    0    0 -0.25060554397E+01  0.98576195390E+01 -0.19241534375E+03  0.19268398347E+03  0.00000000000E+00 0.  1.
<mgrwt>
<rscale>  0 0.80884398E+02</rscale>
<asrwt>0</asrwt>
<pdfrwt beam="1">  1        2 0.11894740E+00 0.80884398E+02</pdfrwt>
<pdfrwt beam="2">  1       -1 0.32545268E-03 0.80884398E+02</pdfrwt>
<totfact> 0.33192354E+05</totfact>
</mgrwt>
</event>
<event>
 8    1  0.2389776E-016  0.7725896E+02  0.7818608E-02  0.1337015E+00
          2   -1    0    0  501    0  0.00000000000E+00  0.00000000000E+00  0.15809745624E+02  0.15809745829E+02  0.25500000000E-02 0. -1.
         -1   -1    0    0    0  501 -0.00000000000E+00 -0.00000000000E+00 -0.94387130552E+02  0.94387130686E+02  0.50400000000E-02 0.  1.
         24    2    1    2    0    0  0.35527136788E-14  0.00000000000E+00 -0.78577384928E+02  0.11019687652E+03  0.77258955285E+02 0.  0.
         66    2    3    3    0    0  0.30714907415E+02 -0.23378788885E+02 -0.40039881403E+02  0.55652182464E+02  0.20000007314E+01 0.  0.
        -13    1    3    3    0    0 -0.30714907415E+02  0.23378788885E+02 -0.38537503525E+02  0.54544694052E+02  0.10566000000E+00 0.  1.
         13    1    4    4    0    0  0.12142916342E+02 -0.89567207348E+01 -0.15463425188E+02  0.21605599880E+02  0.10566000000E+00 0. -1.
        -13    1    4    4    0    0  0.89524796541E+01 -0.72459340984E+01 -0.13061732923E+02  0.17414662899E+02  0.10566000000E+00 0.  1.
        -14    1    4    4    0    0  0.96195114186E+01 -0.71761340522E+01 -0.11514723293E+02  0.16631919684E+02  0.00000000000E+00 0.  1.
<mgrwt>
<rscale>  0 0.77258955E+02</rscale>
<asrwt>0</asrwt>
<pdfrwt beam="1">  1        2 0.24322686E-02 0.77258955E+02</pdfrwt>
<pdfrwt beam="2">  1       -1 0.14521097E-01 0.77258955E+02</pdfrwt>
<totfact> 0.13086102E+05</totfact>
</mgrwt>
</event>
<event>
 8    1  0.2389776E-016  0.7937399E+02  0.7818608E-02  0.1330837E+00
         -1   -1    0    0    0  501 -0.00000000000E+00  0.00000000000E+00  0.23710159929E+01  0.23710213496E+01  0.50400000000E-02 0.  1.
          2   -1    0    0  501    0  0.00000000000E+00 -0.00000000000E+00 -0.66429571116E+03  0.66429571117E+03  0.25500000000E-02 0. -1.
         24    2    1    2    0    0  0.00000000000E+00 -0.17763568394E-14 -0.66192469517E+03  0.66666673252E+03  0.79373989250E+02 0.  0.
         66    2    3    3    0    0  0.55932691830E+01  0.12725727741E+02 -0.64316312043E+03  0.64331642936E+03  0.19999999514E+01 0.  0.
        -13    1    3    3    0    0 -0.55932691830E+01 -0.12725727741E+02 -0.18761574742E+02  0.23350303157E+02  0.10566000000E+00 0.  1.
         13    1    4    4    0    0  0.26912985090E+01  0.50379937856E+01 -0.28985525505E+03  0.28991154602E+03  0.10566000000E+00 0. -1.
        -13    1    4    4    0    0 -0.41364836005E-01  0.45984705877E+00 -0.22322940175E+02  0.22327964360E+02  0.10566000000E+00 0.  1.
        -14    1    4    4    0    0  0.29433355100E+01  0.72278868963E+01 -0.33098492520E+03  0.33107691898E+03  0.00000000000E+00 0.  1.
<mgrwt>
<rscale>  0 0.79373989E+02</rscale>
<asrwt>0</asrwt>
<pdfrwt beam="1">  1        2 0.10219919E+00 0.79373989E+02</pdfrwt>
<pdfrwt beam="2">  1       -1 0.36477263E-03 0.79373989E+02</pdfrwt>
<totfact> 0.33718678E+05</totfact>
</mgrwt>
</event>
<event>
 8    1  0.2389776E-016  0.7964001E+02  0.7818608E-02  0.1330076E+00
          2   -1    0    0  501    0  0.00000000000E+00  0.00000000000E+00  0.25203869282E+03  0.25203869283E+03  0.25500000000E-02 0. -1.
         -1   -1    0    0    0  501 -0.00000000000E+00 -0.00000000000E+00 -0.62912266854E+01  0.62912287042E+01  0.50400000000E-02 0.  1.
         24    2    1    2    0    0  0.00000000000E+00  0.00000000000E+00  0.24574746613E+03  0.25832992153E+03  0.79640010357E+02 0.  0.
         66    2    3    3    0    0 -0.10187420811E+02  0.11682369600E+02  0.24183973386E+03  0.24234421424E+03  0.19999996399E+01 0.  0.
        -13    1    3    3    0    0  0.10187420811E+02 -0.11682369600E+02  0.39077322728E+01  0.15985707298E+02  0.10566000000E+00 0.  1.
         13    1    4    4    0    0 -0.17836402965E+01  0.17135423936E+01  0.35130746394E+02  0.35217866296E+02  0.10566000000E+00 0. -1.
        -13    1    4    4    0    0 -0.48428531049E+01  0.47810205119E+01  0.98936120774E+02  0.99169947773E+02  0.10566000000E+00 0.  1.
         14    1    4    4    0    0 -0.35609274100E+01  0.51878066947E+01  0.10777286669E+03  0.10795640017E+03  0.00000000000E+00 0. -1.
<mgrwt>
<rscale>  0 0.79640010E+02</rscale>
<asrwt>0</asrwt>
<pdfrwt beam="1">  1        2 0.38775181E-01 0.79640010E+02</pdfrwt>
<pdfrwt beam="2">  1       -1 0.96788124E-03 0.79640010E+02</pdfrwt>
<totfact> 0.24223344E+05</totfact>
</mgrwt>
</event>
<event>
 8    1  0.2389776E-016  0.7909542E+02  0.7818608E-02  0.1331638E+00
          2   -1    0    0  501    0  0.00000000000E+00  0.00000000000E+00  0.32181311265E+02  0.32181311366E+02  0.25500000000E-02 0. -1.
         -1   -1    0    0    0  501 -0.00000000000E+00 -0.00000000000E+00 -0.48600297367E+02  0.48600297629E+02  0.50400000000E-02 0.  1.
         24    2    1    2    0    0  0.00000000000E+00  0.71054273576E-14 -0.16418986102E+02  0.80781608995E+02  0.79095418623E+02 0.  0.
         66    2    3    3    0    0 -0.17312946416E+02 -0.35209775966E+02 -0.33648167834E+01  0.39430805643E+02  0.20000011094E+01 0.  0.
        -13    1    3    3    0    0  0.17312946416E+02  0.35209775966E+02 -0.13054169319E+02  0.41350803352E+02  0.10566000000E+00 0.  1.
         13    1    4    4    0    0 -0.45463233008E+01 -0.95497969811E+01 -0.30582416438E+00  0.10581699787E+02  0.10566000000E+00 0. -1.
        -13    1    4    4    0    0 -0.29956842974E+00 -0.10172093992E+01 -0.20416011023E+00  0.10850352953E+01  0.10566000000E+00 0.  1.
         14    1    4    4    0    0 -0.12467054686E+02 -0.24642769586E+02 -0.28548325088E+01  0.27764070560E+02  0.00000000000E+00 0. -1.
<mgrwt>
<rscale>  0 0.79095419E+02</rscale>
<asrwt>0</asrwt>
<pdfrwt beam="1">  1        2 0.49509710E-02 0.79095419E+02</pdfrwt>
<pdfrwt beam="2">  1       -1 0.74769689E-02 0.79095419E+02</pdfrwt>
<totfact> 0.14083301E+05</totfact>
</mgrwt>
</event>
<event>
 8    1  0.2389776E-016  0.7833588E+02  0.7818608E-02  0.1333841E+00
          2   -1    0    0  501    0  0.00000000000E+00  0.00000000000E+00  0.45104250102E+03  0.45104250103E+03  0.25500000000E-02 0. -1.
         -1   -1    0    0    0  501 -0.00000000000E+00 -0.00000000000E+00 -0.34012903753E+01  0.34012941094E+01  0.50400000000E-02 0.  1.
         24    2    1    2    0    0 -0.35527136788E-14  0.00000000000E+00  0.44764121065E+03  0.45444379514E+03  0.78335876013E+02 0.  0.
         66    2    3    3    0    0 -0.26091447143E+02 -0.23986255180E+02  0.32034643742E+03  0.32230721994E+03  0.20000007569E+01 0.  0.
        -13    1    3    3    0    0  0.26091447143E+02  0.23986255180E+02  0.12729477322E+03  0.13213657520E+03  0.10566000000E+00 0.  1.
         13    1    4    4    0    0 -0.17029477233E+02 -0.14771720839E+02  0.20533514713E+03  0.20656897309E+03  0.10566000000E+00 0. -1.
        -13    1    4    4    0    0 -0.77107233163E+01 -0.77041129575E+01  0.94236534719E+02  0.94864873638E+02  0.10566000000E+00 0.  1.
         14    1    4    4    0    0 -0.13512465936E+01 -0.15104213840E+01  0.20774755576E+02  0.20873373214E+02  0.00000000000E+00 0. -1.
<mgrwt>
<rscale>  0 0.78335876E+02</rscale>
<asrwt>0</asrwt>
<pdfrwt beam="1">  1        2 0.69391168E-01 0.78335876E+02</pdfrwt>
<pdfrwt beam="2">  1       -1 0.52327563E-03 0.78335876E+02</pdfrwt>
<totfact> 0.31099249E+05</totfact>
</mgrwt>
</event>
<event>
 8    1  0.2389776E-016  0.8047810E+02  0.7818608E-02  0.1327700E+00
          2   -1    0    0  501    0  0.00000000000E+00  0.00000000000E+00  0.17621014151E+02  0.17621014336E+02  0.25500000000E-02 0. -1.
         -1   -1    0    0    0  501 -0.00000000000E+00 -0.00000000000E+00 -0.91889206053E+02  0.91889206191E+02  0.50400000000E-02 0.  1.
         24    2    1    2    0    0  0.00000000000E+00  0.00000000000E+00 -0.74268191901E+02  0.10951022053E+03  0.80478096844E+02 0.  0.
         66    2    3    3    0    0 -0.18865157675E+02  0.25781493992E+02 -0.39203126483E+01  0.32248231904E+02  0.20000007812E+01 0.  0.
        -13    1    3    3    0    0  0.18865157675E+02 -0.25781493992E+02 -0.70347879253E+02  0.77261988623E+02  0.10566000000E+00 0.  1.
         13    1    4    4    0    0 -0.11809984289E+01  0.11224093304E+01 -0.41755816120E-01  0.16332383715E+01  0.10566000000E+00 0. -1.
        -13    1    4    4    0    0 -0.87913434258E+01  0.11324001969E+02 -0.15950750543E+01  0.14424845520E+02  0.10566000000E+00 0.  1.
        -14    1    4    4    0    0 -0.88928158203E+01  0.13335082692E+02 -0.22834817779E+01  0.16190148012E+02  0.00000000000E+00 0.  1.
<mgrwt>
<rscale>  0 0.80478097E+02</rscale>
<asrwt>0</asrwt>
<pdfrwt beam="1">  1        2 0.27109253E-02 0.80478097E+02</pdfrwt>
<pdfrwt beam="2">  1       -1 0.14136801E-01 0.80478097E+02</pdfrwt>
<totfact> 0.11889839E+05</totfact>
</mgrwt>
</event>
<event>
 8    1  0.2389776E-016  0.8451026E+02  0.7818608E-02  0.1316718E+00
         -1   -1    0    0    0  501 -0.00000000000E+00  0.00000000000E+00  0.27658162930E+02  0.27658163390E+02  0.50400000000E-02 0.  1.
          2   -1    0    0  501    0  0.00000000000E+00 -0.00000000000E+00 -0.64555848581E+02  0.64555848632E+02  0.25500000000E-02 0. -1.
         24    2    1    2    0    0  0.00000000000E+00  0.00000000000E+00 -0.36897685651E+02  0.92214012021E+02  0.84510264505E+02 0.  0.
         66    2    3    3    0    0 -0.32696917319E+02 -0.62047897508E+01 -0.46827214683E+02  0.57483700637E+02  0.19999965011E+01 0.  0.
        -13    1    3    3    0    0  0.32696917319E+02  0.62047897508E+01  0.99295290320E+01  0.34730311384E+02  0.10566000000E+00 0.  1.
         13    1    4    4    0    0 -0.21347319497E+01 -0.10523080198E+00 -0.24840151529E+01  0.32786657857E+01  0.10566000000E+00 0.  1.
        -13    1    4    4    0    0 -0.17124497925E+02 -0.30275539205E+01 -0.24706009536E+02  0.30212788404E+02  0.10566000000E+00 0. -1.
         14    1    4    4    0    0 -0.13437687443E+02 -0.30720050283E+01 -0.19637189994E+02  0.23992246447E+02  0.00000000000E+00 0. -1.
<mgrwt>
<rscale>  0 0.84510265E+02</rscale>
<asrwt>0</asrwt>
<pdfrwt beam="1">  1        2 0.99316690E-02 0.84510265E+02</pdfrwt>
<pdfrwt beam="2">  1       -1 0.42551020E-02 0.84510265E+02</pdfrwt>
<totfact> 0.13637532E+05</totfact>
</mgrwt>
</event>
<event>
 8    1  0.2389776E-016  0.7527658E+02  0.7818608E-02  0.1343017E+00
          2   -1    0    0  501    0  0.00000000000E+00  0.00000000000E+00  0.16548861068E+04  0.16548861068E+04  0.25500000000E-02 0. -1.
         -1   -1    0    0    0  501 -0.00000000000E+00 -0.00000000000E+00 -0.85602785013E+00  0.85604268690E+00  0.50400000000E-02 0.  1.
         24    2    1    2    0    0  0.00000000000E+00  0.35527136788E-14  0.16540300790E+04  0.16557421495E+04  0.75276580177E+02 0.  0.
         66    2    3    3    0    0  0.82007889229E+01  0.16858179539E+02  0.15447921287E+04  0.15449071726E+04  0.19999989043E+01 0.  0.
        -13    1    3    3    0    0 -0.82007889229E+01 -0.16858179539E+02  0.10923795024E+03  0.11083497685E+03  0.10566000000E+00 0.  1.
         13    1    4    4    0    0  0.57877093274E+01  0.12292160568E+02  0.11388021762E+04  0.11388832260E+04  0.10566000000E+00 0. -1.
        -13    1    4    4    0    0  0.21695240788E+01  0.43824369276E+01  0.39288722923E+03  0.39291767413E+03  0.10566000000E+00 0.  1.
        -14    1    4    4    0    0  0.24355551665E+00  0.18358204366E+00  0.13102723283E+02  0.13106272510E+02  0.00000000000E+00 0.  1.
<mgrwt>
<rscale>  0 0.75276580E+02</rscale>
<asrwt>0</asrwt>
<pdfrwt beam="1">  1        2 0.25459799E+00 0.75276580E+02</pdfrwt>
<pdfrwt beam="2">  1       -1 0.13169767E-03 0.75276580E+02</pdfrwt>
<totfact> 0.37243820E+05</totfact>
</mgrwt>
</event>
<event>
 8    1  0.2389776E-016  0.7974757E+02  0.7818608E-02  0.1329769E+00
         -1   -1    0    0    0  501 -0.00000000000E+00  0.00000000000E+00  0.14650749494E+02  0.14650750361E+02  0.50400000000E-02 0.  1.
          2   -1    0    0  501    0  0.00000000000E+00 -0.00000000000E+00 -0.10852130890E+03  0.10852130893E+03  0.25500000000E-02 0. -1.
         24    2    1    2    0    0  0.00000000000E+00  0.71054273576E-14 -0.93870559410E+02  0.12317205929E+03  0.79747565900E+02 0.  0.
         66    2    3    3    0    0 -0.98563864401E+01 -0.37734116912E+02 -0.59597914928E+02  0.71252532558E+02  0.19999998459E+01 0.  0.
        -13    1    3    3    0    0  0.98563864401E+01  0.37734116912E+02 -0.34272644482E+02  0.51919526737E+02  0.10566000000E+00 0.  1.
         13    1    4    4    0    0 -0.56846627607E+01 -0.23516593794E+02 -0.36435945840E+02  0.43737111104E+02  0.10566000000E+00 0. -1.
        -13    1    4    4    0    0 -0.20698325959E+01 -0.74849997133E+01 -0.11210938987E+02  0.13638392306E+02  0.10566000000E+00 0.  1.
        -14    1    4    4    0    0 -0.21018910835E+01 -0.67325234039E+01 -0.11951030100E+02  0.13877029148E+02  0.00000000000E+00 0.  1.
<mgrwt>
<rscale>  0 0.79747566E+02</rscale>
<asrwt>0</asrwt>
<pdfrwt beam="1">  1        2 0.16695586E-01 0.79747566E+02</pdfrwt>
<pdfrwt beam="2">  1       -1 0.22539616E-02 0.79747566E+02</pdfrwt>
<totfact> 0.18296532E+05</totfact>
</mgrwt>
</event>
<event>
 8    1  0.2389776E-016  0.7593121E+02  0.7818608E-02  0.1341011E+00
          2   -1    0    0  501    0  0.00000000000E+00  0.00000000000E+00  0.16573678141E+03  0.16573678143E+03  0.25500000000E-02 0. -1.
         -1   -1    0    0    0  501 -0.00000000000E+00 -0.00000000000E+00 -0.86968448705E+01  0.86968463309E+01  0.50400000000E-02 0.  1.
         24    2    1    2    0    0  0.00000000000E+00  0.00000000000E+00  0.15703993654E+03  0.17443362776E+03  0.75931211141E+02 0.  0.
         66    2    3    3    0    0  0.42352506692E+01  0.28886458358E+02  0.13423329218E+03  0.13738610401E+03  0.20000057190E+01 0.  0.
        -13    1    3    3    0    0 -0.42352506692E+01 -0.28886458358E+02  0.22806644365E+02  0.37047523749E+02  0.10566000000E+00 0.  1.
         13    1    4    4    0    0  0.76257696010E+00  0.56904558309E+01  0.25908467784E+02  0.26537194240E+02  0.10566000000E+00 0. -1.
        -13    1    4    4    0    0  0.28032994268E+01  0.21202670499E+02  0.96903056316E+02  0.99235201473E+02  0.10566000000E+00 0.  1.
        -14    1    4    4    0    0  0.66937428235E+00  0.19933320276E+01  0.11421768076E+02  0.11613708300E+02  0.00000000000E+00 0.  1.
<mgrwt>
<rscale>  0 0.75931211E+02</rscale>
<asrwt>0</asrwt>
<pdfrwt beam="1">  1        2 0.25497966E-01 0.75931211E+02</pdfrwt>
<pdfrwt beam="2">  1       -1 0.13379763E-02 0.75931211E+02</pdfrwt>
<totfact> 0.23752302E+05</totfact>
</mgrwt>
</event>
<event>
 8    1  0.2389776E-016  0.8817959E+02  0.7818608E-02  0.1307321E+00
         -1   -1    0    0    0  501 -0.00000000000E+00  0.00000000000E+00  0.23873350194E+02  0.23873350726E+02  0.50400000000E-02 0.  1.
          2   -1    0    0  501    0  0.00000000000E+00 -0.00000000000E+00 -0.81425940988E+02  0.81425941028E+02  0.25500000000E-02 0. -1.
         24    2    1    2    0    0  0.00000000000E+00  0.35527136788E-14 -0.57552590794E+02  0.10529929175E+03  0.88179590250E+02 0.  0.
         66    2    3    3    0    0 -0.36755183172E+02 -0.18404481337E+02 -0.47756429812E+02  0.63042406429E+02  0.19999991789E+01 0.  0.
        -13    1    3    3    0    0  0.36755183172E+02  0.18404481337E+02 -0.97961609819E+01  0.42256885324E+02  0.10566000000E+00 0.  1.
         13    1    4    4    0    0 -0.21359175996E+02 -0.10413935937E+02 -0.26282839481E+02  0.35432517214E+02  0.10566000000E+00 0. -1.
        -13    1    4    4    0    0 -0.19820192158E+01 -0.85800743856E+00 -0.26398273383E+01  0.34123934926E+01  0.10566000000E+00 0.  1.
        -14    1    4    4    0    0 -0.13413987960E+02 -0.71325379615E+01 -0.18833762993E+02  0.24197495722E+02  0.00000000000E+00 0.  1.
<mgrwt>
<rscale>  0 0.88179590E+02</rscale>
<asrwt>0</asrwt>
<pdfrwt beam="1">  1        2 0.12527068E-01 0.88179590E+02</pdfrwt>
<pdfrwt beam="2">  1       -1 0.36728232E-02 0.88179590E+02</pdfrwt>
<totfact> 0.12881366E+05</totfact>
</mgrwt>
</event>
<event>
 8    1  0.2389776E-016  0.7833398E+02  0.7818608E-02  0.1333847E+00
          2   -1    0    0  501    0  0.00000000000E+00  0.00000000000E+00  0.99706373731E+02  0.99706373763E+02  0.25500000000E-02 0. -1.
         -1   -1    0    0    0  501 -0.00000000000E+00 -0.00000000000E+00 -0.15385706845E+02  0.15385707671E+02  0.50400000000E-02 0.  1.
         24    2    1    2    0    0  0.00000000000E+00  0.35527136788E-14  0.84320666885E+02  0.11509208143E+03  0.78333979503E+02 0.  0.
         66    2    3    3    0    0  0.24815361055E+02 -0.20988696835E+02  0.74233548663E+02  0.81061379749E+02  0.20000001228E+01 0.  0.
        -13    1    3    3    0    0 -0.24815361055E+02  0.20988696835E+02  0.10087118222E+02  0.34030701685E+02  0.10566000000E+00 0.  1.
         13    1    4    4    0    0  0.67368628296E+00 -0.30774789894E+00  0.15752929696E+01  0.17439248702E+01  0.10566000000E+00 0. -1.
        -13    1    4    4    0    0  0.19959517314E+02 -0.17654777033E+02  0.61258931551E+02  0.66803752456E+02  0.10566000000E+00 0. -1.
         14    1    4    4    0    0  0.41821574580E+01 -0.30261719031E+01  0.11399324143E+02  0.12513702422E+02  0.00000000000E+00 0. -1.
<mgrwt>
<rscale>  0 0.78333980E+02</rscale>
<asrwt>0</asrwt>
<pdfrwt beam="1">  1        2 0.15339442E-01 0.78333980E+02</pdfrwt>
<pdfrwt beam="2">  1       -1 0.23670320E-02 0.78333980E+02</pdfrwt>
<totfact> 0.18737238E+05</totfact>
</mgrwt>
</event>
<event>
 8    1  0.2389776E-016  0.8022446E+02  0.7818608E-02  0.1328416E+00
         -1   -1    0    0    0  501 -0.00000000000E+00  0.00000000000E+00  0.72614131686E+02  0.72614131860E+02  0.50400000000E-02 0.  1.
          2   -1    0    0  501    0  0.00000000000E+00 -0.00000000000E+00 -0.22158096312E+02  0.22158096459E+02  0.25500000000E-02 0. -1.
         24    2    1    2    0    0  0.00000000000E+00  0.35527136788E-14  0.50456035373E+02  0.94772228320E+02  0.80224458584E+02 0.  0.
         66    2    3    3    0    0 -0.31592418588E+02 -0.22957980401E+02  0.35930437242E+02  0.53105047692E+02  0.19999984099E+01 0.  0.
        -13    1    3    3    0    0  0.31592418588E+02  0.22957980401E+02  0.14525598131E+02  0.41667180628E+02  0.10566000000E+00 0.  1.
         13    1    4    4    0    0 -0.14077104101E+02 -0.10546695529E+02  0.16930028357E+02  0.24413821304E+02  0.10566000000E+00 0. -1.
        -13    1    4    4    0    0 -0.69110924834E+01 -0.48213906398E+01  0.82076366843E+01  0.11763735418E+02  0.10566000000E+00 0.  1.
        -14    1    4    4    0    0 -0.10604222004E+02 -0.75898942323E+01  0.10792772200E+02  0.16927490970E+02  0.00000000000E+00 0.  1.
<mgrwt>
<rscale>  0 0.80224459E+02</rscale>
<asrwt>0</asrwt>
<pdfrwt beam="1">  1        2 0.34089379E-02 0.80224459E+02</pdfrwt>
<pdfrwt beam="2">  1       -1 0.11171405E-01 0.80224459E+02</pdfrwt>
<totfact> 0.12572756E+05</totfact>
</mgrwt>
</event>
<event>
 8    1  0.2389776E-016  0.8186435E+02  0.7818608E-02  0.1323842E+00
         -1   -1    0    0    0  501 -0.00000000000E+00  0.00000000000E+00  0.16588665472E+01  0.16588742035E+01  0.50400000000E-02 0.  1.
          2   -1    0    0  501    0  0.00000000000E+00 -0.00000000000E+00 -0.10099902266E+04  0.10099902266E+04  0.25500000000E-02 0. -1.
         24    2    1    2    0    0  0.00000000000E+00  0.00000000000E+00 -0.10083313601E+04  0.10116491008E+04  0.81864348146E+02 0.  0.
         66    2    3    3    0    0  0.79630410826E+01 -0.26689077397E+02 -0.87472489372E+03  0.87517047286E+03  0.20000006549E+01 0.  0.
        -13    1    3    3    0    0 -0.79630410826E+01  0.26689077397E+02 -0.13360646637E+03  0.13647862798E+03  0.10566000000E+00 0.  1.
         13    1    4    4    0    0  0.66750491381E+01 -0.22136904872E+02 -0.71999307331E+03  0.72036423816E+03  0.10566000000E+00 0. -1.
        -13    1    4    4    0    0  0.34530791418E+00 -0.13995921890E+01 -0.59597031687E+02  0.59614557331E+02  0.10566000000E+00 0.  1.
         14    1    4    4    0    0  0.94268403029E+00 -0.31525803356E+01 -0.95134788716E+02  0.95191677368E+02  0.00000000000E+00 0. -1.
<mgrwt>
<rscale>  0 0.81864348E+02</rscale>
<asrwt>0</asrwt>
<pdfrwt beam="1">  1        2 0.15538262E+00 0.81864348E+02</pdfrwt>
<pdfrwt beam="2">  1       -1 0.25521163E-03 0.81864348E+02</pdfrwt>
<totfact> 0.33196156E+05</totfact>
</mgrwt>
</event>
<event>
 8    1  0.2389776E-016  0.7864902E+02  0.7818608E-02  0.1332930E+00
         -1   -1    0    0    0  501 -0.00000000000E+00  0.00000000000E+00  0.37405685748E+02  0.37405686087E+02  0.50400000000E-02 0.  1.
          2   -1    0    0  501    0  0.00000000000E+00 -0.00000000000E+00 -0.41341767128E+02  0.41341767206E+02  0.25500000000E-02 0. -1.
         24    2    1    2    0    0  0.00000000000E+00  0.00000000000E+00 -0.39360813801E+01  0.78747453294E+02  0.78649022013E+02 0.  0.
         66    2    3    3    0    0  0.73086266607E+01 -0.17077517025E+02 -0.36644351849E+02  0.41132300329E+02  0.19999991355E+01 0.  0.
        -13    1    3    3    0    0 -0.73086266607E+01  0.17077517025E+02  0.32708270469E+02  0.37615152964E+02  0.10566000000E+00 0.  1.
         13    1    4    4    0    0  0.31589006481E+01 -0.65492624865E+01 -0.13886373888E+02  0.15675268298E+02  0.10566000000E+00 0. -1.
        -13    1    4    4    0    0  0.39684964394E+01 -0.90252419728E+01 -0.19009639159E+02  0.21414516143E+02  0.10566000000E+00 0.  1.
        -14    1    4    4    0    0  0.18122957316E+00 -0.15030125662E+01 -0.37483388021E+01  0.40425158884E+01  0.00000000000E+00 0.  1.
<mgrwt>
<rscale>  0 0.78649022E+02</rscale>
<asrwt>0</asrwt>
<pdfrwt beam="1">  1        2 0.63602719E-02 0.78649022E+02</pdfrwt>
<pdfrwt beam="2">  1       -1 0.57547209E-02 0.78649022E+02</pdfrwt>
<totfact> 0.15042521E+05</totfact>
</mgrwt>
</event>
<event>
 8    1  0.2389776E-016  0.8578345E+02  0.7818608E-02  0.1313396E+00
          2   -1    0    0  501    0  0.00000000000E+00  0.00000000000E+00  0.15041271702E+03  0.15041271705E+03  0.25500000000E-02 0. -1.
         -1   -1    0    0    0  501 -0.00000000000E+00 -0.00000000000E+00 -0.12231012405E+02  0.12231013443E+02  0.50400000000E-02 0.  1.
         24    2    1    2    0    0  0.00000000000E+00  0.00000000000E+00  0.13818170462E+03  0.16264373049E+03  0.85783445814E+02 0.  0.
         66    2    3    3    0    0 -0.18770080805E+02  0.30092664122E+02  0.11478209652E+03  0.12015329403E+03  0.20000040964E+01 0.  0.
        -13    1    3    3    0    0  0.18770080805E+02 -0.30092664122E+02  0.23399608096E+02  0.42490436459E+02  0.10566000000E+00 0.  1.
         13    1    4    4    0    0 -0.49936148357E+01  0.86886134179E+01  0.30317553258E+02  0.31931072513E+02  0.10566000000E+00 0. -1.
        -13    1    4    4    0    0 -0.43427602487E+01  0.69434668722E+01  0.25669939260E+02  0.26944911290E+02  0.10566000000E+00 0.  1.
        -14    1    4    4    0    0 -0.94337057203E+01  0.14460583832E+02  0.58794604006E+02  0.61277310227E+02  0.00000000000E+00 0.  1.
<mgrwt>
<rscale>  0 0.85783446E+02</rscale>
<asrwt>0</asrwt>
<pdfrwt beam="1">  1        2 0.23140419E-01 0.85783446E+02</pdfrwt>
<pdfrwt beam="2">  1       -1 0.18816942E-02 0.85783446E+02</pdfrwt>
<totfact> 0.16646710E+05</totfact>
</mgrwt>
</event>
<event>
 8    1  0.2389776E-016  0.7850035E+02  0.7818608E-02  0.1333362E+00
          2   -1    0    0  501    0  0.00000000000E+00  0.00000000000E+00  0.81673886779E+03  0.81673886779E+03  0.25500000000E-02 0. -1.
         -1   -1    0    0    0  501 -0.00000000000E+00 -0.00000000000E+00 -0.18862496829E+01  0.18862564163E+01  0.50400000000E-02 0.  1.
         24    2    1    2    0    0  0.00000000000E+00  0.00000000000E+00  0.81485261810E+03  0.81862512421E+03  0.78500348740E+02 0.  0.
         66    2    3    3    0    0 -0.21624708116E+02  0.11814514037E+02  0.72594295129E+03  0.72636380642E+03  0.20000010830E+01 0.  0.
        -13    1    3    3    0    0  0.21624708116E+02 -0.11814514037E+02  0.88909666811E+02  0.92261317785E+02  0.10566000000E+00 0.  1.
         13    1    4    4    0    0 -0.12070196120E+02  0.66099491052E+01  0.42972106191E+03  0.42994137190E+03  0.10566000000E+00 0. -1.
        -13    1    4    4    0    0 -0.88792723849E+01  0.48266774748E+01  0.26988300801E+03  0.27007218937E+03  0.10566000000E+00 0.  1.
        -14    1    4    4    0    0 -0.67523961140E+00  0.37788745650E+00  0.26338881372E+02  0.26350245149E+02  0.00000000000E+00 0.  1.
<mgrwt>
<rscale>  0 0.78500349E+02</rscale>
<asrwt>0</asrwt>
<pdfrwt beam="1">  1        2 0.12565246E+00 0.78500349E+02</pdfrwt>
<pdfrwt beam="2">  1       -1 0.29019203E-03 0.78500349E+02</pdfrwt>
<totfact> 0.36220706E+05</totfact>
</mgrwt>
</event>
<event>
 8    1  0.2389776E-016  0.7938069E+02  0.7818608E-02  0.1330818E+00
         -1   -1    0    0    0  501 -0.00000000000E+00  0.00000000000E+00  0.72407845347E+01  0.72407862888E+01  0.50400000000E-02 0.  1.
          2   -1    0    0  501    0  0.00000000000E+00 -0.00000000000E+00 -0.21756249075E+03  0.21756249076E+03  0.25500000000E-02 0. -1.
         24    2    1    2    0    0  0.00000000000E+00  0.17763568394E-14 -0.21032170621E+03  0.22480327705E+03  0.79380685741E+02 0.  0.
         66    2    3    3    0    0 -0.47937453961E+01  0.12725686369E+02 -0.21074974783E+03  0.21119748887E+03  0.20000014566E+01 0.  0.
        -13    1    3    3    0    0  0.47937453961E+01 -0.12725686369E+02  0.42804161360E+00  0.13605788185E+02  0.10566000000E+00 0.  1.
         13    1    4    4    0    0 -0.58539453974E+00  0.35290230549E+01 -0.62750990148E+02  0.62852960305E+02  0.10566000000E+00 0. -1.
        -13    1    4    4    0    0 -0.19215888993E+01  0.40967219070E+01 -0.63452921225E+02  0.63614149451E+02  0.10566000000E+00 0.  1.
         14    1    4    4    0    0 -0.22867619571E+01  0.50999414073E+01 -0.84545836454E+02  0.84730379111E+02  0.00000000000E+00 0. -1.
<mgrwt>
<rscale>  0 0.79380686E+02</rscale>
<asrwt>0</asrwt>
<pdfrwt beam="1">  1        2 0.33471147E-01 0.79380686E+02</pdfrwt>
<pdfrwt beam="2">  1       -1 0.11139672E-02 0.79380686E+02</pdfrwt>
<totfact> 0.23187601E+05</totfact>
</mgrwt>
</event>
<event>
 8    1  0.2389776E-016  0.8147052E+02  0.7818608E-02  0.1324929E+00
         -1   -1    0    0    0  501 -0.00000000000E+00  0.00000000000E+00  0.13520908462E+02  0.13520909401E+02  0.50400000000E-02 0.  1.
          2   -1    0    0  501    0  0.00000000000E+00 -0.00000000000E+00 -0.12272557195E+03  0.12272557197E+03  0.25500000000E-02 0. -1.
         24    2    1    2    0    0  0.00000000000E+00  0.00000000000E+00 -0.10920466349E+03  0.13624648138E+03  0.81470517122E+02 0.  0.
         66    2    3    3    0    0  0.26895203054E+02 -0.28137003090E+02 -0.34684923068E+02  0.52173621509E+02  0.20000007163E+01 0.  0.
        -13    1    3    3    0    0 -0.26895203054E+02  0.28137003090E+02 -0.74519740418E+02  0.84072859867E+02  0.10566000000E+00 0.  1.
         13    1    4    4    0    0  0.12950638963E+02 -0.13960565235E+02 -0.17782357523E+02  0.26054554963E+02  0.10566000000E+00 0. -1.
        -13    1    4    4    0    0  0.41080112526E+00 -0.63865018293E+00 -0.56090877831E+00  0.94995490096E+00  0.10566000000E+00 0.  1.
         14    1    4    4    0    0  0.13533762967E+02 -0.13537787672E+02 -0.16341656767E+02  0.25169111645E+02  0.00000000000E+00 0. -1.
<mgrwt>
<rscale>  0 0.81470517E+02</rscale>
<asrwt>0</asrwt>
<pdfrwt beam="1">  1        2 0.18880856E-01 0.81470517E+02</pdfrwt>
<pdfrwt beam="2">  1       -1 0.20801399E-02 0.81470517E+02</pdfrwt>
<totfact> 0.17920648E+05</totfact>
</mgrwt>
</event>
<event>
 8    1  0.2389776E-016  0.7835383E+02  0.7818608E-02  0.1333789E+00
          2   -1    0    0  501    0  0.00000000000E+00  0.00000000000E+00  0.19693515393E+03  0.19693515395E+03  0.25500000000E-02 0. -1.
         -1   -1    0    0    0  501 -0.00000000000E+00 -0.00000000000E+00 -0.77935821977E+01  0.77935838274E+01  0.50400000000E-02 0.  1.
         24    2    1    2    0    0  0.00000000000E+00  0.00000000000E+00  0.18914157173E+03  0.20472873777E+03  0.78353825134E+02 0.  0.
         66    2    3    3    0    0 -0.35774754562E+02 -0.92413003113E+01  0.12845769363E+03  0.13368101493E+03  0.20000013192E+01 0.  0.
        -13    1    3    3    0    0  0.35774754562E+02  0.92413003113E+01  0.60683878104E+02  0.71047722842E+02  0.10566000000E+00 0.  1.
         13    1    4    4    0    0 -0.13204363616E+01 -0.23629287041E+00  0.45925962572E+01  0.47856547016E+01  0.10566000000E+00 0.  1.
        -13    1    4    4    0    0 -0.93184238841E+00  0.14942254864E-01  0.29384730260E+01  0.30845325850E+01  0.10566000000E+00 0.  1.
         14    1    4    4    0    0 -0.33522475812E+02 -0.90199496957E+01  0.12092662435E+03  0.12581082764E+03  0.00000000000E+00 0. -1.
<mgrwt>
<rscale>  0 0.78353825E+02</rscale>
<asrwt>0</asrwt>
<pdfrwt beam="1">  1        2 0.30297715E-01 0.78353825E+02</pdfrwt>
<pdfrwt beam="2">  1       -1 0.11990128E-02 0.78353825E+02</pdfrwt>
<totfact> 0.23177092E+05</totfact>
</mgrwt>
</event>
<event>
 8    1  0.2389776E-016  0.7996987E+02  0.7818608E-02  0.1329137E+00
         -1   -1    0    0    0  501 -0.00000000000E+00  0.00000000000E+00  0.51037408973E+01  0.51037433858E+01  0.50400000000E-02 0.  1.
          2   -1    0    0  501    0  0.00000000000E+00 -0.00000000000E+00 -0.31325934272E+03  0.31325934273E+03  0.25500000000E-02 0. -1.
         24    2    1    2    0    0  0.00000000000E+00  0.00000000000E+00 -0.30815560182E+03  0.31836308612E+03  0.79969867242E+02 0.  0.
         66    2    3    3    0    0  0.22426560954E+02 -0.33010717502E+02 -0.16226614120E+03  0.16711361012E+03  0.19999997765E+01 0.  0.
        -13    1    3    3    0    0 -0.22426560954E+02  0.33010717502E+02 -0.14588946062E+03  0.15124947600E+03  0.10566000000E+00 0.  1.
         13    1    4    4    0    0  0.11472889925E+02 -0.17154691444E+02 -0.86359204047E+02  0.88790956349E+02  0.10566000000E+00 0. -1.
        -13    1    4    4    0    0  0.50893296637E+01 -0.69826935098E+01 -0.36013868284E+02  0.37036052137E+02  0.10566000000E+00 0.  1.
        -14    1    4    4    0    0  0.58643413655E+01 -0.88733325481E+01 -0.39893068872E+02  0.41286601631E+02  0.00000000000E+00 0.  1.
<mgrwt>
<rscale>  0 0.79969867E+02</rscale>
<asrwt>0</asrwt>
<pdfrwt beam="1">  1        2 0.48193730E-01 0.79969867E+02</pdfrwt>
<pdfrwt beam="2">  1       -1 0.78519134E-03 0.79969867E+02</pdfrwt>
<totfact> 0.25922015E+05</totfact>
</mgrwt>
</event>
<event>
 8    1  0.2389776E-016  0.8037605E+02  0.7818608E-02  0.1327988E+00
         -1   -1    0    0    0  501 -0.00000000000E+00  0.00000000000E+00  0.84007109348E+00  0.84008621207E+00  0.50400000000E-02 0.  1.
          2   -1    0    0  501    0  0.00000000000E+00 -0.00000000000E+00 -0.19225311148E+04  0.19225311148E+04  0.25500000000E-02 0. -1.
         24    2    1    2    0    0  0.00000000000E+00  0.00000000000E+00 -0.19216910437E+04  0.19233712010E+04  0.80376050085E+02 0.  0.
         66    2    3    3    0    0 -0.41546996020E+01  0.16879762266E+02 -0.18278392186E+04  0.18279229735E+04  0.19999890496E+01 0.  0.
        -13    1    3    3    0    0  0.41546996020E+01 -0.16879762266E+02 -0.93851825138E+02  0.95448227583E+02  0.10566000000E+00 0.  1.
         13    1    4    4    0    0 -0.12488832484E+00  0.28654933723E+01 -0.30766341913E+03  0.30767680654E+03  0.10566000000E+00 0. -1.
        -13    1    4    4    0    0 -0.19461156185E+01  0.56419589122E+01 -0.57428774342E+03  0.57431876382E+03  0.10566000000E+00 0.  1.
         14    1    4    4    0    0 -0.20836956586E+01  0.83723099819E+01 -0.94588805604E+03  0.94592740309E+03  0.00000000000E+00 0. -1.
<mgrwt>
<rscale>  0 0.80376050E+02</rscale>
<asrwt>0</asrwt>
<pdfrwt beam="1">  1        2 0.29577050E+00 0.80376050E+02</pdfrwt>
<pdfrwt beam="2">  1       -1 0.12924441E-03 0.80376050E+02</pdfrwt>
<totfact> 0.28394090E+05</totfact>
</mgrwt>
</event>
<event>
 8    1  0.2389776E-016  0.7930876E+02  0.7818608E-02  0.1331025E+00
         -1   -1    0    0    0  501 -0.00000000000E+00  0.00000000000E+00  0.75714405240E+01  0.75714422014E+01  0.50400000000E-02 0.  1.
          2   -1    0    0  501    0  0.00000000000E+00 -0.00000000000E+00 -0.20768437106E+03  0.20768437108E+03  0.25500000000E-02 0. -1.
         24    2    1    2    0    0 -0.35527136788E-14 -0.35527136788E-14 -0.20011293054E+03  0.21525581328E+03  0.79308764850E+02 0.  0.
         66    2    3    3    0    0 -0.22847108977E+02 -0.30240818890E+02 -0.13153466425E+03  0.13690093285E+03  0.20000001161E+01 0.  0.
        -13    1    3    3    0    0  0.22847108977E+02  0.30240818890E+02 -0.68578266290E+02  0.78354880429E+02  0.10566000000E+00 0.  1.
         13    1    4    4    0    0 -0.89423422676E+01 -0.13270058465E+02 -0.55581381180E+02  0.57839096076E+02  0.10566000000E+00 0. -1.
        -13    1    4    4    0    0 -0.12618250802E+02 -0.15539885801E+02 -0.69921704507E+02  0.72730765356E+02  0.10566000000E+00 0.  1.
        -14    1    4    4    0    0 -0.12865159070E+01 -0.14308746239E+01 -0.60315785639E+01  0.63310714212E+01  0.00000000000E+00 0.  1.
<mgrwt>
<rscale>  0 0.79308765E+02</rscale>
<asrwt>0</asrwt>
<pdfrwt beam="1">  1        2 0.31951437E-01 0.79308765E+02</pdfrwt>
<pdfrwt beam="2">  1       -1 0.11648373E-02 0.79308765E+02</pdfrwt>
<totfact> 0.22867397E+05</totfact>
</mgrwt>
</event>
<event>
 8    1  0.2389776E-016  0.8001721E+02  0.7818608E-02  0.1329003E+00
         -1   -1    0    0    0  501 -0.00000000000E+00  0.00000000000E+00  0.81964174868E+01  0.81964190364E+01  0.50400000000E-02 0.  1.
          2   -1    0    0  501    0  0.00000000000E+00 -0.00000000000E+00 -0.19529119513E+03  0.19529119515E+03  0.25500000000E-02 0. -1.
         24    2    1    2    0    0  0.00000000000E+00  0.00000000000E+00 -0.18709477765E+03  0.20348761419E+03  0.80017206304E+02 0.  0.
         66    2    3    3    0    0  0.16987136897E+02  0.36192163902E+02 -0.92339708063E+02  0.10064321753E+03  0.20000004312E+01 0.  0.
        -13    1    3    3    0    0 -0.16987136897E+02 -0.36192163902E+02 -0.94755069585E+02  0.10284439666E+03  0.10566000000E+00 0.  1.
         13    1    4    4    0    0  0.58967322887E+01  0.13974279350E+02 -0.36685321459E+02  0.39697303556E+02  0.10566000000E+00 0. -1.
        -13    1    4    4    0    0  0.31526107181E+01  0.68722204140E+01 -0.16735693937E+02  0.18364666710E+02  0.10566000000E+00 0. -1.
         14    1    4    4    0    0  0.79377938901E+01  0.15345664139E+02 -0.38918692667E+02  0.42581247265E+02  0.00000000000E+00 0. -1.
<mgrwt>
<rscale>  0 0.80017206E+02</rscale>
<asrwt>0</asrwt>
<pdfrwt beam="1">  1        2 0.30044796E-01 0.80017206E+02</pdfrwt>
<pdfrwt beam="2">  1       -1 0.12609876E-02 0.80017206E+02</pdfrwt>
<totfact> 0.21864801E+05</totfact>
</mgrwt>
</event>
<event>
 8    1  0.2389776E-016  0.7980668E+02  0.7818608E-02  0.1329601E+00
         -1   -1    0    0    0  501 -0.00000000000E+00  0.00000000000E+00  0.30692377356E+02  0.30692377770E+02  0.50400000000E-02 0.  1.
          2   -1    0    0  501    0  0.00000000000E+00 -0.00000000000E+00 -0.51878560483E+02  0.51878560545E+02  0.25500000000E-02 0. -1.
         24    2    1    2    0    0  0.35527136788E-14  0.88817841970E-15 -0.21186183127E+02  0.82570938315E+02  0.79806675778E+02 0.  0.
         66    2    3    3    0    0 -0.17737486220E+02  0.61634228217E+01 -0.46998736999E+02  0.50650642268E+02  0.20000210827E+01 0.  0.
        -13    1    3    3    0    0  0.17737486220E+02 -0.61634228217E+01  0.25812553872E+02  0.31920296047E+02  0.10566000000E+00 0.  1.
         13    1    4    4    0    0 -0.14978600254E+01  0.17979677217E+00 -0.44883623834E+01  0.47362931133E+01  0.10566000000E+00 0. -1.
        -13    1    4    4    0    0 -0.32586594101E+01  0.84638871455E+00 -0.74155530566E+01  0.81447422413E+01  0.10566000000E+00 0.  1.
        -14    1    4    4    0    0 -0.12980966785E+02  0.51372373349E+01 -0.35094821559E+02  0.37769606913E+02  0.00000000000E+00 0.  1.
<mgrwt>
<rscale>  0 0.79806676E+02</rscale>
<asrwt>0</asrwt>
<pdfrwt beam="1">  1        2 0.79813170E-02 0.79806676E+02</pdfrwt>
<pdfrwt beam="2">  1       -1 0.47219043E-02 0.79806676E+02</pdfrwt>
<totfact> 0.15164142E+05</totfact>
</mgrwt>
</event>
<event>
 8    1  0.2389776E-016  0.8150172E+02  0.7818608E-02  0.1324843E+00
         -1   -1    0    0    0  501 -0.00000000000E+00  0.00000000000E+00  0.41698223573E+02  0.41698223877E+02  0.50400000000E-02 0.  1.
          2   -1    0    0  501    0  0.00000000000E+00 -0.00000000000E+00 -0.39825016961E+02  0.39825017042E+02  0.25500000000E-02 0. -1.
         24    2    1    2    0    0 -0.35527136788E-14  0.00000000000E+00  0.18732066119E+01  0.81523240919E+02  0.81501717203E+02 0.  0.
         66    2    3    3    0    0  0.22495854359E+02  0.33275864493E+02 -0.57937176770E+01  0.40631438401E+02  0.20000002103E+01 0.  0.
        -13    1    3    3    0    0 -0.22495854359E+02 -0.33275864493E+02  0.76669242890E+01  0.40891802519E+02  0.10566000000E+00 0.  1.
         13    1    4    4    0    0  0.29215580299E+01  0.48418626719E+01 -0.57837692295E+00  0.56854920065E+01  0.10566000000E+00 0. -1.
        -13    1    4    4    0    0  0.17463784570E+02  0.25780197948E+02 -0.43020964983E+01  0.31434401156E+02  0.10566000000E+00 0.  1.
        -14    1    4    4    0    0  0.21105117592E+01  0.26538038739E+01 -0.91324425583E+00  0.35115452379E+01  0.00000000000E+00 0.  1.
<mgrwt>
<rscale>  0 0.81501717E+02</rscale>
<asrwt>0</asrwt>
<pdfrwt beam="1">  1        2 0.61269257E-02 0.81501717E+02</pdfrwt>
<pdfrwt beam="2">  1       -1 0.64151114E-02 0.81501717E+02</pdfrwt>
<totfact> 0.13527498E+05</totfact>
</mgrwt>
</event>
<event>
 8    1  0.2389776E-016  0.7837569E+02  0.7818608E-02  0.1333725E+00
         -1   -1    0    0    0  501 -0.00000000000E+00  0.00000000000E+00  0.70759331262E+00  0.70761126169E+00  0.50400000000E-02 0.  1.
          2   -1    0    0  501    0  0.00000000000E+00 -0.00000000000E+00 -0.21702686701E+04  0.21702686701E+04  0.25500000000E-02 0. -1.
         24    2    1    2    0    0  0.00000000000E+00  0.88817841970E-15 -0.21695610768E+04  0.21709762814E+04  0.78375687115E+02 0.  0.
         66    2    3    3    0    0 -0.74642895360E+01 -0.78450084513E+01 -0.21279706478E+04  0.21279991395E+04  0.20000020924E+01 0.  0.
        -13    1    3    3    0    0  0.74642895360E+01  0.78450084513E+01 -0.41590428962E+02  0.42977141845E+02  0.10566000000E+00 0.  1.
         13    1    4    4    0    0 -0.28274486195E+01 -0.37917683909E+01 -0.82259465640E+03  0.82260826149E+03  0.10566000000E+00 0. -1.
        -13    1    4    4    0    0 -0.46481745545E+01 -0.38662646722E+01 -0.12667459096E+04  0.12667603420E+04  0.10566000000E+00 0.  1.
        -14    1    4    4    0    0  0.11333638006E-01 -0.18697538827E+00 -0.38630081888E+02  0.38630536043E+02  0.00000000000E+00 0.  1.
<mgrwt>
<rscale>  0 0.78375687E+02</rscale>
<asrwt>0</asrwt>
<pdfrwt beam="1">  1        2 0.33388216E+00 0.78375687E+02</pdfrwt>
<pdfrwt beam="2">  1       -1 0.10886363E-03 0.78375687E+02</pdfrwt>
<totfact> 0.26912610E+05</totfact>
</mgrwt>
</event>
<event>
 8    1  0.2389776E-016  0.8362476E+02  0.7818608E-02  0.1319069E+00
          2   -1    0    0  501    0  0.00000000000E+00  0.00000000000E+00  0.14994948245E+02  0.14994948462E+02  0.25500000000E-02 0. -1.
         -1   -1    0    0    0  501 -0.00000000000E+00 -0.00000000000E+00 -0.11659093069E+03  0.11659093080E+03  0.50400000000E-02 0.  1.
         24    2    1    2    0    0  0.17763568394E-14  0.35527136788E-14 -0.10159598245E+03  0.13158587926E+03  0.83624756933E+02 0.  0.
         66    2    3    3    0    0  0.15672565679E+02  0.29065273196E+02 -0.10529581002E+02  0.34717308214E+02  0.19999981666E+01 0.  0.
        -13    1    3    3    0    0 -0.15672565679E+02 -0.29065273196E+02 -0.91066401447E+02  0.96868571051E+02  0.10566000000E+00 0.  1.
         13    1    4    4    0    0  0.57275144740E+01  0.10237885796E+02 -0.30016140029E+01  0.12109482990E+02  0.10566000000E+00 0. -1.
        -13    1    4    4    0    0  0.54065471374E+01  0.92425816660E+01 -0.35531366391E+01  0.11282376160E+02  0.10566000000E+00 0.  1.
        -14    1    4    4    0    0  0.45385040674E+01  0.95848057337E+01 -0.39748303602E+01  0.11325449065E+02  0.00000000000E+00 0.  1.
<mgrwt>
<rscale>  0 0.83624757E+02</rscale>
<asrwt>0</asrwt>
<pdfrwt beam="1">  1        2 0.23069152E-02 0.83624757E+02</pdfrwt>
<pdfrwt beam="2">  1       -1 0.17937066E-01 0.83624757E+02</pdfrwt>
<totfact> 0.10254233E+05</totfact>
</mgrwt>
</event>
<event>
 8    1  0.2389776E-016  0.8029474E+02  0.7818608E-02  0.1328217E+00
          2   -1    0    0  501    0  0.00000000000E+00  0.00000000000E+00  0.34942409741E+02  0.34942409834E+02  0.25500000000E-02 0. -1.
         -1   -1    0    0    0  501 -0.00000000000E+00 -0.00000000000E+00 -0.46127650181E+02  0.46127650456E+02  0.50400000000E-02 0.  1.
         24    2    1    2    0    0  0.27755575616E-16  0.00000000000E+00 -0.11185240439E+02  0.81070060291E+02  0.80294738756E+02 0.  0.
         66    2    3    3    0    0  0.24798104999E+00  0.22698336360E+02  0.27807060736E+02  0.35951475615E+02  0.20000010024E+01 0.  0.
        -13    1    3    3    0    0 -0.24798104999E+00 -0.22698336360E+02 -0.38992301176E+02  0.45118584675E+02  0.10566000000E+00 0.  1.
         13    1    4    4    0    0  0.27564432717E-01  0.10088477978E+02  0.12166629351E+02  0.15805574381E+02  0.10566000000E+00 0. -1.
        -13    1    4    4    0    0  0.50414360161E-01  0.10341723400E+02  0.11880579463E+02  0.15751606803E+02  0.10566000000E+00 0.  1.
        -14    1    4    4    0    0  0.17000225711E+00  0.22681349818E+01  0.37598519227E+01  0.43942944307E+01  0.00000000000E+00 0.  1.
<mgrwt>
<rscale>  0 0.80294739E+02</rscale>
<asrwt>0</asrwt>
<pdfrwt beam="1">  1        2 0.53757553E-02 0.80294739E+02</pdfrwt>
<pdfrwt beam="2">  1       -1 0.70965617E-02 0.80294739E+02</pdfrwt>
<totfact> 0.13728223E+05</totfact>
</mgrwt>
</event>
<event>
 8    1  0.2389776E-016  0.8500014E+02  0.7818608E-02  0.1315432E+00
         -1   -1    0    0    0  501 -0.00000000000E+00  0.00000000000E+00  0.10472095873E+03  0.10472095886E+03  0.50400000000E-02 0.  1.
          2   -1    0    0  501    0  0.00000000000E+00 -0.00000000000E+00 -0.17248277112E+02  0.17248277300E+02  0.25500000000E-02 0. -1.
         24    2    1    2    0    0  0.00000000000E+00  0.00000000000E+00  0.87472681622E+02  0.12196923616E+03  0.85000144342E+02 0.  0.
         66    2    3    3    0    0  0.36090302065E+02  0.18237861883E+02  0.25099690798E+02  0.47635322915E+02  0.20000004778E+01 0.  0.
        -13    1    3    3    0    0 -0.36090302065E+02 -0.18237861883E+02  0.62372990824E+02  0.74333913240E+02  0.10566000000E+00 0.  1.
         13    1    4    4    0    0  0.15248703141E+01  0.86834953267E+00  0.10581184830E+01  0.20518379920E+01  0.10566000000E+00 0. -1.
        -13    1    4    4    0    0  0.33878009479E+02  0.16945822865E+02  0.23214181735E+02  0.44427354597E+02  0.10566000000E+00 0.  1.
        -14    1    4    4    0    0  0.68742227158E+00  0.42368948465E+00  0.82739058012E+00  0.11561303261E+01  0.00000000000E+00 0.  1.
<mgrwt>
<rscale>  0 0.85000144E+02</rscale>
<asrwt>0</asrwt>
<pdfrwt beam="1">  1        2 0.26535811E-02 0.85000144E+02</pdfrwt>
<pdfrwt beam="2">  1       -1 0.16110917E-01 0.85000144E+02</pdfrwt>
<totfact> 0.10087016E+05</totfact>
</mgrwt>
</event>
<event>
 8    1  0.2389776E-016  0.8005252E+02  0.7818608E-02  0.1328902E+00
         -1   -1    0    0    0  501 -0.00000000000E+00  0.00000000000E+00  0.17807582346E+01  0.17807653668E+01  0.50400000000E-02 0.  1.
          2   -1    0    0  501    0  0.00000000000E+00 -0.00000000000E+00 -0.89967187092E+03  0.89967187092E+03  0.25500000000E-02 0. -1.
         24    2    1    2    0    0  0.35527136788E-14 -0.17763568394E-14 -0.89789111268E+03  0.90145263629E+03  0.80052515485E+02 0.  0.
         66    2    3    3    0    0 -0.29428691733E+02  0.90832526764E+01 -0.73665987320E+03  0.73730612513E+03  0.19999985025E+01 0.  0.
        -13    1    3    3    0    0  0.29428691733E+02 -0.90832526764E+01 -0.16123123948E+03  0.16414651116E+03  0.10566000000E+00 0.  1.
         13    1    4    4    0    0 -0.13982004045E+02  0.52656970733E+01 -0.35948059491E+03  0.35979095776E+03  0.10566000000E+00 0. -1.
        -13    1    4    4    0    0 -0.11111412929E+02  0.29998273843E+01 -0.27227296129E+03  0.27251612627E+03  0.10566000000E+00 0.  1.
         14    1    4    4    0    0 -0.43352747586E+01  0.81772821890E+00 -0.10490631700E+03  0.10499904111E+03  0.00000000000E+00 0. -1.
<mgrwt>
<rscale>  0 0.80052515E+02</rscale>
<asrwt>0</asrwt>
<pdfrwt beam="1">  1        2 0.13841069E+00 0.80052515E+02</pdfrwt>
<pdfrwt beam="2">  1       -1 0.27396407E-03 0.80052515E+02</pdfrwt>
<totfact> 0.34885655E+05</totfact>
</mgrwt>
</event>
<event>
 8    1  0.2389776E-016  0.7989898E+02  0.7818608E-02  0.1329338E+00
         -1   -1    0    0    0  501 -0.00000000000E+00  0.00000000000E+00  0.46462472203E+01  0.46462499539E+01  0.50400000000E-02 0.  1.
          2   -1    0    0  501    0  0.00000000000E+00 -0.00000000000E+00 -0.34349469010E+03  0.34349469011E+03  0.25500000000E-02 0. -1.
         24    2    1    2    0    0  0.00000000000E+00  0.00000000000E+00 -0.33884844288E+03  0.34814094006E+03  0.79898979382E+02 0.  0.
         66    2    3    3    0    0 -0.37664471219E+02 -0.72140745118E+01 -0.21791366905E+03  0.22127137733E+03  0.20000007027E+01 0.  0.
        -13    1    3    3    0    0  0.37664471219E+02  0.72140745118E+01 -0.12093477383E+03  0.12686956273E+03  0.10566000000E+00 0.  1.
         13    1    4    4    0    0 -0.20497134676E+02 -0.32459175717E+01 -0.11620816320E+03  0.11804667242E+03  0.10566000000E+00 0. -1.
        -13    1    4    4    0    0 -0.61023556144E+01 -0.15146723072E+01 -0.38821503232E+02  0.39327512678E+02  0.10566000000E+00 0.  1.
        -14    1    4    4    0    0 -0.11064980928E+02 -0.24534846328E+01 -0.62884002620E+02  0.63897192233E+02  0.00000000000E+00 0.  1.
<mgrwt>
<rscale>  0 0.79898979E+02</rscale>
<asrwt>0</asrwt>
<pdfrwt beam="1">  1        2 0.52845317E-01 0.79898979E+02</pdfrwt>
<pdfrwt beam="2">  1       -1 0.71480775E-03 0.79898979E+02</pdfrwt>
<totfact> 0.26858077E+05</totfact>
</mgrwt>
</event>
<event>
 8    1  0.2389776E-016  0.8005197E+02  0.7818608E-02  0.1328904E+00
         -1   -1    0    0    0  501 -0.00000000000E+00  0.00000000000E+00  0.15353917696E+02  0.15353918523E+02  0.50400000000E-02 0.  1.
          2   -1    0    0  501    0  0.00000000000E+00 -0.00000000000E+00 -0.10434335232E+03  0.10434335235E+03  0.25500000000E-02 0. -1.
         24    2    1    2    0    0  0.00000000000E+00 -0.35527136788E-14 -0.88989434621E+02  0.11969727087E+03  0.80051965497E+02 0.  0.
         66    2    3    3    0    0 -0.29088710433E+02  0.24735145854E+02 -0.62346194158E+02  0.73137052429E+02  0.19999992079E+01 0.  0.
        -13    1    3    3    0    0  0.29088710433E+02 -0.24735145854E+02 -0.26643240463E+02  0.46560218443E+02  0.10566000000E+00 0.  1.
         13    1    4    4    0    0 -0.10935335503E+02  0.95671682877E+01 -0.24362006649E+02  0.28366014941E+02  0.10566000000E+00 0. -1.
        -13    1    4    4    0    0 -0.16966662449E+01  0.13946742015E+01 -0.43436293386E+01  0.48684774151E+01  0.10566000000E+00 0.  1.
        -14    1    4    4    0    0 -0.16456708685E+02  0.13773303365E+02 -0.33640558171E+02  0.39902560073E+02  0.00000000000E+00 0.  1.
<mgrwt>
<rscale>  0 0.80051965E+02</rscale>
<asrwt>0</asrwt>
<pdfrwt beam="1">  1        2 0.16052823E-01 0.80051965E+02</pdfrwt>
<pdfrwt beam="2">  1       -1 0.23621413E-02 0.80051965E+02</pdfrwt>
<totfact> 0.17908607E+05</totfact>
</mgrwt>
</event>
<event>
 8    1  0.2389776E-016  0.8095646E+02  0.7818608E-02  0.1326359E+00
          2   -1    0    0  501    0  0.00000000000E+00  0.00000000000E+00  0.58658422809E+03  0.58658422809E+03  0.25500000000E-02 0. -1.
         -1   -1    0    0    0  501 -0.00000000000E+00 -0.00000000000E+00 -0.27932656265E+01  0.27932701734E+01  0.50400000000E-02 0.  1.
         24    2    1    2    0    0  0.00000000000E+00  0.00000000000E+00  0.58379096246E+03  0.58937749826E+03  0.80956455034E+02 0.  0.
         66    2    3    3    0    0  0.17566562615E+02 -0.18838463175E+02  0.51916456329E+03  0.51980699841E+03  0.19999997381E+01 0.  0.
        -13    1    3    3    0    0 -0.17566562615E+02  0.18838463175E+02  0.64626399164E+02  0.69570499854E+02  0.10566000000E+00 0.  1.
         13    1    4    4    0    0  0.47065754861E+01 -0.46663814713E+01  0.13926190244E+03  0.13941956679E+03  0.10566000000E+00 0.  1.
        -13    1    4    4    0    0  0.41782358000E+01 -0.55061603382E+01  0.12898439907E+03  0.12916950810E+03  0.10566000000E+00 0. -1.
         14    1    4    4    0    0  0.86817513289E+01 -0.86659213656E+01  0.25091826179E+03  0.25121792352E+03  0.00000000000E+00 0. -1.
<mgrwt>
<rscale>  0 0.80956455E+02</rscale>
<asrwt>0</asrwt>
<pdfrwt beam="1">  1        2 0.90243860E-01 0.80956455E+02</pdfrwt>
<pdfrwt beam="2">  1       -1 0.42973289E-03 0.80956455E+02</pdfrwt>
<totfact> 0.30985553E+05</totfact>
</mgrwt>
</event>
<event>
 8    1  0.2389776E-016  0.7682221E+02  0.7818608E-02  0.1338319E+00
          2   -1    0    0  501    0  0.00000000000E+00  0.00000000000E+00  0.59211332132E+03  0.59211332133E+03  0.25500000000E-02 0. -1.
         -1   -1    0    0    0  501 -0.00000000000E+00 -0.00000000000E+00 -0.24917723611E+01  0.24917774582E+01  0.50400000000E-02 0.  1.
         24    2    1    2    0    0  0.35527136788E-14  0.00000000000E+00  0.58962154896E+03  0.59460509879E+03  0.76822213603E+02 0.  0.
         66    2    3    3    0    0 -0.29716423803E+02  0.16512206488E+02  0.43296685439E+03  0.43430405917E+03  0.20000011026E+01 0.  0.
        -13    1    3    3    0    0  0.29716423803E+02 -0.16512206488E+02  0.15665469458E+03  0.16030103962E+03  0.10566000000E+00 0.  1.
         13    1    4    4    0    0 -0.49068382826E+01  0.26781138692E+01  0.71850520888E+02  0.72067731141E+02  0.10566000000E+00 0. -1.
        -13    1    4    4    0    0 -0.43964200006E+01  0.22004060331E+01  0.54772069598E+02  0.54992372813E+02  0.10566000000E+00 0.  1.
        -14    1    4    4    0    0 -0.20413165520E+02  0.11633686586E+02  0.30634426390E+03  0.30724395521E+03  0.00000000000E+00 0.  1.
<mgrwt>
<rscale>  0 0.76822214E+02</rscale>
<asrwt>0</asrwt>
<pdfrwt beam="1">  1        2 0.91094405E-01 0.76822214E+02</pdfrwt>
<pdfrwt beam="2">  1       -1 0.38334979E-03 0.76822214E+02</pdfrwt>
<totfact> 0.35601849E+05</totfact>
</mgrwt>
</event>
<event>
 8    1  0.2389776E-016  0.7897893E+02  0.7818608E-02  0.1331974E+00
         -1   -1    0    0    0  501 -0.00000000000E+00  0.00000000000E+00  0.90250259462E+01  0.90250273534E+01  0.50400000000E-02 0.  1.
          2   -1    0    0  501    0  0.00000000000E+00 -0.00000000000E+00 -0.17278818329E+03  0.17278818331E+03  0.25500000000E-02 0. -1.
         24    2    1    2    0    0  0.00000000000E+00 -0.35527136788E-14 -0.16376315734E+03  0.18181321066E+03  0.78978933065E+02 0.  0.
         66    2    3    3    0    0  0.20408079626E+02  0.29225208375E+02 -0.42947668230E+02  0.55848945521E+02  0.19999977261E+01 0.  0.
        -13    1    3    3    0    0 -0.20408079626E+02 -0.29225208375E+02 -0.12081548911E+03  0.12596426514E+03  0.10566000000E+00 0.  1.
         13    1    4    4    0    0  0.97362555846E+01  0.13763969263E+02 -0.20506181783E+02  0.26547244265E+02  0.10566000000E+00 0. -1.
        -13    1    4    4    0    0  0.69232832034E+01  0.89884011925E+01 -0.14085813130E+02  0.18087136364E+02  0.10566000000E+00 0.  1.
        -14    1    4    4    0    0  0.37485408379E+01  0.64728379190E+01 -0.83556733173E+01  0.11214564892E+02  0.00000000000E+00 0.  1.
<mgrwt>
<rscale>  0 0.78978933E+02</rscale>
<asrwt>0</asrwt>
<pdfrwt beam="1">  1        2 0.26582795E-01 0.78978933E+02</pdfrwt>
<pdfrwt beam="2">  1       -1 0.13884658E-02 0.78978933E+02</pdfrwt>
<totfact> 0.21708070E+05</totfact>
</mgrwt>
</event>
<event>
 8    1  0.2389776E-016  0.8055783E+02  0.7818608E-02  0.1327476E+00
         -1   -1    0    0    0  501 -0.00000000000E+00  0.00000000000E+00  0.88970675581E+01  0.88970689856E+01  0.50400000000E-02 0.  1.
          2   -1    0    0  501    0  0.00000000000E+00 -0.00000000000E+00 -0.18235118486E+03  0.18235118487E+03  0.25500000000E-02 0. -1.
         24    2    1    2    0    0  0.00000000000E+00  0.00000000000E+00 -0.17345411730E+03  0.19124825386E+03  0.80557828898E+02 0.  0.
         66    2    3    3    0    0  0.16012819928E+02  0.62843610333E+01 -0.17318018203E+03  0.17404389975E+03  0.19999994282E+01 0.  0.
        -13    1    3    3    0    0 -0.16012819928E+02 -0.62843610333E+01 -0.27393526809E+00  0.17204354106E+02  0.10566000000E+00 0.  1.
         13    1    4    4    0    0  0.68814530219E+01  0.28573752219E+01 -0.73595128642E+02  0.73971434437E+02  0.10566000000E+00 0. -1.
        -13    1    4    4    0    0  0.81009994765E+01  0.28926773380E+01 -0.82267266611E+02  0.82715827351E+02  0.10566000000E+00 0.  1.
        -14    1    4    4    0    0  0.10303674297E+01  0.53430847345E+00 -0.17317786778E+02  0.17356637966E+02  0.00000000000E+00 0.  1.
<mgrwt>
<rscale>  0 0.80557829E+02</rscale>
<asrwt>0</asrwt>
<pdfrwt beam="1">  1        2 0.28054026E-01 0.80557829E+02</pdfrwt>
<pdfrwt beam="2">  1       -1 0.13687799E-02 0.80557829E+02</pdfrwt>
<totfact> 0.20979518E+05</totfact>
</mgrwt>
</event>
<event>
 8    1  0.2389776E-016  0.7740123E+02  0.7818608E-02  0.1336592E+00
          2   -1    0    0  501    0  0.00000000000E+00  0.00000000000E+00  0.97632110346E+03  0.97632110346E+03  0.25500000000E-02 0. -1.
         -1   -1    0    0    0  501 -0.00000000000E+00 -0.00000000000E+00 -0.15340582263E+01  0.15340665055E+01  0.50400000000E-02 0.  1.
         24    2    1    2    0    0  0.00000000000E+00  0.00000000000E+00  0.97478704523E+03  0.97785516997E+03  0.77401226601E+02 0.  0.
         66    2    3    3    0    0 -0.90752256367E+01  0.27462370766E+02  0.81208180159E+03  0.81259915948E+03  0.19999977029E+01 0.  0.
        -13    1    3    3    0    0  0.90752256367E+01 -0.27462370766E+02  0.16270524364E+03  0.16525601049E+03  0.10566000000E+00 0.  1.
         13    1    4    4    0    0 -0.40232844157E+01  0.11789695795E+02  0.33473811688E+03  0.33496985207E+03  0.10566000000E+00 0. -1.
        -13    1    4    4    0    0 -0.18568440206E+01  0.41346967267E+01  0.12397998303E+03  0.12406285078E+03  0.10566000000E+00 0.  1.
        -14    1    4    4    0    0 -0.31950972005E+01  0.11537978244E+02  0.35336370168E+03  0.35356645663E+03  0.00000000000E+00 0.  1.
<mgrwt>
<rscale>  0 0.77401227E+02</rscale>
<asrwt>0</asrwt>
<pdfrwt beam="1">  1        2 0.15020329E+00 0.77401227E+02</pdfrwt>
<pdfrwt beam="2">  1       -1 0.23600952E-03 0.77401227E+02</pdfrwt>
<totfact> 0.38333369E+05</totfact>
</mgrwt>
</event>
<event>
 8    1  0.2389776E-016  0.7998458E+02  0.7818608E-02  0.1329095E+00
         -1   -1    0    0    0  501 -0.00000000000E+00  0.00000000000E+00  0.27591756027E+02  0.27591756488E+02  0.50400000000E-02 0.  1.
          2   -1    0    0  501    0  0.00000000000E+00 -0.00000000000E+00 -0.57965977519E+02  0.57965977576E+02  0.25500000000E-02 0. -1.
         24    2    1    2    0    0 -0.17763568394E-14  0.00000000000E+00 -0.30374221492E+02  0.85557734063E+02  0.79984576806E+02 0.  0.
         66    2    3    3    0    0 -0.10919460821E+02 -0.96858578855E+01 -0.54995609004E+02  0.56934765059E+02  0.19999987492E+01 0.  0.
        -13    1    3    3    0    0  0.10919460821E+02  0.96858578855E+01  0.24621387512E+02  0.28622969005E+02  0.10566000000E+00 0.  1.
         13    1    4    4    0    0 -0.23158044203E+01 -0.29573614367E+01 -0.14948522412E+02  0.15413579179E+02  0.10566000000E+00 0.  1.
        -13    1    4    4    0    0 -0.37882926461E+01 -0.32184325288E+01 -0.19866440424E+02  0.20479162294E+02  0.10566000000E+00 0. -1.
        -14    1    4    4    0    0 -0.48153637547E+01 -0.35100639200E+01 -0.20180646168E+02  0.21042023585E+02  0.00000000000E+00 0.  1.
<mgrwt>
<rscale>  0 0.79984577E+02</rscale>
<asrwt>0</asrwt>
<pdfrwt beam="1">  1        2 0.89178427E-02 0.79984577E+02</pdfrwt>
<pdfrwt beam="2">  1       -1 0.42448856E-02 0.79984577E+02</pdfrwt>
<totfact> 0.15451535E+05</totfact>
</mgrwt>
</event>
<event>
 8    1  0.2389776E-016  0.7979684E+02  0.7818608E-02  0.1329629E+00
         -1   -1    0    0    0  501 -0.00000000000E+00  0.00000000000E+00  0.64569324031E+02  0.64569324228E+02  0.50400000000E-02 0.  1.
          2   -1    0    0  501    0  0.00000000000E+00 -0.00000000000E+00 -0.24653870656E+02  0.24653870788E+02  0.25500000000E-02 0. -1.
         24    2    1    2    0    0  0.00000000000E+00  0.00000000000E+00  0.39915453375E+02  0.89223195016E+02  0.79796836470E+02 0.  0.
         66    2    3    3    0    0 -0.21982585608E+02  0.10676790034E+02 -0.15257964085E+02  0.28879636340E+02  0.20000029231E+01 0.  0.
        -13    1    3    3    0    0  0.21982585608E+02 -0.10676790034E+02  0.55173417460E+02  0.60343558676E+02  0.10566000000E+00 0.  1.
         13    1    4    4    0    0 -0.75408095509E+01  0.33898617409E+01 -0.47795321562E+01  0.95503959590E+01  0.10566000000E+00 0. -1.
        -13    1    4    4    0    0 -0.95291113354E+01  0.52880290143E+01 -0.64007372704E+01  0.12639138236E+02  0.10566000000E+00 0.  1.
        -14    1    4    4    0    0 -0.49126647215E+01  0.19988992783E+01 -0.40776946579E+01  0.66901021453E+01  0.00000000000E+00 0.  1.
<mgrwt>
<rscale>  0 0.79796836E+02</rscale>
<asrwt>0</asrwt>
<pdfrwt beam="1">  1        2 0.37929032E-02 0.79796836E+02</pdfrwt>
<pdfrwt beam="2">  1       -1 0.99337422E-02 0.79796836E+02</pdfrwt>
<totfact> 0.13038303E+05</totfact>
</mgrwt>
</event>
<event>
 8    1  0.2389776E-016  0.8102175E+02  0.7818608E-02  0.1326177E+00
          2   -1    0    0  501    0  0.00000000000E+00  0.00000000000E+00  0.32406197395E+03  0.32406197396E+03  0.25500000000E-02 0. -1.
         -1   -1    0    0    0  501 -0.00000000000E+00 -0.00000000000E+00 -0.50642490408E+01  0.50642515488E+01  0.50400000000E-02 0.  1.
         24    2    1    2    0    0  0.00000000000E+00  0.00000000000E+00  0.31899772491E+03  0.32912622551E+03  0.81021749058E+02 0.  0.
         66    2    3    3    0    0 -0.28584720392E+02 -0.24841595198E+02  0.21774833717E+03  0.22102608317E+03  0.20000024466E+01 0.  0.
        -13    1    3    3    0    0  0.28584720392E+02  0.24841595198E+02  0.10124938774E+03  0.10810014234E+03  0.10566000000E+00 0.  1.
         13    1    4    4    0    0 -0.99529007406E+01 -0.92641779028E+01  0.76741328310E+02  0.77936691360E+02  0.10566000000E+00 0. -1.
        -13    1    4    4    0    0 -0.16020461369E+02 -0.13965835544E+02  0.12286057528E+03  0.12468533140E+03  0.10566000000E+00 0.  1.
        -14    1    4    4    0    0 -0.26113582825E+01 -0.16115817510E+01  0.18146433582E+02  0.18404060410E+02  0.00000000000E+00 0.  1.
<mgrwt>
<rscale>  0 0.81021749E+02</rscale>
<asrwt>0</asrwt>
<pdfrwt beam="1">  1        2 0.49855686E-01 0.81021749E+02</pdfrwt>
<pdfrwt beam="2">  1       -1 0.77911547E-03 0.81021749E+02</pdfrwt>
<totfact> 0.25357622E+05</totfact>
</mgrwt>
</event>
<event>
 8    1  0.2389776E-016  0.7618789E+02  0.7818608E-02  0.1340231E+00
          2   -1    0    0  501    0  0.00000000000E+00  0.00000000000E+00  0.12327578767E+03  0.12327578769E+03  0.25500000000E-02 0. -1.
         -1   -1    0    0    0  501 -0.00000000000E+00 -0.00000000000E+00 -0.11771562220E+02  0.11771563299E+02  0.50400000000E-02 0.  1.
         24    2    1    2    0    0  0.00000000000E+00  0.00000000000E+00  0.11150422545E+03  0.13504735099E+03  0.76187890885E+02 0.  0.
         66    2    3    3    0    0  0.12619692459E+02  0.19476454457E+02  0.10927803306E+03  0.11173306326E+03  0.19999997538E+01 0.  0.
        -13    1    3    3    0    0 -0.12619692459E+02 -0.19476454457E+02  0.22261923839E+01  0.23314287734E+02  0.10566000000E+00 0.  1.
         13    1    4    4    0    0  0.76179724454E+01  0.11687646405E+02  0.67352308410E+02  0.68782113917E+02  0.10566000000E+00 0. -1.
        -13    1    4    4    0    0  0.30899488068E-01  0.25010517906E+00  0.18794340945E+01  0.18991956008E+01  0.10566000000E+00 0.  1.
         14    1    4    4    0    0  0.49708205253E+01  0.75387028727E+01  0.40046290558E+02  0.41051753740E+02  0.00000000000E+00 0. -1.
<mgrwt>
<rscale>  0 0.76187891E+02</rscale>
<asrwt>0</asrwt>
<pdfrwt beam="1">  1        2 0.18965507E-01 0.76187891E+02</pdfrwt>
<pdfrwt beam="2">  1       -1 0.18110095E-02 0.76187891E+02</pdfrwt>
<totfact> 0.21448551E+05</totfact>
</mgrwt>
</event>
<event>
 8    1  0.2568918E-016  0.7697400E+02  0.7818608E-02  0.1337865E+00
          2   -1    0    0  501    0  0.00000000000E+00  0.00000000000E+00  0.43383771934E+03  0.43383771934E+03  0.25500000000E-02 0. -1.
         -1   -1    0    0    0  501 -0.00000000000E+00 -0.00000000000E+00 -0.34142914597E+01  0.34142951796E+01  0.50400000000E-02 0.  1.
         24    2    1    2    0    0  0.00000000000E+00  0.35527136788E-14  0.43042342788E+03  0.43725201452E+03  0.76974001713E+02 0.  0.
         66    2    3    3    0    0 -0.14814644057E+02 -0.16636784156E+02  0.39345576066E+03  0.39409096902E+03  0.19999999759E+01 0.  0.
        -13    1    3    3    0    0  0.14814644057E+02  0.16636784156E+02  0.36967667215E+02  0.43161045503E+02  0.10566000000E+00 0.  1.
         13    1    4    4    0    0 -0.28875294295E+01 -0.33801754653E+01  0.88708914353E+02  0.88820302083E+02  0.10566000000E+00 0. -1.
        -13    1    4    4    0    0 -0.59062524703E+00 -0.95080116201E+00  0.15987989664E+02  0.16027471371E+02  0.10566000000E+00 0.  1.
         14    1    4    4    0    0 -0.11336489380E+02 -0.12305807529E+02  0.28875885664E+03  0.28924319556E+03  0.00000000000E+00 0. -1.
<mgrwt>
<rscale>  0 0.76974002E+02</rscale>
<asrwt>0</asrwt>
<pdfrwt beam="1">  1        2 0.66744285E-01 0.76974002E+02</pdfrwt>
<pdfrwt beam="2">  1       -1 0.52527574E-03 0.76974002E+02</pdfrwt>
<totfact> 0.32127102E+05</totfact>
</mgrwt>
</event>
<event>
 8    1  0.2389776E-016  0.7750747E+02  0.7818608E-02  0.1336277E+00
         -1   -1    0    0    0  501 -0.00000000000E+00  0.00000000000E+00  0.21147492590E+01  0.21147552648E+01  0.50400000000E-02 0.  1.
          2   -1    0    0  501    0  0.00000000000E+00 -0.00000000000E+00 -0.71017868020E+03  0.71017868020E+03  0.25500000000E-02 0. -1.
         24    2    1    2    0    0 -0.17763568394E-14  0.00000000000E+00 -0.70806393094E+03  0.71229343547E+03  0.77507470047E+02 0.  0.
         66    2    3    3    0    0 -0.13928567531E+02  0.32292270493E+02 -0.50331829131E+03  0.50454940104E+03  0.20000000701E+01 0.  0.
        -13    1    3    3    0    0  0.13928567531E+02 -0.32292270493E+02 -0.20474563963E+03  0.20774403442E+03  0.10566000000E+00 0.  1.
         13    1    4    4    0    0 -0.10873835186E+01  0.16881515428E+01 -0.26918991331E+02  0.26993990385E+02  0.10566000000E+00 0. -1.
        -13    1    4    4    0    0 -0.50248546979E+01  0.13452802796E+02 -0.20680551767E+03  0.20730354645E+03  0.10566000000E+00 0.  1.
        -14    1    4    4    0    0 -0.78163293149E+01  0.17151316154E+02 -0.26959378231E+03  0.27025186421E+03  0.00000000000E+00 0.  1.
<mgrwt>
<rscale>  0 0.77507470E+02</rscale>
<asrwt>0</asrwt>
<pdfrwt beam="1">  1        2 0.10925807E+00 0.77507470E+02</pdfrwt>
<pdfrwt beam="2">  1       -1 0.32534707E-03 0.77507470E+02</pdfrwt>
<totfact> 0.36434274E+05</totfact>
</mgrwt>
</event>
<event>
 8    1  0.2389776E-016  0.7790830E+02  0.7818608E-02  0.1335094E+00
         -1   -1    0    0    0  501 -0.00000000000E+00  0.00000000000E+00  0.78388563754E+01  0.78388579957E+01  0.50400000000E-02 0.  1.
          2   -1    0    0  501    0  0.00000000000E+00 -0.00000000000E+00 -0.19357743480E+03  0.19357743481E+03  0.25500000000E-02 0. -1.
         24    2    1    2    0    0  0.00000000000E+00  0.71054273576E-14 -0.18573857842E+03  0.20141629281E+03  0.77908301836E+02 0.  0.
         66    2    3    3    0    0  0.82744410136E+01  0.37892783274E+02 -0.84320246029E+02  0.92834440239E+02  0.20000014384E+01 0.  0.
        -13    1    3    3    0    0 -0.82744410136E+01 -0.37892783274E+02 -0.10141833239E+03  0.10858185257E+03  0.10566000000E+00 0.  1.
         13    1    4    4    0    0  0.32100701393E+01  0.11091514451E+02 -0.25642090135E+02  0.28122129963E+02  0.10566000000E+00 0.  1.
        -13    1    4    4    0    0  0.93388338428E+00  0.64991477925E+01 -0.14440834758E+02  0.15863793139E+02  0.10566000000E+00 0. -1.
         14    1    4    4    0    0  0.41304874900E+01  0.20302121030E+02 -0.44237321136E+02  0.48848517137E+02  0.00000000000E+00 0. -1.
<mgrwt>
<rscale>  0 0.77908302E+02</rscale>
<asrwt>0</asrwt>
<pdfrwt beam="1">  1        2 0.29781140E-01 0.77908302E+02</pdfrwt>
<pdfrwt beam="2">  1       -1 0.12059782E-02 0.77908302E+02</pdfrwt>
<totfact> 0.23388748E+05</totfact>
</mgrwt>
</event>
<event>
 8    1  0.2389776E-016  0.8057366E+02  0.7818608E-02  0.1327431E+00
         -1   -1    0    0    0  501 -0.00000000000E+00  0.00000000000E+00  0.27641936237E+01  0.27641982184E+01  0.50400000000E-02 0.  1.
          2   -1    0    0  501    0  0.00000000000E+00 -0.00000000000E+00 -0.58716123959E+03  0.58716123959E+03  0.25500000000E-02 0. -1.
         24    2    1    2    0    0  0.00000000000E+00  0.00000000000E+00 -0.58439704596E+03  0.58992543781E+03  0.80573660993E+02 0.  0.
         66    2    3    3    0    0  0.25345522640E+02  0.29554270127E+02 -0.36746368897E+03  0.36952593023E+03  0.20000004370E+01 0.  0.
        -13    1    3    3    0    0 -0.25345522640E+02 -0.29554270127E+02 -0.21693335700E+03  0.22039950758E+03  0.10566000000E+00 0.  1.
         13    1    4    4    0    0  0.30559206362E+01  0.38261154819E+01 -0.50513796093E+02  0.50750690344E+02  0.10566000000E+00 0.  1.
        -13    1    4    4    0    0  0.10360392933E+02  0.11068787749E+02 -0.14343317443E+03  0.14423225193E+03  0.10566000000E+00 0. -1.
         14    1    4    4    0    0  0.11929209071E+02  0.14659366896E+02 -0.17351671844E+03  0.17454298796E+03  0.00000000000E+00 0. -1.
<mgrwt>
<rscale>  0 0.80573661E+02</rscale>
<asrwt>0</asrwt>
<pdfrwt beam="1">  1        2 0.90332399E-01 0.80573661E+02</pdfrwt>
<pdfrwt beam="2">  1       -1 0.42526138E-03 0.80573661E+02</pdfrwt>
<totfact> 0.31379251E+05</totfact>
</mgrwt>
</event>
<event>
 8    1  0.2389776E-016  0.8424702E+02  0.7818608E-02  0.1317413E+00
          2   -1    0    0  501    0  0.00000000000E+00  0.00000000000E+00  0.29780536779E+02  0.29780536888E+02  0.25500000000E-02 0. -1.
         -1   -1    0    0    0  501 -0.00000000000E+00 -0.00000000000E+00 -0.59582206875E+02  0.59582207088E+02  0.50400000000E-02 0.  1.
         24    2    1    2    0    0  0.00000000000E+00  0.71054273576E-14 -0.29801670096E+02  0.89362743975E+02  0.84247020543E+02 0.  0.
         66    2    3    3    0    0 -0.79435974463E+01 -0.35177661594E+02  0.81311098877E+01  0.37022744196E+02  0.20000060327E+01 0.  0.
        -13    1    3    3    0    0  0.79435974463E+01  0.35177661594E+02 -0.37932779984E+02  0.52339999780E+02  0.10566000000E+00 0.  1.
         13    1    4    4    0    0 -0.27779791642E+01 -0.11490102182E+02  0.31527649897E+01  0.12234815385E+02  0.10566000000E+00 0. -1.
        -13    1    4    4    0    0 -0.42527728283E+01 -0.20777033688E+02  0.47179583334E+01  0.21726516069E+02  0.10566000000E+00 0.  1.
        -14    1    4    4    0    0 -0.91284545381E+00 -0.29105257235E+01  0.26038656464E+00  0.30614127414E+01  0.00000000000E+00 0.  1.
<mgrwt>
<rscale>  0 0.84247021E+02</rscale>
<asrwt>0</asrwt>
<pdfrwt beam="1">  1        2 0.45816211E-02 0.84247021E+02</pdfrwt>
<pdfrwt beam="2">  1       -1 0.91664934E-02 0.84247021E+02</pdfrwt>
<totfact> 0.11614147E+05</totfact>
</mgrwt>
</event>
<event>
 8    1  0.2389776E-016  0.8095359E+02  0.7818608E-02  0.1326367E+00
         -1   -1    0    0    0  501 -0.00000000000E+00  0.00000000000E+00  0.88314736358E+02  0.88314736502E+02  0.50400000000E-02 0.  1.
          2   -1    0    0  501    0  0.00000000000E+00 -0.00000000000E+00 -0.18551500381E+02  0.18551500556E+02  0.25500000000E-02 0. -1.
         24    2    1    2    0    0  0.00000000000E+00  0.00000000000E+00  0.69763235977E+02  0.10686623706E+03  0.80953588735E+02 0.  0.
         66    2    3    3    0    0 -0.27572478371E+02 -0.76559190869E+01 -0.28414426517E+01  0.28825829682E+02  0.19999999828E+01 0.  0.
        -13    1    3    3    0    0  0.27572478371E+02  0.76559190869E+01  0.72604678629E+02  0.78040407376E+02  0.10566000000E+00 0.  1.
         13    1    4    4    0    0 -0.19465631435E+02 -0.61075016195E+01 -0.22982945025E+01  0.20530604103E+02  0.10566000000E+00 0. -1.
        -13    1    4    4    0    0 -0.44245448249E+00 -0.14386892809E+00  0.55059865968E-01  0.48027061329E+00  0.10566000000E+00 0. -1.
         14    1    4    4    0    0 -0.76643924541E+01 -0.14045485393E+01 -0.59820801518E+00  0.78149549659E+01  0.00000000000E+00 0. -1.
<mgrwt>
<rscale>  0 0.80953589E+02</rscale>
<asrwt>0</asrwt>
<pdfrwt beam="1">  1        2 0.28540770E-02 0.80953589E+02</pdfrwt>
<pdfrwt beam="2">  1       -1 0.13586882E-01 0.80953589E+02</pdfrwt>
<totfact> 0.11814939E+05</totfact>
</mgrwt>
</event>
<event>
 8    1  0.2389776E-016  0.7990708E+02  0.7818608E-02  0.1329315E+00
         -1   -1    0    0    0  501 -0.00000000000E+00  0.00000000000E+00  0.31734408007E+03  0.31734408011E+03  0.50400000000E-02 0.  1.
          2   -1    0    0  501    0  0.00000000000E+00 -0.00000000000E+00 -0.50301397005E+01  0.50301403468E+01  0.25500000000E-02 0. -1.
         24    2    1    2    0    0  0.00000000000E+00  0.00000000000E+00  0.31231394037E+03  0.32237422046E+03  0.79907075194E+02 0.  0.
         66    2    3    3    0    0  0.36649274093E+02  0.13811925039E+02  0.12491563143E+03  0.13092690154E+03  0.20000013290E+01 0.  0.
        -13    1    3    3    0    0 -0.36649274093E+02 -0.13811925039E+02  0.18739830894E+03  0.19144731892E+03  0.10566000000E+00 0.  1.
         13    1    4    4    0    0  0.75492513253E+01  0.28289423855E+01  0.24033651652E+02  0.25349983952E+02  0.10566000000E+00 0. -1.
        -13    1    4    4    0    0  0.97788333573E+01  0.32321597886E+01  0.35012235053E+02  0.36495756002E+02  0.10566000000E+00 0.  1.
        -14    1    4    4    0    0  0.19321189410E+02  0.77508228653E+01  0.65869744728E+02  0.69081161584E+02  0.00000000000E+00 0.  1.
<mgrwt>
<rscale>  0 0.79907075E+02</rscale>
<asrwt>0</asrwt>
<pdfrwt beam="1">  1        2 0.77386769E-03 0.79907075E+02</pdfrwt>
<pdfrwt beam="2">  1       -1 0.48822167E-01 0.79907075E+02</pdfrwt>
<totfact> 0.84694726E+04</totfact>
</mgrwt>
</event>
<event>
 8    1  0.2389776E-016  0.7929085E+02  0.7818608E-02  0.1331076E+00
          2   -1    0    0  501    0  0.00000000000E+00  0.00000000000E+00  0.69719764057E+03  0.69719764058E+03  0.25500000000E-02 0. -1.
         -1   -1    0    0    0  501 -0.00000000000E+00 -0.00000000000E+00 -0.22543935340E+01  0.22543991678E+01  0.50400000000E-02 0.  1.
         24    2    1    2    0    0  0.00000000000E+00  0.44408920985E-15  0.69494324704E+03  0.69945203974E+03  0.79290852556E+02 0.  0.
         66    2    3    3    0    0  0.33906616536E+02  0.25805713803E+01  0.52705780505E+03  0.52815740822E+03  0.20000000473E+01 0.  0.
        -13    1    3    3    0    0 -0.33906616536E+02 -0.25805713803E+01  0.16788544199E+03  0.17129463153E+03  0.10566000000E+00 0.  1.
         13    1    4    4    0    0  0.84407360138E+01  0.89048649513E+00  0.12688871807E+03  0.12717231196E+03  0.10566000000E+00 0.  1.
        -13    1    4    4    0    0  0.23301000144E+02  0.19589303614E+01  0.36784873053E+03  0.36859120137E+03  0.10566000000E+00 0. -1.
         14    1    4    4    0    0  0.21648803775E+01 -0.26884547618E+00  0.32320356448E+02  0.32393894886E+02  0.00000000000E+00 0. -1.
<mgrwt>
<rscale>  0 0.79290853E+02</rscale>
<asrwt>0</asrwt>
<pdfrwt beam="1">  1        2 0.10726117E+00 0.79290853E+02</pdfrwt>
<pdfrwt beam="2">  1       -1 0.34683021E-03 0.79290853E+02</pdfrwt>
<totfact> 0.34203151E+05</totfact>
</mgrwt>
</event>
<event>
 8    1  0.2389776E-016  0.8635741E+02  0.7818608E-02  0.1311920E+00
          2   -1    0    0  501    0  0.00000000000E+00  0.00000000000E+00  0.20260793789E+02  0.20260793949E+02  0.25500000000E-02 0. -1.
         -1   -1    0    0    0  501 -0.00000000000E+00 -0.00000000000E+00 -0.92020119007E+02  0.92020119145E+02  0.50400000000E-02 0.  1.
         24    2    1    2    0    0 -0.35527136788E-14  0.00000000000E+00 -0.71759325218E+02  0.11228091309E+03  0.86357412476E+02 0.  0.
         66    2    3    3    0    0  0.19647949775E+02 -0.40246338629E+01  0.13783932793E+02  0.24417952961E+02  0.20000038688E+01 0.  0.
        -13    1    3    3    0    0 -0.19647949775E+02  0.40246338629E+01 -0.85543258011E+02  0.87862960133E+02  0.10566000000E+00 0.  1.
         13    1    4    4    0    0  0.85775447512E+01 -0.14189701927E+01  0.54632877273E+01  0.10268711078E+02  0.10566000000E+00 0. -1.
        -13    1    4    4    0    0  0.93440356849E+01 -0.18091939648E+01  0.72702151474E+01  0.11977118936E+02  0.10566000000E+00 0.  1.
         14    1    4    4    0    0  0.17263693388E+01 -0.79646970543E+00  0.10504299186E+01  0.21721229476E+01  0.00000000000E+00 0. -1.
<mgrwt>
<rscale>  0 0.86357412E+02</rscale>
<asrwt>0</asrwt>
<pdfrwt beam="1">  1        2 0.31170453E-02 0.86357412E+02</pdfrwt>
<pdfrwt beam="2">  1       -1 0.14156941E-01 0.86357412E+02</pdfrwt>
<totfact> 0.99778942E+04</totfact>
</mgrwt>
</event>
<event>
 8    1  0.2389776E-016  0.7932469E+02  0.7818608E-02  0.1330979E+00
          2   -1    0    0  501    0  0.00000000000E+00  0.00000000000E+00  0.11476375271E+03  0.11476375274E+03  0.25500000000E-02 0. -1.
         -1   -1    0    0    0  501 -0.00000000000E+00 -0.00000000000E+00 -0.13707301686E+02  0.13707302612E+02  0.50400000000E-02 0.  1.
         24    2    1    2    0    0  0.00000000000E+00  0.00000000000E+00  0.10105645102E+03  0.12847105535E+03  0.79324685748E+02 0.  0.
         66    2    3    3    0    0  0.21836458136E+02  0.44780123911E+01  0.10364162705E+03  0.10603051618E+03  0.20000014385E+01 0.  0.
        -13    1    3    3    0    0 -0.21836458136E+02 -0.44780123911E+01 -0.25851760269E+01  0.22440539165E+02  0.10566000000E+00 0.  1.
         13    1    4    4    0    0  0.19328803385E+02  0.35275996022E+01  0.90652826102E+02  0.92757709348E+02  0.10566000000E+00 0. -1.
        -13    1    4    4    0    0  0.98014789238E+00  0.63019267449E+00  0.54740777887E+01  0.55977249281E+01  0.10566000000E+00 0.  1.
        -14    1    4    4    0    0  0.15275068583E+01  0.32022011442E+00  0.75147231590E+01  0.76750819070E+01  0.00000000000E+00 0.  1.
<mgrwt>
<rscale>  0 0.79324686E+02</rscale>
<asrwt>0</asrwt>
<pdfrwt beam="1">  1        2 0.17655962E-01 0.79324686E+02</pdfrwt>
<pdfrwt beam="2">  1       -1 0.21088157E-02 0.79324686E+02</pdfrwt>
<totfact> 0.18862678E+05</totfact>
</mgrwt>
</event>
<event>
 8    1  0.2389776E-016  0.7969085E+02  0.7818608E-02  0.1329931E+00
          2   -1    0    0  501    0  0.00000000000E+00  0.00000000000E+00  0.92311666012E+02  0.92311666048E+02  0.25500000000E-02 0. -1.
         -1   -1    0    0    0  501 -0.00000000000E+00 -0.00000000000E+00 -0.17198885708E+02  0.17198886446E+02  0.50400000000E-02 0.  1.
         24    2    1    2    0    0  0.17763568394E-14  0.00000000000E+00  0.75112780305E+02  0.10951055249E+03  0.79690848549E+02 0.  0.
         66    2    3    3    0    0  0.15257539916E+02  0.14622213500E+02  0.83958740862E+02  0.86600645595E+02  0.19999995926E+01 0.  0.
        -13    1    3    3    0    0 -0.15257539916E+02 -0.14622213500E+02 -0.88459605572E+01  0.22909906899E+02  0.10566000000E+00 0.  1.
         13    1    4    4    0    0  0.88681064249E+01  0.75199220680E+01  0.48767617169E+02  0.50134660543E+02  0.10566000000E+00 0. -1.
        -13    1    4    4    0    0  0.51503888492E+01  0.56984018520E+01  0.28685690434E+02  0.29696435622E+02  0.10566000000E+00 0.  1.
         14    1    4    4    0    0  0.12390446415E+01  0.14038895800E+01  0.65054332594E+01  0.67695494288E+01  0.00000000000E+00 0. -1.
<mgrwt>
<rscale>  0 0.79690849E+02</rscale>
<asrwt>0</asrwt>
<pdfrwt beam="1">  1        2 0.14201795E-01 0.79690849E+02</pdfrwt>
<pdfrwt beam="2">  1       -1 0.26459824E-02 0.79690849E+02</pdfrwt>
<totfact> 0.17520268E+05</totfact>
</mgrwt>
</event>
<event>
 8    1  0.2389776E-016  0.7936906E+02  0.7818608E-02  0.1330852E+00
          2   -1    0    0  501    0  0.00000000000E+00  0.00000000000E+00  0.30482036721E+03  0.30482036722E+03  0.25500000000E-02 0. -1.
         -1   -1    0    0    0  501 -0.00000000000E+00 -0.00000000000E+00 -0.51665226953E+01  0.51665251536E+01  0.50400000000E-02 0.  1.
         24    2    1    2    0    0 -0.11102230246E-15 -0.35527136788E-14  0.29965384451E+03  0.30998689237E+03  0.79369055124E+02 0.  0.
         66    2    3    3    0    0 -0.94298657067E+00 -0.27790136511E+02  0.26036757033E+03  0.26185578586E+03  0.19999993604E+01 0.  0.
        -13    1    3    3    0    0  0.94298657067E+00  0.27790136511E+02  0.39286274182E+02  0.48131106512E+02  0.10566000000E+00 0.  1.
         13    1    4    4    0    0 -0.11252194562E+01 -0.25098383247E+02  0.23845354110E+03  0.23977342927E+03  0.10566000000E+00 0. -1.
        -13    1    4    4    0    0  0.12576730542E+00 -0.22472634801E+01  0.19172575652E+02  0.19304528788E+02  0.10566000000E+00 0.  1.
         14    1    4    4    0    0  0.56465580077E-01 -0.44448978342E+00  0.27414535819E+01  0.27778277972E+01  0.00000000000E+00 0. -1.
<mgrwt>
<rscale>  0 0.79369055E+02</rscale>
<asrwt>0</asrwt>
<pdfrwt beam="1">  1        2 0.46895436E-01 0.79369055E+02</pdfrwt>
<pdfrwt beam="2">  1       -1 0.79484992E-03 0.79369055E+02</pdfrwt>
<totfact> 0.26179549E+05</totfact>
</mgrwt>
</event>
<event>
 8    1  0.2389776E-016  0.7862984E+02  0.7818608E-02  0.1332985E+00
          2   -1    0    0  501    0  0.00000000000E+00  0.00000000000E+00  0.11097057860E+03  0.11097057863E+03  0.25500000000E-02 0. -1.
         -1   -1    0    0    0  501 -0.00000000000E+00 -0.00000000000E+00 -0.13928582412E+02  0.13928583324E+02  0.50400000000E-02 0.  1.
         24    2    1    2    0    0  0.00000000000E+00  0.00000000000E+00  0.97041996186E+02  0.12489916195E+03  0.78629839324E+02 0.  0.
         66    2    3    3    0    0 -0.27913690522E+02  0.27372855694E+02  0.54747364140E+02  0.67303203661E+02  0.19999988487E+01 0.  0.
        -13    1    3    3    0    0  0.27913690522E+02 -0.27372855694E+02  0.42294632045E+02  0.57595958289E+02  0.10566000000E+00 0.  1.
         13    1    4    4    0    0 -0.12451083376E+02  0.11746210960E+02  0.22930372274E+02  0.28614962621E+02  0.10566000000E+00 0. -1.
        -13    1    4    4    0    0 -0.94661112417E+01  0.90270879229E+01  0.19561313058E+02  0.23531929607E+02  0.10566000000E+00 0.  1.
        -14    1    4    4    0    0 -0.59964959038E+01  0.65995568104E+01  0.12255678809E+02  0.15156311434E+02  0.00000000000E+00 0.  1.
<mgrwt>
<rscale>  0 0.78629839E+02</rscale>
<asrwt>0</asrwt>
<pdfrwt beam="1">  1        2 0.17072397E-01 0.78629839E+02</pdfrwt>
<pdfrwt beam="2">  1       -1 0.21428589E-02 0.78629839E+02</pdfrwt>
<totfact> 0.19122028E+05</totfact>
</mgrwt>
</event>
<event>
 8    1  0.2389776E-016  0.8065655E+02  0.7818608E-02  0.1327199E+00
          2   -1    0    0  501    0  0.00000000000E+00  0.00000000000E+00  0.58617124880E+01  0.58617130427E+01  0.25500000000E-02 0. -1.
         -1   -1    0    0    0  501 -0.00000000000E+00 -0.00000000000E+00 -0.27745638551E+03  0.27745638556E+03  0.50400000000E-02 0.  1.
         24    2    1    2    0    0  0.35527136788E-14 -0.35527136788E-14 -0.27159467302E+03  0.28331809860E+03  0.80656547035E+02 0.  0.
         66    2    3    3    0    0  0.30512199430E+02 -0.26306684850E+02 -0.13183158094E+03  0.13786443225E+03  0.19999911555E+01 0.  0.
        -13    1    3    3    0    0 -0.30512199430E+02  0.26306684850E+02 -0.13976309209E+03  0.14545366635E+03  0.10566000000E+00 0.  1.
         13    1    4    4    0    0  0.57210016206E+01 -0.47062173434E+01 -0.22799266508E+02  0.23972819162E+02  0.10566000000E+00 0.  1.
        -13    1    4    4    0    0  0.14541385533E+02 -0.11952234969E+02 -0.60792701392E+02  0.63640172223E+02  0.10566000000E+00 0. -1.
         14    1    4    4    0    0  0.10249812276E+02 -0.96482325375E+01 -0.48239613036E+02  0.50251440862E+02  0.00000000000E+00 0. -1.
<mgrwt>
<rscale>  0 0.80656547E+02</rscale>
<asrwt>0</asrwt>
<pdfrwt beam="1">  1        2 0.90180218E-03 0.80656547E+02</pdfrwt>
<pdfrwt beam="2">  1       -1 0.42685588E-01 0.80656547E+02</pdfrwt>
<totfact> 0.87284383E+04</totfact>
</mgrwt>
</event>
<event>
 8    1  0.2389776E-016  0.7824953E+02  0.7818608E-02  0.1334094E+00
         -1   -1    0    0    0  501 -0.00000000000E+00  0.00000000000E+00  0.97421430523E+02  0.97421430654E+02  0.50400000000E-02 0.  1.
          2   -1    0    0  501    0  0.00000000000E+00 -0.00000000000E+00 -0.15712631332E+02  0.15712631539E+02  0.25500000000E-02 0. -1.
         24    2    1    2    0    0  0.00000000000E+00  0.00000000000E+00  0.81708799191E+02  0.11313406219E+03  0.78249525002E+02 0.  0.
         66    2    3    3    0    0  0.55598459925E+01  0.33293119931E+02  0.12350555965E+02  0.35998332537E+02  0.19999976513E+01 0.  0.
        -13    1    3    3    0    0 -0.55598459925E+01 -0.33293119931E+02  0.69358243226E+02  0.77135729656E+02  0.10566000000E+00 0.  1.
         13    1    4    4    0    0  0.26470547157E+01  0.19352556959E+02  0.76956485562E+01  0.20994345197E+02  0.10566000000E+00 0.  1.
        -13    1    4    4    0    0  0.14515953440E+01  0.70397772806E+01  0.27582586031E+01  0.76996589379E+01  0.10566000000E+00 0. -1.
        -14    1    4    4    0    0  0.14611959328E+01  0.69007856911E+01  0.18966488056E+01  0.73043284017E+01  0.00000000000E+00 0.  1.
<mgrwt>
<rscale>  0 0.78249525E+02</rscale>
<asrwt>0</asrwt>
<pdfrwt beam="1">  1        2 0.24173279E-02 0.78249525E+02</pdfrwt>
<pdfrwt beam="2">  1       -1 0.14987913E-01 0.78249525E+02</pdfrwt>
<totfact> 0.12594309E+05</totfact>
</mgrwt>
</event>
<event>
 8    1  0.2389776E-016  0.7400422E+02  0.7818608E-02  0.1346983E+00
         -1   -1    0    0    0  501 -0.00000000000E+00  0.00000000000E+00  0.29728800070E+03  0.29728800074E+03  0.50400000000E-02 0.  1.
          2   -1    0    0  501    0  0.00000000000E+00 -0.00000000000E+00 -0.46054868340E+01  0.46054875400E+01  0.25500000000E-02 0. -1.
         24    2    1    2    0    0  0.00000000000E+00  0.00000000000E+00  0.29268251387E+03  0.30189348828E+03  0.74004218424E+02 0.  0.
         66    2    3    3    0    0  0.19869615094E+02  0.31042735201E+02  0.15847914061E+03  0.16272089913E+03  0.19999985147E+01 0.  0.
        -13    1    3    3    0    0 -0.19869615094E+02 -0.31042735201E+02  0.13420337326E+03  0.13917258915E+03  0.10566000000E+00 0.  1.
         13    1    4    4    0    0  0.81498415269E+01  0.11936463557E+02  0.60951697942E+02  0.62641996498E+02  0.10566000000E+00 0. -1.
        -13    1    4    4    0    0  0.64813907151E+01  0.10050185611E+02  0.54705228749E+02  0.55997213081E+02  0.10566000000E+00 0.  1.
         14    1    4    4    0    0  0.52383828523E+01  0.90560860327E+01  0.42822213918E+02  0.44081689555E+02  0.00000000000E+00 0. -1.
<mgrwt>
<rscale>  0 0.74004218E+02</rscale>
<asrwt>0</asrwt>
<pdfrwt beam="1">  1        2 0.70853655E-03 0.74004218E+02</pdfrwt>
<pdfrwt beam="2">  1       -1 0.45736612E-01 0.74004218E+02</pdfrwt>
<totfact> 0.10587298E+05</totfact>
</mgrwt>
</event>
<event>
 8    1  0.2389776E-016  0.7974837E+02  0.7818608E-02  0.1329767E+00
          2   -1    0    0  501    0  0.00000000000E+00  0.00000000000E+00  0.52235476869E+02  0.52235476931E+02  0.25500000000E-02 0. -1.
         -1   -1    0    0    0  501 -0.00000000000E+00 -0.00000000000E+00 -0.30438138911E+02  0.30438139328E+02  0.50400000000E-02 0.  1.
         24    2    1    2    0    0  0.00000000000E+00 -0.71054273576E-14  0.21797337958E+02  0.82673616260E+02  0.79748372293E+02 0.  0.
         66    2    3    3    0    0 -0.94479481910E+01 -0.33421011252E+02  0.31159768040E+02  0.46702878441E+02  0.19999980669E+01 0.  0.
        -13    1    3    3    0    0  0.94479481910E+01  0.33421011252E+02 -0.93624300821E+01  0.35970737818E+02  0.10566000000E+00 0.  1.
         13    1    4    4    0    0 -0.16958302108E+01 -0.49719253109E+01  0.54336734580E+01  0.75585615486E+01  0.10566000000E+00 0. -1.
        -13    1    4    4    0    0 -0.29037322703E+01 -0.12106473448E+02  0.11262083029E+02  0.16788211299E+02  0.10566000000E+00 0.  1.
         14    1    4    4    0    0 -0.48483857100E+01 -0.16342612493E+02  0.14464011554E+02  0.22356105594E+02  0.00000000000E+00 0. -1.
<mgrwt>
<rscale>  0 0.79748372E+02</rscale>
<asrwt>0</asrwt>
<pdfrwt beam="1">  1        2 0.80362271E-02 0.79748372E+02</pdfrwt>
<pdfrwt beam="2">  1       -1 0.46827907E-02 0.79748372E+02</pdfrwt>
<totfact> 0.15217418E+05</totfact>
</mgrwt>
</event>
<event>
 8    1  0.2389776E-016  0.7782046E+02  0.7818608E-02  0.1335353E+00
         -1   -1    0    0    0  501 -0.00000000000E+00  0.00000000000E+00  0.73420085984E+02  0.73420086157E+02  0.50400000000E-02 0.  1.
          2   -1    0    0  501    0  0.00000000000E+00 -0.00000000000E+00 -0.20621141755E+02  0.20621141913E+02  0.25500000000E-02 0. -1.
         24    2    1    2    0    0  0.00000000000E+00  0.00000000000E+00  0.52798944229E+02  0.94041228071E+02  0.77820460454E+02 0.  0.
         66    2    3    3    0    0 -0.95393325002E+01 -0.79398474525E+01 -0.18114724711E+02  0.22049564326E+02  0.19999983661E+01 0.  0.
        -13    1    3    3    0    0  0.95393325002E+01  0.79398474525E+01  0.70913668940E+02  0.71991663745E+02  0.10566000000E+00 0.  1.
         13    1    4    4    0    0 -0.79333196114E+01 -0.73930962189E+01 -0.16080500949E+02  0.19395595030E+02  0.10566000000E+00 0. -1.
        -13    1    4    4    0    0 -0.65768931498E+00 -0.22500539912E+00 -0.83098761713E+00  0.10885252042E+01  0.10566000000E+00 0.  1.
         14    1    4    4    0    0 -0.94832357380E+00 -0.32174583441E+00 -0.12032361456E+01  0.15654440919E+01  0.00000000000E+00 0. -1.
<mgrwt>
<rscale>  0 0.77820460E+02</rscale>
<asrwt>0</asrwt>
<pdfrwt beam="1">  1        2 0.31724834E-02 0.77820460E+02</pdfrwt>
<pdfrwt beam="2">  1       -1 0.11295398E-01 0.77820460E+02</pdfrwt>
<totfact> 0.13518908E+05</totfact>
</mgrwt>
</event>
<event>
 8    1  0.2389776E-016  0.7189790E+02  0.7818608E-02  0.1353756E+00
         -1   -1    0    0    0  501 -0.00000000000E+00  0.00000000000E+00  0.86090253908E+01  0.86090268660E+01  0.50400000000E-02 0.  1.
          2   -1    0    0  501    0  0.00000000000E+00 -0.00000000000E+00 -0.15011302570E+03  0.15011302572E+03  0.25500000000E-02 0. -1.
         24    2    1    2    0    0  0.17763568394E-14 -0.11102230246E-15 -0.14150400031E+03  0.15872205259E+03  0.71897898954E+02 0.  0.
         66    2    3    3    0    0  0.15702752373E+02 -0.52423088628E+00 -0.14211836971E+03  0.14299818970E+03  0.19999997921E+01 0.  0.
        -13    1    3    3    0    0 -0.15702752373E+02  0.52423088628E+00  0.61436940395E+00  0.15723862882E+02  0.10566000000E+00 0.  1.
         13    1    4    4    0    0  0.55185574819E+01 -0.75396417165E+00 -0.51308448590E+02  0.51609989337E+02  0.10566000000E+00 0. -1.
        -13    1    4    4    0    0  0.23076065960E+01  0.20316296284E+00 -0.16539186857E+02  0.16700963724E+02  0.10566000000E+00 0.  1.
        -14    1    4    4    0    0  0.78765882954E+01  0.26570322530E-01 -0.74270734264E+02  0.74687236642E+02  0.00000000000E+00 0.  1.
<mgrwt>
<rscale>  0 0.71897899E+02</rscale>
<asrwt>0</asrwt>
<pdfrwt beam="1">  1        2 0.23094310E-01 0.71897899E+02</pdfrwt>
<pdfrwt beam="2">  1       -1 0.13244657E-02 0.71897899E+02</pdfrwt>
<totfact> 0.26547562E+05</totfact>
</mgrwt>
</event>
<event>
 8    1  0.2389776E-016  0.7921891E+02  0.7818608E-02  0.1331283E+00
         -1   -1    0    0    0  501 -0.00000000000E+00  0.00000000000E+00  0.41660229775E+02  0.41660230080E+02  0.50400000000E-02 0.  1.
          2   -1    0    0  501    0  0.00000000000E+00 -0.00000000000E+00 -0.37659634749E+02  0.37659634835E+02  0.25500000000E-02 0. -1.
         24    2    1    2    0    0 -0.35527136788E-14  0.35527136788E-14  0.40005950260E+01  0.79319864915E+02  0.79218913206E+02 0.  0.
         66    2    3    3    0    0  0.24254766388E+02 -0.25291603853E+02 -0.16432356311E+02  0.38755402853E+02  0.19999995927E+01 0.  0.
        -13    1    3    3    0    0 -0.24254766388E+02  0.25291603853E+02  0.20432951337E+02  0.40564462062E+02  0.10566000000E+00 0.  1.
         13    1    4    4    0    0  0.16097834038E+02 -0.16680771838E+02 -0.11498790587E+02  0.25877050814E+02  0.10566000000E+00 0. -1.
        -13    1    4    4    0    0  0.43753445688E+01 -0.52351892102E+01 -0.26832641141E+01  0.73322518031E+01  0.10566000000E+00 0.  1.
         14    1    4    4    0    0  0.37815877806E+01 -0.33756428053E+01 -0.22503016102E+01  0.55461002360E+01  0.00000000000E+00 0. -1.
<mgrwt>
<rscale>  0 0.79218913E+02</rscale>
<asrwt>0</asrwt>
<pdfrwt beam="1">  1        2 0.57937900E-02 0.79218913E+02</pdfrwt>
<pdfrwt beam="2">  1       -1 0.64092662E-02 0.79218913E+02</pdfrwt>
<totfact> 0.14468612E+05</totfact>
</mgrwt>
</event>
<event>
 8    1  0.2389776E-016  0.7949074E+02  0.7818608E-02  0.1330503E+00
          2   -1    0    0  501    0  0.00000000000E+00  0.00000000000E+00  0.34779250761E+03  0.34779250762E+03  0.25500000000E-02 0. -1.
         -1   -1    0    0    0  501 -0.00000000000E+00 -0.00000000000E+00 -0.45420583555E+01  0.45420611518E+01  0.50400000000E-02 0.  1.
         24    2    1    2    0    0  0.35527136788E-14  0.00000000000E+00  0.34325044925E+03  0.35233456877E+03  0.79490738063E+02 0.  0.
         66    2    3    3    0    0  0.30510053326E+02  0.58263936699E+01  0.28146376408E+03  0.28317955560E+03  0.20000013667E+01 0.  0.
        -13    1    3    3    0    0 -0.30510053326E+02 -0.58263936699E+01  0.61786685177E+02  0.69155013169E+02  0.10566000000E+00 0.  1.
         13    1    4    4    0    0  0.17913533245E+02  0.37610508898E+01  0.17358961366E+03  0.17455201320E+03  0.10566000000E+00 0. -1.
        -13    1    4    4    0    0  0.15311395938E+01  0.34133189574E+00  0.13029378494E+02  0.13123900483E+02  0.10566000000E+00 0.  1.
         14    1    4    4    0    0  0.11065380487E+02  0.17240108844E+01  0.94844771918E+02  0.95503641915E+02  0.00000000000E+00 0. -1.
<mgrwt>
<rscale>  0 0.79490738E+02</rscale>
<asrwt>0</asrwt>
<pdfrwt beam="1">  1        2 0.53506543E-01 0.79490738E+02</pdfrwt>
<pdfrwt beam="2">  1       -1 0.69877838E-03 0.79490738E+02</pdfrwt>
<totfact> 0.27341704E+05</totfact>
</mgrwt>
</event>
<event>
 8    1  0.2389776E-016  0.8682613E+02  0.7818608E-02  0.1310725E+00
         -1   -1    0    0    0  501 -0.00000000000E+00  0.00000000000E+00  0.49331901622E+01  0.49331927368E+01  0.50400000000E-02 0.  1.
          2   -1    0    0  501    0  0.00000000000E+00 -0.00000000000E+00 -0.38204360007E+03  0.38204360008E+03  0.25500000000E-02 0. -1.
         24    2    1    2    0    0  0.71054273576E-14  0.00000000000E+00 -0.37711040991E+03  0.38697679281E+03  0.86826130380E+02 0.  0.
         66    2    3    3    0    0 -0.32883045601E+02  0.28264593044E+02 -0.19571220353E+03  0.20046807359E+03  0.20000020459E+01 0.  0.
        -13    1    3    3    0    0  0.32883045601E+02 -0.28264593044E+02 -0.18139820637E+03  0.18650871923E+03  0.10566000000E+00 0.  1.
         13    1    4    4    0    0 -0.37482723341E+01  0.35506681650E+01 -0.22631162934E+02  0.23212873361E+02  0.10566000000E+00 0. -1.
        -13    1    4    4    0    0 -0.17540012907E+02  0.14983336791E+02 -0.10820025436E+03  0.11063208685E+03  0.10566000000E+00 0.  1.
        -14    1    4    4    0    0 -0.11594760360E+02  0.97305880884E+01 -0.64880786240E+02  0.66623113372E+02  0.00000000000E+00 0.  1.
<mgrwt>
<rscale>  0 0.86826130E+02</rscale>
<asrwt>0</asrwt>
<pdfrwt beam="1">  1        2 0.58775915E-01 0.86826130E+02</pdfrwt>
<pdfrwt beam="2">  1       -1 0.75895283E-03 0.86826130E+02</pdfrwt>
<totfact> 0.22425535E+05</totfact>
</mgrwt>
</event>
<event>
 8    1  0.2389776E-016  0.7780524E+02  0.7818608E-02  0.1335398E+00
         -1   -1    0    0    0  501 -0.00000000000E+00  0.00000000000E+00  0.48315688797E+02  0.48315689060E+02  0.50400000000E-02 0.  1.
          2   -1    0    0  501    0  0.00000000000E+00 -0.00000000000E+00 -0.31323447889E+02  0.31323447993E+02  0.25500000000E-02 0. -1.
         24    2    1    2    0    0  0.17763568394E-14  0.35527136788E-14  0.16992240908E+02  0.79639137053E+02  0.77805243393E+02 0.  0.
         66    2    3    3    0    0  0.10635916498E+02  0.18953193943E+02 -0.24492554998E+02  0.32805967869E+02  0.19999992836E+01 0.  0.
        -13    1    3    3    0    0 -0.10635916498E+02 -0.18953193943E+02  0.41484795906E+02  0.46833169184E+02  0.10566000000E+00 0.  1.
         13    1    4    4    0    0  0.55913750065E+01  0.10149389559E+02 -0.14290803241E+02  0.18398690284E+02  0.10566000000E+00 0. -1.
        -13    1    4    4    0    0  0.49684625577E+01  0.84048214814E+01 -0.98592792116E+01  0.13875993475E+02  0.10566000000E+00 0.  1.
        -14    1    4    4    0    0  0.76078934302E-01  0.39898290252E+00 -0.34247254559E+00  0.53128410971E+00  0.00000000000E+00 0.  1.
<mgrwt>
<rscale>  0 0.77805243E+02</rscale>
<asrwt>0</asrwt>
<pdfrwt beam="1">  1        2 0.48189920E-02 0.77805243E+02</pdfrwt>
<pdfrwt beam="2">  1       -1 0.74331829E-02 0.77805243E+02</pdfrwt>
<totfact> 0.14665803E+05</totfact>
</mgrwt>
</event>
<event>
 8    1  0.2389776E-016  0.8018187E+02  0.7818608E-02  0.1328536E+00
          2   -1    0    0  501    0  0.00000000000E+00  0.00000000000E+00  0.29723622408E+03  0.29723622409E+03  0.25500000000E-02 0. -1.
         -1   -1    0    0    0  501 -0.00000000000E+00 -0.00000000000E+00 -0.54074259480E+01  0.54074282968E+01  0.50400000000E-02 0.  1.
         24    2    1    2    0    0  0.35527136788E-14  0.22204460493E-15  0.29182879813E+03  0.30264365239E+03  0.80181873958E+02 0.  0.
         66    2    3    3    0    0 -0.27371992278E+02 -0.12285513483E+01  0.25634222044E+03  0.25781014193E+03  0.20000003944E+01 0.  0.
        -13    1    3    3    0    0  0.27371992278E+02  0.12285513483E+01  0.35486577687E+02  0.44833510454E+02  0.10566000000E+00 0.  1.
         13    1    4    4    0    0 -0.56083600495E+01  0.92798163757E-01  0.56970869233E+02  0.57246427130E+02  0.10566000000E+00 0. -1.
        -13    1    4    4    0    0 -0.52787839137E+00 -0.14194181530E+00  0.41335075358E+01  0.41708334490E+01  0.10566000000E+00 0.  1.
         14    1    4    4    0    0 -0.21235753837E+02 -0.11794076968E+01  0.19523784367E+03  0.19639288135E+03  0.00000000000E+00 0. -1.
<mgrwt>
<rscale>  0 0.80181874E+02</rscale>
<asrwt>0</asrwt>
<pdfrwt beam="1">  1        2 0.45728663E-01 0.80181874E+02</pdfrwt>
<pdfrwt beam="2">  1       -1 0.83191163E-03 0.80181874E+02</pdfrwt>
<totfact> 0.25258329E+05</totfact>
</mgrwt>
</event>
<event>
 8    1  0.2389776E-016  0.8007558E+02  0.7818608E-02  0.1328837E+00
          2   -1    0    0  501    0  0.00000000000E+00  0.00000000000E+00  0.25568397189E+03  0.25568397190E+03  0.25500000000E-02 0. -1.
         -1   -1    0    0    0  501 -0.00000000000E+00 -0.00000000000E+00 -0.62695530133E+01  0.62695550391E+01  0.50400000000E-02 0.  1.
         24    2    1    2    0    0  0.00000000000E+00  0.35527136788E-14  0.24941441888E+03  0.26195352694E+03  0.80075576387E+02 0.  0.
         66    2    3    3    0    0  0.85067380234E+01  0.21744163351E+02  0.23108264838E+03  0.23226787039E+03  0.19999997469E+01 0.  0.
        -13    1    3    3    0    0 -0.85067380234E+01 -0.21744163351E+02  0.18331770496E+02  0.29685656557E+02  0.10566000000E+00 0.  1.
         13    1    4    4    0    0  0.52736033599E+01  0.12420712559E+02  0.14177581679E+03  0.14241656639E+03  0.10566000000E+00 0.  1.
        -13    1    4    4    0    0  0.12418840230E+01  0.30691772193E+01  0.30319187691E+02  0.30499613621E+02  0.10566000000E+00 0. -1.
        -14    1    4    4    0    0  0.19912506404E+01  0.62542735728E+01  0.58987643904E+02  0.59351690375E+02  0.00000000000E+00 0.  1.
<mgrwt>
<rscale>  0 0.80075576E+02</rscale>
<asrwt>0</asrwt>
<pdfrwt beam="1">  1        2 0.39335984E-01 0.80075576E+02</pdfrwt>
<pdfrwt beam="2">  1       -1 0.96454706E-03 0.80075576E+02</pdfrwt>
<totfact> 0.24001889E+05</totfact>
</mgrwt>
</event>
<event>
 8    1  0.2389776E-016  0.8004705E+02  0.7818608E-02  0.1328918E+00
         -1   -1    0    0    0  501 -0.00000000000E+00  0.00000000000E+00  0.11652724321E+01  0.11652833315E+01  0.50400000000E-02 0.  1.
          2   -1    0    0  501    0  0.00000000000E+00 -0.00000000000E+00 -0.13746784609E+04  0.13746784609E+04  0.25500000000E-02 0. -1.
         24    2    1    2    0    0 -0.22204460493E-15  0.00000000000E+00 -0.13735131884E+04  0.13758437442E+04  0.80047046492E+02 0.  0.
         66    2    3    3    0    0 -0.12124177463E+01  0.15675168756E+02 -0.13193397272E+04  0.13194349156E+04  0.19999993858E+01 0.  0.
        -13    1    3    3    0    0  0.12124177463E+01 -0.15675168756E+02 -0.54173461258E+02  0.56408828573E+02  0.10566000000E+00 0.  1.
         13    1    4    4    0    0 -0.30783258128E+00  0.46195648584E+01 -0.46775460396E+03  0.46777752814E+03  0.10566000000E+00 0. -1.
        -13    1    4    4    0    0 -0.29620995253E+00  0.33748712510E+01 -0.25938679856E+03  0.25940894342E+03  0.10566000000E+00 0.  1.
         14    1    4    4    0    0 -0.60837521251E+00  0.76807326461E+01 -0.59219832466E+03  0.59224844407E+03  0.00000000000E+00 0. -1.
<mgrwt>
<rscale>  0 0.80047046E+02</rscale>
<asrwt>0</asrwt>
<pdfrwt beam="1">  1        2 0.21148770E+00 0.80047046E+02</pdfrwt>
<pdfrwt beam="2">  1       -1 0.17927462E-03 0.80047046E+02</pdfrwt>
<totfact> 0.34130290E+05</totfact>
</mgrwt>
</event>
<event>
 8    1  0.2389776E-016  0.7880190E+02  0.7818608E-02  0.1332486E+00
          2   -1    0    0  501    0  0.00000000000E+00  0.00000000000E+00  0.41575247751E+03  0.41575247752E+03  0.25500000000E-02 0. -1.
         -1   -1    0    0    0  501 -0.00000000000E+00 -0.00000000000E+00 -0.37340342817E+01  0.37340376830E+01  0.50400000000E-02 0.  1.
         24    2    1    2    0    0  0.00000000000E+00  0.00000000000E+00  0.41201844323E+03  0.41948651520E+03  0.78801896392E+02 0.  0.
         66    2    3    3    0    0  0.35838965963E+02 -0.13665928400E+02  0.25352814460E+03  0.25642096089E+03  0.19999993679E+01 0.  0.
        -13    1    3    3    0    0 -0.35838965963E+02  0.13665928400E+02  0.15849029862E+03  0.16306555431E+03  0.10566000000E+00 0.  1.
         13    1    4    4    0    0  0.10799452318E+02 -0.34827423976E+01  0.73538892636E+02  0.74409257214E+02  0.10566000000E+00 0. -1.
        -13    1    4    4    0    0  0.16098498006E+02 -0.70786958447E+01  0.11504596426E+03  0.11638236391E+03  0.10566000000E+00 0.  1.
         14    1    4    4    0    0  0.89410156393E+01 -0.31044901577E+01  0.64943287703E+02  0.65629339762E+02  0.00000000000E+00 0. -1.
<mgrwt>
<rscale>  0 0.78801896E+02</rscale>
<asrwt>0</asrwt>
<pdfrwt beam="1">  1        2 0.63961893E-01 0.78801896E+02</pdfrwt>
<pdfrwt beam="2">  1       -1 0.57446731E-03 0.78801896E+02</pdfrwt>
<totfact> 0.29785392E+05</totfact>
</mgrwt>
</event>
<event>
 8    1  0.2389776E-016  0.8096694E+02  0.7818608E-02  0.1326330E+00
          2   -1    0    0  501    0  0.00000000000E+00  0.00000000000E+00  0.27656186132E+02  0.27656186250E+02  0.25500000000E-02 0. -1.
         -1   -1    0    0    0  501 -0.00000000000E+00 -0.00000000000E+00 -0.59260208006E+02  0.59260208221E+02  0.50400000000E-02 0.  1.
         24    2    1    2    0    0 -0.17763568394E-14 -0.44408920985E-15 -0.31604021874E+02  0.86916394470E+02  0.80966940346E+02 0.  0.
         66    2    3    3    0    0 -0.12876221951E+02 -0.35008002391E+01  0.25189883411E+02  0.28575915078E+02  0.20000005596E+01 0.  0.
        -13    1    3    3    0    0  0.12876221951E+02  0.35008002391E+01 -0.56793905286E+02  0.58340479392E+02  0.10566000000E+00 0.  1.
         13    1    4    4    0    0 -0.19249020997E+01 -0.58388896190E+00  0.51215091275E+01  0.55033802514E+01  0.10566000000E+00 0. -1.
        -13    1    4    4    0    0 -0.31628364348E+01 -0.13226975292E+01  0.57564739840E+01  0.67008372485E+01  0.10566000000E+00 0.  1.
         14    1    4    4    0    0 -0.77884834162E+01 -0.15942137480E+01  0.14311900300E+02  0.16371697578E+02  0.00000000000E+00 0. -1.
<mgrwt>
<rscale>  0 0.80966940E+02</rscale>
<asrwt>0</asrwt>
<pdfrwt beam="1">  1        2 0.42547979E-02 0.80966940E+02</pdfrwt>
<pdfrwt beam="2">  1       -1 0.91169551E-02 0.80966940E+02</pdfrwt>
<totfact> 0.12800442E+05</totfact>
</mgrwt>
</event>
<event>
 8    1  0.2389776E-016  0.7870695E+02  0.7818608E-02  0.1332761E+00
          2   -1    0    0  501    0  0.00000000000E+00  0.00000000000E+00  0.20959897197E+04  0.20959897197E+04  0.25500000000E-02 0. -1.
         -1   -1    0    0    0  501 -0.00000000000E+00 -0.00000000000E+00 -0.73887679487E+00  0.73889398401E+00  0.50400000000E-02 0.  1.
         24    2    1    2    0    0 -0.17763568394E-14  0.00000000000E+00  0.20952508429E+04  0.20967286137E+04  0.78706954922E+02 0.  0.
         66    2    3    3    0    0 -0.76552067417E+01  0.10727487327E+02  0.20354109491E+04  0.20354545961E+04  0.19999891661E+01 0.  0.
        -13    1    3    3    0    0  0.76552067417E+01 -0.10727487327E+02  0.59839893829E+02  0.61274017594E+02  0.10566000000E+00 0.  1.
         13    1    4    4    0    0 -0.43931076203E+01  0.60575157145E+01  0.12368938122E+04  0.12369164510E+04  0.10566000000E+00 0. -1.
        -13    1    4    4    0    0 -0.10818730215E+01  0.24194749345E+01  0.38501072068E+03  0.38501985729E+03  0.10566000000E+00 0.  1.
        -14    1    4    4    0    0 -0.21802260999E+01  0.22504966779E+01  0.41350641618E+03  0.41351828780E+03  0.00000000000E+00 0.  1.
<mgrwt>
<rscale>  0 0.78706955E+02</rscale>
<asrwt>0</asrwt>
<pdfrwt beam="1">  1        2 0.32245883E+00 0.78706955E+02</pdfrwt>
<pdfrwt beam="2">  1       -1 0.11367507E-03 0.78706955E+02</pdfrwt>
<totfact> 0.27655624E+05</totfact>
</mgrwt>
</event>
<event>
 8    1  0.2389776E-016  0.7986534E+02  0.7818608E-02  0.1329434E+00
         -1   -1    0    0    0  501 -0.00000000000E+00  0.00000000000E+00  0.26379762616E+02  0.26379763097E+02  0.50400000000E-02 0.  1.
          2   -1    0    0  501    0  0.00000000000E+00 -0.00000000000E+00 -0.60448543081E+02  0.60448543135E+02  0.25500000000E-02 0. -1.
         24    2    1    2    0    0 -0.35527136788E-14  0.35527136788E-14 -0.34068780465E+02  0.86828306232E+02  0.79865342676E+02 0.  0.
         66    2    3    3    0    0 -0.18181593644E+02  0.24365132045E+02 -0.45152124588E+02  0.54469664604E+02  0.20000000801E+01 0.  0.
        -13    1    3    3    0    0  0.18181593644E+02 -0.24365132045E+02  0.11083344123E+02  0.32358641628E+02  0.10566000000E+00 0.  1.
         13    1    4    4    0    0 -0.55519061937E+01  0.70349704322E+01 -0.14755229550E+02  0.17263905540E+02  0.10566000000E+00 0. -1.
        -13    1    4    4    0    0 -0.51522948645E+01  0.67060575015E+01 -0.11577940290E+02  0.14337964115E+02  0.10566000000E+00 0.  1.
         14    1    4    4    0    0 -0.74773925863E+01  0.10624104111E+02 -0.18818954747E+02  0.22867794949E+02  0.00000000000E+00 0. -1.
<mgrwt>
<rscale>  0 0.79865343E+02</rscale>
<asrwt>0</asrwt>
<pdfrwt beam="1">  1        2 0.92997758E-02 0.79865343E+02</pdfrwt>
<pdfrwt beam="2">  1       -1 0.40584251E-02 0.79865343E+02</pdfrwt>
<totfact> 0.15664633E+05</totfact>
</mgrwt>
</event>
<event>
 8    1  0.2389776E-016  0.7991579E+02  0.7818608E-02  0.1329291E+00
          2   -1    0    0  501    0  0.00000000000E+00  0.00000000000E+00  0.20384377584E+04  0.20384377584E+04  0.25500000000E-02 0. -1.
         -1   -1    0    0    0  501 -0.00000000000E+00 -0.00000000000E+00 -0.78325505357E+00  0.78327126881E+00  0.50400000000E-02 0.  1.
         24    2    1    2    0    0  0.00000000000E+00  0.00000000000E+00  0.20376545034E+04  0.20392210297E+04  0.79915785938E+02 0.  0.
         66    2    3    3    0    0 -0.15814531372E+02 -0.15069202092E+01  0.19543303727E+04  0.19543959619E+04  0.20000010986E+01 0.  0.
        -13    1    3    3    0    0  0.15814531372E+02  0.15069202092E+01  0.83324130649E+02  0.84825067778E+02  0.10566000000E+00 0.  1.
         13    1    4    4    0    0 -0.22924266543E+01 -0.66211774995E-01  0.29647725310E+03  0.29648614196E+03  0.10566000000E+00 0. -1.
        -13    1    4    4    0    0 -0.11721926133E+02 -0.16678963428E+01  0.14838580497E+04  0.14839052895E+04  0.10566000000E+00 0.  1.
         14    1    4    4    0    0 -0.18001785846E+01  0.22718790865E+00  0.17399506997E+03  0.17400453049E+03  0.00000000000E+00 0. -1.
<mgrwt>
<rscale>  0 0.79915786E+02</rscale>
<asrwt>0</asrwt>
<pdfrwt beam="1">  1        2 0.31361144E+00 0.79915786E+02</pdfrwt>
<pdfrwt beam="2">  1       -1 0.12049986E-03 0.79915786E+02</pdfrwt>
<totfact> 0.27337358E+05</totfact>
</mgrwt>
</event>
<event>
 8    1  0.2389776E-016  0.7893886E+02  0.7818608E-02  0.1332090E+00
         -1   -1    0    0    0  501 -0.00000000000E+00  0.00000000000E+00  0.19642908927E+01  0.19642973585E+01  0.50400000000E-02 0.  1.
          2   -1    0    0  501    0  0.00000000000E+00 -0.00000000000E+00 -0.79307677858E+03  0.79307677859E+03  0.25500000000E-02 0. -1.
         24    2    1    2    0    0 -0.17763568394E-14  0.00000000000E+00 -0.79111248769E+03  0.79504107595E+03  0.78938864073E+02 0.  0.
         66    2    3    3    0    0 -0.14734504251E+02  0.13371332062E+02 -0.73882605363E+03  0.73909663487E+03  0.20000037001E+01 0.  0.
        -13    1    3    3    0    0  0.14734504251E+02 -0.13371332062E+02 -0.52286434057E+02  0.55944441073E+02  0.10566000000E+00 0.  1.
         13    1    4    4    0    0 -0.41002503548E+01  0.38387349489E+01 -0.18373774740E+03  0.18382360817E+03  0.10566000000E+00 0. -1.
        -13    1    4    4    0    0 -0.49607573709E+01  0.39139537039E+01 -0.23190569901E+03  0.23199179413E+03  0.10566000000E+00 0. -1.
        -14    1    4    4    0    0 -0.56734965251E+01  0.56186434092E+01 -0.32318260723E+03  0.32328123257E+03  0.00000000000E+00 0.  1.
<mgrwt>
<rscale>  0 0.78938864E+02</rscale>
<asrwt>0</asrwt>
<pdfrwt beam="1">  1        2 0.12201156E+00 0.78938864E+02</pdfrwt>
<pdfrwt beam="2">  1       -1 0.30219973E-03 0.78938864E+02</pdfrwt>
<totfact> 0.35523865E+05</totfact>
</mgrwt>
</event>
<event>
 8    1  0.2389776E-016  0.8110301E+02  0.7818608E-02  0.1325950E+00
         -1   -1    0    0    0  501 -0.00000000000E+00  0.00000000000E+00  0.80188482669E+02  0.80188482828E+02  0.50400000000E-02 0.  1.
          2   -1    0    0  501    0  0.00000000000E+00 -0.00000000000E+00 -0.20506992441E+02  0.20506992600E+02  0.25500000000E-02 0. -1.
         24    2    1    2    0    0  0.00000000000E+00 -0.71054273576E-14  0.59681490228E+02  0.10069547543E+03  0.81103011632E+02 0.  0.
         66    2    3    3    0    0  0.93605633220E+01 -0.32537647376E+02  0.57512845527E+02  0.66768600736E+02  0.20000003030E+01 0.  0.
        -13    1    3    3    0    0 -0.93605633220E+01  0.32537647376E+02  0.21686447012E+01  0.33926874692E+02  0.10566000000E+00 0.  1.
         13    1    4    4    0    0  0.34820013905E+01 -0.12587349121E+02  0.23333329485E+02  0.26739878841E+02  0.10566000000E+00 0. -1.
        -13    1    4    4    0    0  0.25715505111E+01 -0.81142850048E+01  0.15088588979E+02  0.17324294345E+02  0.10566000000E+00 0.  1.
        -14    1    4    4    0    0  0.33070114204E+01 -0.11836013250E+02  0.19090927063E+02  0.22704427549E+02  0.00000000000E+00 0.  1.
<mgrwt>
<rscale>  0 0.81103012E+02</rscale>
<asrwt>0</asrwt>
<pdfrwt beam="1">  1        2 0.31549219E-02 0.81103012E+02</pdfrwt>
<pdfrwt beam="2">  1       -1 0.12336690E-01 0.81103012E+02</pdfrwt>
<totfact> 0.11997518E+05</totfact>
</mgrwt>
</event>
<event>
 8    1  0.2389776E-016  0.7906868E+02  0.7818608E-02  0.1331715E+00
          2   -1    0    0  501    0  0.00000000000E+00  0.00000000000E+00  0.15359161410E+02  0.15359161622E+02  0.25500000000E-02 0. -1.
         -1   -1    0    0    0  501 -0.00000000000E+00 -0.00000000000E+00 -0.10176103674E+03  0.10176103687E+03  0.50400000000E-02 0.  1.
         24    2    1    2    0    0 -0.35527136788E-14 -0.44408920985E-15 -0.86401875333E+02  0.11712019849E+03  0.79068684277E+02 0.  0.
         66    2    3    3    0    0 -0.21597943927E+02 -0.37101645672E+01  0.54665064397E+01  0.22674196793E+02  0.20000011376E+01 0.  0.
        -13    1    3    3    0    0  0.21597943927E+02  0.37101645672E+01 -0.91868381773E+02  0.94446001697E+02  0.10566000000E+00 0.  1.
         13    1    4    4    0    0 -0.16398026204E+02 -0.29694647493E+01  0.46684661679E+01  0.17306609278E+02  0.10566000000E+00 0. -1.
        -13    1    4    4    0    0 -0.13938605951E+01 -0.20662193209E+00  0.54977543694E+00  0.15162311987E+01  0.10566000000E+00 0.  1.
        -14    1    4    4    0    0 -0.38060571278E+01 -0.53407788572E+00  0.24826483483E+00  0.38513563165E+01  0.00000000000E+00 0.  1.
<mgrwt>
<rscale>  0 0.79068684E+02</rscale>
<asrwt>0</asrwt>
<pdfrwt beam="1">  1        2 0.23629480E-02 0.79068684E+02</pdfrwt>
<pdfrwt beam="2">  1       -1 0.15655544E-01 0.79068684E+02</pdfrwt>
<totfact> 0.12158625E+05</totfact>
</mgrwt>
</event>
<event>
 8    1  0.2389776E-016  0.7907698E+02  0.7818608E-02  0.1331691E+00
         -1   -1    0    0    0  501 -0.00000000000E+00  0.00000000000E+00  0.10381670513E+02  0.10381671737E+02  0.50400000000E-02 0.  1.
          2   -1    0    0  501    0  0.00000000000E+00 -0.00000000000E+00 -0.15058195379E+03  0.15058195381E+03  0.25500000000E-02 0. -1.
         24    2    1    2    0    0  0.00000000000E+00 -0.17763568394E-14 -0.14020028327E+03  0.16096362554E+03  0.79076983494E+02 0.  0.
         66    2    3    3    0    0  0.36550796190E+02 -0.11778986822E+02 -0.89085374854E+02  0.97030455285E+02  0.20000017901E+01 0.  0.
        -13    1    3    3    0    0 -0.36550796190E+02  0.11778986822E+02 -0.51114908419E+02  0.63933170259E+02  0.10566000000E+00 0.  1.
         13    1    4    4    0    0  0.17181524187E+02 -0.54016809564E+01 -0.41323620159E+02  0.45078106411E+02  0.10566000000E+00 0. -1.
        -13    1    4    4    0    0  0.11877553556E+02 -0.43250425230E+01 -0.30997331491E+02  0.33475782215E+02  0.10566000000E+00 0.  1.
         14    1    4    4    0    0  0.74917184477E+01 -0.20522633429E+01 -0.16764423205E+02  0.18476566659E+02  0.00000000000E+00 0. -1.
<mgrwt>
<rscale>  0 0.79076983E+02</rscale>
<asrwt>0</asrwt>
<pdfrwt beam="1">  1        2 0.23166453E-01 0.79076983E+02</pdfrwt>
<pdfrwt beam="2">  1       -1 0.15971803E-02 0.79076983E+02</pdfrwt>
<totfact> 0.20681742E+05</totfact>
</mgrwt>
</event>
<event>
 8    1  0.2389776E-016  0.7922383E+02  0.7818608E-02  0.1331269E+00
          2   -1    0    0  501    0  0.00000000000E+00  0.00000000000E+00  0.42472511860E+02  0.42472511936E+02  0.25500000000E-02 0. -1.
         -1   -1    0    0    0  501 -0.00000000000E+00 -0.00000000000E+00 -0.36943983510E+02  0.36943983854E+02  0.50400000000E-02 0.  1.
         24    2    1    2    0    0 -0.20816681712E-16 -0.17763568394E-14  0.55285283495E+01  0.79416495791E+02  0.79223829609E+02 0.  0.
         66    2    3    3    0    0  0.35859540919E-01  0.11157991663E+02  0.40839921246E+02  0.42383973648E+02  0.19999977347E+01 0.  0.
        -13    1    3    3    0    0 -0.35859540919E-01 -0.11157991663E+02 -0.35311392897E+02  0.37032522142E+02  0.10566000000E+00 0.  1.
         13    1    4    4    0    0  0.60175853404E+00  0.67301206606E+01  0.23074498314E+02  0.24043715892E+02  0.10566000000E+00 0. -1.
        -13    1    4    4    0    0  0.15944543121E-01  0.11004058385E+01  0.31128288680E+01  0.33033338970E+01  0.10566000000E+00 0. -1.
        -14    1    4    4    0    0 -0.58184353624E+00  0.33274651643E+01  0.14652594064E+02  0.15036923859E+02  0.00000000000E+00 0.  1.
<mgrwt>
<rscale>  0 0.79223830E+02</rscale>
<asrwt>0</asrwt>
<pdfrwt beam="1">  1        2 0.65342325E-02 0.79223830E+02</pdfrwt>
<pdfrwt beam="2">  1       -1 0.56836899E-02 0.79223830E+02</pdfrwt>
<totfact> 0.14826136E+05</totfact>
</mgrwt>
</event>
<event>
 8    1  0.2389776E-016  0.7868689E+02  0.7818608E-02  0.1332820E+00
         -1   -1    0    0    0  501 -0.00000000000E+00  0.00000000000E+00  0.92750077127E+01  0.92750090820E+01  0.50400000000E-02 0.  1.
          2   -1    0    0  501    0  0.00000000000E+00 -0.00000000000E+00 -0.16689006401E+03  0.16689006403E+03  0.25500000000E-02 0. -1.
         24    2    1    2    0    0  0.00000000000E+00  0.00000000000E+00 -0.15761505630E+03  0.17616507311E+03  0.78686892255E+02 0.  0.
         66    2    3    3    0    0 -0.12832288204E+02  0.34231855447E+02 -0.11125647334E+03  0.11712595958E+03  0.20000003750E+01 0.  0.
        -13    1    3    3    0    0  0.12832288204E+02 -0.34231855447E+02 -0.46358582962E+02  0.59039113528E+02  0.10566000000E+00 0.  1.
         13    1    4    4    0    0 -0.11107505993E+01  0.31584715254E+01 -0.87539295454E+01  0.93729480844E+01  0.10566000000E+00 0. -1.
        -13    1    4    4    0    0 -0.11611056242E+02  0.30454736465E+02 -0.10032593814E+03  0.10548749986E+03  0.10566000000E+00 0.  1.
        -14    1    4    4    0    0 -0.11048136298E+00  0.61864745615E+00 -0.21766056507E+01  0.22655116343E+01  0.00000000000E+00 0.  1.
<mgrwt>
<rscale>  0 0.78686892E+02</rscale>
<asrwt>0</asrwt>
<pdfrwt beam="1">  1        2 0.25675392E-01 0.78686892E+02</pdfrwt>
<pdfrwt beam="2">  1       -1 0.14269245E-02 0.78686892E+02</pdfrwt>
<totfact> 0.21669806E+05</totfact>
</mgrwt>
</event>
<event>
 8    1  0.2389776E-016  0.8191740E+02  0.7818608E-02  0.1323697E+00
          2   -1    0    0  501    0  0.00000000000E+00  0.00000000000E+00  0.32145334712E+02  0.32145334813E+02  0.25500000000E-02 0. -1.
         -1   -1    0    0    0  501 -0.00000000000E+00 -0.00000000000E+00 -0.52188443870E+02  0.52188444113E+02  0.50400000000E-02 0.  1.
         24    2    1    2    0    0  0.00000000000E+00 -0.11102230246E-15 -0.20043109158E+02  0.84333778926E+02  0.81917397683E+02 0.  0.
         66    2    3    3    0    0  0.10428474129E+02 -0.91014442598E+00  0.30712885339E+02  0.32509425800E+02  0.20000011058E+01 0.  0.
        -13    1    3    3    0    0 -0.10428474129E+02  0.91014442598E+00 -0.50755994497E+02  0.51824353127E+02  0.10566000000E+00 0.  1.
         13    1    4    4    0    0  0.36481966094E+01 -0.15913821219E+00  0.10576201419E+02  0.11189363877E+02  0.10566000000E+00 0. -1.
        -13    1    4    4    0    0  0.27262667708E+01  0.16245266461E+00  0.61701546866E+01  0.67483993854E+01  0.10566000000E+00 0.  1.
         14    1    4    4    0    0  0.40540107487E+01 -0.91345887841E+00  0.13966529234E+02  0.14571662538E+02  0.00000000000E+00 0. -1.
<mgrwt>
<rscale>  0 0.81917398E+02</rscale>
<asrwt>0</asrwt>
<pdfrwt beam="1">  1        2 0.49454361E-02 0.81917398E+02</pdfrwt>
<pdfrwt beam="2">  1       -1 0.80289914E-02 0.81917398E+02</pdfrwt>
<totfact> 0.12765619E+05</totfact>
</mgrwt>
</event>
<event>
 8    1  0.2389776E-016  0.7905923E+02  0.7818608E-02  0.1331743E+00
          2   -1    0    0  501    0  0.00000000000E+00  0.00000000000E+00  0.26076447662E+03  0.26076447663E+03  0.25500000000E-02 0. -1.
         -1   -1    0    0    0  501 -0.00000000000E+00 -0.00000000000E+00 -0.59923429656E+01  0.59923450851E+01  0.50400000000E-02 0.  1.
         24    2    1    2    0    0  0.35527136788E-14 -0.35527136788E-14  0.25477213365E+03  0.26675682171E+03  0.79059229986E+02 0.  0.
         66    2    3    3    0    0 -0.17979355066E+02 -0.20187571784E+02  0.22466307663E+03  0.22629249493E+03  0.19999998920E+01 0.  0.
        -13    1    3    3    0    0  0.17979355066E+02  0.20187571784E+02  0.30109057025E+02  0.40464326784E+02  0.10566000000E+00 0.  1.
         13    1    4    4    0    0 -0.94398847632E+01 -0.95714008053E+01  0.11250337453E+03  0.11330376685E+03  0.10566000000E+00 0. -1.
        -13    1    4    4    0    0 -0.64012335871E+00 -0.46339595308E+00  0.62314608004E+01  0.62822576727E+01  0.10566000000E+00 0.  1.
        -14    1    4    4    0    0 -0.78993469445E+01 -0.10152775025E+02  0.10592824130E+03  0.10670647041E+03  0.00000000000E+00 0.  1.
<mgrwt>
<rscale>  0 0.79059230E+02</rscale>
<asrwt>0</asrwt>
<pdfrwt beam="1">  1        2 0.40117612E-01 0.79059230E+02</pdfrwt>
<pdfrwt beam="2">  1       -1 0.92189909E-03 0.79059230E+02</pdfrwt>
<totfact> 0.24997379E+05</totfact>
</mgrwt>
</event>
<event>
 8    1  0.2389776E-016  0.8070473E+02  0.7818608E-02  0.1327063E+00
         -1   -1    0    0    0  501 -0.00000000000E+00  0.00000000000E+00  0.37864489808E+01  0.37864523351E+01  0.50400000000E-02 0.  1.
          2   -1    0    0  501    0  0.00000000000E+00 -0.00000000000E+00 -0.43003681715E+03  0.43003681716E+03  0.25500000000E-02 0. -1.
         24    2    1    2    0    0  0.00000000000E+00  0.00000000000E+00 -0.42625036817E+03  0.43382326949E+03  0.80704725939E+02 0.  0.
         66    2    3    3    0    0 -0.24619843997E+02  0.83909939985E+01 -0.37891714758E+03  0.37981409959E+03  0.20000036503E+01 0.  0.
        -13    1    3    3    0    0  0.24619843997E+02 -0.83909939985E+01 -0.47333220588E+02  0.54009169906E+02  0.10566000000E+00 0.  1.
         13    1    4    4    0    0 -0.14492849120E+02  0.43177082638E+01 -0.20952215085E+03  0.21006719911E+03  0.10566000000E+00 0. -1.
        -13    1    4    4    0    0 -0.57011627149E+01  0.24671231936E+01 -0.94298900374E+02  0.94503353003E+02  0.10566000000E+00 0.  1.
        -14    1    4    4    0    0 -0.44258321625E+01  0.16061625411E+01 -0.75096096359E+02  0.75243547476E+02  0.00000000000E+00 0.  1.
<mgrwt>
<rscale>  0 0.80704726E+02</rscale>
<asrwt>0</asrwt>
<pdfrwt beam="1">  1        2 0.66159472E-01 0.80704726E+02</pdfrwt>
<pdfrwt beam="2">  1       -1 0.58253121E-03 0.80704726E+02</pdfrwt>
<totfact> 0.28313896E+05</totfact>
</mgrwt>
</event>
<event>
 8    1  0.2389776E-016  0.8020737E+02  0.7818608E-02  0.1328464E+00
          2   -1    0    0  501    0  0.00000000000E+00  0.00000000000E+00  0.36345591439E+03  0.36345591440E+03  0.25500000000E-02 0. -1.
         -1   -1    0    0    0  501 -0.00000000000E+00 -0.00000000000E+00 -0.44250343118E+01  0.44250371820E+01  0.50400000000E-02 0.  1.
         24    2    1    2    0    0  0.00000000000E+00  0.55511151231E-16  0.35903088008E+03  0.36788095158E+03  0.80207366784E+02 0.  0.
         66    2    3    3    0    0  0.35083958259E+02  0.45643436086E+00  0.26847094701E+03  0.27076141132E+03  0.20000028021E+01 0.  0.
        -13    1    3    3    0    0 -0.35083958259E+02 -0.45643436086E+00  0.90559933069E+02  0.97119540263E+02  0.10566000000E+00 0.  1.
         13    1    4    4    0    0  0.30401254849E+02  0.46633152950E+00  0.23447392856E+03  0.23643707006E+03  0.10566000000E+00 0. -1.
        -13    1    4    4    0    0  0.33127946271E+01 -0.16059533650E+00  0.25754567429E+02  0.25967466311E+02  0.10566000000E+00 0.  1.
         14    1    4    4    0    0  0.13699087834E+01  0.15069816786E+00  0.82424510263E+01  0.83568749502E+01  0.00000000000E+00 0. -1.
<mgrwt>
<rscale>  0 0.80207367E+02</rscale>
<asrwt>0</asrwt>
<pdfrwt beam="1">  1        2 0.55916303E-01 0.80207367E+02</pdfrwt>
<pdfrwt beam="2">  1       -1 0.68077464E-03 0.80207367E+02</pdfrwt>
<totfact> 0.27129644E+05</totfact>
</mgrwt>
</event>
<event>
 8    1  0.2389776E-016  0.8041250E+02  0.7818608E-02  0.1327885E+00
         -1   -1    0    0    0  501 -0.00000000000E+00  0.00000000000E+00  0.27343457795E+02  0.27343458259E+02  0.50400000000E-02 0.  1.
          2   -1    0    0  501    0  0.00000000000E+00 -0.00000000000E+00 -0.59119901027E+02  0.59119901082E+02  0.25500000000E-02 0. -1.
         24    2    1    2    0    0  0.00000000000E+00  0.00000000000E+00 -0.31776443232E+02  0.86463359341E+02  0.80412500049E+02 0.  0.
         66    2    3    3    0    0  0.27645007302E+01 -0.39457928603E+02 -0.82973837984E+01  0.40465011656E+02  0.19999991285E+01 0.  0.
        -13    1    3    3    0    0 -0.27645007302E+01  0.39457928603E+02 -0.23479059434E+02  0.45998347686E+02  0.10566000000E+00 0.  1.
         13    1    4    4    0    0  0.24191073302E+01 -0.26248144318E+02 -0.53128947183E+01  0.26889685285E+02  0.10566000000E+00 0. -1.
        -13    1    4    4    0    0 -0.54947369938E-01 -0.77221202096E+01 -0.13942278802E+01  0.78478783861E+01  0.10566000000E+00 0.  1.
        -14    1    4    4    0    0  0.40034076999E+00 -0.54876640749E+01 -0.15902611998E+01  0.57274479844E+01  0.00000000000E+00 0.  1.
<mgrwt>
<rscale>  0 0.80412500E+02</rscale>
<asrwt>0</asrwt>
<pdfrwt beam="1">  1        2 0.90953694E-02 0.80412500E+02</pdfrwt>
<pdfrwt beam="2">  1       -1 0.42066859E-02 0.80412500E+02</pdfrwt>
<totfact> 0.15297556E+05</totfact>
</mgrwt>
</event>
<event>
 8    1  0.2389776E-016  0.8550637E+02  0.7818608E-02  0.1314114E+00
         -1   -1    0    0    0  501 -0.00000000000E+00  0.00000000000E+00  0.35920132082E+01  0.35920167440E+01  0.50400000000E-02 0.  1.
          2   -1    0    0  501    0  0.00000000000E+00 -0.00000000000E+00 -0.50886059733E+03  0.50886059733E+03  0.25500000000E-02 0. -1.
         24    2    1    2    0    0 -0.88817841970E-15  0.00000000000E+00 -0.50526858412E+03  0.51245261408E+03  0.85506371560E+02 0.  0.
         66    2    3    3    0    0 -0.66351634534E+01  0.25287087002E+02 -0.45533422169E+03  0.45608849536E+03  0.19999996927E+01 0.  0.
        -13    1    3    3    0    0  0.66351634534E+01 -0.25287087002E+02 -0.49934362431E+02  0.56364118715E+02  0.10566000000E+00 0.  1.
         13    1    4    4    0    0 -0.34487724504E+01  0.12473936977E+02 -0.23794400805E+03  0.23829573069E+03  0.10566000000E+00 0. -1.
        -13    1    4    4    0    0 -0.14423971831E+01  0.73620108638E+01 -0.11918040153E+03  0.11941632630E+03  0.10566000000E+00 0.  1.
         14    1    4    4    0    0 -0.17439938200E+01  0.54511391608E+01 -0.98209812108E+02  0.98376438372E+02  0.00000000000E+00 0. -1.
<mgrwt>
<rscale>  0 0.85506372E+02</rscale>
<asrwt>0</asrwt>
<pdfrwt beam="1">  1        2 0.78286189E-01 0.85506372E+02</pdfrwt>
<pdfrwt beam="2">  1       -1 0.55261809E-03 0.85506372E+02</pdfrwt>
<totfact> 0.25730589E+05</totfact>
</mgrwt>
</event>
<event>
 8    1  0.2389776E-016  0.7855846E+02  0.7818608E-02  0.1333193E+00
         -1   -1    0    0    0  501 -0.00000000000E+00  0.00000000000E+00  0.23241928958E+01  0.23241983604E+01  0.50400000000E-02 0.  1.
          2   -1    0    0  501    0  0.00000000000E+00 -0.00000000000E+00 -0.66382437340E+03  0.66382437340E+03  0.25500000000E-02 0. -1.
         24    2    1    2    0    0  0.17763568394E-14 -0.35527136788E-14 -0.66150018050E+03  0.66614857176E+03  0.78558455037E+02 0.  0.
         66    2    3    3    0    0  0.11700677550E+02  0.30086108200E+02 -0.52034191748E+03  0.52134613344E+03  0.20000003020E+01 0.  0.
        -13    1    3    3    0    0 -0.11700677550E+02 -0.30086108200E+02 -0.14115826302E+03  0.14480243832E+03  0.10566000000E+00 0.  1.
         13    1    4    4    0    0  0.31883142576E+01  0.78549529526E+01 -0.13115140932E+03  0.13142514586E+03  0.10566000000E+00 0. -1.
        -13    1    4    4    0    0  0.26310350336E+01  0.86019779303E+01 -0.13992696373E+03  0.14021584330E+03  0.10566000000E+00 0.  1.
        -14    1    4    4    0    0  0.58813282588E+01  0.13629177317E+02 -0.24926354444E+03  0.24970514428E+03  0.00000000000E+00 0.  1.
<mgrwt>
<rscale>  0 0.78558455E+02</rscale>
<asrwt>0</asrwt>
<pdfrwt beam="1">  1        2 0.10212668E+00 0.78558455E+02</pdfrwt>
<pdfrwt beam="2">  1       -1 0.35756909E-03 0.78558455E+02</pdfrwt>
<totfact> 0.34629199E+05</totfact>
</mgrwt>
</event>
<event>
 8    1  0.2389776E-016  0.8068826E+02  0.7818608E-02  0.1327110E+00
          2   -1    0    0  501    0  0.00000000000E+00  0.00000000000E+00  0.19940524746E+02  0.19940524909E+02  0.25500000000E-02 0. -1.
         -1   -1    0    0    0  501 -0.00000000000E+00 -0.00000000000E+00 -0.81625175397E+02  0.81625175553E+02  0.50400000000E-02 0.  1.
         24    2    1    2    0    0  0.00000000000E+00  0.00000000000E+00 -0.61684650651E+02  0.10156570046E+03  0.80688260512E+02 0.  0.
         66    2    3    3    0    0  0.18362437843E+02  0.18243781397E+02  0.80505873267E+01  0.27181365666E+02  0.19999999941E+01 0.  0.
        -13    1    3    3    0    0 -0.18362437843E+02 -0.18243781397E+02 -0.69735237978E+02  0.74384334796E+02  0.10566000000E+00 0.  1.
         13    1    4    4    0    0  0.11380524196E+02  0.11241606270E+02  0.46544199484E+01  0.16660277056E+02  0.10566000000E+00 0. -1.
        -13    1    4    4    0    0  0.27000928170E+01  0.34029093102E+01  0.18075936276E+01  0.47062566603E+01  0.10566000000E+00 0.  1.
        -14    1    4    4    0    0  0.42818208302E+01  0.35992658173E+01  0.15885737507E+01  0.58148319500E+01  0.00000000000E+00 0.  1.
<mgrwt>
<rscale>  0 0.80688261E+02</rscale>
<asrwt>0</asrwt>
<pdfrwt beam="1">  1        2 0.30677731E-02 0.80688261E+02</pdfrwt>
<pdfrwt beam="2">  1       -1 0.12557719E-01 0.80688261E+02</pdfrwt>
<totfact> 0.12106347E+05</totfact>
</mgrwt>
</event>
<event>
 8    1  0.2389776E-016  0.7997986E+02  0.7818608E-02  0.1329109E+00
         -1   -1    0    0    0  501 -0.00000000000E+00  0.00000000000E+00  0.80949804816E+02  0.80949804973E+02  0.50400000000E-02 0.  1.
          2   -1    0    0  501    0  0.00000000000E+00 -0.00000000000E+00 -0.19755383139E+02  0.19755383303E+02  0.25500000000E-02 0. -1.
         24    2    1    2    0    0 -0.35527136788E-14  0.00000000000E+00  0.61194421677E+02  0.10070518828E+03  0.79979858097E+02 0.  0.
         66    2    3    3    0    0 -0.28937194585E+02 -0.86309239982E+01 -0.23464109431E+01  0.30353907878E+02  0.19999999023E+01 0.  0.
        -13    1    3    3    0    0  0.28937194585E+02  0.86309239982E+01  0.63540832621E+02  0.70351280398E+02  0.10566000000E+00 0.  1.
         13    1    4    4    0    0 -0.16282674751E+02 -0.52026491259E+01 -0.67555462081E+00  0.17107325713E+02  0.10566000000E+00 0. -1.
        -13    1    4    4    0    0 -0.11565474332E+02 -0.29348374080E+01 -0.13497726444E+01  0.12008601807E+02  0.10566000000E+00 0.  1.
         14    1    4    4    0    0 -0.10890455020E+01 -0.49343746439E+00 -0.32108367793E+00  0.12379803573E+01  0.00000000000E+00 0. -1.
<mgrwt>
<rscale>  0 0.79979858E+02</rscale>
<asrwt>0</asrwt>
<pdfrwt beam="1">  1        2 0.30392897E-02 0.79979858E+02</pdfrwt>
<pdfrwt beam="2">  1       -1 0.12453816E-01 0.79979858E+02</pdfrwt>
<totfact> 0.12393785E+05</totfact>
</mgrwt>
</event>
<event>
 8    1  0.2389776E-016  0.7154618E+02  0.7818608E-02  0.1354913E+00
          2   -1    0    0  501    0  0.00000000000E+00  0.00000000000E+00  0.37998028211E+01  0.37998036767E+01  0.25500000000E-02 0. -1.
         -1   -1    0    0    0  501 -0.00000000000E+00 -0.00000000000E+00 -0.33678425845E+03  0.33678425849E+03  0.50400000000E-02 0.  1.
         24    2    1    2    0    0  0.17763568394E-14  0.00000000000E+00 -0.33298445563E+03  0.34058406217E+03  0.71546178864E+02 0.  0.
         66    2    3    3    0    0  0.84006050602E+01 -0.33742085848E+02 -0.12719135709E+03  0.13187395438E+03  0.20000004079E+01 0.  0.
        -13    1    3    3    0    0 -0.84006050602E+01  0.33742085848E+02 -0.20579309854E+03  0.20871010779E+03  0.10566000000E+00 0.  1.
         13    1    4    4    0    0  0.35329015942E+01 -0.14026503047E+02 -0.50959703417E+02  0.52972886629E+02  0.10566000000E+00 0. -1.
        -13    1    4    4    0    0  0.30940442471E+01 -0.98935534917E+01 -0.38248237537E+02  0.39628201438E+02  0.10566000000E+00 0.  1.
        -14    1    4    4    0    0  0.17736592190E+01 -0.98220293093E+01 -0.37983416138E+02  0.39272866311E+02  0.00000000000E+00 0.  1.
<mgrwt>
<rscale>  0 0.71546179E+02</rscale>
<asrwt>0</asrwt>
<pdfrwt beam="1">  1        2 0.58458538E-03 0.71546179E+02</pdfrwt>
<pdfrwt beam="2">  1       -1 0.51812939E-01 0.71546179E+02</pdfrwt>
<totfact> 0.10950085E+05</totfact>
</mgrwt>
</event>
<event>
 8    1  0.2389776E-016  0.8226614E+02  0.7818608E-02  0.1322741E+00
          2   -1    0    0  501    0  0.00000000000E+00  0.00000000000E+00  0.22898158719E+03  0.22898158721E+03  0.25500000000E-02 0. -1.
         -1   -1    0    0    0  501 -0.00000000000E+00 -0.00000000000E+00 -0.73889312992E+01  0.73889330181E+01  0.50400000000E-02 0.  1.
         24    2    1    2    0    0  0.00000000000E+00  0.00000000000E+00  0.22159265589E+03  0.23637052023E+03  0.82266139362E+02 0.  0.
         66    2    3    3    0    0  0.81233868551E+01  0.34368017588E+02  0.17132097509E+03  0.17493434927E+03  0.20000003709E+01 0.  0.
        -13    1    3    3    0    0 -0.81233868551E+01 -0.34368017588E+02  0.50271680804E+02  0.61436170957E+02  0.10566000000E+00 0.  1.
         13    1    4    4    0    0  0.53447929955E+01  0.24317696572E+02  0.11710105319E+03  0.11971877464E+03  0.10566000000E+00 0. -1.
        -13    1    4    4    0    0  0.20869074240E+01  0.79126562496E+01  0.43389000149E+02  0.44154069002E+02  0.10566000000E+00 0.  1.
         14    1    4    4    0    0  0.69168643550E+00  0.21376647658E+01  0.10830921755E+02  0.11061505631E+02  0.00000000000E+00 0. -1.
<mgrwt>
<rscale>  0 0.82266139E+02</rscale>
<asrwt>0</asrwt>
<pdfrwt beam="1">  1        2 0.35227935E-01 0.82266139E+02</pdfrwt>
<pdfrwt beam="2">  1       -1 0.11367588E-02 0.82266139E+02</pdfrwt>
<totfact> 0.21490141E+05</totfact>
</mgrwt>
</event>
<event>
 8    1  0.2389776E-016  0.7862767E+02  0.7818608E-02  0.1332992E+00
         -1   -1    0    0    0  501 -0.00000000000E+00  0.00000000000E+00  0.18934845749E+02  0.18934846420E+02  0.50400000000E-02 0.  1.
          2   -1    0    0  501    0  0.00000000000E+00 -0.00000000000E+00 -0.81626089605E+02  0.81626089645E+02  0.25500000000E-02 0. -1.
         24    2    1    2    0    0 -0.17763568394E-14 -0.71054273576E-14 -0.62691243856E+02  0.10056093606E+03  0.78627665652E+02 0.  0.
         66    2    3    3    0    0 -0.10716814843E+02 -0.35044572157E+02 -0.49480071807E+02  0.61605597676E+02  0.20000002250E+01 0.  0.
        -13    1    3    3    0    0  0.10716814843E+02  0.35044572157E+02 -0.13211172049E+02  0.38955338389E+02  0.10566000000E+00 0.  1.
         13    1    4    4    0    0 -0.23953185493E+01 -0.69636082454E+01 -0.99928881115E+01  0.12413636357E+02  0.10566000000E+00 0. -1.
        -13    1    4    4    0    0 -0.55821135663E+01 -0.15939005763E+02 -0.22592476519E+02  0.28207145476E+02  0.10566000000E+00 0.  1.
        -14    1    4    4    0    0 -0.27393827278E+01 -0.12141958148E+02 -0.16894707177E+02  0.20984815844E+02  0.00000000000E+00 0.  1.
<mgrwt>
<rscale>  0 0.78627666E+02</rscale>
<asrwt>0</asrwt>
<pdfrwt beam="1">  1        2 0.12557860E-01 0.78627666E+02</pdfrwt>
<pdfrwt beam="2">  1       -1 0.29130533E-02 0.78627666E+02</pdfrwt>
<totfact> 0.17582533E+05</totfact>
</mgrwt>
</event>
<event>
 8    1  0.2389776E-016  0.8033492E+02  0.7818608E-02  0.1328104E+00
         -1   -1    0    0    0  501 -0.00000000000E+00  0.00000000000E+00  0.72090967966E+01  0.72090985584E+01  0.50400000000E-02 0.  1.
          2   -1    0    0  501    0  0.00000000000E+00 -0.00000000000E+00 -0.22380400648E+03  0.22380400649E+03  0.25500000000E-02 0. -1.
         24    2    1    2    0    0  0.00000000000E+00  0.00000000000E+00 -0.21659490968E+03  0.23101310505E+03  0.80334922701E+02 0.  0.
         66    2    3    3    0    0 -0.10718531009E+02 -0.28978682040E+02 -0.18205948499E+03  0.18467351461E+03  0.20000006602E+01 0.  0.
        -13    1    3    3    0    0  0.10718531009E+02  0.28978682040E+02 -0.34535424686E+02  0.46339590439E+02  0.10566000000E+00 0.  1.
         13    1    4    4    0    0 -0.75692979907E+01 -0.19760768216E+02 -0.12462602104E+03  0.12640980388E+03  0.10566000000E+00 0. -1.
        -13    1    4    4    0    0 -0.18287692042E+01 -0.39616279927E+01 -0.23944339370E+02  0.24338887507E+02  0.10566000000E+00 0.  1.
        -14    1    4    4    0    0 -0.13204638140E+01 -0.52562858311E+01 -0.33489124580E+02  0.33924823220E+02  0.00000000000E+00 0.  1.
<mgrwt>
<rscale>  0 0.80334923E+02</rscale>
<asrwt>0</asrwt>
<pdfrwt beam="1">  1        2 0.34431380E-01 0.80334923E+02</pdfrwt>
<pdfrwt beam="2">  1       -1 0.11090921E-02 0.80334923E+02</pdfrwt>
<totfact> 0.22694641E+05</totfact>
</mgrwt>
</event>
<event>
 8    1  0.2389776E-016  0.8009156E+02  0.7818608E-02  0.1328792E+00
          2   -1    0    0  501    0  0.00000000000E+00  0.00000000000E+00  0.22022191806E+03  0.22022191807E+03  0.25500000000E-02 0. -1.
         -1   -1    0    0    0  501 -0.00000000000E+00 -0.00000000000E+00 -0.72820373678E+01  0.72820391119E+01  0.50400000000E-02 0.  1.
         24    2    1    2    0    0  0.44408920985E-15  0.71054273576E-14  0.21293988069E+03  0.22750395718E+03  0.80091558521E+02 0.  0.
         66    2    3    3    0    0 -0.13798716479E+01 -0.34511234998E+02  0.16396372641E+03  0.16757396270E+03  0.20000024774E+01 0.  0.
        -13    1    3    3    0    0  0.13798716479E+01  0.34511234998E+02  0.48976154281E+02  0.59929994485E+02  0.10566000000E+00 0.  1.
         13    1    4    4    0    0 -0.38882282537E+00 -0.15072158639E+02  0.71316154997E+02  0.72892566678E+02  0.10566000000E+00 0. -1.
        -13    1    4    4    0    0 -0.10951592312E+00 -0.22533074761E+01  0.87127441825E+01  0.90006923925E+01  0.10566000000E+00 0.  1.
        -14    1    4    4    0    0 -0.88153289941E+00 -0.17185768882E+02  0.83934827229E+02  0.85680703628E+02  0.00000000000E+00 0.  1.
<mgrwt>
<rscale>  0 0.80091559E+02</rscale>
<asrwt>0</asrwt>
<pdfrwt beam="1">  1        2 0.33880292E-01 0.80091559E+02</pdfrwt>
<pdfrwt beam="2">  1       -1 0.11203137E-02 0.80091559E+02</pdfrwt>
<totfact> 0.22746687E+05</totfact>
</mgrwt>
</event>
<event>
 8    1  0.2389776E-016  0.8041599E+02  0.7818608E-02  0.1327875E+00
          2   -1    0    0  501    0  0.00000000000E+00  0.00000000000E+00  0.14544385706E+02  0.14544385930E+02  0.25500000000E-02 0. -1.
         -1   -1    0    0    0  501 -0.00000000000E+00 -0.00000000000E+00 -0.11115511463E+03  0.11115511474E+03  0.50400000000E-02 0.  1.
         24    2    1    2    0    0  0.00000000000E+00  0.00000000000E+00 -0.96610728923E+02  0.12569950067E+03  0.80415990490E+02 0.  0.
         66    2    3    3    0    0  0.26354060993E+02 -0.26717692384E+02 -0.70786764590E+02  0.80144479929E+02  0.20000012071E+01 0.  0.
        -13    1    3    3    0    0 -0.26354060993E+02  0.26717692384E+02 -0.25823964334E+02  0.45555020745E+02  0.10566000000E+00 0.  1.
         13    1    4    4    0    0  0.41944036119E+01 -0.38463962274E+01 -0.10227430274E+02  0.11704669138E+02  0.10566000000E+00 0. -1.
        -13    1    4    4    0    0  0.17755947988E+02 -0.19138704207E+02 -0.50006345662E+02  0.56411075670E+02  0.10566000000E+00 0.  1.
        -14    1    4    4    0    0  0.44037093935E+01 -0.37325919489E+01 -0.10552988654E+02  0.12028735121E+02  0.00000000000E+00 0.  1.
<mgrwt>
<rscale>  0 0.80415990E+02</rscale>
<asrwt>0</asrwt>
<pdfrwt beam="1">  1        2 0.22375979E-02 0.80415990E+02</pdfrwt>
<pdfrwt beam="2">  1       -1 0.17100786E-01 0.80415990E+02</pdfrwt>
<totfact> 0.11433347E+05</totfact>
</mgrwt>
</event>
<event>
 8    1  0.2389776E-016  0.7946633E+02  0.7818608E-02  0.1330573E+00
         -1   -1    0    0    0  501 -0.00000000000E+00  0.00000000000E+00  0.21593793901E+02  0.21593794490E+02  0.50400000000E-02 0.  1.
          2   -1    0    0  501    0  0.00000000000E+00 -0.00000000000E+00 -0.73110089520E+02  0.73110089564E+02  0.25500000000E-02 0. -1.
         24    2    1    2    0    0  0.00000000000E+00  0.35527136788E-14 -0.51516295618E+02  0.94703884054E+02  0.79466325828E+02 0.  0.
         66    2    3    3    0    0  0.20464086416E+02 -0.30859652324E+02 -0.42863541061E+02  0.56677862702E+02  0.19999984586E+01 0.  0.
        -13    1    3    3    0    0 -0.20464086416E+02  0.30859652324E+02 -0.86527545577E+01  0.38026021352E+02  0.10566000000E+00 0.  1.
         13    1    4    4    0    0  0.10639409532E+02 -0.16417456605E+02 -0.21859675490E+02  0.29335754518E+02  0.10566000000E+00 0. -1.
        -13    1    4    4    0    0  0.70240460074E+01 -0.10164791418E+02 -0.15640317995E+02  0.19932157884E+02  0.10566000000E+00 0.  1.
        -14    1    4    4    0    0  0.28006308760E+01 -0.42774043006E+01 -0.53635475759E+01  0.74099503003E+01  0.00000000000E+00 0.  1.
<mgrwt>
<rscale>  0 0.79466326E+02</rscale>
<asrwt>0</asrwt>
<pdfrwt beam="1">  1        2 0.11247706E-01 0.79466326E+02</pdfrwt>
<pdfrwt beam="2">  1       -1 0.33221222E-02 0.79466326E+02</pdfrwt>
<totfact> 0.16618095E+05</totfact>
</mgrwt>
</event>
<event>
 8    1  0.2389776E-016  0.7759281E+02  0.7818608E-02  0.1336025E+00
         -1   -1    0    0    0  501 -0.00000000000E+00  0.00000000000E+00  0.15045203131E+02  0.15045203975E+02  0.50400000000E-02 0.  1.
          2   -1    0    0  501    0  0.00000000000E+00 -0.00000000000E+00 -0.10004258966E+03  0.10004258969E+03  0.25500000000E-02 0. -1.
         24    2    1    2    0    0 -0.35527136788E-14  0.00000000000E+00 -0.84997386530E+02  0.11508779367E+03  0.77592812389E+02 0.  0.
         66    2    3    3    0    0  0.17272592325E+02 -0.15207045990E+02 -0.88806388841E+02  0.91761491861E+02  0.19999990616E+01 0.  0.
        -13    1    3    3    0    0 -0.17272592325E+02  0.15207045990E+02  0.38090023109E+01  0.23326301807E+02  0.10566000000E+00 0.  1.
         13    1    4    4    0    0  0.14896835325E+01 -0.19846418161E+01 -0.84389758574E+01  0.87968993244E+01  0.10566000000E+00 0. -1.
        -13    1    4    4    0    0  0.35787740088E+01 -0.27750322112E+01 -0.17309988791E+02  0.17892884149E+02  0.10566000000E+00 0. -1.
         14    1    4    4    0    0  0.12204134783E+02 -0.10447371963E+02 -0.63057424192E+02  0.65071708387E+02  0.00000000000E+00 0. -1.
<mgrwt>
<rscale>  0 0.77592812E+02</rscale>
<asrwt>0</asrwt>
<pdfrwt beam="1">  1        2 0.15391167E-01 0.77592812E+02</pdfrwt>
<pdfrwt beam="2">  1       -1 0.23146468E-02 0.77592812E+02</pdfrwt>
<totfact> 0.19237074E+05</totfact>
</mgrwt>
</event>
<event>
 8    1  0.2389776E-016  0.7941511E+02  0.7818608E-02  0.1330720E+00
          2   -1    0    0  501    0  0.00000000000E+00  0.00000000000E+00  0.59160443136E+03  0.59160443137E+03  0.25500000000E-02 0. -1.
         -1   -1    0    0    0  501 -0.00000000000E+00 -0.00000000000E+00 -0.26651058640E+01  0.26651106296E+01  0.50400000000E-02 0.  1.
         24    2    1    2    0    0  0.00000000000E+00  0.00000000000E+00  0.58893932550E+03  0.59426954200E+03  0.79415108307E+02 0.  0.
         66    2    3    3    0    0  0.38487288534E+02  0.44768244218E+01  0.35875386966E+03  0.36084574591E+03  0.20000027210E+01 0.  0.
        -13    1    3    3    0    0 -0.38487288534E+02 -0.44768244218E+01  0.23018545584E+03  0.23342379609E+03  0.10566000000E+00 0.  1.
         13    1    4    4    0    0  0.74263479507E+01  0.53433411484E+00  0.67406833646E+02  0.67816875061E+02  0.10566000000E+00 0. -1.
        -13    1    4    4    0    0  0.25962648863E+01 -0.92628487710E-01  0.24707649790E+02  0.24844079649E+02  0.10566000000E+00 0.  1.
         14    1    4    4    0    0  0.28464675697E+02  0.40351187947E+01  0.26663938622E+03  0.26818479120E+03  0.00000000000E+00 0. -1.
<mgrwt>
<rscale>  0 0.79415108E+02</rscale>
<asrwt>0</asrwt>
<pdfrwt beam="1">  1        2 0.91016128E-01 0.79415108E+02</pdfrwt>
<pdfrwt beam="2">  1       -1 0.41001638E-03 0.79415108E+02</pdfrwt>
<totfact> 0.32654222E+05</totfact>
</mgrwt>
</event>
<event>
 8    1  0.2389776E-016  0.8073982E+02  0.7818608E-02  0.1326965E+00
          2   -1    0    0  501    0  0.00000000000E+00  0.00000000000E+00  0.11565023992E+03  0.11565023995E+03  0.25500000000E-02 0. -1.
         -1   -1    0    0    0  501 -0.00000000000E+00 -0.00000000000E+00 -0.14091882176E+02  0.14091883077E+02  0.50400000000E-02 0.  1.
         24    2    1    2    0    0  0.00000000000E+00  0.35527136788E-14  0.10155835775E+03  0.12974212303E+03  0.80739819542E+02 0.  0.
         66    2    3    3    0    0  0.16952554316E+02  0.26383937533E+02  0.91596283170E+02  0.96836874944E+02  0.20000001856E+01 0.  0.
        -13    1    3    3    0    0 -0.16952554316E+02 -0.26383937533E+02  0.99620745760E+01  0.32905248084E+02  0.10566000000E+00 0.  1.
         13    1    4    4    0    0  0.15893956565E+01  0.20749448379E+01  0.79819282242E+01  0.83996378996E+01  0.10566000000E+00 0.  1.
        -13    1    4    4    0    0  0.65768732813E+01  0.10420919454E+02  0.38395483345E+02  0.40324621880E+02  0.10566000000E+00 0.  1.
         14    1    4    4    0    0  0.87862853783E+01  0.13888073240E+02  0.45218871601E+02  0.48112615164E+02  0.00000000000E+00 0. -1.
<mgrwt>
<rscale>  0 0.80739820E+02</rscale>
<asrwt>0</asrwt>
<pdfrwt beam="1">  1        2 0.17792345E-01 0.80739820E+02</pdfrwt>
<pdfrwt beam="2">  1       -1 0.21679819E-02 0.80739820E+02</pdfrwt>
<totfact> 0.18033827E+05</totfact>
</mgrwt>
</event>
<event>
 8    1  0.2389776E-016  0.8002154E+02  0.7818608E-02  0.1328990E+00
         -1   -1    0    0    0  501 -0.00000000000E+00  0.00000000000E+00  0.11192303489E+02  0.11192304624E+02  0.50400000000E-02 0.  1.
          2   -1    0    0  501    0  0.00000000000E+00 -0.00000000000E+00 -0.14303234788E+03  0.14303234791E+03  0.25500000000E-02 0. -1.
         24    2    1    2    0    0  0.00000000000E+00  0.00000000000E+00 -0.13184004439E+03  0.15422465253E+03  0.80021535489E+02 0.  0.
         66    2    3    3    0    0 -0.95220274679E+01 -0.17100800039E+02 -0.13316105768E+03  0.13460673701E+03  0.19999992886E+01 0.  0.
        -13    1    3    3    0    0  0.95220274679E+01  0.17100800039E+02  0.13210132879E+01  0.19617915517E+02  0.10566000000E+00 0.  1.
         13    1    4    4    0    0 -0.22060331906E+01 -0.38848525759E+01 -0.27411263224E+02  0.27773137698E+02  0.10566000000E+00 0. -1.
        -13    1    4    4    0    0 -0.11806930088E+01 -0.14460503983E+01 -0.10817793176E+02  0.10978201627E+02  0.10566000000E+00 0.  1.
         14    1    4    4    0    0 -0.61353012685E+01 -0.11769897065E+02 -0.94932001281E+02  0.95855397688E+02  0.00000000000E+00 0. -1.
<mgrwt>
<rscale>  0 0.80021535E+02</rscale>
<asrwt>0</asrwt>
<pdfrwt beam="1">  1        2 0.22004975E-01 0.80021535E+02</pdfrwt>
<pdfrwt beam="2">  1       -1 0.17218930E-02 0.80021535E+02</pdfrwt>
<totfact> 0.19713413E+05</totfact>
</mgrwt>
</event>
<event>
 8    1  0.2389776E-016  0.8356982E+02  0.7818608E-02  0.1319216E+00
         -1   -1    0    0    0  501 -0.00000000000E+00  0.00000000000E+00  0.38485148645E+02  0.38485148975E+02  0.50400000000E-02 0.  1.
          2   -1    0    0  501    0  0.00000000000E+00 -0.00000000000E+00 -0.45367597464E+02  0.45367597536E+02  0.25500000000E-02 0. -1.
         24    2    1    2    0    0  0.00000000000E+00  0.00000000000E+00 -0.68824488190E+01  0.83852746510E+02  0.83569821081E+02 0.  0.
         66    2    3    3    0    0 -0.72482583402E+01 -0.15403384890E+02 -0.41705901284E+02  0.45090838396E+02  0.19999975685E+01 0.  0.
        -13    1    3    3    0    0  0.72482583402E+01  0.15403384890E+02  0.34823452465E+02  0.38761908114E+02  0.10566000000E+00 0.  1.
         13    1    4    4    0    0 -0.24348861272E+01 -0.61085563773E+01 -0.17187552691E+02  0.18402887355E+02  0.10566000000E+00 0. -1.
        -13    1    4    4    0    0 -0.47582220183E+01 -0.85168199222E+01 -0.22506105993E+02  0.24529836309E+02  0.10566000000E+00 0.  1.
        -14    1    4    4    0    0 -0.55150194628E-01 -0.77800859077E+00 -0.20122426003E+01  0.21581147314E+01  0.00000000000E+00 0.  1.
<mgrwt>
<rscale>  0 0.83569821E+02</rscale>
<asrwt>0</asrwt>
<pdfrwt beam="1">  1        2 0.69796304E-02 0.83569821E+02</pdfrwt>
<pdfrwt beam="2">  1       -1 0.59207921E-02 0.83569821E+02</pdfrwt>
<totfact> 0.12973942E+05</totfact>
</mgrwt>
</event>
<event>
 8    1  0.2389776E-016  0.8503679E+02  0.7818608E-02  0.1315336E+00
          2   -1    0    0  501    0  0.00000000000E+00  0.00000000000E+00  0.93043952697E+02  0.93043952732E+02  0.25500000000E-02 0. -1.
         -1   -1    0    0    0  501 -0.00000000000E+00 -0.00000000000E+00 -0.19429677534E+02  0.19429678188E+02  0.50400000000E-02 0.  1.
         24    2    1    2    0    0  0.00000000000E+00  0.00000000000E+00  0.73614275163E+02  0.11247363092E+03  0.85036792888E+02 0.  0.
         66    2    3    3    0    0  0.14765021531E+02 -0.38449679442E+02  0.50663190769E+02  0.65323369533E+02  0.19999995674E+01 0.  0.
        -13    1    3    3    0    0 -0.14765021531E+02  0.38449679442E+02  0.22951084394E+02  0.47150261388E+02  0.10566000000E+00 0.  1.
         13    1    4    4    0    0  0.10668152840E+01 -0.16630805419E+01  0.23639397953E+01  0.30827434422E+01  0.10566000000E+00 0. -1.
        -13    1    4    4    0    0  0.15439619799E+01 -0.39300628991E+01  0.51273988768E+01  0.66430863508E+01  0.10566000000E+00 0. -1.
         14    1    4    4    0    0  0.12154244267E+02 -0.32856536001E+02  0.43171852096E+02  0.55597539740E+02  0.00000000000E+00 0. -1.
<mgrwt>
<rscale>  0 0.85036793E+02</rscale>
<asrwt>0</asrwt>
<pdfrwt beam="1">  1        2 0.14314454E-01 0.85036793E+02</pdfrwt>
<pdfrwt beam="2">  1       -1 0.29891813E-02 0.85036793E+02</pdfrwt>
<totfact> 0.14740910E+05</totfact>
</mgrwt>
</event>
<event>
 8    1  0.2389776E-016  0.7827602E+02  0.7818608E-02  0.1334016E+00
         -1   -1    0    0    0  501 -0.00000000000E+00  0.00000000000E+00  0.48411066890E+02  0.48411067153E+02  0.50400000000E-02 0.  1.
          2   -1    0    0  501    0  0.00000000000E+00 -0.00000000000E+00 -0.31641191533E+02  0.31641191636E+02  0.25500000000E-02 0. -1.
         24    2    1    2    0    0  0.17763568394E-14  0.35527136788E-14  0.16769875357E+02  0.80052258789E+02  0.78276020707E+02 0.  0.
         66    2    3    3    0    0 -0.13299520121E+02 -0.23161278883E+02 -0.20831706738E+02  0.33930547902E+02  0.20000000812E+01 0.  0.
        -13    1    3    3    0    0  0.13299520121E+02  0.23161278883E+02  0.37601582096E+02  0.46121710887E+02  0.10566000000E+00 0.  1.
         13    1    4    4    0    0 -0.99181746176E+00 -0.23742483585E+01 -0.16112025513E+01  0.30377450258E+01  0.10566000000E+00 0. -1.
        -13    1    4    4    0    0 -0.99340304490E+01 -0.16696605400E+02 -0.16029935855E+02  0.25187925686E+02  0.10566000000E+00 0.  1.
        -14    1    4    4    0    0 -0.23736722105E+01 -0.40904251253E+01 -0.31905683324E+01  0.57048771899E+01  0.00000000000E+00 0.  1.
<mgrwt>
<rscale>  0 0.78276021E+02</rscale>
<asrwt>0</asrwt>
<pdfrwt beam="1">  1        2 0.48678756E-02 0.78276021E+02</pdfrwt>
<pdfrwt beam="2">  1       -1 0.74478565E-02 0.78276021E+02</pdfrwt>
<totfact> 0.14449887E+05</totfact>
</mgrwt>
</event>
<event>
 8    1  0.2389776E-016  0.7593734E+02  0.7818608E-02  0.1340993E+00
         -1   -1    0    0    0  501 -0.00000000000E+00  0.00000000000E+00  0.64160586948E+01  0.64160606744E+01  0.50400000000E-02 0.  1.
          2   -1    0    0  501    0  0.00000000000E+00 -0.00000000000E+00 -0.22468927587E+03  0.22468927589E+03  0.25500000000E-02 0. -1.
         24    2    1    2    0    0 -0.13877787808E-16  0.00000000000E+00 -0.21827321718E+03  0.23110533656E+03  0.75937337654E+02 0.  0.
         66    2    3    3    0    0 -0.93883193363E-01  0.36328864703E+02 -0.75898721827E+02  0.84168944490E+02  0.20000042187E+01 0.  0.
        -13    1    3    3    0    0  0.93883193363E-01 -0.36328864703E+02 -0.14237449535E+03  0.14693639207E+03  0.10566000000E+00 0.  1.
         13    1    4    4    0    0  0.19331848178E+00  0.93724675474E+00 -0.22556407507E+01  0.24525257892E+01  0.10566000000E+00 0. -1.
        -13    1    4    4    0    0 -0.45731960362E+00  0.53895748978E+01 -0.10861646256E+02  0.12134380175E+02  0.10566000000E+00 0.  1.
         14    1    4    4    0    0  0.17011792848E+00  0.30002043050E+02 -0.62781434821E+02  0.69582038526E+02  0.00000000000E+00 0. -1.
<mgrwt>
<rscale>  0 0.75937338E+02</rscale>
<asrwt>0</asrwt>
<pdfrwt beam="1">  1        2 0.34567575E-01 0.75937338E+02</pdfrwt>
<pdfrwt beam="2">  1       -1 0.98708628E-03 0.75937338E+02</pdfrwt>
<totfact> 0.26348654E+05</totfact>
</mgrwt>
</event>
<event>
 8    1  0.2389776E-016  0.8000672E+02  0.7818608E-02  0.1329032E+00
         -1   -1    0    0    0  501 -0.00000000000E+00  0.00000000000E+00  0.12920552088E+02  0.12920553071E+02  0.50400000000E-02 0.  1.
          2   -1    0    0  501    0  0.00000000000E+00 -0.00000000000E+00 -0.12385451167E+03  0.12385451170E+03  0.25500000000E-02 0. -1.
         24    2    1    2    0    0  0.00000000000E+00  0.00000000000E+00 -0.11093395959E+03  0.13677506477E+03  0.80006718180E+02 0.  0.
         66    2    3    3    0    0  0.10863376876E+02 -0.28872090108E+02 -0.98974202781E+02  0.10368945625E+03  0.19999942438E+01 0.  0.
        -13    1    3    3    0    0 -0.10863376876E+02  0.28872090108E+02 -0.11959756805E+02  0.33085608522E+02  0.10566000000E+00 0.  1.
         13    1    4    4    0    0  0.84685569428E+01 -0.20169682380E+02 -0.69976281059E+02  0.73315916545E+02  0.10566000000E+00 0. -1.
        -13    1    4    4    0    0  0.17121313387E+01 -0.61007933990E+01 -0.19683954456E+02  0.20678982105E+02  0.10566000000E+00 0.  1.
         14    1    4    4    0    0  0.68268859493E+00 -0.26016143292E+01 -0.93139672656E+01  0.96945576000E+01  0.00000000000E+00 0. -1.
<mgrwt>
<rscale>  0 0.80006718E+02</rscale>
<asrwt>0</asrwt>
<pdfrwt beam="1">  1        2 0.19054539E-01 0.80006718E+02</pdfrwt>
<pdfrwt beam="2">  1       -1 0.19877774E-02 0.80006718E+02</pdfrwt>
<totfact> 0.18861080E+05</totfact>
</mgrwt>
</event>
<event>
 8    1  0.2389776E-016  0.7636385E+02  0.7818608E-02  0.1339699E+00
          2   -1    0    0  501    0  0.00000000000E+00  0.00000000000E+00  0.66391139792E+02  0.66391139840E+02  0.25500000000E-02 0. -1.
         -1   -1    0    0    0  501 -0.00000000000E+00 -0.00000000000E+00 -0.21958643393E+02  0.21958643971E+02  0.50400000000E-02 0.  1.
         24    2    1    2    0    0  0.00000000000E+00  0.00000000000E+00  0.44432496399E+02  0.88349783812E+02  0.76363849847E+02 0.  0.
         66    2    3    3    0    0  0.38084077803E+02 -0.22685901078E+01  0.22876655684E+02  0.44529595359E+02  0.20000010865E+01 0.  0.
        -13    1    3    3    0    0 -0.38084077803E+02  0.22685901078E+01  0.21555840714E+02  0.43820188453E+02  0.10566000000E+00 0.  1.
         13    1    4    4    0    0  0.16502307002E+02 -0.11982279957E+01  0.10393385775E+02  0.19539588497E+02  0.10566000000E+00 0. -1.
        -13    1    4    4    0    0  0.13558842625E+02 -0.12128660806E+01  0.82399046663E+01  0.15912902011E+02  0.10566000000E+00 0.  1.
         14    1    4    4    0    0  0.80229281750E+01  0.14250396854E+00  0.42433652431E+01  0.90771048506E+01  0.00000000000E+00 0. -1.
<mgrwt>
<rscale>  0 0.76363850E+02</rscale>
<asrwt>0</asrwt>
<pdfrwt beam="1">  1        2 0.10214021E-01 0.76363850E+02</pdfrwt>
<pdfrwt beam="2">  1       -1 0.33782529E-02 0.76363850E+02</pdfrwt>
<totfact> 0.18077179E+05</totfact>
</mgrwt>
</event>
<event>
 8    1  0.2389776E-016  0.8018084E+02  0.7818608E-02  0.1328539E+00
         -1   -1    0    0    0  501 -0.00000000000E+00  0.00000000000E+00  0.45935944760E+01  0.45935972409E+01  0.50400000000E-02 0.  1.
          2   -1    0    0  501    0  0.00000000000E+00 -0.00000000000E+00 -0.34988751691E+03  0.34988751692E+03  0.25500000000E-02 0. -1.
         24    2    1    2    0    0  0.00000000000E+00 -0.35527136788E-14 -0.34529392243E+03  0.35448111416E+03  0.80180842015E+02 0.  0.
         66    2    3    3    0    0  0.21982351107E+02 -0.29009406283E+02 -0.24679362514E+03  0.24947116633E+03  0.20000012475E+01 0.  0.
        -13    1    3    3    0    0 -0.21982351107E+02  0.29009406283E+02 -0.98500297286E+02  0.10500994783E+03  0.10566000000E+00 0.  1.
         13    1    4    4    0    0  0.18800945892E+02 -0.24025116789E+02 -0.20325214317E+03  0.20552889497E+03  0.10566000000E+00 0. -1.
        -13    1    4    4    0    0  0.73325358235E+00 -0.12208020380E+01 -0.11183813384E+02  0.11274611491E+02  0.10566000000E+00 0.  1.
         14    1    4    4    0    0  0.24481516323E+01 -0.37634874560E+01 -0.32357668595E+02  0.32667659867E+02  0.00000000000E+00 0. -1.
<mgrwt>
<rscale>  0 0.80180842E+02</rscale>
<asrwt>0</asrwt>
<pdfrwt beam="1">  1        2 0.53828828E-01 0.80180842E+02</pdfrwt>
<pdfrwt beam="2">  1       -1 0.70670733E-03 0.80180842E+02</pdfrwt>
<totfact> 0.26787743E+05</totfact>
</mgrwt>
</event>
<event>
 8    1  0.2389776E-016  0.8038110E+02  0.7818608E-02  0.1327973E+00
         -1   -1    0    0    0  501 -0.00000000000E+00  0.00000000000E+00  0.27935005307E+02  0.27935005761E+02  0.50400000000E-02 0.  1.
          2   -1    0    0  501    0  0.00000000000E+00 -0.00000000000E+00 -0.57822799608E+02  0.57822799664E+02  0.25500000000E-02 0. -1.
         24    2    1    2    0    0  0.00000000000E+00  0.35527136788E-14 -0.29887794301E+02  0.85757805426E+02  0.80381098171E+02 0.  0.
         66    2    3    3    0    0  0.16711998965E+02  0.27734447302E+02 -0.40307983089E+02  0.51741897751E+02  0.20000013990E+01 0.  0.
        -13    1    3    3    0    0 -0.16711998965E+02 -0.27734447302E+02  0.10420188788E+02  0.34015907675E+02  0.10566000000E+00 0.  1.
         13    1    4    4    0    0  0.10262534792E+02  0.15580649871E+02 -0.23228302174E+02  0.29793312282E+02  0.10566000000E+00 0.  1.
        -13    1    4    4    0    0  0.50509961488E+01  0.10067164448E+02 -0.14269436093E+02  0.18179338068E+02  0.10566000000E+00 0. -1.
         14    1    4    4    0    0  0.13984680234E+01  0.20866329829E+01 -0.28102448216E+01  0.37692474017E+01  0.00000000000E+00 0. -1.
<mgrwt>
<rscale>  0 0.80381098E+02</rscale>
<asrwt>0</asrwt>
<pdfrwt beam="1">  1        2 0.88958153E-02 0.80381098E+02</pdfrwt>
<pdfrwt beam="2">  1       -1 0.42976932E-02 0.80381098E+02</pdfrwt>
<totfact> 0.15236069E+05</totfact>
</mgrwt>
</event>
<event>
 8    1  0.2389776E-016  0.7912986E+02  0.7818608E-02  0.1331539E+00
          2   -1    0    0  501    0  0.00000000000E+00  0.00000000000E+00  0.42124428873E+02  0.42124428951E+02  0.25500000000E-02 0. -1.
         -1   -1    0    0    0  501 -0.00000000000E+00 -0.00000000000E+00 -0.37160944772E+02  0.37160945114E+02  0.50400000000E-02 0.  1.
         24    2    1    2    0    0  0.00000000000E+00  0.00000000000E+00  0.49634841012E+01  0.79285374064E+02  0.79129857615E+02 0.  0.
         66    2    3    3    0    0  0.10421552243E+02 -0.37248264513E+02  0.10705343563E+02  0.40182662209E+02  0.20000002541E+01 0.  0.
        -13    1    3    3    0    0 -0.10421552243E+02  0.37248264513E+02 -0.57418594613E+01  0.39102711856E+02  0.10566000000E+00 0.  1.
         13    1    4    4    0    0  0.22722625796E+01 -0.10275154290E+02  0.33689263127E+01  0.11050013640E+02  0.10566000000E+00 0. -1.
        -13    1    4    4    0    0  0.30986366523E+01 -0.11649331773E+02  0.28874947102E+01  0.12395856953E+02  0.10566000000E+00 0.  1.
         14    1    4    4    0    0  0.50506530111E+01 -0.15323778450E+02  0.44489225397E+01  0.16736791616E+02  0.00000000000E+00 0. -1.
<mgrwt>
<rscale>  0 0.79129858E+02</rscale>
<asrwt>0</asrwt>
<pdfrwt beam="1">  1        2 0.64806814E-02 0.79129858E+02</pdfrwt>
<pdfrwt beam="2">  1       -1 0.57170685E-02 0.79129858E+02</pdfrwt>
<totfact> 0.14849368E+05</totfact>
</mgrwt>
</event>
<event>
 8    1  0.2389776E-016  0.7939536E+02  0.7818608E-02  0.1330776E+00
         -1   -1    0    0    0  501 -0.00000000000E+00  0.00000000000E+00  0.47240794889E+01  0.47240821774E+01  0.50400000000E-02 0.  1.
          2   -1    0    0  501    0  0.00000000000E+00 -0.00000000000E+00 -0.33358993194E+03  0.33358993195E+03  0.25500000000E-02 0. -1.
         24    2    1    2    0    0  0.00000000000E+00 -0.27755575616E-16 -0.32886585246E+03  0.33831401413E+03  0.79395360359E+02 0.  0.
         66    2    3    3    0    0  0.31254141511E+02  0.65494907813E-01 -0.26865822950E+03  0.27047748505E+03  0.19999981661E+01 0.  0.
        -13    1    3    3    0    0 -0.31254141511E+02 -0.65494907813E-01 -0.60207622960E+02  0.67836529081E+02  0.10566000000E+00 0.  1.
         13    1    4    4    0    0  0.96571944467E+01  0.40141104271E+00 -0.88796404675E+02  0.89320967206E+02  0.10566000000E+00 0. -1.
        -13    1    4    4    0    0  0.33031380044E+01  0.53654804983E-01 -0.25071883303E+02  0.25288813651E+02  0.10566000000E+00 0.  1.
        -14    1    4    4    0    0  0.18293809060E+02 -0.38957093988E+00 -0.15478994152E+03  0.15586770419E+03  0.00000000000E+00 0.  1.
<mgrwt>
<rscale>  0 0.79395360E+02</rscale>
<asrwt>0</asrwt>
<pdfrwt beam="1">  1        2 0.51321509E-01 0.79395360E+02</pdfrwt>
<pdfrwt beam="2">  1       -1 0.72678193E-03 0.79395360E+02</pdfrwt>
<totfact> 0.27021180E+05</totfact>
</mgrwt>
</event>
<event>
 8    1  0.2389776E-016  0.8097150E+02  0.7818608E-02  0.1326317E+00
         -1   -1    0    0    0  501 -0.00000000000E+00  0.00000000000E+00  0.32564581385E+02  0.32564581775E+02  0.50400000000E-02 0.  1.
          2   -1    0    0  501    0  0.00000000000E+00 -0.00000000000E+00 -0.50333698929E+02  0.50333698994E+02  0.25500000000E-02 0. -1.
         24    2    1    2    0    0  0.00000000000E+00  0.00000000000E+00 -0.17769117544E+02  0.82898280769E+02  0.80971497554E+02 0.  0.
         66    2    3    3    0    0 -0.19898288097E+02 -0.34484391072E+02 -0.15089868336E+01  0.39892256638E+02  0.20000003891E+01 0.  0.
        -13    1    3    3    0    0  0.19898288097E+02  0.34484391072E+02 -0.16260130711E+02  0.43006024131E+02  0.10566000000E+00 0.  1.
         13    1    4    4    0    0 -0.13858952183E+02 -0.22646821268E+02 -0.45648436226E+00  0.26555011037E+02  0.10566000000E+00 0. -1.
        -13    1    4    4    0    0 -0.26474363880E+01 -0.54823960912E+01 -0.62066897828E+00  0.61206192779E+01  0.10566000000E+00 0.  1.
         14    1    4    4    0    0 -0.33918995263E+01 -0.63551737132E+01 -0.43183349309E+00  0.72166263231E+01  0.00000000000E+00 0. -1.
<mgrwt>
<rscale>  0 0.80971498E+02</rscale>
<asrwt>0</asrwt>
<pdfrwt beam="1">  1        2 0.77436460E-02 0.80971498E+02</pdfrwt>
<pdfrwt beam="2">  1       -1 0.50099357E-02 0.80971498E+02</pdfrwt>
<totfact> 0.14477670E+05</totfact>
</mgrwt>
</event>
<event>
 8    1  0.2389776E-016  0.8075400E+02  0.7818608E-02  0.1326925E+00
         -1   -1    0    0    0  501 -0.00000000000E+00  0.00000000000E+00  0.19267360763E+01  0.19267426681E+01  0.50400000000E-02 0.  1.
          2   -1    0    0  501    0  0.00000000000E+00 -0.00000000000E+00 -0.84614558286E+03  0.84614558286E+03  0.25500000000E-02 0. -1.
         24    2    1    2    0    0  0.00000000000E+00 -0.55511151231E-16 -0.84421884678E+03  0.84807232553E+03  0.80753997228E+02 0.  0.
         66    2    3    3    0    0 -0.20067111574E+02  0.31995394771E+00 -0.79001081118E+03  0.79026822857E+03  0.19999923636E+01 0.  0.
        -13    1    3    3    0    0  0.20067111574E+02 -0.31995394771E+00 -0.54208035601E+02  0.57804096958E+02  0.10566000000E+00 0.  1.
         13    1    4    4    0    0 -0.11747612964E+02  0.53293223341E+00 -0.43243359461E+03  0.43259347583E+03  0.10566000000E+00 0. -1.
        -13    1    4    4    0    0 -0.78523301312E+01 -0.55282477873E-01 -0.33298652519E+03  0.33307911863E+03  0.10566000000E+00 0.  1.
         14    1    4    4    0    0 -0.46716847828E+00 -0.15769580783E+00 -0.24590691390E+02  0.24595634112E+02  0.00000000000E+00 0. -1.
<mgrwt>
<rscale>  0 0.80753997E+02</rscale>
<asrwt>0</asrwt>
<pdfrwt beam="1">  1        2 0.13017595E+00 0.80753997E+02</pdfrwt>
<pdfrwt beam="2">  1       -1 0.29642212E-03 0.80753997E+02</pdfrwt>
<totfact> 0.33837805E+05</totfact>
</mgrwt>
</event>
<event>
 8    1  0.2389776E-016  0.7900687E+02  0.7818608E-02  0.1331894E+00
          2   -1    0    0  501    0  0.00000000000E+00  0.00000000000E+00  0.47770735232E+03  0.47770735233E+03  0.25500000000E-02 0. -1.
         -1   -1    0    0    0  501 -0.00000000000E+00 -0.00000000000E+00 -0.32666874091E+01  0.32666912971E+01  0.50400000000E-02 0.  1.
         24    2    1    2    0    0  0.35527136788E-14  0.35527136788E-14  0.47444066491E+03  0.48097404362E+03  0.79006873871E+02 0.  0.
         66    2    3    3    0    0 -0.26060897724E+02 -0.18552901554E+02  0.37819987305E+03  0.37955569357E+03  0.19999994109E+01 0.  0.
        -13    1    3    3    0    0  0.26060897724E+02  0.18552901554E+02  0.96240791863E+02  0.10141835006E+03  0.10566000000E+00 0.  1.
         13    1    4    4    0    0 -0.10943790349E+02 -0.68349518970E+01  0.15456177238E+03  0.15509943830E+03  0.10566000000E+00 0. -1.
        -13    1    4    4    0    0 -0.17179485359E+01 -0.16288087290E+01  0.26117539201E+02  0.26224823793E+02  0.10566000000E+00 0.  1.
         14    1    4    4    0    0 -0.13399158840E+02 -0.10089140928E+02  0.19752056146E+03  0.19823143147E+03  0.00000000000E+00 0. -1.
<mgrwt>
<rscale>  0 0.79006874E+02</rscale>
<asrwt>0</asrwt>
<pdfrwt beam="1">  1        2 0.73493394E-01 0.79006874E+02</pdfrwt>
<pdfrwt beam="2">  1       -1 0.50256790E-03 0.79006874E+02</pdfrwt>
<totfact> 0.30999270E+05</totfact>
</mgrwt>
</event>
<event>
 8    1  0.2389776E-016  0.7803902E+02  0.7818608E-02  0.1334710E+00
          2   -1    0    0  501    0  0.00000000000E+00  0.00000000000E+00  0.34631558980E+02  0.34631559074E+02  0.25500000000E-02 0. -1.
         -1   -1    0    0    0  501 -0.00000000000E+00 -0.00000000000E+00 -0.43963428032E+02  0.43963428321E+02  0.50400000000E-02 0.  1.
         24    2    1    2    0    0  0.35527136788E-14  0.00000000000E+00 -0.93318690520E+01  0.78594987394E+02  0.78039017571E+02 0.  0.
         66    2    3    3    0    0 -0.21580378356E+02  0.83596157904E+01  0.26938047836E+02  0.35570413704E+02  0.20000009159E+01 0.  0.
        -13    1    3    3    0    0  0.21580378356E+02 -0.83596157904E+01 -0.36269916888E+02  0.43024573691E+02  0.10566000000E+00 0.  1.
         13    1    4    4    0    0 -0.18763671369E+01  0.92976556381E+00  0.20260829210E+01  0.29157149509E+01  0.10566000000E+00 0. -1.
        -13    1    4    4    0    0 -0.15947353928E+01  0.99663584976E+00  0.19381983213E+01  0.27026358908E+01  0.10566000000E+00 0.  1.
        -14    1    4    4    0    0 -0.18109275827E+02  0.64332143768E+01  0.22973766594E+02  0.29952062862E+02  0.00000000000E+00 0.  1.
<mgrwt>
<rscale>  0 0.78039018E+02</rscale>
<asrwt>0</asrwt>
<pdfrwt beam="1">  1        2 0.53279322E-02 0.78039018E+02</pdfrwt>
<pdfrwt beam="2">  1       -1 0.67636043E-02 0.78039018E+02</pdfrwt>
<totfact> 0.14832523E+05</totfact>
</mgrwt>
</event>
<event>
 8    1  0.2389776E-016  0.8129631E+02  0.7818608E-02  0.1325412E+00
          2   -1    0    0  501    0  0.00000000000E+00  0.00000000000E+00  0.69949926408E+03  0.69949926408E+03  0.25500000000E-02 0. -1.
         -1   -1    0    0    0  501 -0.00000000000E+00 -0.00000000000E+00 -0.23620764756E+01  0.23620818525E+01  0.50400000000E-02 0.  1.
         24    2    1    2    0    0  0.17763568394E-14  0.00000000000E+00  0.69713718760E+03  0.70186134594E+03  0.81296313445E+02 0.  0.
         66    2    3    3    0    0  0.15242158680E+02  0.83486186312E+01  0.66578305023E+03  0.66601283232E+03  0.20000005866E+01 0.  0.
        -13    1    3    3    0    0 -0.15242158680E+02 -0.83486186312E+01  0.31354137373E+02  0.35848513619E+02  0.10566000000E+00 0.  1.
         13    1    4    4    0    0  0.14523079263E+01  0.64396449927E+00  0.61643184401E+02  0.61663743283E+02  0.10566000000E+00 0. -1.
        -13    1    4    4    0    0  0.90434632220E+01  0.59277723019E+01  0.39717544895E+03  0.39732262851E+03  0.10566000000E+00 0.  1.
         14    1    4    4    0    0  0.47463875317E+01  0.17768818300E+01  0.20696441688E+03  0.20702646053E+03  0.00000000000E+00 0. -1.
<mgrwt>
<rscale>  0 0.81296313E+02</rscale>
<asrwt>0</asrwt>
<pdfrwt beam="1">  1        2 0.10761547E+00 0.81296313E+02</pdfrwt>
<pdfrwt beam="2">  1       -1 0.36339613E-03 0.81296313E+02</pdfrwt>
<totfact> 0.32076415E+05</totfact>
</mgrwt>
</event>
<event>
 8    1  0.2389776E-016  0.8019581E+02  0.7818608E-02  0.1328497E+00
         -1   -1    0    0    0  501 -0.00000000000E+00  0.00000000000E+00  0.92279109047E+01  0.92279122811E+01  0.50400000000E-02 0.  1.
          2   -1    0    0  501    0  0.00000000000E+00 -0.00000000000E+00 -0.17423682774E+03  0.17423682776E+03  0.25500000000E-02 0. -1.
         24    2    1    2    0    0  0.00000000000E+00  0.00000000000E+00 -0.16500891684E+03  0.18346474004E+03  0.80195811629E+02 0.  0.
         66    2    3    3    0    0  0.38087052064E+02  0.49102558608E+01 -0.56361307252E+02  0.68229986690E+02  0.19999952441E+01 0.  0.
        -13    1    3    3    0    0 -0.38087052064E+02 -0.49102558608E+01 -0.10864760959E+03  0.11523475335E+03  0.10566000000E+00 0.  1.
         13    1    4    4    0    0  0.20354699578E+02  0.32088170454E+01 -0.29377827505E+02  0.35884233512E+02  0.10566000000E+00 0. -1.
        -13    1    4    4    0    0  0.10851533393E+02  0.61015343301E+00 -0.16330040818E+02  0.19616560895E+02  0.10566000000E+00 0.  1.
        -14    1    4    4    0    0  0.68808190929E+01  0.10912853824E+01 -0.10653438929E+02  0.12729192283E+02  0.00000000000E+00 0.  1.
<mgrwt>
<rscale>  0 0.80195812E+02</rscale>
<asrwt>0</asrwt>
<pdfrwt beam="1">  1        2 0.26805663E-01 0.80195812E+02</pdfrwt>
<pdfrwt beam="2">  1       -1 0.14196788E-02 0.80195812E+02</pdfrwt>
<totfact> 0.20906258E+05</totfact>
</mgrwt>
</event>
<event>
 8    1  0.2389776E-016  0.7736427E+02  0.7818608E-02  0.1336702E+00
         -1   -1    0    0    0  501 -0.00000000000E+00  0.00000000000E+00  0.57888701546E+01  0.57888723486E+01  0.50400000000E-02 0.  1.
          2   -1    0    0  501    0  0.00000000000E+00 -0.00000000000E+00 -0.25848000062E+03  0.25848000064E+03  0.25500000000E-02 0. -1.
         24    2    1    2    0    0  0.00000000000E+00  0.00000000000E+00 -0.25269113047E+03  0.26426887298E+03  0.77364267016E+02 0.  0.
         66    2    3    3    0    0 -0.54210884680E+01 -0.33230515756E+02 -0.19130020932E+03  0.19425093427E+03  0.20000008503E+01 0.  0.
        -13    1    3    3    0    0  0.54210884680E+01  0.33230515756E+02 -0.61390921153E+02  0.70017938714E+02  0.10566000000E+00 0.  1.
         13    1    4    4    0    0 -0.17802461690E+01 -0.10670510911E+02 -0.62080976877E+02  0.63016568723E+02  0.10566000000E+00 0. -1.
        -13    1    4    4    0    0 -0.30556574814E+01 -0.15084527265E+02 -0.84279045412E+02  0.85672916754E+02  0.10566000000E+00 0.  1.
        -14    1    4    4    0    0 -0.58518481759E+00 -0.74754775806E+01 -0.44940187026E+02  0.45561448794E+02  0.00000000000E+00 0.  1.
<mgrwt>
<rscale>  0 0.77364267E+02</rscale>
<asrwt>0</asrwt>
<pdfrwt beam="1">  1        2 0.39766145E-01 0.77364267E+02</pdfrwt>
<pdfrwt beam="2">  1       -1 0.89059578E-03 0.77364267E+02</pdfrwt>
<totfact> 0.26374813E+05</totfact>
</mgrwt>
</event>
<event>
 8    1  0.2389776E-016  0.7978958E+02  0.7818608E-02  0.1329650E+00
         -1   -1    0    0    0  501 -0.00000000000E+00  0.00000000000E+00  0.12685804081E+02  0.12685805082E+02  0.50400000000E-02 0.  1.
          2   -1    0    0  501    0  0.00000000000E+00 -0.00000000000E+00 -0.12546263181E+03  0.12546263184E+03  0.25500000000E-02 0. -1.
         24    2    1    2    0    0  0.00000000000E+00 -0.35527136788E-14 -0.11277682773E+03  0.13814843692E+03  0.79789584223E+02 0.  0.
         66    2    3    3    0    0 -0.18235026741E+02  0.19114483139E+02 -0.10812624428E+03  0.11132459014E+03  0.20000002453E+01 0.  0.
        -13    1    3    3    0    0  0.18235026741E+02 -0.19114483139E+02 -0.46505834536E+01  0.26823846786E+02  0.10566000000E+00 0.  1.
         13    1    4    4    0    0 -0.15838700272E+01  0.17297216392E+01 -0.90537832068E+01  0.93532206006E+01  0.10566000000E+00 0. -1.
        -13    1    4    4    0    0 -0.83946666935E+01  0.84464868289E+01 -0.52724661107E+02  0.54052887264E+02  0.10566000000E+00 0.  1.
        -14    1    4    4    0    0 -0.82564900200E+01  0.89382746711E+01 -0.46347799966E+02  0.47918482272E+02  0.00000000000E+00 0.  1.
<mgrwt>
<rscale>  0 0.79789584E+02</rscale>
<asrwt>0</asrwt>
<pdfrwt beam="1">  1        2 0.19301943E-01 0.79789584E+02</pdfrwt>
<pdfrwt beam="2">  1       -1 0.19516623E-02 0.79789584E+02</pdfrwt>
<totfact> 0.19072677E+05</totfact>
</mgrwt>
</event>
<event>
 8    1  0.2389776E-016  0.7684909E+02  0.7818608E-02  0.1338239E+00
         -1   -1    0    0    0  501 -0.00000000000E+00  0.00000000000E+00  0.12204827794E+03  0.12204827804E+03  0.50400000000E-02 0.  1.
          2   -1    0    0  501    0  0.00000000000E+00 -0.00000000000E+00 -0.12097226164E+02  0.12097226433E+02  0.25500000000E-02 0. -1.
         24    2    1    2    0    0  0.00000000000E+00  0.00000000000E+00  0.10995105178E+03  0.13414550448E+03  0.76849089680E+02 0.  0.
         66    2    3    3    0    0 -0.19151417128E+02 -0.87837024115E+01 -0.10228897390E+01  0.21189065681E+02  0.19999987307E+01 0.  0.
        -13    1    3    3    0    0  0.19151417128E+02  0.87837024115E+01  0.11097394152E+03  0.11295643880E+03  0.10566000000E+00 0.  1.
         13    1    4    4    0    0 -0.52328482119E+01 -0.21921412842E+01  0.43457825213E+00  0.56910637065E+01  0.10566000000E+00 0. -1.
        -13    1    4    4    0    0 -0.76138514519E+01 -0.37655173030E+01 -0.12458644827E+01  0.85856389882E+01  0.10566000000E+00 0.  1.
         14    1    4    4    0    0 -0.63047174644E+01 -0.28260438242E+01 -0.21160350843E+00  0.69123629858E+01  0.00000000000E+00 0. -1.
<mgrwt>
<rscale>  0 0.76849090E+02</rscale>
<asrwt>0</asrwt>
<pdfrwt beam="1">  1        2 0.18611118E-02 0.76849090E+02</pdfrwt>
<pdfrwt beam="2">  1       -1 0.18776658E-01 0.76849090E+02</pdfrwt>
<totfact> 0.12543980E+05</totfact>
</mgrwt>
</event>
<event>
 8    1  0.2389776E-016  0.8020007E+02  0.7818608E-02  0.1328485E+00
         -1   -1    0    0    0  501 -0.00000000000E+00  0.00000000000E+00  0.57724111528E+01  0.57724133530E+01  0.50400000000E-02 0.  1.
          2   -1    0    0  501    0  0.00000000000E+00 -0.00000000000E+00 -0.27856858432E+03  0.27856858433E+03  0.25500000000E-02 0. -1.
         24    2    1    2    0    0  0.00000000000E+00  0.00000000000E+00 -0.27279617317E+03  0.28434099769E+03  0.80200067766E+02 0.  0.
         66    2    3    3    0    0  0.39287161989E+01  0.24863398034E+02 -0.24703903473E+03  0.24832621298E+03  0.20000000282E+01 0.  0.
        -13    1    3    3    0    0 -0.39287161989E+01 -0.24863398034E+02 -0.25757138436E+02  0.36014784703E+02  0.10566000000E+00 0.  1.
         13    1    4    4    0    0  0.37100862226E+01  0.21321548875E+02 -0.21607173165E+03  0.21715288984E+03  0.10566000000E+00 0. -1.
        -13    1    4    4    0    0  0.40898035385E-01  0.88231450114E+00 -0.63163820765E+01  0.63787144552E+01  0.10566000000E+00 0. -1.
         14    1    4    4    0    0  0.17773194095E+00  0.26595346579E+01 -0.24650921007E+02  0.24794608683E+02  0.00000000000E+00 0. -1.
<mgrwt>
<rscale>  0 0.80200068E+02</rscale>
<asrwt>0</asrwt>
<pdfrwt beam="1">  1        2 0.42856695E-01 0.80200068E+02</pdfrwt>
<pdfrwt beam="2">  1       -1 0.88806364E-03 0.80200068E+02</pdfrwt>
<totfact> 0.24656868E+05</totfact>
</mgrwt>
</event>
<event>
 8    1  0.2389776E-016  0.8023440E+02  0.7818608E-02  0.1328388E+00
          2   -1    0    0  501    0  0.00000000000E+00  0.00000000000E+00  0.38071628427E+02  0.38071628513E+02  0.25500000000E-02 0. -1.
         -1   -1    0    0    0  501 -0.00000000000E+00 -0.00000000000E+00 -0.42272682009E+02  0.42272682309E+02  0.50400000000E-02 0.  1.
         24    2    1    2    0    0 -0.17763568394E-14  0.00000000000E+00 -0.42010535816E+01  0.80344310822E+02  0.80234403034E+02 0.  0.
         66    2    3    3    0    0  0.14102464795E+02 -0.20392336358E+02  0.29447805894E+02  0.38547375486E+02  0.19999973650E+01 0.  0.
        -13    1    3    3    0    0 -0.14102464795E+02  0.20392336358E+02 -0.33648859476E+02  0.41796935336E+02  0.10566000000E+00 0.  1.
         13    1    4    4    0    0  0.10192843072E+02 -0.14877791656E+02  0.22091981473E+02  0.28518582431E+02  0.10566000000E+00 0. -1.
        -13    1    4    4    0    0  0.28949774311E+01 -0.35724549304E+01  0.53832551451E+01  0.70805316572E+01  0.10566000000E+00 0.  1.
         14    1    4    4    0    0  0.10146442912E+01 -0.19420897717E+01  0.19725692762E+01  0.29482613976E+01  0.00000000000E+00 0. -1.
<mgrwt>
<rscale>  0 0.80234403E+02</rscale>
<asrwt>0</asrwt>
<pdfrwt beam="1">  1        2 0.58571736E-02 0.80234403E+02</pdfrwt>
<pdfrwt beam="2">  1       -1 0.65034896E-02 0.80234403E+02</pdfrwt>
<totfact> 0.13997915E+05</totfact>
</mgrwt>
</event>
<event>
 8    1  0.2389776E-016  0.8006975E+02  0.7818608E-02  0.1328854E+00
          2   -1    0    0  501    0  0.00000000000E+00  0.00000000000E+00  0.14292820421E+02  0.14292820649E+02  0.25500000000E-02 0. -1.
         -1   -1    0    0    0  501 -0.00000000000E+00 -0.00000000000E+00 -0.11213959914E+03  0.11213959926E+03  0.50400000000E-02 0.  1.
         24    2    1    2    0    0  0.00000000000E+00 -0.71054273576E-14 -0.97846778721E+02  0.12643241990E+03  0.80069748949E+02 0.  0.
         66    2    3    3    0    0  0.12071835969E+02  0.28587046799E+02 -0.90747516054E+01  0.32392894009E+02  0.19999993174E+01 0.  0.
        -13    1    3    3    0    0 -0.12071835969E+02 -0.28587046799E+02 -0.88772027116E+02  0.94039525895E+02  0.10566000000E+00 0.  1.
         13    1    4    4    0    0  0.44217141867E+01  0.10185559727E+02 -0.38686931993E+01  0.11759044791E+02  0.10566000000E+00 0. -1.
        -13    1    4    4    0    0  0.60262985450E+01  0.13091689977E+02 -0.38618024012E+01  0.14920901529E+02  0.10566000000E+00 0.  1.
         14    1    4    4    0    0  0.16238232369E+01  0.53097970949E+01 -0.13442560050E+01  0.57129476893E+01  0.00000000000E+00 0. -1.
<mgrwt>
<rscale>  0 0.80069749E+02</rscale>
<asrwt>0</asrwt>
<pdfrwt beam="1">  1        2 0.21988955E-02 0.80069749E+02</pdfrwt>
<pdfrwt beam="2">  1       -1 0.17252246E-01 0.80069749E+02</pdfrwt>
<totfact> 0.11534834E+05</totfact>
</mgrwt>
</event>
<event>
 8    1  0.2389776E-016  0.7601792E+02  0.7818608E-02  0.1340748E+00
          2   -1    0    0  501    0  0.00000000000E+00  0.00000000000E+00  0.13821771053E+03  0.13821771056E+03  0.25500000000E-02 0. -1.
         -1   -1    0    0    0  501 -0.00000000000E+00 -0.00000000000E+00 -0.10452213007E+02  0.10452214222E+02  0.50400000000E-02 0.  1.
         24    2    1    2    0    0 -0.35527136788E-14  0.00000000000E+00  0.12776549753E+03  0.14866992478E+03  0.76017920096E+02 0.  0.
         66    2    3    3    0    0  0.20246317880E+02 -0.56491438266E+01  0.12579848379E+03  0.12755816216E+03  0.19999993737E+01 0.  0.
        -13    1    3    3    0    0 -0.20246317880E+02  0.56491438266E+01  0.19670137387E+01  0.21111762616E+02  0.10566000000E+00 0.  1.
         13    1    4    4    0    0  0.43799200092E+01 -0.45397696223E+00  0.26510082720E+02  0.26873508223E+02  0.10566000000E+00 0. -1.
        -13    1    4    4    0    0  0.18642476570E+01 -0.76851355038E+00  0.11202676219E+02  0.11383195988E+02  0.10566000000E+00 0. -1.
         14    1    4    4    0    0  0.14002150214E+02 -0.44266533139E+01  0.88085724849E+02  0.89301457952E+02  0.00000000000E+00 0. -1.
<mgrwt>
<rscale>  0 0.76017920E+02</rscale>
<asrwt>0</asrwt>
<pdfrwt beam="1">  1        2 0.21264261E-01 0.76017920E+02</pdfrwt>
<pdfrwt beam="2">  1       -1 0.16080330E-02 0.76017920E+02</pdfrwt>
<totfact> 0.22343353E+05</totfact>
</mgrwt>
</event>
<event>
 8    1  0.2389776E-016  0.7713009E+02  0.7818608E-02  0.1337399E+00
         -1   -1    0    0    0  501 -0.00000000000E+00  0.00000000000E+00  0.65239929926E+00  0.65241876680E+00  0.50400000000E-02 0.  1.
          2   -1    0    0  501    0  0.00000000000E+00 -0.00000000000E+00 -0.22796476650E+04  0.22796476650E+04  0.25500000000E-02 0. -1.
         24    2    1    2    0    0 -0.17763568394E-14  0.88817841970E-15 -0.22789952657E+04  0.22803000838E+04  0.77130091061E+02 0.  0.
         66    2    3    3    0    0 -0.11489832602E+02  0.41700658806E+01 -0.22208178447E+04  0.22208523826E+04  0.20000011243E+01 0.  0.
        -13    1    3    3    0    0  0.11489832602E+02 -0.41700658806E+01 -0.58177421000E+02  0.59447701225E+02  0.10566000000E+00 0.  1.
         13    1    4    4    0    0 -0.14717689189E+01  0.52175406887E+00 -0.27669924563E+03  0.27670367187E+03  0.10566000000E+00 0. -1.
        -13    1    4    4    0    0 -0.31533484250E+01  0.13904382061E+01 -0.48804588147E+03  0.48805806059E+03  0.10566000000E+00 0.  1.
        -14    1    4    4    0    0 -0.68647152584E+01  0.22578736055E+01 -0.14560727176E+04  0.14560906501E+04  0.00000000000E+00 0.  1.
<mgrwt>
<rscale>  0 0.77130091E+02</rscale>
<asrwt>0</asrwt>
<pdfrwt beam="1">  1        2 0.35070865E+00 0.77130091E+02</pdfrwt>
<pdfrwt beam="2">  1       -1 0.10037245E-03 0.77130091E+02</pdfrwt>
<totfact> 0.26423159E+05</totfact>
</mgrwt>
</event>
<event>
 8    1  0.2389776E-016  0.8064691E+02  0.7818608E-02  0.1327226E+00
          2   -1    0    0  501    0  0.00000000000E+00  0.00000000000E+00  0.11438320538E+03  0.11438320541E+03  0.25500000000E-02 0. -1.
         -1   -1    0    0    0  501 -0.00000000000E+00 -0.00000000000E+00 -0.14215207092E+02  0.14215207985E+02  0.50400000000E-02 0.  1.
         24    2    1    2    0    0  0.35527136788E-14 -0.17763568394E-14  0.10016799829E+03  0.12859841339E+03  0.80646909713E+02 0.  0.
         66    2    3    3    0    0  0.14379579901E+02 -0.15034378756E+02  0.10514920830E+03  0.10720616059E+03  0.19999998584E+01 0.  0.
        -13    1    3    3    0    0 -0.14379579901E+02  0.15034378756E+02 -0.49812100146E+01  0.21392252802E+02  0.10566000000E+00 0.  1.
         13    1    4    4    0    0  0.89566516577E+01 -0.10080151293E+02  0.65050083318E+02  0.66433090872E+02  0.10566000000E+00 0. -1.
        -13    1    4    4    0    0  0.52059100197E+01 -0.47507254575E+01  0.37472640555E+02  0.38129789479E+02  0.10566000000E+00 0.  1.
        -14    1    4    4    0    0  0.21701822378E+00 -0.20350200485E+00  0.26264844277E+01  0.26432802395E+01  0.00000000000E+00 0.  1.
<mgrwt>
<rscale>  0 0.80646910E+02</rscale>
<asrwt>0</asrwt>
<pdfrwt beam="1">  1        2 0.17597417E-01 0.80646910E+02</pdfrwt>
<pdfrwt beam="2">  1       -1 0.21869550E-02 0.80646910E+02</pdfrwt>
<totfact> 0.18030672E+05</totfact>
</mgrwt>
</event>
<event>
 8    1  0.2389776E-016  0.7994931E+02  0.7818608E-02  0.1329195E+00
          2   -1    0    0  501    0  0.00000000000E+00  0.00000000000E+00  0.10405202840E+02  0.10405203153E+02  0.25500000000E-02 0. -1.
         -1   -1    0    0    0  501 -0.00000000000E+00 -0.00000000000E+00 -0.15357441710E+03  0.15357441719E+03  0.50400000000E-02 0.  1.
         24    2    1    2    0    0  0.00000000000E+00  0.00000000000E+00 -0.14316921426E+03  0.16397962034E+03  0.79949308777E+02 0.  0.
         66    2    3    3    0    0 -0.12601085203E+02 -0.24082456124E+02 -0.11578272055E+02  0.29610951088E+02  0.19999998221E+01 0.  0.
        -13    1    3    3    0    0  0.12601085203E+02  0.24082456124E+02 -0.13159094221E+03  0.13436866925E+03  0.10566000000E+00 0.  1.
         13    1    4    4    0    0 -0.65228127129E+01 -0.13768563123E+02 -0.61426588627E+01  0.16427532928E+02  0.10566000000E+00 0. -1.
        -13    1    4    4    0    0 -0.22003765322E+01 -0.32151536570E+01 -0.13780772274E+01  0.41339001925E+01  0.10566000000E+00 0.  1.
        -14    1    4    4    0    0 -0.38778959578E+01 -0.70987393438E+01 -0.40575359653E+01  0.90495179673E+01  0.00000000000E+00 0.  1.
<mgrwt>
<rscale>  0 0.79949309E+02</rscale>
<asrwt>0</asrwt>
<pdfrwt beam="1">  1        2 0.16008006E-02 0.79949309E+02</pdfrwt>
<pdfrwt beam="2">  1       -1 0.23626832E-01 0.79949309E+02</pdfrwt>
<totfact> 0.10739497E+05</totfact>
</mgrwt>
</event>
<event>
 8    1  0.2389776E-016  0.8011392E+02  0.7818608E-02  0.1328728E+00
          2   -1    0    0  501    0  0.00000000000E+00  0.00000000000E+00  0.31328188665E+03  0.31328188666E+03  0.25500000000E-02 0. -1.
         -1   -1    0    0    0  501 -0.00000000000E+00 -0.00000000000E+00 -0.51217755222E+01  0.51217780020E+01  0.50400000000E-02 0.  1.
         24    2    1    2    0    0  0.00000000000E+00  0.00000000000E+00  0.30816011113E+03  0.31840366466E+03  0.80113916270E+02 0.  0.
         66    2    3    3    0    0  0.83045380267E+01  0.18022120675E+02  0.29235607784E+03  0.29303555835E+03  0.20000061667E+01 0.  0.
        -13    1    3    3    0    0 -0.83045380267E+01 -0.18022120675E+02  0.15804033288E+02  0.25368106308E+02  0.10566000000E+00 0.  1.
         13    1    4    4    0    0  0.21261240692E+01  0.52867463387E+01  0.95362685849E+02  0.95532837845E+02  0.10566000000E+00 0. -1.
        -13    1    4    4    0    0  0.41811493520E+01  0.80389585069E+01  0.12946296674E+03  0.12977972794E+03  0.10566000000E+00 0.  1.
        -14    1    4    4    0    0  0.19972646055E+01  0.46964158291E+01  0.67530425249E+02  0.67722992565E+02  0.00000000000E+00 0.  1.
<mgrwt>
<rscale>  0 0.80113916E+02</rscale>
<asrwt>0</asrwt>
<pdfrwt beam="1">  1        2 0.48197221E-01 0.80113916E+02</pdfrwt>
<pdfrwt beam="2">  1       -1 0.78796554E-03 0.80113916E+02</pdfrwt>
<totfact> 0.25800734E+05</totfact>
</mgrwt>
</event>
<event>
 8    1  0.2389776E-016  0.7984705E+02  0.7818608E-02  0.1329486E+00
         -1   -1    0    0    0  501 -0.00000000000E+00  0.00000000000E+00  0.27363487452E+02  0.27363487916E+02  0.50400000000E-02 0.  1.
          2   -1    0    0  501    0  0.00000000000E+00 -0.00000000000E+00 -0.58248714185E+02  0.58248714240E+02  0.25500000000E-02 0. -1.
         24    2    1    2    0    0  0.00000000000E+00  0.71054273576E-14 -0.30885226732E+02  0.85612202157E+02  0.79847053345E+02 0.  0.
         66    2    3    3    0    0 -0.33718476474E+01  0.39754487864E+02 -0.15781626869E+02  0.42951698705E+02  0.20000032745E+01 0.  0.
        -13    1    3    3    0    0  0.33718476474E+01 -0.39754487864E+02 -0.15103599864E+02  0.42660503452E+02  0.10566000000E+00 0.  1.
         13    1    4    4    0    0 -0.28703332317E+01  0.32811145252E+02 -0.13134273766E+02  0.35458854705E+02  0.10566000000E+00 0. -1.
        -13    1    4    4    0    0 -0.71613953504E+00  0.58324356118E+01 -0.21744590347E+01  0.62665458690E+01  0.10566000000E+00 0.  1.
         14    1    4    4    0    0  0.21462511928E+00  0.11109070004E+01 -0.47289406783E+00  0.12262981304E+01  0.00000000000E+00 0. -1.
<mgrwt>
<rscale>  0 0.79847053E+02</rscale>
<asrwt>0</asrwt>
<pdfrwt beam="1">  1        2 0.89613406E-02 0.79847053E+02</pdfrwt>
<pdfrwt beam="2">  1       -1 0.42097674E-02 0.79847053E+02</pdfrwt>
<totfact> 0.15541385E+05</totfact>
</mgrwt>
</event>
<event>
 8    1  0.2389776E-016  0.8090133E+02  0.7818608E-02  0.1326513E+00
          2   -1    0    0  501    0  0.00000000000E+00  0.00000000000E+00  0.82721065972E+01  0.82721069903E+01  0.25500000000E-02 0. -1.
         -1   -1    0    0    0  501 -0.00000000000E+00 -0.00000000000E+00 -0.19780405434E+03  0.19780405441E+03  0.50400000000E-02 0.  1.
         24    2    1    2    0    0  0.00000000000E+00 -0.35527136788E-14 -0.18953194774E+03  0.20607616140E+03  0.80901329284E+02 0.  0.
         66    2    3    3    0    0 -0.30230897922E+02 -0.21209326027E+02 -0.52928686395E+02  0.64569253879E+02  0.20000008242E+01 0.  0.
        -13    1    3    3    0    0  0.30230897922E+02  0.21209326027E+02 -0.13660326135E+03  0.14150690752E+03  0.10566000000E+00 0.  1.
         13    1    4    4    0    0 -0.39764918397E+01 -0.21929410024E+01 -0.65581214398E+01  0.79775684545E+01  0.10566000000E+00 0. -1.
        -13    1    4    4    0    0 -0.12039043184E+02 -0.85909588761E+01 -0.20128493934E+02  0.24978201842E+02  0.10566000000E+00 0.  1.
         14    1    4    4    0    0 -0.14215362899E+02 -0.10425426149E+02 -0.26242071021E+02  0.31613483582E+02  0.00000000000E+00 0. -1.
<mgrwt>
<rscale>  0 0.80901329E+02</rscale>
<asrwt>0</asrwt>
<pdfrwt beam="1">  1        2 0.12726320E-02 0.80901329E+02</pdfrwt>
<pdfrwt beam="2">  1       -1 0.30431389E-01 0.80901329E+02</pdfrwt>
<totfact> 0.97126446E+04</totfact>
</mgrwt>
</event>
<event>
 8    1  0.2389776E-016  0.8214345E+02  0.7818608E-02  0.1323076E+00
         -1   -1    0    0    0  501 -0.00000000000E+00  0.00000000000E+00  0.48374976868E+01  0.48375003123E+01  0.50400000000E-02 0.  1.
          2   -1    0    0  501    0  0.00000000000E+00 -0.00000000000E+00 -0.34871046054E+03  0.34871046055E+03  0.25500000000E-02 0. -1.
         24    2    1    2    0    0  0.44408920985E-15  0.00000000000E+00 -0.34387296286E+03  0.35354796086E+03  0.82143447992E+02 0.  0.
         66    2    3    3    0    0  0.26836152830E+01 -0.40169975111E+02 -0.20648457907E+03  0.21038229510E+03  0.20000012508E+01 0.  0.
        -13    1    3    3    0    0 -0.26836152830E+01  0.40169975111E+02 -0.13738838378E+03  0.14316566576E+03  0.10566000000E+00 0.  1.
         13    1    4    4    0    0  0.10396455683E+00 -0.49839099051E+00 -0.19121495919E+01  0.19815858059E+01  0.10566000000E+00 0. -1.
        -13    1    4    4    0    0  0.14520171809E+01 -0.25645905167E+02 -0.13346346509E+03  0.13591294451E+03  0.10566000000E+00 0.  1.
         14    1    4    4    0    0  0.11276335453E+01 -0.14025678953E+02 -0.71108964389E+02  0.72487764789E+02  0.00000000000E+00 0. -1.
<mgrwt>
<rscale>  0 0.82143448E+02</rscale>
<asrwt>0</asrwt>
<pdfrwt beam="1">  1        2 0.53647744E-01 0.82143448E+02</pdfrwt>
<pdfrwt beam="2">  1       -1 0.74423089E-03 0.82143448E+02</pdfrwt>
<totfact> 0.25112727E+05</totfact>
</mgrwt>
</event>
<event>
 8    1  0.2389776E-016  0.7900014E+02  0.7818608E-02  0.1331913E+00
         -1   -1    0    0    0  501 -0.00000000000E+00  0.00000000000E+00  0.22815444470E+01  0.22815500138E+01  0.50400000000E-02 0.  1.
          2   -1    0    0  501    0  0.00000000000E+00 -0.00000000000E+00 -0.68385855164E+03  0.68385855164E+03  0.25500000000E-02 0. -1.
         24    2    1    2    0    0 -0.88817841970E-15  0.17763568394E-14 -0.68157700719E+03  0.68614010166E+03  0.79000141581E+02 0.  0.
         66    2    3    3    0    0 -0.62402565553E+01  0.12715234525E+02 -0.66102553868E+03  0.66118029371E+03  0.20000017265E+01 0.  0.
        -13    1    3    3    0    0  0.62402565553E+01 -0.12715234525E+02 -0.20551468506E+02  0.24959807945E+02  0.10566000000E+00 0.  1.
         13    1    4    4    0    0 -0.19773598510E+01  0.47563580594E+01 -0.24029615459E+03  0.24035138021E+03  0.10566000000E+00 0. -1.
        -13    1    4    4    0    0 -0.72903111923E+00  0.51740704876E+00 -0.35031417939E+02  0.35042982226E+02  0.10566000000E+00 0.  1.
         14    1    4    4    0    0 -0.35338655851E+01  0.74414694166E+01 -0.38569796615E+03  0.38578593127E+03  0.00000000000E+00 0. -1.
<mgrwt>
<rscale>  0 0.79000142E+02</rscale>
<asrwt>0</asrwt>
<pdfrwt beam="1">  1        2 0.10520884E+00 0.79000142E+02</pdfrwt>
<pdfrwt beam="2">  1       -1 0.35100781E-03 0.79000142E+02</pdfrwt>
<totfact> 0.34375453E+05</totfact>
</mgrwt>
</event>
<event>
 8    1  0.2389776E-016  0.8200332E+02  0.7818608E-02  0.1323461E+00
         -1   -1    0    0    0  501 -0.00000000000E+00  0.00000000000E+00  0.68179067738E+01  0.68179086367E+01  0.50400000000E-02 0.  1.
          2   -1    0    0  501    0  0.00000000000E+00 -0.00000000000E+00 -0.24657656280E+03  0.24657656281E+03  0.25500000000E-02 0. -1.
         24    2    1    2    0    0  0.00000000000E+00  0.00000000000E+00 -0.23975865603E+03  0.25339447145E+03  0.82003323237E+02 0.  0.
         66    2    3    3    0    0  0.30503609672E+02  0.21264414160E+02 -0.17315729344E+03  0.17711604609E+03  0.19999998744E+01 0.  0.
        -13    1    3    3    0    0 -0.30503609672E+02 -0.21264414160E+02 -0.66601362588E+02  0.76278425358E+02  0.10566000000E+00 0.  1.
         13    1    4    4    0    0  0.10032242051E+02  0.62577363732E+01 -0.54039952232E+02  0.55318466595E+02  0.10566000000E+00 0. -1.
        -13    1    4    4    0    0  0.17866215651E+00  0.14503905156E+00 -0.14459606145E+01  0.14679654720E+01  0.10566000000E+00 0. -1.
         14    1    4    4    0    0  0.20292705465E+02  0.14861638735E+02 -0.11767138059E+03  0.12032961403E+03  0.00000000000E+00 0. -1.
<mgrwt>
<rscale>  0 0.82003323E+02</rscale>
<asrwt>0</asrwt>
<pdfrwt beam="1">  1        2 0.37934849E-01 0.82003323E+02</pdfrwt>
<pdfrwt beam="2">  1       -1 0.10489091E-02 0.82003323E+02</pdfrwt>
<totfact> 0.22253508E+05</totfact>
</mgrwt>
</event>
<event>
 8    1  0.2389776E-016  0.7897204E+02  0.7818608E-02  0.1331994E+00
          2   -1    0    0  501    0  0.00000000000E+00  0.00000000000E+00  0.42460234799E+03  0.42460234800E+03  0.25500000000E-02 0. -1.
         -1   -1    0    0    0  501 -0.00000000000E+00 -0.00000000000E+00 -0.36720122336E+01  0.36720156924E+01  0.50400000000E-02 0.  1.
         24    2    1    2    0    0  0.00000000000E+00 -0.35527136788E-14  0.42093033575E+03  0.42827436369E+03  0.78972039572E+02 0.  0.
         66    2    3    3    0    0 -0.27305075200E+02 -0.25622569636E+02  0.27812955088E+03  0.28064591612E+03  0.19999889748E+01 0.  0.
        -13    1    3    3    0    0  0.27305075200E+02  0.25622569636E+02  0.14280078488E+03  0.14762844757E+03  0.10566000000E+00 0.  1.
         13    1    4    4    0    0 -0.16215364673E+02 -0.15254493381E+02  0.16801065745E+03  0.16947929019E+03  0.10566000000E+00 0. -1.
        -13    1    4    4    0    0 -0.20653796501E+01 -0.24466300526E+01  0.25277151604E+02  0.25479351424E+02  0.10566000000E+00 0.  1.
         14    1    4    4    0    0 -0.90243308777E+01 -0.79214462026E+01  0.84841741818E+02  0.85687274507E+02  0.00000000000E+00 0. -1.
<mgrwt>
<rscale>  0 0.78972040E+02</rscale>
<asrwt>0</asrwt>
<pdfrwt beam="1">  1        2 0.65323463E-01 0.78972040E+02</pdfrwt>
<pdfrwt beam="2">  1       -1 0.56492502E-03 0.78972040E+02</pdfrwt>
<totfact> 0.29833747E+05</totfact>
</mgrwt>
</event>
<event>
 8    1  0.2389776E-016  0.7902779E+02  0.7818608E-02  0.1331833E+00
          2   -1    0    0  501    0  0.00000000000E+00  0.00000000000E+00  0.96340539779E+03  0.96340539780E+03  0.25500000000E-02 0. -1.
         -1   -1    0    0    0  501 -0.00000000000E+00 -0.00000000000E+00 -0.16206512295E+01  0.16206590663E+01  0.50400000000E-02 0.  1.
         24    2    1    2    0    0  0.00000000000E+00 -0.35527136788E-14  0.96178474656E+03  0.96502605686E+03  0.79027790692E+02 0.  0.
         66    2    3    3    0    0 -0.21977239759E+02  0.22204529766E+02  0.77612086283E+03  0.77675197714E+03  0.20000141220E+01 0.  0.
        -13    1    3    3    0    0  0.21977239759E+02 -0.22204529766E+02  0.18566388373E+03  0.18827407972E+03  0.10566000000E+00 0.  1.
         13    1    4    4    0    0 -0.92967790482E+01  0.97483698879E+01  0.34035493272E+03  0.34062142065E+03  0.10566000000E+00 0. -1.
        -13    1    4    4    0    0 -0.53922168445E+01  0.45559658620E+01  0.16236024839E+03  0.16251367404E+03  0.10566000000E+00 0.  1.
        -14    1    4    4    0    0 -0.72882438662E+01  0.79001940159E+01  0.27340568172E+03  0.27361688245E+03  0.00000000000E+00 0.  1.
<mgrwt>
<rscale>  0 0.79027791E+02</rscale>
<asrwt>0</asrwt>
<pdfrwt beam="1">  1        2 0.14821588E+00 0.79027791E+02</pdfrwt>
<pdfrwt beam="2">  1       -1 0.24933212E-03 0.79027791E+02</pdfrwt>
<totfact> 0.36292614E+05</totfact>
</mgrwt>
</event>
<event>
 8    1  0.2389776E-016  0.8238663E+02  0.7818608E-02  0.1322412E+00
          2   -1    0    0  501    0  0.00000000000E+00  0.00000000000E+00  0.27791515638E+03  0.27791515639E+03  0.25500000000E-02 0. -1.
         -1   -1    0    0    0  501 -0.00000000000E+00 -0.00000000000E+00 -0.61057801184E+01  0.61057821985E+01  0.50400000000E-02 0.  1.
         24    2    1    2    0    0  0.00000000000E+00 -0.71054273576E-14  0.27180937626E+03  0.28402093859E+03  0.82386628368E+02 0.  0.
         66    2    3    3    0    0  0.89508380188E+01 -0.34583158288E+02  0.20653217108E+03  0.20960832528E+03  0.19999999231E+01 0.  0.
        -13    1    3    3    0    0 -0.89508380188E+01  0.34583158288E+02  0.65277205184E+02  0.74412613306E+02  0.10566000000E+00 0.  1.
         13    1    4    4    0    0  0.30616279128E+01 -0.93330409906E+01  0.57144827042E+02  0.57982942676E+02  0.10566000000E+00 0. -1.
        -13    1    4    4    0    0  0.12891110925E+01 -0.51210116321E+01  0.27812275760E+02  0.28309369731E+02  0.10566000000E+00 0.  1.
         14    1    4    4    0    0  0.46000990134E+01 -0.20129105666E+02  0.12157506828E+03  0.12331601288E+03  0.00000000000E+00 0. -1.
<mgrwt>
<rscale>  0 0.82386628E+02</rscale>
<asrwt>0</asrwt>
<pdfrwt beam="1">  1        2 0.42756187E-01 0.82386628E+02</pdfrwt>
<pdfrwt beam="2">  1       -1 0.93935075E-03 0.82386628E+02</pdfrwt>
<totfact> 0.22954022E+05</totfact>
</mgrwt>
</event>
<event>
 8    1  0.2389776E-016  0.8007253E+02  0.7818608E-02  0.1328846E+00
         -1   -1    0    0    0  501 -0.00000000000E+00  0.00000000000E+00  0.97482713886E+00  0.97484016755E+00  0.50400000000E-02 0.  1.
          2   -1    0    0  501    0  0.00000000000E+00 -0.00000000000E+00 -0.16442832387E+04  0.16442832387E+04  0.25500000000E-02 0. -1.
         24    2    1    2    0    0  0.00000000000E+00  0.17763568394E-14 -0.16433084116E+04  0.16452580789E+04  0.80072533231E+02 0.  0.
         66    2    3    3    0    0 -0.14577701846E+02 -0.11110689907E+02 -0.15529435642E+04  0.15530530160E+04  0.20000024041E+01 0.  0.
        -13    1    3    3    0    0  0.14577701846E+02  0.11110689907E+02 -0.90364847393E+02  0.92205062929E+02  0.10566000000E+00 0.  1.
         13    1    4    4    0    0 -0.62368296024E+01 -0.54400975247E+01 -0.69205008346E+03  0.69209957512E+03  0.10566000000E+00 0. -1.
        -13    1    4    4    0    0 -0.18322064601E+01 -0.12002496565E+01 -0.23287329549E+03  0.23288362006E+03  0.10566000000E+00 0.  1.
         14    1    4    4    0    0 -0.65086657839E+01 -0.44703427260E+01 -0.62802018526E+03  0.62806982079E+03  0.00000000000E+00 0. -1.
<mgrwt>
<rscale>  0 0.80072533E+02</rscale>
<asrwt>0</asrwt>
<pdfrwt beam="1">  1        2 0.25296443E+00 0.80072533E+02</pdfrwt>
<pdfrwt beam="2">  1       -1 0.14997573E-03 0.80072533E+02</pdfrwt>
<totfact> 0.31839853E+05</totfact>
</mgrwt>
</event>
<event>
 8    1  0.2389776E-016  0.8110299E+02  0.7818608E-02  0.1325950E+00
         -1   -1    0    0    0  501 -0.00000000000E+00  0.00000000000E+00  0.13218564754E+02  0.13218565715E+02  0.50400000000E-02 0.  1.
          2   -1    0    0  501    0  0.00000000000E+00 -0.00000000000E+00 -0.12440257605E+03  0.12440257608E+03  0.25500000000E-02 0. -1.
         24    2    1    2    0    0  0.00000000000E+00  0.00000000000E+00 -0.11118401130E+03  0.13762114179E+03  0.81102985766E+02 0.  0.
         66    2    3    3    0    0 -0.19031898079E+02  0.35109291585E+02 -0.43925551900E+02  0.59399744307E+02  0.20000034848E+01 0.  0.
        -13    1    3    3    0    0  0.19031898079E+02 -0.35109291585E+02 -0.67258459396E+02  0.78221397484E+02  0.10566000000E+00 0.  1.
         13    1    4    4    0    0 -0.51260762714E+01  0.96155607518E+01 -0.11638225946E+02  0.15943498164E+02  0.10566000000E+00 0. -1.
        -13    1    4    4    0    0 -0.73456523316E+01  0.14893277886E+02 -0.19079964524E+02  0.25294753302E+02  0.10566000000E+00 0.  1.
        -14    1    4    4    0    0 -0.65601694760E+01  0.10600452947E+02 -0.13207361431E+02  0.18161492841E+02  0.00000000000E+00 0.  1.
<mgrwt>
<rscale>  0 0.81102986E+02</rscale>
<asrwt>0</asrwt>
<pdfrwt beam="1">  1        2 0.19138857E-01 0.81102986E+02</pdfrwt>
<pdfrwt beam="2">  1       -1 0.20336255E-02 0.81102986E+02</pdfrwt>
<totfact> 0.18213274E+05</totfact>
</mgrwt>
</event>
<event>
 8    1  0.2389776E-016  0.7876702E+02  0.7818608E-02  0.1332587E+00
         -1   -1    0    0    0  501 -0.00000000000E+00  0.00000000000E+00  0.15956166223E+02  0.15956167019E+02  0.50400000000E-02 0.  1.
          2   -1    0    0  501    0  0.00000000000E+00 -0.00000000000E+00 -0.97207606021E+02  0.97207606054E+02  0.25500000000E-02 0. -1.
         24    2    1    2    0    0  0.00000000000E+00  0.00000000000E+00 -0.81251439798E+02  0.11316377307E+03  0.78767017634E+02 0.  0.
         66    2    3    3    0    0 -0.36027173737E+02 -0.68827192098E+00 -0.63396270837E+02  0.72948736230E+02  0.19999989372E+01 0.  0.
        -13    1    3    3    0    0  0.36027173737E+02  0.68827192098E+00 -0.17855168960E+02  0.40215036843E+02  0.10566000000E+00 0.  1.
         13    1    4    4    0    0 -0.21321226990E+02 -0.15762516662E+00 -0.37115832281E+02  0.42804389214E+02  0.10566000000E+00 0. -1.
        -13    1    4    4    0    0 -0.64984502259E+00 -0.25460022276E+00 -0.13248371348E+01  0.15011586512E+01  0.10566000000E+00 0. -1.
         14    1    4    4    0    0 -0.14056101724E+02 -0.27604653161E+00 -0.24955601421E+02  0.28643188364E+02  0.00000000000E+00 0. -1.
<mgrwt>
<rscale>  0 0.78767018E+02</rscale>
<asrwt>0</asrwt>
<pdfrwt beam="1">  1        2 0.14955016E-01 0.78767018E+02</pdfrwt>
<pdfrwt beam="2">  1       -1 0.24547949E-02 0.78767018E+02</pdfrwt>
<totfact> 0.18333687E+05</totfact>
</mgrwt>
</event>
<event>
 8    1  0.2389776E-016  0.7957428E+02  0.7818608E-02  0.1330264E+00
         -1   -1    0    0    0  501 -0.00000000000E+00  0.00000000000E+00  0.15508918412E+02  0.15508919231E+02  0.50400000000E-02 0.  1.
          2   -1    0    0  501    0  0.00000000000E+00 -0.00000000000E+00 -0.10207136968E+03  0.10207136971E+03  0.25500000000E-02 0. -1.
         24    2    1    2    0    0 -0.35527136788E-14  0.00000000000E+00 -0.86562451269E+02  0.11758028894E+03  0.79574282143E+02 0.  0.
         66    2    3    3    0    0 -0.30609228633E+02  0.24368682373E+01 -0.80635452665E+02  0.86307238553E+02  0.19999989516E+01 0.  0.
        -13    1    3    3    0    0  0.30609228633E+02 -0.24368682373E+01 -0.59269986043E+01  0.31273050392E+02  0.10566000000E+00 0.  1.
         13    1    4    4    0    0 -0.13881020281E+02  0.54035614344E+00 -0.36523322900E+02  0.39076066697E+02  0.10566000000E+00 0. -1.
        -13    1    4    4    0    0 -0.14717005367E+01  0.31123469365E+00 -0.31787255627E+01  0.35182708456E+01  0.10566000000E+00 0.  1.
         14    1    4    4    0    0 -0.15256507816E+02  0.15852774002E+01 -0.40933404202E+02  0.43712901011E+02  0.00000000000E+00 0. -1.
<mgrwt>
<rscale>  0 0.79574282E+02</rscale>
<asrwt>0</asrwt>
<pdfrwt beam="1">  1        2 0.15703287E-01 0.79574282E+02</pdfrwt>
<pdfrwt beam="2">  1       -1 0.23859876E-02 0.79574282E+02</pdfrwt>
<totfact> 0.18084697E+05</totfact>
</mgrwt>
</event>
<event>
 8    1  0.2389776E-016  0.7911840E+02  0.7818608E-02  0.1331572E+00
          2   -1    0    0  501    0  0.00000000000E+00  0.00000000000E+00  0.71735831520E+03  0.71735831520E+03  0.25500000000E-02 0. -1.
         -1   -1    0    0    0  501 -0.00000000000E+00 -0.00000000000E+00 -0.21815151817E+01  0.21815210037E+01  0.50400000000E-02 0.  1.
         24    2    1    2    0    0  0.17763568394E-14  0.00000000000E+00  0.71517680002E+03  0.71953983621E+03  0.79118396129E+02 0.  0.
         66    2    3    3    0    0 -0.10219404195E+02 -0.28334894303E+02  0.59068134706E+03  0.59145224341E+03  0.20000035084E+01 0.  0.
        -13    1    3    3    0    0  0.10219404195E+02  0.28334894303E+02  0.12449545296E+03  0.12808759280E+03  0.10566000000E+00 0.  1.
         13    1    4    4    0    0 -0.32603167817E+01 -0.88270874749E+01  0.19676480135E+03  0.19698970875E+03  0.10566000000E+00 0. -1.
        -13    1    4    4    0    0 -0.34623225781E+01 -0.10259458007E+02  0.19504000158E+03  0.19534036330E+03  0.10566000000E+00 0.  1.
        -14    1    4    4    0    0 -0.34967648349E+01 -0.92483488205E+01  0.19887654413E+03  0.19912217136E+03  0.00000000000E+00 0.  1.
<mgrwt>
<rscale>  0 0.79118396E+02</rscale>
<asrwt>0</asrwt>
<pdfrwt beam="1">  1        2 0.11036289E+00 0.79118396E+02</pdfrwt>
<pdfrwt beam="2">  1       -1 0.33561794E-03 0.79118396E+02</pdfrwt>
<totfact> 0.34618257E+05</totfact>
</mgrwt>
</event>
<event>
 8    1  0.2389776E-016  0.7244608E+02  0.7818608E-02  0.1351967E+00
          2   -1    0    0  501    0  0.00000000000E+00  0.00000000000E+00  0.27550527497E+03  0.27550527498E+03  0.25500000000E-02 0. -1.
         -1   -1    0    0    0  501 -0.00000000000E+00 -0.00000000000E+00 -0.47625520377E+01  0.47625547045E+01  0.50400000000E-02 0.  1.
         24    2    1    2    0    0 -0.35527136788E-14  0.00000000000E+00  0.27074272293E+03  0.28026782968E+03  0.72446078818E+02 0.  0.
         66    2    3    3    0    0  0.24827092191E+02  0.22728090961E+02  0.18696541780E+03  0.18998162562E+03  0.19999986490E+01 0.  0.
        -13    1    3    3    0    0 -0.24827092191E+02 -0.22728090961E+02  0.83777305130E+02  0.90286204064E+02  0.10566000000E+00 0.  1.
         13    1    4    4    0    0  0.14432398736E+02  0.13333996041E+02  0.10682803243E+03  0.10862011444E+03  0.10566000000E+00 0. -1.
        -13    1    4    4    0    0  0.45857562952E+01  0.39992548509E+01  0.38136553110E+02  0.38619050316E+02  0.10566000000E+00 0.  1.
         14    1    4    4    0    0  0.58089371597E+01  0.53948400699E+01  0.42000832256E+02  0.42742460862E+02  0.00000000000E+00 0. -1.
<mgrwt>
<rscale>  0 0.72446079E+02</rscale>
<asrwt>0</asrwt>
<pdfrwt beam="1">  1        2 0.42385450E-01 0.72446079E+02</pdfrwt>
<pdfrwt beam="2">  1       -1 0.73270012E-03 0.72446079E+02</pdfrwt>
<totfact> 0.32025090E+05</totfact>
</mgrwt>
</event>
