<event>
 8    1  0.2676873E-016  0.7729765E+02  0.7818608E-02  0.1336900E+00
         -1   -1    0    0    0  501 -0.00000000000E+00  0.00000000000E+00  0.33736297441E+01  0.33736335088E+01  0.50400000000E-02 0.  1.
          2   -1    0    0  501    0  0.00000000000E+00 -0.00000000000E+00 -0.44276673355E+03  0.44276673356E+03  0.25500000000E-02 0. -1.
         24    2    1    2    0    0 -0.35527136788E-14  0.00000000000E+00 -0.43939310381E+03  0.44614036707E+03  0.77297654904E+02 0.  0.
         66    2    3    3    0    0  0.25899825958E+02  0.28514015576E+02 -0.23604199968E+03  0.23917289913E+03  0.19999996118E+01 0.  0.
        -13    1    3    3    0    0 -0.25899825958E+02 -0.28514015576E+02 -0.20335110413E+03  0.20696746793E+03  0.10566000000E+00 0.  1.
         13    1    4    4    0    0  0.12749431541E+02  0.14973420931E+02 -0.12341189498E+03  0.12496902947E+03  0.10566000000E+00 0.  1.
        -13    1    4    4    0    0  0.11059042399E+02  0.11787793247E+02 -0.95842940814E+02  0.97196373165E+02  0.10566000000E+00 0. -1.
        -14    1    4    4    0    0  0.20913520172E+01  0.17528013976E+01 -0.16787163885E+02  0.17007496503E+02  0.00000000000E+00 0.  1.
<mgrwt>
<rscale>  0 0.77297655E+02</rscale>
<asrwt>0</asrwt>
<pdfrwt beam="1">  1        2 0.68117913E-01 0.77297655E+02</pdfrwt>
<pdfrwt beam="2">  1       -1 0.51902060E-03 0.77297655E+02</pdfrwt>
<totfact> 0.31998196E+05</totfact>
</mgrwt>
</event>
<event>
 8    1  0.2676873E-016  0.7902405E+02  0.7818608E-02  0.1331844E+00
          2   -1    0    0  501    0  0.00000000000E+00  0.00000000000E+00  0.63572907757E+02  0.63572907809E+02  0.25500000000E-02 0. -1.
         -1   -1    0    0    0  501 -0.00000000000E+00 -0.00000000000E+00 -0.24557630732E+02  0.24557631249E+02  0.50400000000E-02 0.  1.
         24    2    1    2    0    0  0.00000000000E+00 -0.71054273576E-14  0.39015277025E+02  0.88130539058E+02  0.79024047437E+02 0.  0.
         66    2    3    3    0    0 -0.64575248883E+01  0.32063386213E+02  0.44192677467E+02  0.55015934991E+02  0.19999995317E+01 0.  0.
        -13    1    3    3    0    0  0.64575248883E+01 -0.32063386213E+02 -0.51774004414E+01  0.33114604067E+02  0.10566000000E+00 0.  1.
         13    1    4    4    0    0 -0.28255471047E+01  0.14619631365E+02  0.20557890359E+02  0.25384155643E+02  0.10566000000E+00 0. -1.
        -13    1    4    4    0    0 -0.31193101097E+01  0.11915070266E+02  0.16022173267E+02  0.20209408583E+02  0.10566000000E+00 0.  1.
        -14    1    4    4    0    0 -0.51266767394E+00  0.55286845825E+01  0.76126138405E+01  0.94223707654E+01  0.00000000000E+00 0.  1.
<mgrwt>
<rscale>  0 0.79024047E+02</rscale>
<asrwt>0</asrwt>
<pdfrwt beam="1">  1        2 0.97804472E-02 0.79024047E+02</pdfrwt>
<pdfrwt beam="2">  1       -1 0.37780972E-02 0.79024047E+02</pdfrwt>
<totfact> 0.16311975E+05</totfact>
</mgrwt>
</event>
<event>
 8    1  0.2676873E-016  0.8005115E+02  0.7818608E-02  0.1328906E+00
         -1   -1    0    0    0  501 -0.00000000000E+00  0.00000000000E+00  0.16843749275E+02  0.16843750029E+02  0.50400000000E-02 0.  1.
          2   -1    0    0  501    0  0.00000000000E+00 -0.00000000000E+00 -0.95112239340E+02  0.95112239374E+02  0.25500000000E-02 0. -1.
         24    2    1    2    0    0 -0.44408920985E-15  0.00000000000E+00 -0.78268490065E+02  0.11195598940E+03  0.80051152560E+02 0.  0.
         66    2    3    3    0    0  0.26494231485E+01  0.12389891662E+02 -0.92221082721E+02  0.93108844678E+02  0.20000001615E+01 0.  0.
        -13    1    3    3    0    0 -0.26494231485E+01 -0.12389891662E+02  0.13952592656E+02  0.18847144725E+02  0.10566000000E+00 0.  1.
         13    1    4    4    0    0  0.36121590494E+00  0.24521128431E+01 -0.13915676174E+02  0.14135081951E+02  0.10566000000E+00 0. -1.
        -13    1    4    4    0    0  0.42593296924E+00  0.68792054300E+00 -0.59015401691E+01  0.59576836078E+01  0.10566000000E+00 0.  1.
         14    1    4    4    0    0  0.18622742743E+01  0.92498582760E+01 -0.72403866378E+02  0.73016079120E+02  0.00000000000E+00 0. -1.
<mgrwt>
<rscale>  0 0.80051153E+02</rscale>
<asrwt>0</asrwt>
<pdfrwt beam="1">  1        2 0.14632652E-01 0.80051153E+02</pdfrwt>
<pdfrwt beam="2">  1       -1 0.25913462E-02 0.80051153E+02</pdfrwt>
<totfact> 0.17451305E+05</totfact>
</mgrwt>
</event>
<event>
 8    1  0.2676873E-016  0.7998080E+02  0.7818608E-02  0.1329106E+00
          2   -1    0    0  501    0  0.00000000000E+00  0.00000000000E+00  0.26271206557E+03  0.26271206558E+03  0.25500000000E-02 0. -1.
         -1   -1    0    0    0  501 -0.00000000000E+00 -0.00000000000E+00 -0.60873938533E+01  0.60873959397E+01  0.50400000000E-02 0.  1.
         24    2    1    2    0    0  0.00000000000E+00  0.88817841970E-15  0.25662467171E+03  0.26879946152E+03  0.79980800076E+02 0.  0.
         66    2    3    3    0    0 -0.30761056752E+02  0.53881672096E+01  0.21220722918E+03  0.21450217500E+03  0.20000008767E+01 0.  0.
        -13    1    3    3    0    0  0.30761056752E+02 -0.53881672096E+01  0.44417442530E+02  0.54297286519E+02  0.10566000000E+00 0.  1.
         13    1    4    4    0    0 -0.21199248341E+02  0.32154996988E+01  0.14689373305E+03  0.14845042116E+03  0.10566000000E+00 0. -1.
        -13    1    4    4    0    0 -0.89689590245E+01  0.22532238857E+01  0.61598566379E+02  0.62288953980E+02  0.10566000000E+00 0.  1.
        -14    1    4    4    0    0 -0.59284938618E+00 -0.80556374956E-01  0.37149297517E+01  0.37627998598E+01  0.00000000000E+00 0.  1.
<mgrwt>
<rscale>  0 0.79980800E+02</rscale>
<asrwt>0</asrwt>
<pdfrwt beam="1">  1        2 0.40417244E-01 0.79980800E+02</pdfrwt>
<pdfrwt beam="2">  1       -1 0.93652223E-03 0.79980800E+02</pdfrwt>
<totfact> 0.24313512E+05</totfact>
</mgrwt>
</event>
<event>
 8    1  0.2676873E-016  0.8320923E+02  0.7818608E-02  0.1320183E+00
          2   -1    0    0  501    0  0.00000000000E+00  0.00000000000E+00  0.15818705720E+03  0.15818705722E+03  0.25500000000E-02 0. -1.
         -1   -1    0    0    0  501 -0.00000000000E+00 -0.00000000000E+00 -0.10942387241E+02  0.10942388402E+02  0.50400000000E-02 0.  1.
         24    2    1    2    0    0  0.71054273576E-14  0.11102230246E-15  0.14724466996E+03  0.16912944562E+03  0.83209233534E+02 0.  0.
         66    2    3    3    0    0  0.37955475378E+02  0.81802770459E+00  0.10813792463E+03  0.11462590469E+03  0.20000002685E+01 0.  0.
        -13    1    3    3    0    0 -0.37955475378E+02 -0.81802770459E+00  0.39106745329E+02  0.54503540938E+02  0.10566000000E+00 0.  1.
         13    1    4    4    0    0  0.61550031414E+01 -0.38998173596E+00  0.16896857317E+02  0.17987526251E+02  0.10566000000E+00 0. -1.
        -13    1    4    4    0    0  0.27204630777E+02  0.83873250596E+00  0.79058486280E+02  0.83612503998E+02  0.10566000000E+00 0.  1.
        -14    1    4    4    0    0  0.45958414595E+01  0.36927693459E+00  0.12182581035E+02  0.13025874437E+02  0.00000000000E+00 0.  1.
<mgrwt>
<rscale>  0 0.83209234E+02</rscale>
<asrwt>0</asrwt>
<pdfrwt beam="1">  1        2 0.24336470E-01 0.83209234E+02</pdfrwt>
<pdfrwt beam="2">  1       -1 0.16834443E-02 0.83209234E+02</pdfrwt>
<totfact> 0.18357037E+05</totfact>
</mgrwt>
</event>
<event>
 8    1  0.2676873E-016  0.7981234E+02  0.7818608E-02  0.1329585E+00
         -1   -1    0    0    0  501 -0.00000000000E+00  0.00000000000E+00  0.20087289234E+01  0.20087352462E+01  0.50400000000E-02 0.  1.
          2   -1    0    0  501    0  0.00000000000E+00 -0.00000000000E+00 -0.79278991751E+03  0.79278991752E+03  0.25500000000E-02 0. -1.
         24    2    1    2    0    0  0.00000000000E+00  0.00000000000E+00 -0.79078118859E+03  0.79479865276E+03  0.79812343702E+02 0.  0.
         66    2    3    3    0    0 -0.14780374041E+02 -0.10480123149E+02 -0.74943346278E+03  0.74965512575E+03  0.19999955924E+01 0.  0.
        -13    1    3    3    0    0  0.14780374041E+02  0.10480123149E+02 -0.41347725806E+02  0.45143527015E+02  0.10566000000E+00 0.  1.
         13    1    4    4    0    0 -0.73344318842E+00 -0.36408043305E+00 -0.28119948258E+02  0.28132066179E+02  0.10566000000E+00 0. -1.
        -13    1    4    4    0    0 -0.10219496956E+01 -0.12976687345E+01 -0.64616777634E+02  0.64637972131E+02  0.10566000000E+00 0.  1.
        -14    1    4    4    0    0 -0.13024981157E+02 -0.88183739816E+01 -0.65669673689E+03  0.65688508744E+03  0.00000000000E+00 0.  1.
<mgrwt>
<rscale>  0 0.79812344E+02</rscale>
<asrwt>0</asrwt>
<pdfrwt beam="1">  1        2 0.12196743E+00 0.79812344E+02</pdfrwt>
<pdfrwt beam="2">  1       -1 0.30903634E-03 0.79812344E+02</pdfrwt>
<totfact> 0.34521305E+05</totfact>
</mgrwt>
</event>
<event>
 8    1  0.2676873E-016  0.7981791E+02  0.7818608E-02  0.1329569E+00
          2   -1    0    0  501    0  0.00000000000E+00  0.00000000000E+00  0.18761186656E+02  0.18761186829E+02  0.25500000000E-02 0. -1.
         -1   -1    0    0    0  501 -0.00000000000E+00 -0.00000000000E+00 -0.84894661299E+02  0.84894661449E+02  0.50400000000E-02 0.  1.
         24    2    1    2    0    0  0.00000000000E+00 -0.20816681712E-16 -0.66133474643E+02  0.10365584828E+03  0.79817907852E+02 0.  0.
         66    2    3    3    0    0  0.20329447372E+02  0.22602787940E-01  0.11474235562E+02  0.23429575845E+02  0.20000002986E+01 0.  0.
        -13    1    3    3    0    0 -0.20329447372E+02 -0.22602787940E-01 -0.77607710205E+02  0.80226272434E+02  0.10566000000E+00 0.  1.
         13    1    4    4    0    0  0.38411514650E+01 -0.31906606899E+00  0.20306837335E+01  0.43578765695E+01  0.10566000000E+00 0. -1.
        -13    1    4    4    0    0  0.15696700922E+02  0.40471221009E+00  0.93419915600E+01  0.18271129744E+02  0.10566000000E+00 0.  1.
        -14    1    4    4    0    0  0.79159498548E+00 -0.63043353166E-01  0.10156026804E+00  0.80056953069E+00  0.00000000000E+00 0.  1.
<mgrwt>
<rscale>  0 0.79817908E+02</rscale>
<asrwt>0</asrwt>
<pdfrwt beam="1">  1        2 0.28863365E-02 0.79817908E+02</pdfrwt>
<pdfrwt beam="2">  1       -1 0.13060717E-01 0.79817908E+02</pdfrwt>
<totfact> 0.12335911E+05</totfact>
</mgrwt>
</event>
<event>
 8    1  0.2676873E-016  0.7957247E+02  0.7818608E-02  0.1330269E+00
          2   -1    0    0  501    0  0.00000000000E+00  0.00000000000E+00  0.16282117001E+03  0.16282117003E+03  0.25500000000E-02 0. -1.
         -1   -1    0    0    0  501 -0.00000000000E+00 -0.00000000000E+00 -0.97219812479E+01  0.97219825543E+01  0.50400000000E-02 0.  1.
         24    2    1    2    0    0  0.00000000000E+00  0.00000000000E+00  0.15309918876E+03  0.17254315258E+03  0.79572469511E+02 0.  0.
         66    2    3    3    0    0  0.12832787299E+02 -0.37102796506E+02  0.90250261479E+02  0.98439868156E+02  0.20000017721E+01 0.  0.
        -13    1    3    3    0    0 -0.12832787299E+02  0.37102796506E+02  0.62848927283E+02  0.74103284428E+02  0.10566000000E+00 0.  1.
         13    1    4    4    0    0  0.90847641650E+01 -0.26873526076E+02  0.66241004980E+02  0.72059706136E+02  0.10566000000E+00 0. -1.
        -13    1    4    4    0    0  0.35634734754E+01 -0.92903787936E+01  0.22342154407E+02  0.24457974342E+02  0.10566000000E+00 0.  1.
        -14    1    4    4    0    0  0.18454965886E+00 -0.93889163621E+00  0.16671020928E+01  0.19221876778E+01  0.00000000000E+00 0.  1.
<mgrwt>
<rscale>  0 0.79572470E+02</rscale>
<asrwt>0</asrwt>
<pdfrwt beam="1">  1        2 0.25049410E-01 0.79572470E+02</pdfrwt>
<pdfrwt beam="2">  1       -1 0.14956896E-02 0.79572470E+02</pdfrwt>
<totfact> 0.20866854E+05</totfact>
</mgrwt>
</event>
<event>
 8    1  0.2676873E-016  0.8197898E+02  0.7818608E-02  0.1323527E+00
         -1   -1    0    0    0  501 -0.00000000000E+00  0.00000000000E+00  0.22935187712E+01  0.22935243089E+01  0.50400000000E-02 0.  1.
          2   -1    0    0  501    0  0.00000000000E+00 -0.00000000000E+00 -0.73255840698E+03  0.73255840698E+03  0.25500000000E-02 0. -1.
         24    2    1    2    0    0  0.00000000000E+00  0.00000000000E+00 -0.73026488821E+03  0.73485193129E+03  0.81978984958E+02 0.  0.
         66    2    3    3    0    0 -0.25981162967E+02 -0.24327135577E+02 -0.54714264749E+03  0.54830275128E+03  0.20000004909E+01 0.  0.
        -13    1    3    3    0    0  0.25981162967E+02  0.24327135577E+02 -0.18312224072E+03  0.18654918001E+03  0.10566000000E+00 0.  1.
         13    1    4    4    0    0 -0.87853876485E+01 -0.77076076395E+01 -0.18110887220E+03  0.18148560550E+03  0.10566000000E+00 0. -1.
        -13    1    4    4    0    0 -0.14356138048E+01 -0.16891625094E+01 -0.28870782563E+02  0.28955958054E+02  0.10566000000E+00 0.  1.
         14    1    4    4    0    0 -0.15760161514E+02 -0.14930365428E+02 -0.33716299273E+03  0.33786118772E+03  0.00000000000E+00 0. -1.
<mgrwt>
<rscale>  0 0.81978985E+02</rscale>
<asrwt>0</asrwt>
<pdfrwt beam="1">  1        2 0.11270111E+00 0.81978985E+02</pdfrwt>
<pdfrwt beam="2">  1       -1 0.35285005E-03 0.81978985E+02</pdfrwt>
<totfact> 0.31706706E+05</totfact>
</mgrwt>
</event>
<event>
 8    1  0.2676873E-016  0.7979739E+02  0.7818608E-02  0.1329627E+00
          2   -1    0    0  501    0  0.00000000000E+00  0.00000000000E+00  0.24277693967E+03  0.24277693968E+03  0.25500000000E-02 0. -1.
         -1   -1    0    0    0  501 -0.00000000000E+00 -0.00000000000E+00 -0.65570710578E+01  0.65570729948E+01  0.50400000000E-02 0.  1.
         24    2    1    2    0    0  0.00000000000E+00 -0.35527136788E-14  0.23621986861E+03  0.24933401268E+03  0.79797390628E+02 0.  0.
         66    2    3    3    0    0  0.10255568353E+02  0.28806926025E+02  0.19814441081E+03  0.20049993318E+03  0.20000005384E+01 0.  0.
        -13    1    3    3    0    0 -0.10255568353E+02 -0.28806926025E+02  0.38075457806E+02  0.48834079498E+02  0.10566000000E+00 0.  1.
         13    1    4    4    0    0  0.20497394812E+01  0.47454554804E+01  0.31672598933E+02  0.32091828662E+02  0.10566000000E+00 0. -1.
        -13    1    4    4    0    0  0.51338355453E+01  0.12809119087E+02  0.90287802373E+02  0.91336346657E+02  0.10566000000E+00 0.  1.
         14    1    4    4    0    0  0.30719933265E+01  0.11252351458E+02  0.76184009499E+02  0.77071757861E+02  0.00000000000E+00 0. -1.
<mgrwt>
<rscale>  0 0.79797391E+02</rscale>
<asrwt>0</asrwt>
<pdfrwt beam="1">  1        2 0.37350298E-01 0.79797391E+02</pdfrwt>
<pdfrwt beam="2">  1       -1 0.10087803E-02 0.79797391E+02</pdfrwt>
<totfact> 0.23777402E+05</totfact>
</mgrwt>
</event>
<event>
 8    1  0.2676873E-016  0.7944379E+02  0.7818608E-02  0.1330637E+00
         -1   -1    0    0    0  501 -0.00000000000E+00  0.00000000000E+00  0.53818506260E+01  0.53818529859E+01  0.50400000000E-02 0.  1.
          2   -1    0    0  501    0  0.00000000000E+00 -0.00000000000E+00 -0.29317580596E+03  0.29317580597E+03  0.25500000000E-02 0. -1.
         24    2    1    2    0    0 -0.71054273576E-14  0.00000000000E+00 -0.28779395534E+03  0.29855765896E+03  0.79443785126E+02 0.  0.
         66    2    3    3    0    0  0.33077225503E+02  0.15961045706E+02 -0.87370686512E+02  0.94797123827E+02  0.19999993482E+01 0.  0.
        -13    1    3    3    0    0 -0.33077225503E+02 -0.15961045706E+02 -0.20042326883E+03  0.20376053513E+03  0.10566000000E+00 0.  1.
         13    1    4    4    0    0  0.27681996484E+02  0.13300305566E+02 -0.74059674496E+02  0.80175043548E+02  0.10566000000E+00 0. -1.
        -13    1    4    4    0    0  0.24034544172E+01  0.15167004122E+01 -0.65457018126E+01  0.71368304962E+01  0.10566000000E+00 0.  1.
         14    1    4    4    0    0  0.29917746010E+01  0.11440397270E+01 -0.67653102031E+01  0.74852497824E+01  0.00000000000E+00 0. -1.
<mgrwt>
<rscale>  0 0.79443785E+02</rscale>
<asrwt>0</asrwt>
<pdfrwt beam="1">  1        2 0.45103958E-01 0.79443785E+02</pdfrwt>
<pdfrwt beam="2">  1       -1 0.82797743E-03 0.79443785E+02</pdfrwt>
<totfact> 0.25749633E+05</totfact>
</mgrwt>
</event>
<event>
 8    1  0.2676873E-016  0.7836767E+02  0.7818608E-02  0.1333749E+00
         -1   -1    0    0    0  501 -0.00000000000E+00  0.00000000000E+00  0.31212227318E+02  0.31212227725E+02  0.50400000000E-02 0.  1.
          2   -1    0    0  501    0  0.00000000000E+00 -0.00000000000E+00 -0.49191390410E+02  0.49191390476E+02  0.25500000000E-02 0. -1.
         24    2    1    2    0    0  0.00000000000E+00 -0.35527136788E-14 -0.17979163092E+02  0.80403618202E+02  0.78367668808E+02 0.  0.
         66    2    3    3    0    0 -0.14719248906E+02  0.28914200526E+02 -0.31489435981E+02  0.45257837260E+02  0.19999936563E+01 0.  0.
        -13    1    3    3    0    0  0.14719248906E+02 -0.28914200526E+02  0.13510272889E+02  0.35145780942E+02  0.10566000000E+00 0.  1.
         13    1    4    4    0    0 -0.54359953165E+01  0.12066143101E+02 -0.12130399889E+02  0.17952705086E+02  0.10566000000E+00 0. -1.
        -13    1    4    4    0    0 -0.85453146019E+01  0.15825250900E+02 -0.17868883149E+02  0.25352891684E+02  0.10566000000E+00 0.  1.
        -14    1    4    4    0    0 -0.73793898801E+00  0.10228065252E+01 -0.14901529429E+01  0.19522404901E+01  0.00000000000E+00 0.  1.
<mgrwt>
<rscale>  0 0.78367669E+02</rscale>
<asrwt>0</asrwt>
<pdfrwt beam="1">  1        2 0.75679062E-02 0.78367669E+02</pdfrwt>
<pdfrwt beam="2">  1       -1 0.48018812E-02 0.78367669E+02</pdfrwt>
<totfact> 0.15754482E+05</totfact>
</mgrwt>
</event>
<event>
 8    1  0.2676873E-016  0.7692477E+02  0.7818608E-02  0.1338012E+00
         -1   -1    0    0    0  501 -0.00000000000E+00  0.00000000000E+00  0.32231893352E+01  0.32231932757E+01  0.50400000000E-02 0.  1.
          2   -1    0    0  501    0  0.00000000000E+00 -0.00000000000E+00 -0.45897217020E+03  0.45897217021E+03  0.25500000000E-02 0. -1.
         24    2    1    2    0    0  0.00000000000E+00  0.71054273576E-14 -0.45574898087E+03  0.46219536349E+03  0.76924771470E+02 0.  0.
         66    2    3    3    0    0  0.82560526282E+01 -0.36491130970E+02 -0.28095161383E+03  0.28343883708E+03  0.20000020746E+01 0.  0.
        -13    1    3    3    0    0 -0.82560526282E+01  0.36491130970E+02 -0.17479736704E+03  0.17875652640E+03  0.10566000000E+00 0.  1.
         13    1    4    4    0    0  0.91961584040E+00 -0.22146378280E+01 -0.17735567782E+02  0.17897257962E+02  0.10566000000E+00 0. -1.
        -13    1    4    4    0    0  0.32029100131E+01 -0.14021482069E+02 -0.11124445505E+03  0.11217040846E+03  0.10566000000E+00 0.  1.
         14    1    4    4    0    0  0.41335267746E+01 -0.20255011074E+02 -0.15197159100E+03  0.15337117066E+03  0.00000000000E+00 0. -1.
<mgrwt>
<rscale>  0 0.76924771E+02</rscale>
<asrwt>0</asrwt>
<pdfrwt beam="1">  1        2 0.70611051E-01 0.76924771E+02</pdfrwt>
<pdfrwt beam="2">  1       -1 0.49587595E-03 0.76924771E+02</pdfrwt>
<totfact> 0.32794776E+05</totfact>
</mgrwt>
</event>
<event>
 8    1  0.2676873E-016  0.7902507E+02  0.7818608E-02  0.1331841E+00
          2   -1    0    0  501    0  0.00000000000E+00  0.00000000000E+00  0.21864239207E+03  0.21864239208E+03  0.25500000000E-02 0. -1.
         -1   -1    0    0    0  501 -0.00000000000E+00 -0.00000000000E+00 -0.71406110141E+01  0.71406127928E+01  0.50400000000E-02 0.  1.
         24    2    1    2    0    0  0.35527136788E-14 -0.35527136788E-14  0.21150178105E+03  0.22578300487E+03  0.79025071349E+02 0.  0.
         66    2    3    3    0    0 -0.24867535070E+02  0.18516974584E+02  0.17568404777E+03  0.17841008192E+03  0.20000098915E+01 0.  0.
        -13    1    3    3    0    0  0.24867535070E+02 -0.18516974584E+02  0.35817733281E+02  0.47372922959E+02  0.10566000000E+00 0.  1.
         13    1    4    4    0    0 -0.93918621232E+01  0.72203381663E+01  0.67374237976E+02  0.68407890365E+02  0.10566000000E+00 0. -1.
        -13    1    4    4    0    0 -0.13166062914E+02  0.95160263548E+01  0.94716805304E+02  0.96099866500E+02  0.10566000000E+00 0.  1.
        -14    1    4    4    0    0 -0.23096100334E+01  0.17806100631E+01  0.13593004491E+02  0.13902325050E+02  0.00000000000E+00 0.  1.
<mgrwt>
<rscale>  0 0.79025071E+02</rscale>
<asrwt>0</asrwt>
<pdfrwt beam="1">  1        2 0.33637289E-01 0.79025071E+02</pdfrwt>
<pdfrwt beam="2">  1       -1 0.10985557E-02 0.79025071E+02</pdfrwt>
<totfact> 0.23504181E+05</totfact>
</mgrwt>
</event>
<event>
 8    1  0.2676873E-016  0.7970173E+02  0.7818608E-02  0.1329900E+00
          2   -1    0    0  501    0  0.00000000000E+00  0.00000000000E+00  0.42674089835E+02  0.42674089911E+02  0.25500000000E-02 0. -1.
         -1   -1    0    0    0  501 -0.00000000000E+00 -0.00000000000E+00 -0.37214422731E+02  0.37214423072E+02  0.50400000000E-02 0.  1.
         24    2    1    2    0    0 -0.88817841970E-15  0.17763568394E-14  0.54596671043E+01  0.79888512984E+02  0.79701734873E+02 0.  0.
         66    2    3    3    0    0 -0.43146080905E+01  0.11505145001E+02  0.40703070882E+02  0.42564353538E+02  0.20000021035E+01 0.  0.
        -13    1    3    3    0    0  0.43146080905E+01 -0.11505145001E+02 -0.35243403778E+02  0.37324159446E+02  0.10566000000E+00 0.  1.
         13    1    4    4    0    0 -0.38563100243E+01  0.85974966019E+01  0.30740407282E+02  0.32152323069E+02  0.10566000000E+00 0. -1.
        -13    1    4    4    0    0  0.60658959249E-01  0.41521835505E+00  0.90101523260E+00  0.99953903209E+00  0.10566000000E+00 0.  1.
         14    1    4    4    0    0 -0.51895702548E+00  0.24924300439E+01  0.90616483669E+01  0.94124914366E+01  0.00000000000E+00 0. -1.
<mgrwt>
<rscale>  0 0.79701735E+02</rscale>
<asrwt>0</asrwt>
<pdfrwt beam="1">  1        2 0.65652446E-02 0.79701735E+02</pdfrwt>
<pdfrwt beam="2">  1       -1 0.57252959E-02 0.79701735E+02</pdfrwt>
<totfact> 0.14596917E+05</totfact>
</mgrwt>
</event>
<event>
 8    1  0.2676873E-016  0.7941033E+02  0.7818608E-02  0.1330733E+00
         -1   -1    0    0    0  501 -0.00000000000E+00  0.00000000000E+00  0.33135176638E+01  0.33135214969E+01  0.50400000000E-02 0.  1.
          2   -1    0    0  501    0  0.00000000000E+00 -0.00000000000E+00 -0.47577815068E+03  0.47577815069E+03  0.25500000000E-02 0. -1.
         24    2    1    2    0    0 -0.88817841970E-15  0.71054273576E-14 -0.47246463302E+03  0.47909167219E+03  0.79410332481E+02 0.  0.
         66    2    3    3    0    0 -0.53124513757E+01  0.37421902661E+02 -0.30924877111E+03  0.31155645296E+03  0.20000024333E+01 0.  0.
        -13    1    3    3    0    0  0.53124513757E+01 -0.37421902661E+02 -0.16321586190E+03  0.16753521922E+03  0.10566000000E+00 0.  1.
         13    1    4    4    0    0 -0.13635283402E+01  0.79936547034E+01 -0.65293389842E+02  0.65795103512E+02  0.10566000000E+00 0. -1.
        -13    1    4    4    0    0 -0.19797043161E+01  0.12679914714E+02 -0.11189511556E+03  0.11262871533E+03  0.10566000000E+00 0.  1.
        -14    1    4    4    0    0 -0.19692187194E+01  0.16748333244E+02 -0.13206026571E+03  0.13313263412E+03  0.00000000000E+00 0.  1.
<mgrwt>
<rscale>  0 0.79410332E+02</rscale>
<asrwt>0</asrwt>
<pdfrwt beam="1">  1        2 0.73196584E-01 0.79410332E+02</pdfrwt>
<pdfrwt beam="2">  1       -1 0.50977262E-03 0.79410332E+02</pdfrwt>
<totfact> 0.30550277E+05</totfact>
</mgrwt>
</event>
<event>
 8    1  0.2676873E-016  0.8077882E+02  0.7818608E-02  0.1326856E+00
         -1   -1    0    0    0  501 -0.00000000000E+00  0.00000000000E+00  0.40019348742E+02  0.40019349060E+02  0.50400000000E-02 0.  1.
          2   -1    0    0  501    0  0.00000000000E+00 -0.00000000000E+00 -0.40762896226E+02  0.40762896305E+02  0.25500000000E-02 0. -1.
         24    2    1    2    0    0  0.35527136788E-14  0.00000000000E+00 -0.74354748324E+00  0.80782245365E+02  0.80778823359E+02 0.  0.
         66    2    3    3    0    0 -0.27740846461E+02 -0.17997062754E+02 -0.23521432062E+02  0.40628889091E+02  0.20000080989E+01 0.  0.
        -13    1    3    3    0    0  0.27740846461E+02  0.17997062754E+02  0.22777884579E+02  0.40153356274E+02  0.10566000000E+00 0.  1.
         13    1    4    4    0    0 -0.17258595341E+02 -0.11518810814E+02 -0.15173266511E+02  0.25705666620E+02  0.10566000000E+00 0. -1.
        -13    1    4    4    0    0 -0.69387587683E+01 -0.40422631285E+01 -0.48670099600E+01  0.93906982930E+01  0.10566000000E+00 0.  1.
        -14    1    4    4    0    0 -0.35434923511E+01 -0.24359888109E+01 -0.34811555916E+01  0.55325241782E+01  0.00000000000E+00 0.  1.
<mgrwt>
<rscale>  0 0.80778823E+02</rscale>
<asrwt>0</asrwt>
<pdfrwt beam="1">  1        2 0.62712148E-02 0.80778823E+02</pdfrwt>
<pdfrwt beam="2">  1       -1 0.61568229E-02 0.80778823E+02</pdfrwt>
<totfact> 0.13932655E+05</totfact>
</mgrwt>
</event>
<event>
 8    1  0.2676873E-016  0.8051587E+02  0.7818608E-02  0.1327594E+00
         -1   -1    0    0    0  501 -0.00000000000E+00  0.00000000000E+00  0.74446187687E+02  0.74446187858E+02  0.50400000000E-02 0.  1.
          2   -1    0    0  501    0  0.00000000000E+00 -0.00000000000E+00 -0.21770106492E+02  0.21770106642E+02  0.25500000000E-02 0. -1.
         24    2    1    2    0    0  0.00000000000E+00  0.00000000000E+00  0.52676081195E+02  0.96216294499E+02  0.80515872952E+02 0.  0.
         66    2    3    3    0    0  0.11032142491E+02 -0.34317044513E+02  0.49999065161E+01  0.36446766243E+02  0.19999980825E+01 0.  0.
        -13    1    3    3    0    0 -0.11032142491E+02  0.34317044513E+02  0.47676174679E+02  0.59769528257E+02  0.10566000000E+00 0.  1.
         13    1    4    4    0    0  0.47910053533E+01 -0.14830702756E+02  0.21623040323E+01  0.15734999184E+02  0.10566000000E+00 0. -1.
        -13    1    4    4    0    0  0.24323165867E+01 -0.68592262122E+01  0.32656958296E+00  0.72858053733E+01  0.10566000000E+00 0.  1.
        -14    1    4    4    0    0  0.38088205506E+01 -0.12627115544E+02  0.25110329009E+01  0.13425961686E+02  0.00000000000E+00 0.  1.
<mgrwt>
<rscale>  0 0.80515873E+02</rscale>
<asrwt>0</asrwt>
<pdfrwt beam="1">  1        2 0.33492472E-02 0.80515873E+02</pdfrwt>
<pdfrwt beam="2">  1       -1 0.11453259E-01 0.80515873E+02</pdfrwt>
<totfact> 0.12399232E+05</totfact>
</mgrwt>
</event>
<event>
 8    1  0.2676873E-016  0.7730622E+02  0.7818608E-02  0.1336875E+00
         -1   -1    0    0    0  501 -0.00000000000E+00  0.00000000000E+00  0.12908808374E+01  0.12908906762E+01  0.50400000000E-02 0.  1.
          2   -1    0    0  501    0  0.00000000000E+00 -0.00000000000E+00 -0.11573936392E+04  0.11573936392E+04  0.25500000000E-02 0. -1.
         24    2    1    2    0    0  0.88817841970E-15  0.00000000000E+00 -0.11561027584E+04  0.11586845299E+04  0.77306221531E+02 0.  0.
         66    2    3    3    0    0  0.47634462551E+01 -0.23254079589E+02 -0.10351768396E+04  0.10354508833E+04  0.20000009901E+01 0.  0.
        -13    1    3    3    0    0 -0.47634462551E+01  0.23254079589E+02 -0.12092591880E+03  0.12323364654E+03  0.10566000000E+00 0.  1.
         13    1    4    4    0    0  0.51156705883E+00 -0.35489713008E+01 -0.16656668008E+03  0.16660530296E+03  0.10566000000E+00 0.  1.
        -13    1    4    4    0    0  0.19690078420E+01 -0.12638618686E+02 -0.53848610712E+03  0.53863801425E+03  0.10566000000E+00 0. -1.
         14    1    4    4    0    0  0.22828713543E+01 -0.70664896029E+01 -0.33012405237E+03  0.33020756614E+03  0.00000000000E+00 0. -1.
<mgrwt>
<rscale>  0 0.77306222E+02</rscale>
<asrwt>0</asrwt>
<pdfrwt beam="1">  1        2 0.17805973E+00 0.77306222E+02</pdfrwt>
<pdfrwt beam="2">  1       -1 0.19859873E-03 0.77306222E+02</pdfrwt>
<totfact> 0.38419319E+05</totfact>
</mgrwt>
</event>
<event>
 8    1  0.2676873E-016  0.7953056E+02  0.7818608E-02  0.1330389E+00
         -1   -1    0    0    0  501 -0.00000000000E+00  0.00000000000E+00  0.96603431446E+01  0.96603444593E+01  0.50400000000E-02 0.  1.
          2   -1    0    0  501    0  0.00000000000E+00 -0.00000000000E+00 -0.16368750509E+03  0.16368750511E+03  0.25500000000E-02 0. -1.
         24    2    1    2    0    0 -0.35527136788E-14  0.17763568394E-14 -0.15402716195E+03  0.17334784957E+03  0.79530562260E+02 0.  0.
         66    2    3    3    0    0 -0.20345838001E+02  0.13832089393E+02 -0.14508616645E+03  0.14717090579E+03  0.19999989574E+01 0.  0.
        -13    1    3    3    0    0  0.20345838001E+02 -0.13832089393E+02 -0.89409954946E+01  0.26176943775E+02  0.10566000000E+00 0.  1.
         13    1    4    4    0    0 -0.10560856671E+02  0.68150217371E+01 -0.70526083175E+02  0.71637390984E+02  0.10566000000E+00 0. -1.
        -13    1    4    4    0    0 -0.82226696985E+01  0.63405185127E+01 -0.64391656658E+02  0.65223546999E+02  0.10566000000E+00 0.  1.
         14    1    4    4    0    0 -0.15623116313E+01  0.67654914324E+00 -0.10168426619E+02  0.10309967812E+02  0.00000000000E+00 0. -1.
<mgrwt>
<rscale>  0 0.79530562E+02</rscale>
<asrwt>0</asrwt>
<pdfrwt beam="1">  1        2 0.25182691E-01 0.79530562E+02</pdfrwt>
<pdfrwt beam="2">  1       -1 0.14862069E-02 0.79530562E+02</pdfrwt>
<totfact> 0.20932567E+05</totfact>
</mgrwt>
</event>
<event>
 8    1  0.2676873E-016  0.7973691E+02  0.7818608E-02  0.1329800E+00
         -1   -1    0    0    0  501 -0.00000000000E+00  0.00000000000E+00  0.17125683277E+01  0.17125757439E+01  0.50400000000E-02 0.  1.
          2   -1    0    0  501    0  0.00000000000E+00 -0.00000000000E+00 -0.92813239279E+03  0.92813239279E+03  0.25500000000E-02 0. -1.
         24    2    1    2    0    0 -0.44408920985E-15  0.00000000000E+00 -0.92641982446E+03  0.92984496854E+03  0.79736907123E+02 0.  0.
         66    2    3    3    0    0  0.38963160201E+01  0.19248343803E+02 -0.86776800679E+03  0.86799250781E+03  0.19999971834E+01 0.  0.
        -13    1    3    3    0    0 -0.38963160201E+01 -0.19248343803E+02 -0.58651817668E+02  0.61852460723E+02  0.10566000000E+00 0.  1.
         13    1    4    4    0    0  0.10581482119E+01  0.42034108410E+01 -0.16887088188E+03  0.16892653507E+03  0.10566000000E+00 0. -1.
        -13    1    4    4    0    0  0.11318594003E+01  0.32029023729E+01 -0.15184471128E+03  0.15188274161E+03  0.10566000000E+00 0.  1.
         14    1    4    4    0    0  0.17063084078E+01  0.11842030589E+02 -0.54705241363E+03  0.54718323113E+03  0.00000000000E+00 0. -1.
<mgrwt>
<rscale>  0 0.79736907E+02</rscale>
<asrwt>0</asrwt>
<pdfrwt beam="1">  1        2 0.14278920E+00 0.79736907E+02</pdfrwt>
<pdfrwt beam="2">  1       -1 0.26347336E-03 0.79736907E+02</pdfrwt>
<totfact> 0.35356193E+05</totfact>
</mgrwt>
</event>
<event>
 8    1  0.2676873E-016  0.7958493E+02  0.7818608E-02  0.1330233E+00
         -1   -1    0    0    0  501 -0.00000000000E+00  0.00000000000E+00  0.19214244164E+03  0.19214244171E+03  0.50400000000E-02 0.  1.
          2   -1    0    0  501    0  0.00000000000E+00 -0.00000000000E+00 -0.82409713649E+01  0.82409717594E+01  0.25500000000E-02 0. -1.
         24    2    1    2    0    0  0.00000000000E+00 -0.17763568394E-14  0.18390147027E+03  0.20038341346E+03  0.79584933390E+02 0.  0.
         66    2    3    3    0    0  0.34509118901E+02  0.11304028913E+02  0.13282394471E+03  0.13771296478E+03  0.20000055377E+01 0.  0.
        -13    1    3    3    0    0 -0.34509118901E+02 -0.11304028913E+02  0.51077525563E+02  0.62670448688E+02  0.10566000000E+00 0.  1.
         13    1    4    4    0    0  0.13862789987E+02  0.50452789929E+01  0.53907591012E+02  0.55889814091E+02  0.10566000000E+00 0. -1.
        -13    1    4    4    0    0  0.15832744863E+02  0.42256991255E+01  0.59241486104E+02  0.61466227986E+02  0.10566000000E+00 0.  1.
        -14    1    4    4    0    0  0.48135840507E+01  0.20330507941E+01  0.19674867594E+02  0.20356922700E+02  0.00000000000E+00 0.  1.
<mgrwt>
<rscale>  0 0.79584933E+02</rscale>
<asrwt>0</asrwt>
<pdfrwt beam="1">  1        2 0.12678419E-02 0.79584933E+02</pdfrwt>
<pdfrwt beam="2">  1       -1 0.29560374E-01 0.79584933E+02</pdfrwt>
<totfact> 0.10214592E+05</totfact>
</mgrwt>
</event>
<event>
 8    1  0.2676873E-016  0.8004281E+02  0.7818608E-02  0.1328930E+00
          2   -1    0    0  501    0  0.00000000000E+00  0.00000000000E+00  0.19537058032E+02  0.19537058199E+02  0.25500000000E-02 0. -1.
         -1   -1    0    0    0  501 -0.00000000000E+00 -0.00000000000E+00 -0.81983310062E+02  0.81983310217E+02  0.50400000000E-02 0.  1.
         24    2    1    2    0    0 -0.71054273576E-14  0.00000000000E+00 -0.62446252030E+02  0.10152036842E+03  0.80042806115E+02 0.  0.
         66    2    3    3    0    0  0.36009025114E+02  0.15447206054E+02 -0.21061005582E+02  0.44529001946E+02  0.19999984100E+01 0.  0.
        -13    1    3    3    0    0 -0.36009025114E+02 -0.15447206054E+02 -0.41385246448E+02  0.56991366470E+02  0.10566000000E+00 0.  1.
         13    1    4    4    0    0  0.12239789680E+02  0.52872721228E+01 -0.70498422142E+01  0.15082411518E+02  0.10566000000E+00 0. -1.
        -13    1    4    4    0    0  0.19821462027E+02  0.87876401396E+01 -0.12318843967E+02  0.24937482969E+02  0.10566000000E+00 0.  1.
        -14    1    4    4    0    0  0.39477734073E+01  0.13722937920E+01 -0.16923194007E+01  0.45091074594E+01  0.00000000000E+00 0.  1.
<mgrwt>
<rscale>  0 0.80042806E+02</rscale>
<asrwt>0</asrwt>
<pdfrwt beam="1">  1        2 0.30057013E-02 0.80042806E+02</pdfrwt>
<pdfrwt beam="2">  1       -1 0.12612817E-01 0.80042806E+02</pdfrwt>
<totfact> 0.12337906E+05</totfact>
</mgrwt>
</event>
<event>
 8    1  0.2676873E-016  0.7824882E+02  0.7818608E-02  0.1334096E+00
         -1   -1    0    0    0  501 -0.00000000000E+00  0.00000000000E+00  0.68167578537E+01  0.68167597168E+01  0.50400000000E-02 0.  1.
          2   -1    0    0  501    0  0.00000000000E+00 -0.00000000000E+00 -0.22455237831E+03  0.22455237832E+03  0.25500000000E-02 0. -1.
         24    2    1    2    0    0  0.17763568394E-14  0.71054273576E-14 -0.21773562045E+03  0.23136913804E+03  0.78248818664E+02 0.  0.
         66    2    3    3    0    0 -0.12497546983E+02 -0.32694824990E+02 -0.16045686303E+03  0.16424233655E+03  0.19999902624E+01 0.  0.
        -13    1    3    3    0    0  0.12497546983E+02  0.32694824990E+02 -0.57278757421E+02  0.67126801484E+02  0.10566000000E+00 0.  1.
         13    1    4    4    0    0 -0.16413302387E+01 -0.42276018185E+01 -0.21180463326E+02  0.21660788832E+02  0.10566000000E+00 0. -1.
        -13    1    4    4    0    0 -0.47838862337E+01 -0.14082882199E+02 -0.64555098270E+02  0.66246396243E+02  0.10566000000E+00 0.  1.
        -14    1    4    4    0    0 -0.60723305103E+01 -0.14384340972E+02 -0.74721301434E+02  0.76335151477E+02  0.00000000000E+00 0.  1.
<mgrwt>
<rscale>  0 0.78248819E+02</rscale>
<asrwt>0</asrwt>
<pdfrwt beam="1">  1        2 0.34546514E-01 0.78248819E+02</pdfrwt>
<pdfrwt beam="2">  1       -1 0.10487323E-02 0.78248819E+02</pdfrwt>
<totfact> 0.24350107E+05</totfact>
</mgrwt>
</event>
<event>
 8    1  0.2676873E-016  0.8026363E+02  0.7818608E-02  0.1328305E+00
         -1   -1    0    0    0  501 -0.00000000000E+00  0.00000000000E+00  0.65004471213E+01  0.65004490751E+01  0.50400000000E-02 0.  1.
          2   -1    0    0  501    0  0.00000000000E+00 -0.00000000000E+00 -0.24776174814E+03  0.24776174815E+03  0.25500000000E-02 0. -1.
         24    2    1    2    0    0  0.00000000000E+00  0.00000000000E+00 -0.24126130102E+03  0.25426219723E+03  0.80263625449E+02 0.  0.
         66    2    3    3    0    0 -0.29266275758E+02  0.11535287250E+02 -0.19951895116E+03  0.20199353851E+03  0.19999946306E+01 0.  0.
        -13    1    3    3    0    0  0.29266275758E+02 -0.11535287250E+02 -0.41742349863E+02  0.52268658724E+02  0.10566000000E+00 0.  1.
         13    1    4    4    0    0 -0.44905711604E+01  0.17071719666E+01 -0.28513084566E+02  0.28915165933E+02  0.10566000000E+00 0. -1.
        -13    1    4    4    0    0 -0.16711698436E+01  0.11053468727E+01 -0.13346738936E+02  0.13496710881E+02  0.10566000000E+00 0.  1.
         14    1    4    4    0    0 -0.23104534754E+02  0.87227684110E+01 -0.15765912766E+03  0.15958166169E+03  0.00000000000E+00 0. -1.
<mgrwt>
<rscale>  0 0.80263625E+02</rscale>
<asrwt>0</asrwt>
<pdfrwt beam="1">  1        2 0.38117185E-01 0.80263625E+02</pdfrwt>
<pdfrwt beam="2">  1       -1 0.10000691E-02 0.80263625E+02</pdfrwt>
<totfact> 0.23586681E+05</totfact>
</mgrwt>
</event>
<event>
 8    1  0.2676873E-016  0.7925661E+02  0.7818608E-02  0.1331174E+00
         -1   -1    0    0    0  501 -0.00000000000E+00  0.00000000000E+00  0.56200493622E+01  0.56200516221E+01  0.50400000000E-02 0.  1.
          2   -1    0    0  501    0  0.00000000000E+00 -0.00000000000E+00 -0.27942851670E+03  0.27942851671E+03  0.25500000000E-02 0. -1.
         24    2    1    2    0    0  0.00000000000E+00 -0.88817841970E-15 -0.27380846733E+03  0.28504856833E+03  0.79256605549E+02 0.  0.
         66    2    3    3    0    0  0.35209747789E+02  0.77834524028E+01 -0.19587863371E+03  0.19918018880E+03  0.19999987453E+01 0.  0.
        -13    1    3    3    0    0 -0.35209747789E+02 -0.77834524028E+01 -0.77929833626E+02  0.85868379533E+02  0.10566000000E+00 0.  1.
         13    1    4    4    0    0  0.20400849049E+02  0.44984062940E+01 -0.11305990373E+03  0.11497383745E+03  0.10566000000E+00 0. -1.
        -13    1    4    4    0    0  0.41247667800E+01  0.12821862111E+01 -0.26131513823E+02  0.26486314979E+02  0.10566000000E+00 0.  1.
         14    1    4    4    0    0  0.10684131960E+02  0.20028598976E+01 -0.56687216152E+02  0.57720036370E+02  0.00000000000E+00 0. -1.
<mgrwt>
<rscale>  0 0.79256606E+02</rscale>
<asrwt>0</asrwt>
<pdfrwt beam="1">  1        2 0.42988992E-01 0.79256606E+02</pdfrwt>
<pdfrwt beam="2">  1       -1 0.86462337E-03 0.79256606E+02</pdfrwt>
<totfact> 0.25462784E+05</totfact>
</mgrwt>
</event>
<event>
 8    1  0.2676873E-016  0.7990226E+02  0.7818608E-02  0.1329329E+00
         -1   -1    0    0    0  501 -0.00000000000E+00  0.00000000000E+00  0.38182550360E+01  0.38182583623E+01  0.50400000000E-02 0.  1.
          2   -1    0    0  501    0  0.00000000000E+00 -0.00000000000E+00 -0.41801608501E+03  0.41801608502E+03  0.25500000000E-02 0. -1.
         24    2    1    2    0    0  0.00000000000E+00  0.00000000000E+00 -0.41419782997E+03  0.42183434338E+03  0.79902258414E+02 0.  0.
         66    2    3    3    0    0 -0.67920703610E+01  0.24662254656E+02 -0.36906766026E+03  0.36995850693E+03  0.19999947282E+01 0.  0.
        -13    1    3    3    0    0  0.67920703610E+01 -0.24662254656E+02 -0.45130169717E+02  0.51875836448E+02  0.10566000000E+00 0.  1.
         13    1    4    4    0    0 -0.27584287473E+01  0.10574498389E+02 -0.15736288940E+03  0.15774193821E+03  0.10566000000E+00 0.  1.
        -13    1    4    4    0    0 -0.20089868299E+01  0.81296269082E+01 -0.11112052706E+03  0.11143567454E+03  0.10566000000E+00 0. -1.
        -14    1    4    4    0    0 -0.20246547839E+01  0.59581293589E+01 -0.10058424379E+03  0.10078089418E+03  0.00000000000E+00 0.  1.
<mgrwt>
<rscale>  0 0.79902258E+02</rscale>
<asrwt>0</asrwt>
<pdfrwt beam="1">  1        2 0.64310131E-01 0.79902258E+02</pdfrwt>
<pdfrwt beam="2">  1       -1 0.58742444E-03 0.79902258E+02</pdfrwt>
<totfact> 0.28780942E+05</totfact>
</mgrwt>
</event>
<event>
 8    1  0.2676873E-016  0.7965178E+02  0.7818608E-02  0.1330043E+00
         -1   -1    0    0    0  501 -0.00000000000E+00  0.00000000000E+00  0.46131943379E+01  0.46131970911E+01  0.50400000000E-02 0.  1.
          2   -1    0    0  501    0  0.00000000000E+00 -0.00000000000E+00 -0.34381841084E+03  0.34381841085E+03  0.25500000000E-02 0. -1.
         24    2    1    2    0    0 -0.35527136788E-14  0.35527136788E-14 -0.33920521650E+03  0.34843160794E+03  0.79651782841E+02 0.  0.
         66    2    3    3    0    0 -0.24790103984E+02 -0.23787938654E+02 -0.25759963492E+03  0.25988841288E+03  0.19999902444E+01 0.  0.
        -13    1    3    3    0    0  0.24790103984E+02  0.23787938654E+02 -0.81605581583E+02  0.88543195054E+02  0.10566000000E+00 0.  1.
         13    1    4    4    0    0 -0.62583563918E+01 -0.64700009827E+01 -0.67562103168E+02  0.68159202504E+02  0.10566000000E+00 0. -1.
        -13    1    4    4    0    0 -0.20936357931E+01 -0.22986032721E+01 -0.20156493158E+02  0.20395153059E+02  0.10566000000E+00 0.  1.
         14    1    4    4    0    0 -0.16438111799E+02 -0.15019334399E+02 -0.16988103859E+03  0.17133405732E+03  0.00000000000E+00 0. -1.
<mgrwt>
<rscale>  0 0.79651783E+02</rscale>
<asrwt>0</asrwt>
<pdfrwt beam="1">  1        2 0.52895120E-01 0.79651783E+02</pdfrwt>
<pdfrwt beam="2">  1       -1 0.70972269E-03 0.79651783E+02</pdfrwt>
<totfact> 0.27085836E+05</totfact>
</mgrwt>
</event>
<event>
 8    1  0.2676873E-016  0.8135734E+02  0.7818608E-02  0.1325243E+00
          2   -1    0    0  501    0  0.00000000000E+00  0.00000000000E+00  0.23607550200E+02  0.23607550338E+02  0.25500000000E-02 0. -1.
         -1   -1    0    0    0  501 -0.00000000000E+00 -0.00000000000E+00 -0.70094281170E+02  0.70094281351E+02  0.50400000000E-02 0.  1.
         24    2    1    2    0    0  0.17763568394E-14  0.00000000000E+00 -0.46486730970E+02  0.93701831689E+02  0.81357342051E+02 0.  0.
         66    2    3    3    0    0  0.11684871876E+02  0.20125795147E+01  0.21529483006E+02  0.24659792070E+02  0.19999998462E+01 0.  0.
        -13    1    3    3    0    0 -0.11684871876E+02 -0.20125795147E+01 -0.68016213976E+02  0.69042039619E+02  0.10566000000E+00 0.  1.
         13    1    4    4    0    0  0.13798606082E+01  0.83280718809E+00  0.24994719170E+01  0.29759212036E+01  0.10566000000E+00 0.  1.
        -13    1    4    4    0    0  0.39989159253E+01  0.35015375915E+00  0.67405401843E+01  0.78460169668E+01  0.10566000000E+00 0. -1.
        -14    1    4    4    0    0  0.63060953425E+01  0.82961856746E+00  0.12289470905E+02  0.13837853900E+02  0.00000000000E+00 0.  1.
<mgrwt>
<rscale>  0 0.81357342E+02</rscale>
<asrwt>0</asrwt>
<pdfrwt beam="1">  1        2 0.36319308E-02 0.81357342E+02</pdfrwt>
<pdfrwt beam="2">  1       -1 0.10783736E-01 0.81357342E+02</pdfrwt>
<totfact> 0.12234126E+05</totfact>
</mgrwt>
</event>
<event>
 8    1  0.2676873E-016  0.8021971E+02  0.7818608E-02  0.1328429E+00
         -1   -1    0    0    0  501 -0.00000000000E+00  0.00000000000E+00  0.10881980431E+02  0.10881981598E+02  0.50400000000E-02 0.  1.
          2   -1    0    0  501    0  0.00000000000E+00 -0.00000000000E+00 -0.14784077878E+03  0.14784077881E+03  0.25500000000E-02 0. -1.
         24    2    1    2    0    0  0.00000000000E+00  0.00000000000E+00 -0.13695879835E+03  0.15872276040E+03  0.80219712190E+02 0.  0.
         66    2    3    3    0    0  0.22109386780E+02 -0.16807449037E+02 -0.12571265043E+03  0.12875941056E+03  0.20000004871E+01 0.  0.
        -13    1    3    3    0    0 -0.22109386780E+02  0.16807449037E+02 -0.11246147924E+02  0.29963349848E+02  0.10566000000E+00 0.  1.
         13    1    4    4    0    0  0.15288649385E+02 -0.11949577298E+02 -0.87472436533E+02  0.89598959340E+02  0.10566000000E+00 0. -1.
        -13    1    4    4    0    0  0.22674820164E+00 -0.40458158646E+00 -0.25548563052E+01  0.25987604320E+01  0.10566000000E+00 0. -1.
         14    1    4    4    0    0  0.65939891933E+01 -0.44532901524E+01 -0.35685357590E+02  0.36561690784E+02  0.00000000000E+00 0. -1.
<mgrwt>
<rscale>  0 0.80219712E+02</rscale>
<asrwt>0</asrwt>
<pdfrwt beam="1">  1        2 0.22744734E-01 0.80219712E+02</pdfrwt>
<pdfrwt beam="2">  1       -1 0.16741510E-02 0.80219712E+02</pdfrwt>
<totfact> 0.19792223E+05</totfact>
</mgrwt>
</event>
<event>
 8    1  0.2676873E-016  0.8000260E+02  0.7818608E-02  0.1329044E+00
          2   -1    0    0  501    0  0.00000000000E+00  0.00000000000E+00  0.89448156706E+02  0.89448156743E+02  0.25500000000E-02 0. -1.
         -1   -1    0    0    0  501 -0.00000000000E+00 -0.00000000000E+00 -0.17888620261E+02  0.17888620971E+02  0.50400000000E-02 0.  1.
         24    2    1    2    0    0  0.35527136788E-14  0.00000000000E+00  0.71559536445E+02  0.10733677771E+03  0.80002603668E+02 0.  0.
         66    2    3    3    0    0 -0.20286230290E+02  0.34314649218E+02  0.39843332173E+02  0.56396076228E+02  0.20000012354E+01 0.  0.
        -13    1    3    3    0    0  0.20286230290E+02 -0.34314649218E+02  0.31716204272E+02  0.50940701485E+02  0.10566000000E+00 0.  1.
         13    1    4    4    0    0 -0.35788590798E+01  0.56990498755E+01  0.67028149986E+01  0.94987522727E+01  0.10566000000E+00 0. -1.
        -13    1    4    4    0    0 -0.99932465036E+01  0.18696437186E+02  0.20799597866E+02  0.29699430542E+02  0.10566000000E+00 0.  1.
        -14    1    4    4    0    0 -0.67141247066E+01  0.99191621571E+01  0.12340919308E+02  0.17197893413E+02  0.00000000000E+00 0.  1.
<mgrwt>
<rscale>  0 0.80002604E+02</rscale>
<asrwt>0</asrwt>
<pdfrwt beam="1">  1        2 0.13761255E-01 0.80002604E+02</pdfrwt>
<pdfrwt beam="2">  1       -1 0.27520955E-02 0.80002604E+02</pdfrwt>
<totfact> 0.17190779E+05</totfact>
</mgrwt>
</event>
<event>
 8    1  0.2676873E-016  0.8021274E+02  0.7818608E-02  0.1328449E+00
         -1   -1    0    0    0  501 -0.00000000000E+00  0.00000000000E+00  0.13600363581E+03  0.13600363590E+03  0.50400000000E-02 0.  1.
          2   -1    0    0  501    0  0.00000000000E+00 -0.00000000000E+00 -0.11827043860E+02  0.11827044135E+02  0.25500000000E-02 0. -1.
         24    2    1    2    0    0  0.00000000000E+00  0.00000000000E+00  0.12417659195E+03  0.14783068004E+03  0.80212741955E+02 0.  0.
         66    2    3    3    0    0  0.22803188379E+02  0.32937982045E+02  0.59781076869E+02  0.71990785602E+02  0.19999996135E+01 0.  0.
        -13    1    3    3    0    0 -0.22803188379E+02 -0.32937982045E+02  0.64395515079E+02  0.75839894435E+02  0.10566000000E+00 0.  1.
         13    1    4    4    0    0  0.15834901653E+02  0.23527104175E+02  0.43154825052E+02  0.51639314776E+02  0.10566000000E+00 0. -1.
        -13    1    4    4    0    0  0.60396775307E+01  0.77839341322E+01  0.13643564514E+02  0.16829300399E+02  0.10566000000E+00 0.  1.
        -14    1    4    4    0    0  0.92860919571E+00  0.16269437375E+01  0.29826873036E+01  0.35221704267E+01  0.00000000000E+00 0.  1.
<mgrwt>
<rscale>  0 0.80212742E+02</rscale>
<asrwt>0</asrwt>
<pdfrwt beam="1">  1        2 0.18195453E-02 0.80212742E+02</pdfrwt>
<pdfrwt beam="2">  1       -1 0.20923636E-01 0.80212742E+02</pdfrwt>
<totfact> 0.10979525E+05</totfact>
</mgrwt>
</event>
<event>
 8    1  0.2676873E-016  0.7967358E+02  0.7818608E-02  0.1329980E+00
          2   -1    0    0  501    0  0.00000000000E+00  0.00000000000E+00  0.48969637606E+03  0.48969637607E+03  0.25500000000E-02 0. -1.
         -1   -1    0    0    0  501 -0.00000000000E+00 -0.00000000000E+00 -0.32407202713E+01  0.32407241904E+01  0.50400000000E-02 0.  1.
         24    2    1    2    0    0  0.00000000000E+00 -0.11102230246E-15  0.48645565579E+03  0.49293710026E+03  0.79673582579E+02 0.  0.
         66    2    3    3    0    0  0.34769516993E+02 -0.94475305515E+00  0.36321504687E+03  0.36488214830E+03  0.20000011135E+01 0.  0.
        -13    1    3    3    0    0 -0.34769516993E+02  0.94475305515E+00  0.12324060892E+03  0.12805495196E+03  0.10566000000E+00 0.  1.
         13    1    4    4    0    0  0.84150301615E+01 -0.16709196419E+00  0.86581687095E+02  0.86989886519E+02  0.10566000000E+00 0. -1.
        -13    1    4    4    0    0  0.24976108994E+01 -0.22492555822E+00  0.31678150689E+02  0.31777429834E+02  0.10566000000E+00 0.  1.
        -14    1    4    4    0    0  0.23856875932E+02 -0.55273553274E+00  0.24495520909E+03  0.24611483195E+03  0.00000000000E+00 0.  1.
<mgrwt>
<rscale>  0 0.79673583E+02</rscale>
<asrwt>0</asrwt>
<pdfrwt beam="1">  1        2 0.75337894E-01 0.79673583E+02</pdfrwt>
<pdfrwt beam="2">  1       -1 0.49857272E-03 0.79673583E+02</pdfrwt>
<totfact> 0.30572829E+05</totfact>
</mgrwt>
</event>
<event>
 8    1  0.2676873E-016  0.7996780E+02  0.7818608E-02  0.1329143E+00
          2   -1    0    0  501    0  0.00000000000E+00  0.00000000000E+00  0.17379524335E+02  0.17379524522E+02  0.25500000000E-02 0. -1.
         -1   -1    0    0    0  501 -0.00000000000E+00 -0.00000000000E+00 -0.91988261679E+02  0.91988261817E+02  0.50400000000E-02 0.  1.
         24    2    1    2    0    0 -0.35527136788E-14  0.00000000000E+00 -0.74608737344E+02  0.10936778634E+03  0.79967799774E+02 0.  0.
         66    2    3    3    0    0  0.19598960063E+02 -0.16944704768E+02  0.42782012256E+01  0.26335247560E+02  0.20000007734E+01 0.  0.
        -13    1    3    3    0    0 -0.19598960063E+02  0.16944704768E+02 -0.78886938569E+02  0.83032538779E+02  0.10566000000E+00 0.  1.
         13    1    4    4    0    0  0.95561005158E+01 -0.90940087834E+01  0.17360712220E+01  0.13305831810E+02  0.10566000000E+00 0. -1.
        -13    1    4    4    0    0  0.15569057634E+01 -0.13517165294E+01  0.72032554119E+00  0.21865786180E+01  0.10566000000E+00 0.  1.
         14    1    4    4    0    0  0.84859537841E+01 -0.64989794549E+01  0.18218044624E+01  0.10842837132E+02  0.00000000000E+00 0. -1.
<mgrwt>
<rscale>  0 0.79967800E+02</rscale>
<asrwt>0</asrwt>
<pdfrwt beam="1">  1        2 0.26737730E-02 0.79967800E+02</pdfrwt>
<pdfrwt beam="2">  1       -1 0.14152040E-01 0.79967800E+02</pdfrwt>
<totfact> 0.12076433E+05</totfact>
</mgrwt>
</event>
<event>
 8    1  0.2676873E-016  0.8000732E+02  0.7818608E-02  0.1329031E+00
          2   -1    0    0  501    0  0.00000000000E+00  0.00000000000E+00  0.26733352750E+02  0.26733352871E+02  0.25500000000E-02 0. -1.
         -1   -1    0    0    0  501 -0.00000000000E+00 -0.00000000000E+00 -0.59861285245E+02  0.59861285457E+02  0.50400000000E-02 0.  1.
         24    2    1    2    0    0 -0.17763568394E-14  0.00000000000E+00 -0.33127932495E+02  0.86594638328E+02  0.80007321389E+02 0.  0.
         66    2    3    3    0    0  0.14894691504E+02 -0.33955410403E+02 -0.39471059870E+00  0.37134586666E+02  0.19999999441E+01 0.  0.
        -13    1    3    3    0    0 -0.14894691504E+02  0.33955410403E+02 -0.32733221897E+02  0.49460051662E+02  0.10566000000E+00 0.  1.
         13    1    4    4    0    0  0.10959938569E+02 -0.26224051308E+02 -0.24356184415E+00  0.28423434114E+02  0.10566000000E+00 0. -1.
        -13    1    4    4    0    0  0.15172547823E+01 -0.37653487590E+01  0.64245266872E-01  0.40614289162E+01  0.10566000000E+00 0.  1.
        -14    1    4    4    0    0  0.24174981534E+01 -0.39660103363E+01 -0.21539402142E+00  0.46497236362E+01  0.00000000000E+00 0.  1.
<mgrwt>
<rscale>  0 0.80007321E+02</rscale>
<asrwt>0</asrwt>
<pdfrwt beam="1">  1        2 0.41128235E-02 0.80007321E+02</pdfrwt>
<pdfrwt beam="2">  1       -1 0.92094286E-02 0.80007321E+02</pdfrwt>
<totfact> 0.13149673E+05</totfact>
</mgrwt>
</event>
<event>
 8    1  0.2676873E-016  0.8074559E+02  0.7818608E-02  0.1326949E+00
          2   -1    0    0  501    0  0.00000000000E+00  0.00000000000E+00  0.14232788482E+03  0.14232788484E+03  0.25500000000E-02 0. -1.
         -1   -1    0    0    0  501 -0.00000000000E+00 -0.00000000000E+00 -0.11452166433E+02  0.11452167542E+02  0.50400000000E-02 0.  1.
         24    2    1    2    0    0  0.00000000000E+00  0.00000000000E+00  0.13087571838E+03  0.15378005238E+03  0.80745593365E+02 0.  0.
         66    2    3    3    0    0  0.19540937301E+02  0.34474590966E+02  0.51022231757E+02  0.64634462791E+02  0.19999984786E+01 0.  0.
        -13    1    3    3    0    0 -0.19540937301E+02 -0.34474590966E+02  0.79853486627E+02  0.89145589590E+02  0.10566000000E+00 0.  1.
         13    1    4    4    0    0  0.61635955980E+01  0.97544107638E+01  0.14994459119E+02  0.18920449475E+02  0.10566000000E+00 0. -1.
        -13    1    4    4    0    0  0.76690802928E+01  0.15405057201E+02  0.21631291417E+02  0.27641535998E+02  0.10566000000E+00 0.  1.
         14    1    4    4    0    0  0.57082614101E+01  0.93151230009E+01  0.14396481221E+02  0.18072477318E+02  0.00000000000E+00 0. -1.
<mgrwt>
<rscale>  0 0.80745593E+02</rscale>
<asrwt>0</asrwt>
<pdfrwt beam="1">  1        2 0.21896598E-01 0.80745593E+02</pdfrwt>
<pdfrwt beam="2">  1       -1 0.17618718E-02 0.80745593E+02</pdfrwt>
<totfact> 0.19216937E+05</totfact>
</mgrwt>
</event>
<event>
 8    1  0.2676873E-016  0.7833448E+02  0.7818608E-02  0.1333845E+00
         -1   -1    0    0    0  501 -0.00000000000E+00  0.00000000000E+00  0.11188831308E+01  0.11188944820E+01  0.50400000000E-02 0.  1.
          2   -1    0    0  501    0  0.00000000000E+00 -0.00000000000E+00 -0.13710680745E+04  0.13710680745E+04  0.25500000000E-02 0. -1.
         24    2    1    2    0    0 -0.35527136788E-14  0.00000000000E+00 -0.13699491914E+04  0.13721869690E+04  0.78334481025E+02 0.  0.
         66    2    3    3    0    0 -0.21919903641E+02  0.38173406128E+01 -0.12495152223E+04  0.12497149055E+04  0.19999995801E+01 0.  0.
        -13    1    3    3    0    0  0.21919903641E+02 -0.38173406128E+01 -0.12043396908E+03  0.12247206350E+03  0.10566000000E+00 0.  1.
         13    1    4    4    0    0 -0.17920276903E+01  0.24906576886E+00 -0.12596877182E+03  0.12598180835E+03  0.10566000000E+00 0. -1.
        -13    1    4    4    0    0 -0.78538618683E+01  0.78430072498E+00 -0.42768260524E+03  0.42775544446E+03  0.10566000000E+00 0.  1.
        -14    1    4    4    0    0 -0.12274014082E+02  0.27839741190E+01 -0.69586384525E+03  0.69597765270E+03  0.00000000000E+00 0.  1.
<mgrwt>
<rscale>  0 0.78334481E+02</rscale>
<asrwt>0</asrwt>
<pdfrwt beam="1">  1        2 0.21093221E+00 0.78334481E+02</pdfrwt>
<pdfrwt beam="2">  1       -1 0.17213784E-03 0.78334481E+02</pdfrwt>
<totfact> 0.36124922E+05</totfact>
</mgrwt>
</event>
<event>
 8    1  0.2676873E-016  0.7841528E+02  0.7818608E-02  0.1333610E+00
          2   -1    0    0  501    0  0.00000000000E+00  0.00000000000E+00  0.29853507715E+03  0.29853507716E+03  0.25500000000E-02 0. -1.
         -1   -1    0    0    0  501 -0.00000000000E+00 -0.00000000000E+00 -0.51492727505E+01  0.51492752171E+01  0.50400000000E-02 0.  1.
         24    2    1    2    0    0  0.17763568394E-14  0.00000000000E+00  0.29338580440E+03  0.30368435238E+03  0.78415276931E+02 0.  0.
         66    2    3    3    0    0 -0.11923578068E+02  0.26561142524E+02  0.24833797477E+03  0.25004682704E+03  0.19999984499E+01 0.  0.
        -13    1    3    3    0    0  0.11923578068E+02 -0.26561142524E+02  0.45047829634E+02  0.53637525343E+02  0.10566000000E+00 0.  1.
         13    1    4    4    0    0 -0.20069242980E+01  0.56293943064E+01  0.51134603154E+02  0.51482779928E+02  0.10566000000E+00 0. -1.
        -13    1    4    4    0    0 -0.34184797049E+01  0.76955165964E+01  0.66223446679E+02  0.66756745227E+02  0.10566000000E+00 0.  1.
         14    1    4    4    0    0 -0.64981740649E+01  0.13236231621E+02  0.13097992493E+03  0.13180730188E+03  0.00000000000E+00 0. -1.
<mgrwt>
<rscale>  0 0.78415277E+02</rscale>
<asrwt>0</asrwt>
<pdfrwt beam="1">  1        2 0.45928459E-01 0.78415277E+02</pdfrwt>
<pdfrwt beam="2">  1       -1 0.79219625E-03 0.78415277E+02</pdfrwt>
<totfact> 0.26818651E+05</totfact>
</mgrwt>
</event>
<event>
 8    1  0.2676873E-016  0.7957488E+02  0.7818608E-02  0.1330262E+00
         -1   -1    0    0    0  501 -0.00000000000E+00  0.00000000000E+00  0.20465425504E+01  0.20465487564E+01  0.50400000000E-02 0.  1.
          2   -1    0    0  501    0  0.00000000000E+00 -0.00000000000E+00 -0.77351816076E+03  0.77351816076E+03  0.25500000000E-02 0. -1.
         24    2    1    2    0    0  0.00000000000E+00  0.35527136788E-14 -0.77147161821E+03  0.77556470952E+03  0.79574876379E+02 0.  0.
         66    2    3    3    0    0 -0.16310713748E+01 -0.26191412848E+02 -0.67712970153E+03  0.67764096925E+03  0.20000044051E+01 0.  0.
        -13    1    3    3    0    0  0.16310713748E+01  0.26191412848E+02 -0.94341916679E+02  0.97923740265E+02  0.10566000000E+00 0.  1.
         13    1    4    4    0    0 -0.60676087250E+00 -0.12833637789E+02 -0.34027661048E+03  0.34051909377E+03  0.10566000000E+00 0. -1.
        -13    1    4    4    0    0 -0.71315776889E+00 -0.33643646050E+01 -0.78400137815E+02  0.78475603322E+02  0.10566000000E+00 0.  1.
        -14    1    4    4    0    0 -0.31115273340E+00 -0.99934104547E+01 -0.25845295324E+03  0.25864627217E+03  0.00000000000E+00 0.  1.
<mgrwt>
<rscale>  0 0.79574876E+02</rscale>
<asrwt>0</asrwt>
<pdfrwt beam="1">  1        2 0.11900256E+00 0.79574876E+02</pdfrwt>
<pdfrwt beam="2">  1       -1 0.31485380E-03 0.79574876E+02</pdfrwt>
<totfact> 0.34633704E+05</totfact>
</mgrwt>
</event>
<event>
 8    1  0.2676873E-016  0.7938132E+02  0.7818608E-02  0.1330816E+00
         -1   -1    0    0    0  501 -0.00000000000E+00  0.00000000000E+00  0.54400387598E+01  0.54400410945E+01  0.50400000000E-02 0.  1.
          2   -1    0    0  501    0  0.00000000000E+00 -0.00000000000E+00 -0.28958398083E+03  0.28958398084E+03  0.25500000000E-02 0. -1.
         24    2    1    2    0    0  0.00000000000E+00  0.00000000000E+00 -0.28414394207E+03  0.29502402194E+03  0.79381318356E+02 0.  0.
         66    2    3    3    0    0  0.18199061231E+02 -0.19877957156E+02 -0.25032570016E+03  0.25178025174E+03  0.19999995278E+01 0.  0.
        -13    1    3    3    0    0 -0.18199061231E+02  0.19877957156E+02 -0.33818241914E+02  0.43243770193E+02  0.10566000000E+00 0.  1.
         13    1    4    4    0    0  0.62300486646E+01 -0.68092060310E+01 -0.77839193994E+02  0.78384501521E+02  0.10566000000E+00 0. -1.
        -13    1    4    4    0    0  0.43079756916E+01 -0.43228607206E+01 -0.60972489209E+02  0.61277250132E+02  0.10566000000E+00 0.  1.
         14    1    4    4    0    0  0.76610368748E+01 -0.87458904044E+01 -0.11151401695E+03  0.11211850009E+03  0.00000000000E+00 0. -1.
<mgrwt>
<rscale>  0 0.79381318E+02</rscale>
<asrwt>0</asrwt>
<pdfrwt beam="1">  1        2 0.44551370E-01 0.79381318E+02</pdfrwt>
<pdfrwt beam="2">  1       -1 0.83692945E-03 0.79381318E+02</pdfrwt>
<totfact> 0.25687881E+05</totfact>
</mgrwt>
</event>
<event>
 8    1  0.2676873E-016  0.7963961E+02  0.7818608E-02  0.1330077E+00
         -1   -1    0    0    0  501 -0.00000000000E+00  0.00000000000E+00  0.59337574364E+01  0.59337595768E+01  0.50400000000E-02 0.  1.
          2   -1    0    0  501    0  0.00000000000E+00 -0.00000000000E+00 -0.26721967868E+03  0.26721967869E+03  0.25500000000E-02 0. -1.
         24    2    1    2    0    0  0.17763568394E-14  0.00000000000E+00 -0.26128592124E+03  0.27315343827E+03  0.79639614502E+02 0.  0.
         66    2    3    3    0    0  0.11473996645E+02 -0.37953114995E+02 -0.14236676568E+03  0.14779846923E+03  0.20000004849E+01 0.  0.
        -13    1    3    3    0    0 -0.11473996645E+02  0.37953114995E+02 -0.11891915557E+03  0.12535496903E+03  0.10566000000E+00 0.  1.
         13    1    4    4    0    0  0.86996227225E-01 -0.40970674707E+00 -0.14035094098E+01  0.14684790299E+01  0.10566000000E+00 0.  1.
        -13    1    4    4    0    0  0.72402820657E+00 -0.16037127403E+01 -0.72253365412E+01  0.74372551097E+01  0.10566000000E+00 0. -1.
         14    1    4    4    0    0  0.10662972211E+02 -0.35939695508E+02 -0.13373791973E+03  0.13889273509E+03  0.00000000000E+00 0. -1.
<mgrwt>
<rscale>  0 0.79639615E+02</rscale>
<asrwt>0</asrwt>
<pdfrwt beam="1">  1        2 0.41110711E-01 0.79639615E+02</pdfrwt>
<pdfrwt beam="2">  1       -1 0.91288613E-03 0.79639615E+02</pdfrwt>
<totfact> 0.24739657E+05</totfact>
</mgrwt>
</event>
<event>
 8    1  0.2676873E-016  0.8083592E+02  0.7818608E-02  0.1326696E+00
          2   -1    0    0  501    0  0.00000000000E+00  0.00000000000E+00  0.54234969882E+03  0.54234969883E+03  0.25500000000E-02 0. -1.
         -1   -1    0    0    0  501 -0.00000000000E+00 -0.00000000000E+00 -0.30120976164E+01  0.30121018330E+01  0.50400000000E-02 0.  1.
         24    2    1    2    0    0 -0.71054273576E-14  0.17763568394E-14  0.53933760120E+03  0.54536180066E+03  0.80835917425E+02 0.  0.
         66    2    3    3    0    0 -0.35802241182E+02  0.15629605255E+02  0.33913618126E+03  0.34138458442E+03  0.20000010903E+01 0.  0.
        -13    1    3    3    0    0  0.35802241182E+02 -0.15629605255E+02  0.20020141994E+03  0.20397721624E+03  0.10566000000E+00 0.  1.
         13    1    4    4    0    0 -0.28992329293E+01  0.12099386303E+01  0.23596383797E+02  0.23804831346E+02  0.10566000000E+00 0. -1.
        -13    1    4    4    0    0 -0.59535094180E+01  0.29403978020E+01  0.60309020184E+02  0.60673546899E+02  0.10566000000E+00 0.  1.
         14    1    4    4    0    0 -0.26949498834E+02  0.11479268823E+02  0.25523077728E+03  0.25690620618E+03  0.00000000000E+00 0. -1.
<mgrwt>
<rscale>  0 0.80835917E+02</rscale>
<asrwt>0</asrwt>
<pdfrwt beam="1">  1        2 0.83438371E-01 0.80835917E+02</pdfrwt>
<pdfrwt beam="2">  1       -1 0.46340021E-03 0.80835917E+02</pdfrwt>
<totfact> 0.30396191E+05</totfact>
</mgrwt>
</event>
<event>
 8    1  0.2676873E-016  0.8510869E+02  0.7818608E-02  0.1315149E+00
         -1   -1    0    0    0  501 -0.00000000000E+00  0.00000000000E+00  0.11893467388E+02  0.11893468456E+02  0.50400000000E-02 0.  1.
          2   -1    0    0  501    0  0.00000000000E+00 -0.00000000000E+00 -0.15225771270E+03  0.15225771272E+03  0.25500000000E-02 0. -1.
         24    2    1    2    0    0 -0.17763568394E-14  0.00000000000E+00 -0.14036424531E+03  0.16415118117E+03  0.85108688862E+02 0.  0.
         66    2    3    3    0    0  0.14511054395E+02  0.31606656944E+02 -0.11743772287E+03  0.12249559262E+03  0.19999987814E+01 0.  0.
        -13    1    3    3    0    0 -0.14511054395E+02 -0.31606656944E+02 -0.22926522439E+02  0.41655588557E+02  0.10566000000E+00 0.  1.
         13    1    4    4    0    0  0.13177980134E+01  0.30436810047E+01 -0.11488591253E+02  0.11958238945E+02  0.10566000000E+00 0. -1.
        -13    1    4    4    0    0  0.10190845150E+02  0.23145143706E+02 -0.83033374442E+02  0.86799213345E+02  0.10566000000E+00 0.  1.
        -14    1    4    4    0    0  0.30024112315E+01  0.54178322335E+01 -0.22915757174E+02  0.23738140326E+02  0.00000000000E+00 0.  1.
<mgrwt>
<rscale>  0 0.85108689E+02</rscale>
<asrwt>0</asrwt>
<pdfrwt beam="1">  1        2 0.23424262E-01 0.85108689E+02</pdfrwt>
<pdfrwt beam="2">  1       -1 0.18297644E-02 0.85108689E+02</pdfrwt>
<totfact> 0.17069568E+05</totfact>
</mgrwt>
</event>
<event>
 8    1  0.2676873E-016  0.8038403E+02  0.7818608E-02  0.1327965E+00
         -1   -1    0    0    0  501 -0.00000000000E+00  0.00000000000E+00  0.10187935223E+02  0.10187936470E+02  0.50400000000E-02 0.  1.
          2   -1    0    0  501    0  0.00000000000E+00 -0.00000000000E+00 -0.15855989828E+03  0.15855989830E+03  0.25500000000E-02 0. -1.
         24    2    1    2    0    0  0.00000000000E+00  0.00000000000E+00 -0.14837196305E+03  0.16874783477E+03  0.80384030245E+02 0.  0.
         66    2    3    3    0    0  0.28648186775E+02  0.92631045953E+01 -0.13004511902E+03  0.13350002507E+03  0.20000000877E+01 0.  0.
        -13    1    3    3    0    0 -0.28648186775E+02 -0.92631045953E+01 -0.18326844034E+02  0.35247809698E+02  0.10566000000E+00 0.  1.
         13    1    4    4    0    0  0.97590254575E+01  0.32280448680E+01 -0.43094255811E+02  0.44303328311E+02  0.10566000000E+00 0. -1.
        -13    1    4    4    0    0  0.12724717999E+02  0.44380323605E+01 -0.61774362799E+02  0.63227348850E+02  0.10566000000E+00 0.  1.
        -14    1    4    4    0    0  0.61644433191E+01  0.15970273668E+01 -0.25176500412E+02  0.25969347909E+02  0.00000000000E+00 0.  1.
<mgrwt>
<rscale>  0 0.80384030E+02</rscale>
<asrwt>0</asrwt>
<pdfrwt beam="1">  1        2 0.24393829E-01 0.80384030E+02</pdfrwt>
<pdfrwt beam="2">  1       -1 0.15673749E-02 0.80384030E+02</pdfrwt>
<totfact> 0.20137047E+05</totfact>
</mgrwt>
</event>
<event>
 8    1  0.2676873E-016  0.7757918E+02  0.7818608E-02  0.1336065E+00
          2   -1    0    0  501    0  0.00000000000E+00  0.00000000000E+00  0.32385552856E+03  0.32385552857E+03  0.25500000000E-02 0. -1.
         -1   -1    0    0    0  501 -0.00000000000E+00 -0.00000000000E+00 -0.46459971381E+01  0.46459998718E+01  0.50400000000E-02 0.  1.
         24    2    1    2    0    0 -0.44408920985E-15  0.35527136788E-14  0.31920953143E+03  0.32850152845E+03  0.77579180442E+02 0.  0.
         66    2    3    3    0    0 -0.39058905186E+01  0.10933288098E+02  0.31631676370E+03  0.31653607657E+03  0.20000011742E+01 0.  0.
        -13    1    3    3    0    0  0.39058905186E+01 -0.10933288098E+02  0.28927677251E+01  0.11965451873E+02  0.10566000000E+00 0.  1.
         13    1    4    4    0    0  0.74656563362E-01  0.48054325318E+00  0.85618500991E+01  0.85763008679E+01  0.10566000000E+00 0. -1.
        -13    1    4    4    0    0 -0.47956573398E+00  0.23531972419E+01  0.62853557924E+02  0.62899510557E+02  0.10566000000E+00 0.  1.
         14    1    4    4    0    0 -0.35009813480E+01  0.80995476028E+01  0.24490135568E+03  0.24506026515E+03  0.00000000000E+00 0. -1.
<mgrwt>
<rscale>  0 0.77579180E+02</rscale>
<asrwt>0</asrwt>
<pdfrwt beam="1">  1        2 0.49823948E-01 0.77579180E+02</pdfrwt>
<pdfrwt beam="2">  1       -1 0.71476871E-03 0.77579180E+02</pdfrwt>
<totfact> 0.28402165E+05</totfact>
</mgrwt>
</event>
<event>
 8    1  0.2676873E-016  0.7522951E+02  0.7818608E-02  0.1343162E+00
         -1   -1    0    0    0  501 -0.00000000000E+00  0.00000000000E+00  0.47405888890E+02  0.47405889158E+02  0.50400000000E-02 0.  1.
          2   -1    0    0  501    0  0.00000000000E+00 -0.00000000000E+00 -0.29845866817E+02  0.29845866926E+02  0.25500000000E-02 0. -1.
         24    2    1    2    0    0  0.17763568394E-14  0.00000000000E+00  0.17560022073E+02  0.77251756084E+02  0.75229511782E+02 0.  0.
         66    2    3    3    0    0 -0.12715398940E+02 -0.16551530005E+02 -0.23314804777E+02  0.31356253584E+02  0.20000003402E+01 0.  0.
        -13    1    3    3    0    0  0.12715398940E+02  0.16551530005E+02  0.40874826850E+02  0.45895502500E+02  0.10566000000E+00 0.  1.
         13    1    4    4    0    0 -0.58279494608E+01 -0.78081736428E+01 -0.10264704163E+02  0.14153016856E+02  0.10566000000E+00 0. -1.
        -13    1    4    4    0    0 -0.15568182908E+01 -0.27273797105E+01 -0.31252739705E+01  0.44317924931E+01  0.10566000000E+00 0.  1.
        -14    1    4    4    0    0 -0.53306311879E+01 -0.60159766519E+01 -0.99248266437E+01  0.12771444235E+02  0.00000000000E+00 0.  1.
<mgrwt>
<rscale>  0 0.75229512E+02</rscale>
<asrwt>0</asrwt>
<pdfrwt beam="1">  1        2 0.45916719E-02 0.75229512E+02</pdfrwt>
<pdfrwt beam="2">  1       -1 0.72932137E-02 0.75229512E+02</pdfrwt>
<totfact> 0.15955703E+05</totfact>
</mgrwt>
</event>
<event>
 8    1  0.2676873E-016  0.8065142E+02  0.7818608E-02  0.1327213E+00
         -1   -1    0    0    0  501 -0.00000000000E+00  0.00000000000E+00  0.16097488053E+01  0.16097566952E+01  0.50400000000E-02 0.  1.
          2   -1    0    0  501    0  0.00000000000E+00 -0.00000000000E+00 -0.10101940920E+04  0.10101940920E+04  0.25500000000E-02 0. -1.
         24    2    1    2    0    0  0.00000000000E+00  0.17763568394E-14 -0.10085843432E+04  0.10118038487E+04  0.80651416006E+02 0.  0.
         66    2    3    3    0    0  0.13768034733E+02 -0.15122119323E+02 -0.94025738420E+03  0.94048189022E+03  0.19999997036E+01 0.  0.
        -13    1    3    3    0    0 -0.13768034733E+02  0.15122119323E+02 -0.68326959028E+02  0.71321958521E+02  0.10566000000E+00 0.  1.
         13    1    4    4    0    0  0.72413539159E+01 -0.80303505789E+01 -0.53369228969E+03  0.53380183119E+03  0.10566000000E+00 0. -1.
        -13    1    4    4    0    0  0.17550428421E+01 -0.23688863974E+01 -0.11791923102E+03  0.11795612746E+03  0.10566000000E+00 0.  1.
         14    1    4    4    0    0  0.47716379748E+01 -0.47228823462E+01 -0.28864586350E+03  0.28872393157E+03  0.00000000000E+00 0. -1.
<mgrwt>
<rscale>  0 0.80651416E+02</rscale>
<asrwt>0</asrwt>
<pdfrwt beam="1">  1        2 0.15541397E+00 0.80651416E+02</pdfrwt>
<pdfrwt beam="2">  1       -1 0.24765508E-03 0.80651416E+02</pdfrwt>
<totfact> 0.34510249E+05</totfact>
</mgrwt>
</event>
<event>
 8    1  0.2676873E-016  0.8077724E+02  0.7818608E-02  0.1326860E+00
          2   -1    0    0  501    0  0.00000000000E+00  0.00000000000E+00  0.20105811673E+03  0.20105811675E+03  0.25500000000E-02 0. -1.
         -1   -1    0    0    0  501 -0.00000000000E+00 -0.00000000000E+00 -0.81132787758E+01  0.81132803413E+01  0.50400000000E-02 0.  1.
         24    2    1    2    0    0  0.00000000000E+00  0.00000000000E+00  0.19294483795E+03  0.20917139709E+03  0.80777242255E+02 0.  0.
         66    2    3    3    0    0 -0.50524131407E+01 -0.27848700316E+02  0.17105091871E+03  0.17338827465E+03  0.20000011606E+01 0.  0.
        -13    1    3    3    0    0  0.50524131407E+01  0.27848700316E+02  0.21893919242E+02  0.35783122441E+02  0.10566000000E+00 0.  1.
         13    1    4    4    0    0 -0.88307616030E+00 -0.49231497651E+01  0.28188223717E+02  0.28628732900E+02  0.10566000000E+00 0. -1.
        -13    1    4    4    0    0 -0.27288180613E+01 -0.10545557527E+02  0.66102290646E+02  0.66993874528E+02  0.10566000000E+00 0.  1.
         14    1    4    4    0    0 -0.14405189191E+01 -0.12379993024E+02  0.76760404349E+02  0.77765667218E+02  0.00000000000E+00 0. -1.
<mgrwt>
<rscale>  0 0.80777242E+02</rscale>
<asrwt>0</asrwt>
<pdfrwt beam="1">  1        2 0.30932019E-01 0.80777242E+02</pdfrwt>
<pdfrwt beam="2">  1       -1 0.12481968E-02 0.80777242E+02</pdfrwt>
<totfact> 0.21542146E+05</totfact>
</mgrwt>
</event>
<event>
 8    1  0.2676873E-016  0.8109050E+02  0.7818608E-02  0.1325985E+00
         -1   -1    0    0    0  501 -0.00000000000E+00  0.00000000000E+00  0.97838971517E+02  0.97838971647E+02  0.50400000000E-02 0.  1.
          2   -1    0    0  501    0  0.00000000000E+00 -0.00000000000E+00 -0.16802276513E+02  0.16802276707E+02  0.25500000000E-02 0. -1.
         24    2    1    2    0    0  0.00000000000E+00 -0.17763568394E-14  0.81036695004E+02  0.11464124835E+03  0.81090504295E+02 0.  0.
         66    2    3    3    0    0 -0.37397237277E+02  0.12123380058E+02  0.54422325299E+02  0.67166354580E+02  0.19999991722E+01 0.  0.
        -13    1    3    3    0    0  0.37397237277E+02 -0.12123380058E+02  0.26614369705E+02  0.47474893773E+02  0.10566000000E+00 0.  1.
         13    1    4    4    0    0 -0.89226745751E+01  0.36496198488E+01  0.13718781969E+02  0.16767527825E+02  0.10566000000E+00 0.  1.
        -13    1    4    4    0    0 -0.27306183573E+02  0.82893196095E+01  0.39101784343E+02  0.48407656252E+02  0.10566000000E+00 0. -1.
        -14    1    4    4    0    0 -0.11683791283E+01  0.18444059971E+00  0.16017589864E+01  0.19911705032E+01  0.00000000000E+00 0.  1.
<mgrwt>
<rscale>  0 0.81090504E+02</rscale>
<asrwt>0</asrwt>
<pdfrwt beam="1">  1        2 0.25849656E-02 0.81090504E+02</pdfrwt>
<pdfrwt beam="2">  1       -1 0.15052150E-01 0.81090504E+02</pdfrwt>
<totfact> 0.11513635E+05</totfact>
</mgrwt>
</event>
<event>
 8    1  0.2676873E-016  0.8094489E+02  0.7818608E-02  0.1326391E+00
         -1   -1    0    0    0  501 -0.00000000000E+00  0.00000000000E+00  0.44134617751E+02  0.44134618038E+02  0.50400000000E-02 0.  1.
          2   -1    0    0  501    0  0.00000000000E+00 -0.00000000000E+00 -0.37114151524E+02  0.37114151611E+02  0.25500000000E-02 0. -1.
         24    2    1    2    0    0  0.00000000000E+00  0.00000000000E+00  0.70204662270E+01  0.81248769650E+02  0.80944892511E+02 0.  0.
         66    2    3    3    0    0  0.35810493749E+02  0.64982891231E+01 -0.14200255964E+02  0.39118620844E+02  0.20000007884E+01 0.  0.
        -13    1    3    3    0    0 -0.35810493749E+02 -0.64982891231E+01  0.21220722191E+02  0.42130148806E+02  0.10566000000E+00 0.  1.
         13    1    4    4    0    0  0.18576641185E+02  0.28631708102E+01 -0.76768036190E+01  0.20303542120E+02  0.10566000000E+00 0. -1.
        -13    1    4    4    0    0  0.13933375251E+01  0.22188733373E+00 -0.82740095238E+00  0.16390179436E+01  0.10566000000E+00 0.  1.
        -14    1    4    4    0    0  0.15840515039E+02  0.34132309792E+01 -0.56960513926E+01  0.17176060779E+02  0.00000000000E+00 0.  1.
<mgrwt>
<rscale>  0 0.80944893E+02</rscale>
<asrwt>0</asrwt>
<pdfrwt beam="1">  1        2 0.57098695E-02 0.80944893E+02</pdfrwt>
<pdfrwt beam="2">  1       -1 0.67899412E-02 0.80944893E+02</pdfrwt>
<totfact> 0.13588741E+05</totfact>
</mgrwt>
</event>
<event>
 8    1  0.2676873E-016  0.7677902E+02  0.7818608E-02  0.1338449E+00
         -1   -1    0    0    0  501 -0.00000000000E+00  0.00000000000E+00  0.35258929911E+03  0.35258929914E+03  0.50400000000E-02 0.  1.
          2   -1    0    0  501    0  0.00000000000E+00 -0.00000000000E+00 -0.41798041862E+01  0.41798049640E+01  0.25500000000E-02 0. -1.
         24    2    1    2    0    0  0.00000000000E+00  0.88817841970E-15  0.34840949492E+03  0.35676910411E+03  0.76779017279E+02 0.  0.
         66    2    3    3    0    0 -0.34487862928E+02  0.52573332418E+01  0.24848041512E+03  0.25092542505E+03  0.19999992136E+01 0.  0.
        -13    1    3    3    0    0  0.34487862928E+02 -0.52573332418E+01  0.99929079799E+02  0.10584367905E+03  0.10566000000E+00 0.  1.
         13    1    4    4    0    0 -0.82287063831E+01  0.10400932678E+01  0.57903281391E+02  0.58494397703E+02  0.10566000000E+00 0. -1.
        -13    1    4    4    0    0 -0.25502177723E+02  0.39418162282E+01  0.18283224505E+03  0.18464436080E+03  0.10566000000E+00 0.  1.
        -14    1    4    4    0    0 -0.75697882185E+00  0.27542374576E+00  0.77448886845E+01  0.77866665469E+01  0.00000000000E+00 0.  1.
<mgrwt>
<rscale>  0 0.76779017E+02</rscale>
<asrwt>0</asrwt>
<pdfrwt beam="1">  1        2 0.64304670E-03 0.76779017E+02</pdfrwt>
<pdfrwt beam="2">  1       -1 0.54244521E-01 0.76779017E+02</pdfrwt>
<totfact> 0.89567423E+04</totfact>
</mgrwt>
</event>
<event>
 8    1  0.2676873E-016  0.7816647E+02  0.7818608E-02  0.1334337E+00
         -1   -1    0    0    0  501 -0.00000000000E+00  0.00000000000E+00  0.30806848477E+01  0.30806889704E+01  0.50400000000E-02 0.  1.
          2   -1    0    0  501    0  0.00000000000E+00 -0.00000000000E+00 -0.49583077342E+03  0.49583077342E+03  0.25500000000E-02 0. -1.
         24    2    1    2    0    0  0.00000000000E+00  0.00000000000E+00 -0.49275008857E+03  0.49891146239E+03  0.78166473139E+02 0.  0.
         66    2    3    3    0    0  0.85456584060E+01 -0.33734686222E+02 -0.35971593378E+03  0.36140089976E+03  0.19999995348E+01 0.  0.
        -13    1    3    3    0    0 -0.85456584060E+01  0.33734686222E+02 -0.13303415479E+03  0.13751056264E+03  0.10566000000E+00 0.  1.
         13    1    4    4    0    0  0.24651050963E+01 -0.78647277454E+01 -0.80646206666E+02  0.81066346280E+02  0.10566000000E+00 0. -1.
        -13    1    4    4    0    0  0.20199987369E+01 -0.10879780834E+02 -0.11825421368E+03  0.11877087287E+03  0.10566000000E+00 0.  1.
        -14    1    4    4    0    0  0.40605545729E+01 -0.14990177643E+02 -0.16081551344E+03  0.16156368061E+03  0.00000000000E+00 0.  1.
<mgrwt>
<rscale>  0 0.78166473E+02</rscale>
<asrwt>0</asrwt>
<pdfrwt beam="1">  1        2 0.76281594E-01 0.78166473E+02</pdfrwt>
<pdfrwt beam="2">  1       -1 0.47395223E-03 0.78166473E+02</pdfrwt>
<totfact> 0.32259682E+05</totfact>
</mgrwt>
</event>
<event>
 8    1  0.2676873E-016  0.7549427E+02  0.7818608E-02  0.1342347E+00
         -1   -1    0    0    0  501 -0.00000000000E+00  0.00000000000E+00  0.48527038383E+01  0.48527064556E+01  0.50400000000E-02 0.  1.
          2   -1    0    0  501    0  0.00000000000E+00 -0.00000000000E+00 -0.29361893139E+03  0.29361893140E+03  0.25500000000E-02 0. -1.
         24    2    1    2    0    0  0.35527136788E-14  0.35527136788E-14 -0.28876622755E+03  0.29847163785E+03  0.75494267533E+02 0.  0.
         66    2    3    3    0    0  0.14929649504E+02  0.16777968182E+02 -0.26430050142E+03  0.26526053173E+03  0.19999987760E+01 0.  0.
        -13    1    3    3    0    0 -0.14929649504E+02 -0.16777968182E+02 -0.24465726133E+02  0.33211106123E+02  0.10566000000E+00 0.  1.
         13    1    4    4    0    0  0.33193481460E+01  0.33644107285E+01 -0.57757946083E+02  0.57951089993E+02  0.10566000000E+00 0. -1.
        -13    1    4    4    0    0  0.93109062530E+01  0.11304196096E+02 -0.17577134206E+03  0.17638042317E+03  0.10566000000E+00 0.  1.
        -14    1    4    4    0    0  0.22993951050E+01  0.21093613578E+01 -0.30771213279E+02  0.30929018572E+02  0.00000000000E+00 0.  1.
<mgrwt>
<rscale>  0 0.75494268E+02</rscale>
<asrwt>0</asrwt>
<pdfrwt beam="1">  1        2 0.45172129E-01 0.75494268E+02</pdfrwt>
<pdfrwt beam="2">  1       -1 0.74657026E-03 0.75494268E+02</pdfrwt>
<totfact> 0.29437418E+05</totfact>
</mgrwt>
</event>
<event>
 8    1  0.2676873E-016  0.8081021E+02  0.7818608E-02  0.1326768E+00
          2   -1    0    0  501    0  0.00000000000E+00  0.00000000000E+00  0.17537060180E+04  0.17537060180E+04  0.25500000000E-02 0. -1.
         -1   -1    0    0    0  501 -0.00000000000E+00 -0.00000000000E+00 -0.93092034202E+00  0.93093398519E+00  0.50400000000E-02 0.  1.
         24    2    1    2    0    0  0.88817841970E-15 -0.17763568394E-14  0.17527750977E+04  0.17546369520E+04  0.80810211660E+02 0.  0.
         66    2    3    3    0    0  0.52601465177E+01 -0.12524180341E+02  0.17026027144E+04  0.17026580770E+04  0.20000024962E+01 0.  0.
        -13    1    3    3    0    0 -0.52601465177E+01  0.12524180341E+02  0.50172383308E+02  0.51978874992E+02  0.10566000000E+00 0.  1.
         13    1    4    4    0    0  0.18218337267E+01 -0.49445542550E+01  0.65591247448E+03  0.65593364987E+03  0.10566000000E+00 0. -1.
        -13    1    4    4    0    0  0.11408608870E+01 -0.22635486987E+01  0.41000454723E+03  0.41001239631E+03  0.10566000000E+00 0.  1.
        -14    1    4    4    0    0  0.22974519040E+01 -0.53160773869E+01  0.63668569268E+03  0.63671203085E+03  0.00000000000E+00 0.  1.
<mgrwt>
<rscale>  0 0.80810212E+02</rscale>
<asrwt>0</asrwt>
<pdfrwt beam="1">  1        2 0.26979875E+00 0.80810212E+02</pdfrwt>
<pdfrwt beam="2">  1       -1 0.14322072E-03 0.80810212E+02</pdfrwt>
<totfact> 0.29950157E+05</totfact>
</mgrwt>
</event>
<event>
 8    1  0.2676873E-016  0.8105920E+02  0.7818608E-02  0.1326072E+00
          2   -1    0    0  501    0  0.00000000000E+00  0.00000000000E+00  0.93726739657E+03  0.93726739657E+03  0.25500000000E-02 0. -1.
         -1   -1    0    0    0  501 -0.00000000000E+00 -0.00000000000E+00 -0.17525896764E+01  0.17525969233E+01  0.50400000000E-02 0.  1.
         24    2    1    2    0    0  0.00000000000E+00  0.00000000000E+00  0.93551480689E+03  0.93901999350E+03  0.81059202250E+02 0.  0.
         66    2    3    3    0    0  0.19040808405E+02 -0.14917804990E+02  0.84440875147E+03  0.84475749942E+03  0.19999947903E+01 0.  0.
        -13    1    3    3    0    0 -0.19040808405E+02  0.14917804990E+02  0.91106055425E+02  0.94262494077E+02  0.10566000000E+00 0.  1.
         13    1    4    4    0    0  0.15162734619E+02 -0.11792776078E+02  0.65752889092E+03  0.65780941894E+03  0.10566000000E+00 0. -1.
        -13    1    4    4    0    0  0.26409176604E+01 -0.23901249220E+01  0.12076820693E+03  0.12082076854E+03  0.10566000000E+00 0.  1.
         14    1    4    4    0    0  0.12371561256E+01 -0.73490398966E+00  0.66111653624E+02  0.66127311937E+02  0.00000000000E+00 0. -1.
<mgrwt>
<rscale>  0 0.81059202E+02</rscale>
<asrwt>0</asrwt>
<pdfrwt beam="1">  1        2 0.14419498E+00 0.81059202E+02</pdfrwt>
<pdfrwt beam="2">  1       -1 0.26962975E-03 0.81059202E+02</pdfrwt>
<totfact> 0.33906735E+05</totfact>
</mgrwt>
</event>
<event>
 8    1  0.2676873E-016  0.7835190E+02  0.7818608E-02  0.1333795E+00
          2   -1    0    0  501    0  0.00000000000E+00  0.00000000000E+00  0.10660269915E+03  0.10660269918E+03  0.25500000000E-02 0. -1.
         -1   -1    0    0    0  501 -0.00000000000E+00 -0.00000000000E+00 -0.14396963105E+02  0.14396963987E+02  0.50400000000E-02 0.  1.
         24    2    1    2    0    0  0.00000000000E+00  0.35527136788E-14  0.92205736049E+02  0.12099966317E+03  0.78351903151E+02 0.  0.
         66    2    3    3    0    0 -0.17473778678E+02 -0.30516288762E+02  0.72709927458E+02  0.80791771686E+02  0.20000000037E+01 0.  0.
        -13    1    3    3    0    0  0.17473778678E+02  0.30516288762E+02  0.19495808591E+02  0.40207891486E+02  0.10566000000E+00 0.  1.
         13    1    4    4    0    0 -0.81548932639E+01 -0.14188398534E+02  0.35508266031E+02  0.39098095320E+02  0.10566000000E+00 0.  1.
        -13    1    4    4    0    0 -0.44069655950E+01 -0.85493863500E+01  0.18448674045E+02  0.20805722549E+02  0.10566000000E+00 0. -1.
         14    1    4    4    0    0 -0.49119198195E+01 -0.77785038783E+01  0.18752987382E+02  0.20887953817E+02  0.00000000000E+00 0. -1.
<mgrwt>
<rscale>  0 0.78351903E+02</rscale>
<asrwt>0</asrwt>
<pdfrwt beam="1">  1        2 0.16400415E-01 0.78351903E+02</pdfrwt>
<pdfrwt beam="2">  1       -1 0.22149175E-02 0.78351903E+02</pdfrwt>
<totfact> 0.19081922E+05</totfact>
</mgrwt>
</event>
<event>
 8    1  0.2676873E-016  0.7959047E+02  0.7818608E-02  0.1330218E+00
         -1   -1    0    0    0  501 -0.00000000000E+00  0.00000000000E+00  0.15906647731E+01  0.15906727576E+01  0.50400000000E-02 0.  1.
          2   -1    0    0  501    0  0.00000000000E+00 -0.00000000000E+00 -0.99559423342E+03  0.99559423342E+03  0.25500000000E-02 0. -1.
         24    2    1    2    0    0  0.00000000000E+00  0.00000000000E+00 -0.99400356864E+03  0.99718490618E+03  0.79590468225E+02 0.  0.
         66    2    3    3    0    0 -0.42796701153E+01 -0.16295744176E+02 -0.94866807438E+03  0.94881978384E+03  0.20000008970E+01 0.  0.
        -13    1    3    3    0    0  0.42796701153E+01  0.16295744176E+02 -0.45335494259E+02  0.48365122333E+02  0.10566000000E+00 0.  1.
         13    1    4    4    0    0 -0.14660239287E+01 -0.33832269938E+01 -0.20618249814E+03  0.20621549203E+03  0.10566000000E+00 0. -1.
        -13    1    4    4    0    0 -0.19549936851E+01 -0.80175326750E+01 -0.49539958700E+03  0.49546832875E+03  0.10566000000E+00 0.  1.
         14    1    4    4    0    0 -0.85865250146E+00 -0.48949845074E+01 -0.24708598924E+03  0.24713596306E+03  0.00000000000E+00 0. -1.
<mgrwt>
<rscale>  0 0.79590468E+02</rscale>
<asrwt>0</asrwt>
<pdfrwt beam="1">  1        2 0.15316785E+00 0.79590468E+02</pdfrwt>
<pdfrwt beam="2">  1       -1 0.24471907E-03 0.79590468E+02</pdfrwt>
<totfact> 0.35696783E+05</totfact>
</mgrwt>
</event>
<event>
 8    1  0.2676873E-016  0.7315458E+02  0.7818608E-02  0.1349683E+00
         -1   -1    0    0    0  501 -0.00000000000E+00  0.00000000000E+00  0.41019779536E+01  0.41019810499E+01  0.50400000000E-02 0.  1.
          2   -1    0    0  501    0  0.00000000000E+00 -0.00000000000E+00 -0.32615918602E+03  0.32615918603E+03  0.25500000000E-02 0. -1.
         24    2    1    2    0    0  0.35527136788E-14  0.17763568394E-14 -0.32205720807E+03  0.33026116708E+03  0.73154584364E+02 0.  0.
         66    2    3    3    0    0  0.26261385521E+02  0.11422659289E+02 -0.26367558749E+03  0.26523377054E+03  0.20000214401E+01 0.  0.
        -13    1    3    3    0    0 -0.26261385521E+02 -0.11422659289E+02 -0.58381620583E+02  0.65027396539E+02  0.10566000000E+00 0.  1.
         13    1    4    4    0    0  0.16190831712E+02  0.64820471368E+01 -0.16604536060E+03  0.16695877607E+03  0.10566000000E+00 0. -1.
        -13    1    4    4    0    0  0.58466545243E+00  0.25307189866E+00 -0.67822175497E+01  0.68128935118E+01  0.10566000000E+00 0.  1.
        -14    1    4    4    0    0  0.94858883565E+01  0.46875402538E+01 -0.90848009340E+02  0.91462100963E+02  0.00000000000E+00 0.  1.
<mgrwt>
<rscale>  0 0.73154584E+02</rscale>
<asrwt>0</asrwt>
<pdfrwt beam="1">  1        2 0.50178316E-01 0.73154584E+02</pdfrwt>
<pdfrwt beam="2">  1       -1 0.63107403E-03 0.73154584E+02</pdfrwt>
<totfact> 0.33174482E+05</totfact>
</mgrwt>
</event>
<event>
 8    1  0.2676873E-016  0.8090654E+02  0.7818608E-02  0.1326498E+00
          2   -1    0    0  501    0  0.00000000000E+00  0.00000000000E+00  0.69105634893E+03  0.69105634893E+03  0.25500000000E-02 0. -1.
         -1   -1    0    0    0  501 -0.00000000000E+00 -0.00000000000E+00 -0.23680632834E+01  0.23680686468E+01  0.50400000000E-02 0.  1.
         24    2    1    2    0    0 -0.35527136788E-14  0.00000000000E+00  0.68868828565E+03  0.69342441758E+03  0.80906539361E+02 0.  0.
         66    2    3    3    0    0 -0.25959536377E+02 -0.42358868671E+01  0.60769238242E+03  0.60826463970E+03  0.19999957066E+01 0.  0.
        -13    1    3    3    0    0  0.25959536377E+02  0.42358868671E+01  0.80995903222E+02  0.85159777884E+02  0.10566000000E+00 0.  1.
         13    1    4    4    0    0 -0.27630261861E+01 -0.75798617377E+00  0.60641842100E+02  0.60709579426E+02  0.10566000000E+00 0. -1.
        -13    1    4    4    0    0 -0.15892222136E+02 -0.17076862840E+01  0.37318238507E+03  0.37352454084E+03  0.10566000000E+00 0.  1.
         14    1    4    4    0    0 -0.73042880549E+01 -0.17702144094E+01  0.17386815526E+03  0.17403051944E+03  0.00000000000E+00 0. -1.
<mgrwt>
<rscale>  0 0.80906539E+02</rscale>
<asrwt>0</asrwt>
<pdfrwt beam="1">  1        2 0.10631643E+00 0.80906539E+02</pdfrwt>
<pdfrwt beam="2">  1       -1 0.36431761E-03 0.80906539E+02</pdfrwt>
<totfact> 0.32389038E+05</totfact>
</mgrwt>
</event>
<event>
 8    1  0.2676873E-016  0.7735018E+02  0.7818608E-02  0.1336744E+00
         -1   -1    0    0    0  501 -0.00000000000E+00  0.00000000000E+00  0.69352801122E+01  0.69352819435E+01  0.50400000000E-02 0.  1.
          2   -1    0    0  501    0  0.00000000000E+00 -0.00000000000E+00 -0.21567439663E+03  0.21567439664E+03  0.25500000000E-02 0. -1.
         24    2    1    2    0    0  0.71054273576E-14  0.00000000000E+00 -0.20873911651E+03  0.22260967858E+03  0.77350179292E+02 0.  0.
         66    2    3    3    0    0 -0.35493777349E+02 -0.14183428627E+02 -0.12091642456E+03  0.12682964797E+03  0.19999995428E+01 0.  0.
        -13    1    3    3    0    0  0.35493777349E+02  0.14183428627E+02 -0.87822691956E+02  0.95780030614E+02  0.10566000000E+00 0.  1.
         13    1    4    4    0    0 -0.15694624653E+02 -0.65687897966E+01 -0.56193709299E+02  0.58712982987E+02  0.10566000000E+00 0. -1.
        -13    1    4    4    0    0 -0.65709526840E+00 -0.17320302512E+00 -0.24498588865E+01  0.25445522355E+01  0.10566000000E+00 0. -1.
         14    1    4    4    0    0 -0.19142057428E+02 -0.74414358050E+01 -0.62272856372E+02  0.65572112747E+02  0.00000000000E+00 0. -1.
<mgrwt>
<rscale>  0 0.77350179E+02</rscale>
<asrwt>0</asrwt>
<pdfrwt beam="1">  1        2 0.33180671E-01 0.77350179E+02</pdfrwt>
<pdfrwt beam="2">  1       -1 0.10669665E-02 0.77350179E+02</pdfrwt>
<totfact> 0.24746704E+05</totfact>
</mgrwt>
</event>
<event>
 8    1  0.2676873E-016  0.7855972E+02  0.7818608E-02  0.1333189E+00
         -1   -1    0    0    0  501 -0.00000000000E+00  0.00000000000E+00  0.77920100600E+01  0.77920116900E+01  0.50400000000E-02 0.  1.
          2   -1    0    0  501    0  0.00000000000E+00 -0.00000000000E+00 -0.19801147779E+03  0.19801147781E+03  0.25500000000E-02 0. -1.
         24    2    1    2    0    0  0.00000000000E+00  0.00000000000E+00 -0.19021946773E+03  0.20580348950E+03  0.78559724958E+02 0.  0.
         66    2    3    3    0    0 -0.81035767812E+01  0.79983442712E+01 -0.19358511334E+03  0.19392998108E+03  0.19999968667E+01 0.  0.
        -13    1    3    3    0    0  0.81035767812E+01 -0.79983442712E+01  0.33656456086E+01  0.11873508417E+02  0.10566000000E+00 0.  1.
         13    1    4    4    0    0 -0.16073832736E+01  0.88651317577E+00 -0.30491368671E+02  0.30546756195E+02  0.10566000000E+00 0. -1.
        -13    1    4    4    0    0 -0.33103544587E+00  0.79705368584E+00 -0.18476995896E+02  0.18497443619E+02  0.10566000000E+00 0.  1.
         14    1    4    4    0    0 -0.61651580617E+01  0.63147774096E+01 -0.14461674877E+03  0.14488578126E+03  0.00000000000E+00 0. -1.
<mgrwt>
<rscale>  0 0.78559725E+02</rscale>
<asrwt>0</asrwt>
<pdfrwt beam="1">  1        2 0.30463300E-01 0.78559725E+02</pdfrwt>
<pdfrwt beam="2">  1       -1 0.11987711E-02 0.78559725E+02</pdfrwt>
<totfact> 0.23060822E+05</totfact>
</mgrwt>
</event>
<event>
 8    1  0.2676873E-016  0.7962980E+02  0.7818608E-02  0.1330105E+00
         -1   -1    0    0    0  501 -0.00000000000E+00  0.00000000000E+00  0.33173122084E+01  0.33173160370E+01  0.50400000000E-02 0.  1.
          2   -1    0    0  501    0  0.00000000000E+00 -0.00000000000E+00 -0.47786434193E+03  0.47786434194E+03  0.25500000000E-02 0. -1.
         24    2    1    2    0    0  0.00000000000E+00  0.00000000000E+00 -0.47454702972E+03  0.48118165798E+03  0.79629796891E+02 0.  0.
         66    2    3    3    0    0  0.18392561510E+02  0.34771426508E+02 -0.27362009224E+03  0.27644039738E+03  0.20000013008E+01 0.  0.
        -13    1    3    3    0    0 -0.18392561510E+02 -0.34771426508E+02 -0.20092693748E+03  0.20474126060E+03  0.10566000000E+00 0.  1.
         13    1    4    4    0    0  0.27152154340E+01  0.43729797248E+01 -0.36686687391E+02  0.37046181210E+02  0.10566000000E+00 0. -1.
        -13    1    4    4    0    0  0.35958206872E+01  0.83616963212E+01 -0.64343908741E+02  0.64984595466E+02  0.10566000000E+00 0.  1.
         14    1    4    4    0    0  0.12081525388E+02  0.22036750462E+02 -0.17258949611E+03  0.17440962070E+03  0.00000000000E+00 0. -1.
<mgrwt>
<rscale>  0 0.79629797E+02</rscale>
<asrwt>0</asrwt>
<pdfrwt beam="1">  1        2 0.73517537E-01 0.79629797E+02</pdfrwt>
<pdfrwt beam="2">  1       -1 0.51035640E-03 0.79629797E+02</pdfrwt>
<totfact> 0.30374738E+05</totfact>
</mgrwt>
</event>
<event>
 8    1  0.2676873E-016  0.7874164E+02  0.7818608E-02  0.1332661E+00
         -1   -1    0    0    0  501 -0.00000000000E+00  0.00000000000E+00  0.29626388716E+02  0.29626389145E+02  0.50400000000E-02 0.  1.
          2   -1    0    0  501    0  0.00000000000E+00 -0.00000000000E+00 -0.52320294759E+02  0.52320294821E+02  0.25500000000E-02 0. -1.
         24    2    1    2    0    0  0.00000000000E+00  0.00000000000E+00 -0.22693906043E+02  0.81946683966E+02  0.78741638550E+02 0.  0.
         66    2    3    3    0    0 -0.16319408782E+02 -0.35433632613E+02 -0.16680280345E+02  0.42474665000E+02  0.19999978194E+01 0.  0.
        -13    1    3    3    0    0  0.16319408782E+02  0.35433632613E+02 -0.60136256979E+01  0.39472018966E+02  0.10566000000E+00 0.  1.
         13    1    4    4    0    0 -0.11425841726E+02 -0.26155123786E+02 -0.12131721592E+02  0.31013387306E+02  0.10566000000E+00 0. -1.
        -13    1    4    4    0    0 -0.86476882210E+00 -0.14282173646E+01 -0.45188001032E+00  0.17329135972E+01  0.10566000000E+00 0.  1.
         14    1    4    4    0    0 -0.40287982346E+01 -0.78502914625E+01 -0.40966787431E+01  0.97283640961E+01  0.00000000000E+00 0. -1.
<mgrwt>
<rscale>  0 0.78741639E+02</rscale>
<asrwt>0</asrwt>
<pdfrwt beam="1">  1        2 0.80492761E-02 0.78741639E+02</pdfrwt>
<pdfrwt beam="2">  1       -1 0.45579060E-02 0.78741639E+02</pdfrwt>
<totfact> 0.15760274E+05</totfact>
</mgrwt>
</event>
<event>
 8    1  0.2676873E-016  0.7930126E+02  0.7818608E-02  0.1331046E+00
          2   -1    0    0  501    0  0.00000000000E+00  0.00000000000E+00  0.10171712801E+03  0.10171712804E+03  0.25500000000E-02 0. -1.
         -1   -1    0    0    0  501 -0.00000000000E+00 -0.00000000000E+00 -0.15456318952E+02  0.15456319774E+02  0.50400000000E-02 0.  1.
         24    2    1    2    0    0  0.00000000000E+00  0.35527136788E-14  0.86260809055E+02  0.11717344781E+03  0.79301259091E+02 0.  0.
         66    2    3    3    0    0 -0.85276227674E+01 -0.28953363076E+02  0.81092860296E+02  0.86550965191E+02  0.20000002452E+01 0.  0.
        -13    1    3    3    0    0  0.85276227674E+01  0.28953363076E+02  0.51679487590E+01  0.30622482621E+02  0.10566000000E+00 0.  1.
         13    1    4    4    0    0 -0.44470196136E+01 -0.13514367222E+02  0.39379532328E+02  0.41870906788E+02  0.10566000000E+00 0. -1.
        -13    1    4    4    0    0 -0.40157995107E+01 -0.15036638459E+02  0.40059578211E+02  0.42976832275E+02  0.10566000000E+00 0.  1.
         14    1    4    4    0    0 -0.64803643234E-01 -0.40235739586E+00  0.16537497563E+01  0.17032261278E+01  0.00000000000E+00 0. -1.
<mgrwt>
<rscale>  0 0.79301259E+02</rscale>
<asrwt>0</asrwt>
<pdfrwt beam="1">  1        2 0.15648788E-01 0.79301259E+02</pdfrwt>
<pdfrwt beam="2">  1       -1 0.23778954E-02 0.79301259E+02</pdfrwt>
<totfact> 0.18233908E+05</totfact>
</mgrwt>
</event>
<event>
 8    1  0.2676873E-016  0.7937306E+02  0.7818608E-02  0.1330840E+00
         -1   -1    0    0    0  501 -0.00000000000E+00  0.00000000000E+00  0.10007192644E+02  0.10007193913E+02  0.50400000000E-02 0.  1.
          2   -1    0    0  501    0  0.00000000000E+00 -0.00000000000E+00 -0.15738886403E+03  0.15738886405E+03  0.25500000000E-02 0. -1.
         24    2    1    2    0    0  0.00000000000E+00  0.00000000000E+00 -0.14738167139E+03  0.16739605797E+03  0.79373063197E+02 0.  0.
         66    2    3    3    0    0 -0.37586322302E+01 -0.93750269531E+01 -0.15462436357E+03  0.15496681017E+03  0.19999997299E+01 0.  0.
        -13    1    3    3    0    0  0.37586322302E+01  0.93750269531E+01  0.72426921824E+01  0.12429247793E+02  0.10566000000E+00 0.  1.
         13    1    4    4    0    0 -0.86447421397E+00 -0.12847112609E+01 -0.20690664526E+02  0.20748796622E+02  0.10566000000E+00 0. -1.
        -13    1    4    4    0    0 -0.43822855797E+00 -0.51310597946E+00 -0.16747881992E+02  0.16761802924E+02  0.10566000000E+00 0.  1.
        -14    1    4    4    0    0 -0.24559294583E+01 -0.75772097128E+01 -0.11718581705E+03  0.11745621063E+03  0.00000000000E+00 0.  1.
<mgrwt>
<rscale>  0 0.79373063E+02</rscale>
<asrwt>0</asrwt>
<pdfrwt beam="1">  1        2 0.24213670E-01 0.79373063E+02</pdfrwt>
<pdfrwt beam="2">  1       -1 0.15395683E-02 0.79373063E+02</pdfrwt>
<totfact> 0.20773548E+05</totfact>
</mgrwt>
</event>
<event>
 8    1  0.2676873E-016  0.8885355E+02  0.7818608E-02  0.1305652E+00
          2   -1    0    0  501    0  0.00000000000E+00  0.00000000000E+00  0.58011632393E+03  0.58011632394E+03  0.25500000000E-02 0. -1.
         -1   -1    0    0    0  501 -0.00000000000E+00 -0.00000000000E+00 -0.34023129355E+01  0.34023166685E+01  0.50400000000E-02 0.  1.
         24    2    1    2    0    0  0.00000000000E+00  0.00000000000E+00  0.57671401100E+03  0.58351864061E+03  0.88853550605E+02 0.  0.
         66    2    3    3    0    0 -0.12547719560E+02  0.19712281368E+02  0.53647098719E+03  0.53698336977E+03  0.20000018123E+01 0.  0.
        -13    1    3    3    0    0  0.12547719560E+02 -0.19712281368E+02  0.40243023804E+02  0.46535270837E+02  0.10566000000E+00 0.  1.
         13    1    4    4    0    0 -0.18221517180E+01  0.36014816096E+01  0.93891497581E+02  0.93978270833E+02  0.10566000000E+00 0. -1.
        -13    1    4    4    0    0 -0.50087766358E+00  0.11882812062E+01  0.36431812938E+02  0.36454780875E+02  0.10566000000E+00 0.  1.
        -14    1    4    4    0    0 -0.10224690179E+02  0.14922518552E+02  0.40614767667E+03  0.40655031806E+03  0.00000000000E+00 0.  1.
<mgrwt>
<rscale>  0 0.88853551E+02</rscale>
<asrwt>0</asrwt>
<pdfrwt beam="1">  1        2 0.89248649E-01 0.88853551E+02</pdfrwt>
<pdfrwt beam="2">  1       -1 0.52343314E-03 0.88853551E+02</pdfrwt>
<totfact> 0.24208194E+05</totfact>
</mgrwt>
</event>
<event>
 8    1  0.2676873E-016  0.7925532E+02  0.7818608E-02  0.1331178E+00
          2   -1    0    0  501    0  0.00000000000E+00  0.00000000000E+00  0.29152889068E+03  0.29152889069E+03  0.25500000000E-02 0. -1.
         -1   -1    0    0    0  501 -0.00000000000E+00 -0.00000000000E+00 -0.53866059091E+01  0.53866082669E+01  0.50400000000E-02 0.  1.
         24    2    1    2    0    0  0.00000000000E+00  0.00000000000E+00  0.28614228477E+03  0.29691549896E+03  0.79255324034E+02 0.  0.
         66    2    3    3    0    0 -0.93550283284E+01  0.36187237937E+02  0.19219638041E+03  0.19580725570E+03  0.19999994235E+01 0.  0.
        -13    1    3    3    0    0  0.93550283284E+01 -0.36187237937E+02  0.93945904365E+02  0.10110824326E+03  0.10566000000E+00 0.  1.
         13    1    4    4    0    0 -0.62768360469E+01  0.26787647861E+02  0.13930097941E+03  0.14199207998E+03  0.10566000000E+00 0. -1.
        -13    1    4    4    0    0 -0.11412908160E+00  0.32348151494E+00  0.18428421816E+01  0.18774709265E+01  0.10566000000E+00 0. -1.
         14    1    4    4    0    0 -0.29640631999E+01  0.90761085604E+01  0.51052558819E+02  0.51937704793E+02  0.00000000000E+00 0. -1.
<mgrwt>
<rscale>  0 0.79255324E+02</rscale>
<asrwt>0</asrwt>
<pdfrwt beam="1">  1        2 0.44850597E-01 0.79255324E+02</pdfrwt>
<pdfrwt beam="2">  1       -1 0.82870881E-03 0.79255324E+02</pdfrwt>
<totfact> 0.25857622E+05</totfact>
</mgrwt>
</event>
<event>
 8    1  0.2676873E-016  0.8840974E+02  0.7818608E-02  0.1306749E+00
         -1   -1    0    0    0  501 -0.00000000000E+00  0.00000000000E+00  0.94253483577E+02  0.94253483711E+02  0.50400000000E-02 0.  1.
          2   -1    0    0  501    0  0.00000000000E+00 -0.00000000000E+00 -0.20732077327E+02  0.20732077483E+02  0.25500000000E-02 0. -1.
         24    2    1    2    0    0 -0.17763568394E-14  0.71054273576E-14  0.73521406250E+02  0.11498556119E+03  0.88409739884E+02 0.  0.
         66    2    3    3    0    0 -0.13784954891E+02  0.36254377395E+02  0.64297511306E+02  0.75117074095E+02  0.19999997000E+01 0.  0.
        -13    1    3    3    0    0  0.13784954891E+02 -0.36254377395E+02  0.92238949441E+01  0.39868487100E+02  0.10566000000E+00 0.  1.
         13    1    4    4    0    0 -0.39922469557E+01  0.90565101406E+01  0.16211123227E+02  0.18993948825E+02  0.10566000000E+00 0. -1.
        -13    1    4    4    0    0 -0.17576767608E+01  0.64101897480E+01  0.11513229635E+02  0.13294569600E+02  0.10566000000E+00 0.  1.
         14    1    4    4    0    0 -0.80350311751E+01  0.20787677506E+02  0.36573158445E+02  0.42828555669E+02  0.00000000000E+00 0. -1.
<mgrwt>
<rscale>  0 0.88409740E+02</rscale>
<asrwt>0</asrwt>
<pdfrwt beam="1">  1        2 0.31895504E-02 0.88409740E+02</pdfrwt>
<pdfrwt beam="2">  1       -1 0.14500536E-01 0.88409740E+02</pdfrwt>
<totfact> 0.93634724E+04</totfact>
</mgrwt>
</event>
<event>
 8    1  0.2676873E-016  0.8023147E+02  0.7818608E-02  0.1328396E+00
         -1   -1    0    0    0  501 -0.00000000000E+00  0.00000000000E+00  0.16656922531E+02  0.16656923293E+02  0.50400000000E-02 0.  1.
          2   -1    0    0  501    0  0.00000000000E+00 -0.00000000000E+00 -0.96612812869E+02  0.96612812903E+02  0.25500000000E-02 0. -1.
         24    2    1    2    0    0 -0.17763568394E-14  0.88817841970E-15 -0.79955890339E+02  0.11326973620E+03  0.80231469749E+02 0.  0.
         66    2    3    3    0    0  0.10064544407E+02 -0.48931472787E+01 -0.94352465767E+02  0.95034865961E+02  0.20000018892E+01 0.  0.
        -13    1    3    3    0    0 -0.10064544407E+02  0.48931472787E+01  0.14396575428E+02  0.18234870235E+02  0.10566000000E+00 0.  1.
         13    1    4    4    0    0  0.20121179140E+01 -0.98033549151E+00 -0.19167631749E+02  0.19298159162E+02  0.10566000000E+00 0. -1.
        -13    1    4    4    0    0  0.12022678229E+01 -0.14446620727E+00 -0.69573842298E+01  0.70627670045E+01  0.10566000000E+00 0.  1.
        -14    1    4    4    0    0  0.68501586699E+01 -0.37683455799E+01 -0.68227449788E+02  0.68673939794E+02  0.00000000000E+00 0.  1.
<mgrwt>
<rscale>  0 0.80231470E+02</rscale>
<asrwt>0</asrwt>
<pdfrwt beam="1">  1        2 0.14863509E-01 0.80231470E+02</pdfrwt>
<pdfrwt beam="2">  1       -1 0.25626036E-02 0.80231470E+02</pdfrwt>
<totfact> 0.17421295E+05</totfact>
</mgrwt>
</event>
<event>
 8    1  0.2676873E-016  0.7940686E+02  0.7818608E-02  0.1330743E+00
         -1   -1    0    0    0  501 -0.00000000000E+00  0.00000000000E+00  0.59694798355E+02  0.59694798567E+02  0.50400000000E-02 0.  1.
          2   -1    0    0  501    0  0.00000000000E+00 -0.00000000000E+00 -0.26407030880E+02  0.26407031003E+02  0.25500000000E-02 0. -1.
         24    2    1    2    0    0  0.00000000000E+00  0.71054273576E-14  0.33287767475E+02  0.86101829570E+02  0.79406861113E+02 0.  0.
         66    2    3    3    0    0 -0.14663062702E+02  0.32573058706E+02  0.35383466536E+02  0.50318975019E+02  0.19999953906E+01 0.  0.
        -13    1    3    3    0    0  0.14663062702E+02 -0.32573058706E+02 -0.20956990615E+01  0.35782854551E+02  0.10566000000E+00 0.  1.
         13    1    4    4    0    0 -0.62772051691E+01  0.15299567352E+02  0.15716115079E+02  0.22814195210E+02  0.10566000000E+00 0. -1.
        -13    1    4    4    0    0 -0.83053507586E+01  0.17031317193E+02  0.19222070664E+02  0.26991550181E+02  0.10566000000E+00 0.  1.
        -14    1    4    4    0    0 -0.80506774524E-01  0.24217416109E+00  0.44528079401E+00  0.51322962751E+00  0.00000000000E+00 0.  1.
<mgrwt>
<rscale>  0 0.79406861E+02</rscale>
<asrwt>0</asrwt>
<pdfrwt beam="1">  1        2 0.40626202E-02 0.79406861E+02</pdfrwt>
<pdfrwt beam="2">  1       -1 0.91838150E-02 0.79406861E+02</pdfrwt>
<totfact> 0.13399634E+05</totfact>
</mgrwt>
</event>
<event>
 8    1  0.2676873E-016  0.7893273E+02  0.7818608E-02  0.1332108E+00
          2   -1    0    0  501    0  0.00000000000E+00  0.00000000000E+00  0.40382756335E+03  0.40382756336E+03  0.25500000000E-02 0. -1.
         -1   -1    0    0    0  501 -0.00000000000E+00 -0.00000000000E+00 -0.38570752696E+01  0.38570785624E+01  0.50400000000E-02 0.  1.
         24    2    1    2    0    0  0.35527136788E-14 -0.71054273576E-14  0.39997048808E+03  0.40768464192E+03  0.78932730363E+02 0.  0.
         66    2    3    3    0    0 -0.12650257322E+02  0.37064668511E+02  0.17601421227E+03  0.18032975787E+03  0.19999976874E+01 0.  0.
        -13    1    3    3    0    0  0.12650257322E+02 -0.37064668511E+02  0.22395627581E+03  0.22735488405E+03  0.10566000000E+00 0.  1.
         13    1    4    4    0    0 -0.54474055373E+01  0.14880605054E+02  0.70027201736E+02  0.71797818775E+02  0.10566000000E+00 0. -1.
        -13    1    4    4    0    0 -0.15798284335E+01  0.55366456985E+01  0.23671468736E+02  0.24361853370E+02  0.10566000000E+00 0.  1.
        -14    1    4    4    0    0 -0.56230233508E+01  0.16647417759E+02  0.82315541798E+02  0.84170085726E+02  0.00000000000E+00 0.  1.
<mgrwt>
<rscale>  0 0.78932730E+02</rscale>
<asrwt>0</asrwt>
<pdfrwt beam="1">  1        2 0.62127277E-01 0.78932730E+02</pdfrwt>
<pdfrwt beam="2">  1       -1 0.59339684E-03 0.78932730E+02</pdfrwt>
<totfact> 0.29359091E+05</totfact>
</mgrwt>
</event>
<event>
 8    1  0.2676873E-016  0.7939985E+02  0.7818608E-02  0.1330763E+00
          2   -1    0    0  501    0  0.00000000000E+00  0.00000000000E+00  0.15087670728E+04  0.15087670728E+04  0.25500000000E-02 0. -1.
         -1   -1    0    0    0  501 -0.00000000000E+00 -0.00000000000E+00 -0.10446111238E+01  0.10446232821E+01  0.50400000000E-02 0.  1.
         24    2    1    2    0    0  0.00000000000E+00  0.00000000000E+00  0.15077224617E+04  0.15098116961E+04  0.79399850062E+02 0.  0.
         66    2    3    3    0    0  0.11722491407E+02 -0.16855439382E+02  0.13998946319E+04  0.14000466075E+04  0.20000010947E+01 0.  0.
        -13    1    3    3    0    0 -0.11722491407E+02  0.16855439382E+02  0.10782782971E+03  0.10976508856E+03  0.10566000000E+00 0.  1.
         13    1    4    4    0    0  0.15092097095E+01 -0.20514894509E+01  0.14359816229E+03  0.14362078436E+03  0.10566000000E+00 0. -1.
        -13    1    4    4    0    0  0.11401301845E+01 -0.17424058545E+01  0.17459887879E+03  0.17461132699E+03  0.10566000000E+00 0.  1.
         14    1    4    4    0    0  0.90731515132E+01 -0.13061544076E+02  0.10816975909E+04  0.10818144962E+04  0.00000000000E+00 0. -1.
<mgrwt>
<rscale>  0 0.79399850E+02</rscale>
<asrwt>0</asrwt>
<pdfrwt beam="1">  1        2 0.23212018E+00 0.79399850E+02</pdfrwt>
<pdfrwt beam="2">  1       -1 0.16070884E-03 0.79399850E+02</pdfrwt>
<totfact> 0.33833391E+05</totfact>
</mgrwt>
</event>
<event>
 8    1  0.2676873E-016  0.8213697E+02  0.7818608E-02  0.1323094E+00
          2   -1    0    0  501    0  0.00000000000E+00  0.00000000000E+00  0.10274180415E+04  0.10274180415E+04  0.25500000000E-02 0. -1.
         -1   -1    0    0    0  501 -0.00000000000E+00 -0.00000000000E+00 -0.16416068998E+01  0.16416146366E+01  0.50400000000E-02 0.  1.
         24    2    1    2    0    0 -0.35527136788E-14  0.00000000000E+00  0.10257764346E+04  0.10290596562E+04  0.82136971661E+02 0.  0.
         66    2    3    3    0    0  0.16210148468E+02 -0.10218459425E+02  0.96793401004E+03  0.96812573234E+03  0.20000020278E+01 0.  0.
        -13    1    3    3    0    0 -0.16210148468E+02  0.10218459425E+02  0.57842424602E+02  0.60933923837E+02  0.10566000000E+00 0.  1.
         13    1    4    4    0    0  0.14097828250E+02 -0.81460795460E+01  0.82411824296E+03  0.82427907708E+03  0.10566000000E+00 0. -1.
        -13    1    4    4    0    0  0.69500055671E+00 -0.65876437918E+00  0.40091594730E+02  0.40103168557E+02  0.10566000000E+00 0.  1.
         14    1    4    4    0    0  0.14173196610E+01 -0.14136154998E+01  0.10372417235E+03  0.10374348670E+03  0.00000000000E+00 0. -1.
<mgrwt>
<rscale>  0 0.82136972E+02</rscale>
<asrwt>0</asrwt>
<pdfrwt beam="1">  1        2 0.15806441E+00 0.82136972E+02</pdfrwt>
<pdfrwt beam="2">  1       -1 0.25255535E-03 0.82136972E+02</pdfrwt>
<totfact> 0.32926259E+05</totfact>
</mgrwt>
</event>
<event>
 8    1  0.2676873E-016  0.7446253E+02  0.7818608E-02  0.1345544E+00
          2   -1    0    0  501    0  0.00000000000E+00  0.00000000000E+00  0.57547037168E+03  0.57547037169E+03  0.25500000000E-02 0. -1.
         -1   -1    0    0    0  501 -0.00000000000E+00 -0.00000000000E+00 -0.24087524672E+01  0.24087577400E+01  0.50400000000E-02 0.  1.
         24    2    1    2    0    0  0.00000000000E+00  0.88817841970E-15  0.57306161921E+03  0.57787912943E+03  0.74462532934E+02 0.  0.
         66    2    3    3    0    0 -0.95496115847E+01  0.56472954680E+01  0.56233091327E+03  0.56244390214E+03  0.19999994740E+01 0.  0.
        -13    1    3    3    0    0  0.95496115847E+01 -0.56472954680E+01  0.10730705938E+02  0.15435227290E+02  0.10566000000E+00 0.  1.
         13    1    4    4    0    0 -0.21635239733E+01  0.96287261008E+00  0.15087688454E+03  0.15089550495E+03  0.10566000000E+00 0. -1.
        -13    1    4    4    0    0 -0.14291099881E+01  0.11838537121E+01  0.71469511563E+02  0.71493678826E+02  0.10566000000E+00 0.  1.
        -14    1    4    4    0    0 -0.59569776233E+01  0.35005691458E+01  0.33998451717E+03  0.34005471836E+03  0.00000000000E+00 0.  1.
<mgrwt>
<rscale>  0 0.74462533E+02</rscale>
<asrwt>0</asrwt>
<pdfrwt beam="1">  1        2 0.88533951E-01 0.74462533E+02</pdfrwt>
<pdfrwt beam="2">  1       -1 0.37057751E-03 0.74462533E+02</pdfrwt>
<totfact> 0.38283080E+05</totfact>
</mgrwt>
</event>
<event>
 8    1  0.2676873E-016  0.7889012E+02  0.7818608E-02  0.1332231E+00
         -1   -1    0    0    0  501 -0.00000000000E+00  0.00000000000E+00  0.32064368044E+01  0.32064407654E+01  0.50400000000E-02 0.  1.
          2   -1    0    0  501    0  0.00000000000E+00 -0.00000000000E+00 -0.48524638229E+03  0.48524638230E+03  0.25500000000E-02 0. -1.
         24    2    1    2    0    0  0.00000000000E+00  0.00000000000E+00 -0.48203994549E+03  0.48845282306E+03  0.78890121774E+02 0.  0.
         66    2    3    3    0    0 -0.35394862449E+02  0.17293403931E+02 -0.25003894412E+03  0.25313105631E+03  0.19999965280E+01 0.  0.
        -13    1    3    3    0    0  0.35394862449E+02 -0.17293403931E+02 -0.23200100137E+03  0.23532176675E+03  0.10566000000E+00 0.  1.
         13    1    4    4    0    0 -0.87764218505E+01  0.42343469504E+01 -0.60337702795E+02  0.61119594380E+02  0.10566000000E+00 0. -1.
        -13    1    4    4    0    0 -0.63255314232E+01  0.38475526689E+01 -0.45724783625E+02  0.46320438371E+02  0.10566000000E+00 0.  1.
        -14    1    4    4    0    0 -0.20292909175E+02  0.92115043118E+01 -0.14397645770E+03  0.14569102356E+03  0.00000000000E+00 0.  1.
<mgrwt>
<rscale>  0 0.78890122E+02</rscale>
<asrwt>0</asrwt>
<pdfrwt beam="1">  1        2 0.74653232E-01 0.78890122E+02</pdfrwt>
<pdfrwt beam="2">  1       -1 0.49329866E-03 0.78890122E+02</pdfrwt>
<totfact> 0.31277585E+05</totfact>
</mgrwt>
</event>
<event>
 8    1  0.2676873E-016  0.7963117E+02  0.7818608E-02  0.1330101E+00
          2   -1    0    0  501    0  0.00000000000E+00  0.00000000000E+00  0.25019389601E+03  0.25019389603E+03  0.25500000000E-02 0. -1.
         -1   -1    0    0    0  501 -0.00000000000E+00 -0.00000000000E+00 -0.63362073930E+01  0.63362093974E+01  0.50400000000E-02 0.  1.
         24    2    1    2    0    0 -0.17763568394E-14 -0.71054273576E-14  0.24385768862E+03  0.25653010542E+03  0.79631166571E+02 0.  0.
         66    2    3    3    0    0 -0.11897821505E+02 -0.24378481732E+02  0.21578362208E+03  0.21749124140E+03  0.20000000047E+01 0.  0.
        -13    1    3    3    0    0  0.11897821505E+02  0.24378481732E+02  0.28074066543E+02  0.39038864026E+02  0.10566000000E+00 0.  1.
         13    1    4    4    0    0 -0.21277881447E+01 -0.46596941600E+01  0.37702705573E+02  0.38049249711E+02  0.10566000000E+00 0. -1.
        -13    1    4    4    0    0 -0.57790747375E+00 -0.57790320371E+00  0.62534143060E+01  0.63074799785E+01  0.10566000000E+00 0.  1.
         14    1    4    4    0    0 -0.91921258866E+01 -0.19140884368E+02  0.17182750220E+03  0.17313451171E+03  0.00000000000E+00 0. -1.
<mgrwt>
<rscale>  0 0.79631167E+02</rscale>
<asrwt>0</asrwt>
<pdfrwt beam="1">  1        2 0.38491362E-01 0.79631167E+02</pdfrwt>
<pdfrwt beam="2">  1       -1 0.97480146E-03 0.79631167E+02</pdfrwt>
<totfact> 0.24166744E+05</totfact>
</mgrwt>
</event>
<event>
 8    1  0.2676873E-016  0.8539732E+02  0.7818608E-02  0.1314397E+00
          2   -1    0    0  501    0  0.00000000000E+00  0.00000000000E+00  0.90891890417E+02  0.90891890453E+02  0.25500000000E-02 0. -1.
         -1   -1    0    0    0  501 -0.00000000000E+00 -0.00000000000E+00 -0.20058726467E+02  0.20058727100E+02  0.50400000000E-02 0.  1.
         24    2    1    2    0    0  0.00000000000E+00 -0.17763568394E-14  0.70833163951E+02  0.11095061755E+03  0.85397320919E+02 0.  0.
         66    2    3    3    0    0 -0.27861749868E+02 -0.13105675727E+02  0.73826660395E+02  0.80015071219E+02  0.19999987870E+01 0.  0.
        -13    1    3    3    0    0  0.27861749868E+02  0.13105675727E+02 -0.29934964445E+01  0.30935546334E+02  0.10566000000E+00 0.  1.
         13    1    4    4    0    0 -0.64459522546E+01 -0.26235825658E+01  0.15428507286E+02  0.16925823083E+02  0.10566000000E+00 0. -1.
        -13    1    4    4    0    0 -0.18097970301E+02 -0.91848148255E+01  0.50445111891E+02  0.54374790391E+02  0.10566000000E+00 0.  1.
        -14    1    4    4    0    0 -0.33178273125E+01 -0.12972783361E+01  0.79530412188E+01  0.87144577448E+01  0.00000000000E+00 0.  1.
<mgrwt>
<rscale>  0 0.85397321E+02</rscale>
<asrwt>0</asrwt>
<pdfrwt beam="1">  1        2 0.13983368E-01 0.85397321E+02</pdfrwt>
<pdfrwt beam="2">  1       -1 0.30859580E-02 0.85397321E+02</pdfrwt>
<totfact> 0.14479223E+05</totfact>
</mgrwt>
</event>
<event>
 8    1  0.2676873E-016  0.7786960E+02  0.7818608E-02  0.1335208E+00
         -1   -1    0    0    0  501 -0.00000000000E+00  0.00000000000E+00  0.61993414337E+01  0.61993434824E+01  0.50400000000E-02 0.  1.
          2   -1    0    0  501    0  0.00000000000E+00 -0.00000000000E+00 -0.24452897088E+03  0.24452897090E+03  0.25500000000E-02 0. -1.
         24    2    1    2    0    0  0.00000000000E+00  0.00000000000E+00 -0.23832962945E+03  0.25072831438E+03  0.77869604839E+02 0.  0.
         66    2    3    3    0    0  0.82943521988E+01 -0.30520761978E+02 -0.19221385674E+03  0.19480882898E+03  0.19999843983E+01 0.  0.
        -13    1    3    3    0    0 -0.82943521988E+01  0.30520761978E+02 -0.46115772714E+02  0.55919485398E+02  0.10566000000E+00 0.  1.
         13    1    4    4    0    0  0.27031975673E+01 -0.11651807707E+02 -0.76738660739E+02  0.77665340506E+02  0.10566000000E+00 0. -1.
        -13    1    4    4    0    0  0.23811382055E+01 -0.89342792331E+01 -0.56323458674E+02  0.57077441477E+02  0.10566000000E+00 0.  1.
        -14    1    4    4    0    0  0.32100164260E+01 -0.99346750384E+01 -0.59151737324E+02  0.60066046999E+02  0.00000000000E+00 0.  1.
<mgrwt>
<rscale>  0 0.77869605E+02</rscale>
<asrwt>0</asrwt>
<pdfrwt beam="1">  1        2 0.37619834E-01 0.77869605E+02</pdfrwt>
<pdfrwt beam="2">  1       -1 0.95374519E-03 0.77869605E+02</pdfrwt>
<totfact> 0.25419644E+05</totfact>
</mgrwt>
</event>
<event>
 8    1  0.2676873E-016  0.7921554E+02  0.7818608E-02  0.1331292E+00
         -1   -1    0    0    0  501 -0.00000000000E+00  0.00000000000E+00  0.15054354108E+01  0.15054438474E+01  0.50400000000E-02 0.  1.
          2   -1    0    0  501    0  0.00000000000E+00 -0.00000000000E+00 -0.10420713066E+04  0.10420713066E+04  0.25500000000E-02 0. -1.
         24    2    1    2    0    0  0.00000000000E+00 -0.17763568394E-14 -0.10405658712E+04  0.10435767504E+04  0.79215540123E+02 0.  0.
         66    2    3    3    0    0  0.18583132711E+02 -0.15030128296E+02 -0.93627709273E+03  0.93658423644E+03  0.19999991705E+01 0.  0.
        -13    1    3    3    0    0 -0.18583132711E+02  0.15030128296E+02 -0.10428877845E+03  0.10699251400E+03  0.10566000000E+00 0.  1.
         13    1    4    4    0    0  0.52387621632E+01 -0.48333026056E+01 -0.28789159418E+03  0.28797983715E+03  0.10566000000E+00 0. -1.
        -13    1    4    4    0    0  0.28430902621E+01 -0.25275275446E+01 -0.16645357873E+03  0.16649707683E+03  0.10566000000E+00 0.  1.
        -14    1    4    4    0    0  0.10501280286E+02 -0.76692981463E+01 -0.48193191982E+03  0.48210732245E+03  0.00000000000E+00 0.  1.
<mgrwt>
<rscale>  0 0.79215540E+02</rscale>
<asrwt>0</asrwt>
<pdfrwt beam="1">  1        2 0.16031809E+00 0.79215540E+02</pdfrwt>
<pdfrwt beam="2">  1       -1 0.23160693E-03 0.79215540E+02</pdfrwt>
<totfact> 0.36183793E+05</totfact>
</mgrwt>
</event>
<event>
 8    1  0.2676873E-016  0.8085972E+02  0.7818608E-02  0.1326629E+00
          2   -1    0    0  501    0  0.00000000000E+00  0.00000000000E+00  0.34551972834E+03  0.34551972835E+03  0.25500000000E-02 0. -1.
         -1   -1    0    0    0  501 -0.00000000000E+00 -0.00000000000E+00 -0.47307657911E+01  0.47307684758E+01  0.50400000000E-02 0.  1.
         24    2    1    2    0    0 -0.55511151231E-16 -0.17763568394E-14  0.34078896255E+03  0.35025049683E+03  0.80859715131E+02 0.  0.
         66    2    3    3    0    0 -0.45292211974E+00 -0.14545872960E+02  0.33376982829E+03  0.33409292992E+03  0.19999963657E+01 0.  0.
        -13    1    3    3    0    0  0.45292211974E+00  0.14545872960E+02  0.70191342598E+01  0.16157566909E+02  0.10566000000E+00 0.  1.
         13    1    4    4    0    0 -0.64417026837E+00 -0.56413002799E+01  0.12046992039E+03  0.12060369856E+03  0.10566000000E+00 0. -1.
        -13    1    4    4    0    0 -0.26326711156E+00 -0.40849110527E+01  0.86296614534E+02  0.86393707248E+02  0.10566000000E+00 0.  1.
        -14    1    4    4    0    0  0.45451526020E+00 -0.48196616274E+01  0.12700329337E+03  0.12709552411E+03  0.00000000000E+00 0.  1.
<mgrwt>
<rscale>  0 0.80859715E+02</rscale>
<asrwt>0</asrwt>
<pdfrwt beam="1">  1        2 0.53156883E-01 0.80859715E+02</pdfrwt>
<pdfrwt beam="2">  1       -1 0.72781031E-03 0.80859715E+02</pdfrwt>
<totfact> 0.26085413E+05</totfact>
</mgrwt>
</event>
<event>
 8    1  0.2676873E-016  0.7983381E+02  0.7818608E-02  0.1329524E+00
         -1   -1    0    0    0  501 -0.00000000000E+00  0.00000000000E+00  0.22369291353E+01  0.22369348131E+01  0.50400000000E-02 0.  1.
          2   -1    0    0  501    0  0.00000000000E+00 -0.00000000000E+00 -0.71229664211E+03  0.71229664212E+03  0.25500000000E-02 0. -1.
         24    2    1    2    0    0  0.00000000000E+00 -0.88817841970E-15 -0.71005971298E+03  0.71453357693E+03  0.79833805918E+02 0.  0.
         66    2    3    3    0    0 -0.10460910458E+02  0.53013156301E+01 -0.69651651595E+03  0.69661811030E+03  0.20000008564E+01 0.  0.
        -13    1    3    3    0    0  0.10460910458E+02 -0.53013156301E+01 -0.13543197024E+02  0.17915466633E+02  0.10566000000E+00 0.  1.
         13    1    4    4    0    0 -0.11935554206E+00  0.17922804859E-01 -0.19726128661E+02  0.19726780856E+02  0.10566000000E+00 0. -1.
        -13    1    4    4    0    0 -0.36646278164E+01  0.16929131989E+01 -0.20114652513E+03  0.20118705522E+03  0.10566000000E+00 0.  1.
        -14    1    4    4    0    0 -0.66769270994E+01  0.35904796263E+01 -0.47564386216E+03  0.47570427422E+03  0.00000000000E+00 0.  1.
<mgrwt>
<rscale>  0 0.79833806E+02</rscale>
<asrwt>0</asrwt>
<pdfrwt beam="1">  1        2 0.10958392E+00 0.79833806E+02</pdfrwt>
<pdfrwt beam="2">  1       -1 0.34414395E-03 0.79833806E+02</pdfrwt>
<totfact> 0.33765359E+05</totfact>
</mgrwt>
</event>
<event>
 8    1  0.2676873E-016  0.7750970E+02  0.7818608E-02  0.1336271E+00
          2   -1    0    0  501    0  0.00000000000E+00  0.00000000000E+00  0.89270280998E+03  0.89270280999E+03  0.25500000000E-02 0. -1.
         -1   -1    0    0    0  501 -0.00000000000E+00 -0.00000000000E+00 -0.16824579725E+01  0.16824655214E+01  0.50400000000E-02 0.  1.
         24    2    1    2    0    0  0.22204460493E-15  0.00000000000E+00  0.89102035201E+03  0.89438527551E+03  0.77509698417E+02 0.  0.
         66    2    3    3    0    0  0.16925486799E+01 -0.16477901798E+02  0.84976159540E+03  0.84992538201E+03  0.20000003524E+01 0.  0.
        -13    1    3    3    0    0 -0.16925486799E+01  0.16477901798E+02  0.41258756614E+02  0.44459893500E+02  0.10566000000E+00 0.  1.
         13    1    4    4    0    0 -0.51308927844E-01 -0.75076738033E+01  0.38163553781E+03  0.38170939559E+03  0.10566000000E+00 0.  1.
        -13    1    4    4    0    0  0.11844018563E+01 -0.61173848707E+01  0.33815573760E+03  0.33821315652E+03  0.10566000000E+00 0. -1.
        -14    1    4    4    0    0  0.55945575146E+00 -0.28528431239E+01  0.12997031999E+03  0.13000282990E+03  0.00000000000E+00 0.  1.
<mgrwt>
<rscale>  0 0.77509698E+02</rscale>
<asrwt>0</asrwt>
<pdfrwt beam="1">  1        2 0.13733915E+00 0.77509698E+02</pdfrwt>
<pdfrwt beam="2">  1       -1 0.25883978E-03 0.77509698E+02</pdfrwt>
<totfact> 0.37897663E+05</totfact>
</mgrwt>
</event>
<event>
 8    1  0.2676873E-016  0.8129580E+02  0.7818608E-02  0.1325414E+00
         -1   -1    0    0    0  501 -0.00000000000E+00  0.00000000000E+00  0.99520071471E+01  0.99520084233E+01  0.50400000000E-02 0.  1.
          2   -1    0    0  501    0  0.00000000000E+00 -0.00000000000E+00 -0.16602194682E+03  0.16602194684E+03  0.25500000000E-02 0. -1.
         24    2    1    2    0    0 -0.88817841970E-15  0.00000000000E+00 -0.15606993968E+03  0.17597395527E+03  0.81295798548E+02 0.  0.
         66    2    3    3    0    0 -0.60707805954E+01  0.39349090212E+02 -0.95539301868E+02  0.10352276787E+03  0.19999971369E+01 0.  0.
        -13    1    3    3    0    0  0.60707805954E+01 -0.39349090212E+02 -0.60530637809E+02  0.72451187397E+02  0.10566000000E+00 0.  1.
         13    1    4    4    0    0 -0.12838615187E+01  0.89102075932E+01 -0.22136038713E+02  0.23896767013E+02  0.10566000000E+00 0. -1.
        -13    1    4    4    0    0 -0.25548633258E+01  0.14004564153E+02 -0.35865845754E+02  0.38587889284E+02  0.10566000000E+00 0.  1.
         14    1    4    4    0    0 -0.22320557509E+01  0.16434318466E+02 -0.37537417401E+02  0.41038111573E+02  0.00000000000E+00 0. -1.
<mgrwt>
<rscale>  0 0.81295799E+02</rscale>
<asrwt>0</asrwt>
<pdfrwt beam="1">  1        2 0.25541836E-01 0.81295799E+02</pdfrwt>
<pdfrwt beam="2">  1       -1 0.15310783E-02 0.81295799E+02</pdfrwt>
<totfact> 0.19842423E+05</totfact>
</mgrwt>
</event>
<event>
 8    1  0.2676873E-016  0.7987532E+02  0.7818608E-02  0.1329406E+00
          2   -1    0    0  501    0  0.00000000000E+00  0.00000000000E+00  0.21321638040E+03  0.21321638042E+03  0.25500000000E-02 0. -1.
         -1   -1    0    0    0  501 -0.00000000000E+00 -0.00000000000E+00 -0.74807416868E+01  0.74807433846E+01  0.50400000000E-02 0.  1.
         24    2    1    2    0    0  0.00000000000E+00  0.00000000000E+00  0.20573563871E+03  0.22069712380E+03  0.79875324205E+02 0.  0.
         66    2    3    3    0    0  0.19867725389E+02  0.34339674315E+02  0.11499870376E+03  0.12166610708E+03  0.20000002279E+01 0.  0.
        -13    1    3    3    0    0 -0.19867725389E+02 -0.34339674315E+02  0.90736934957E+02  0.99031016725E+02  0.10566000000E+00 0.  1.
         13    1    4    4    0    0  0.75978998143E+01  0.12934664366E+02  0.42049532090E+02  0.44645357395E+02  0.10566000000E+00 0. -1.
        -13    1    4    4    0    0  0.50324944614E+01  0.87604300553E+01  0.27800503415E+02  0.29579558642E+02  0.10566000000E+00 0.  1.
        -14    1    4    4    0    0  0.72373311134E+01  0.12644579893E+02  0.45148668251E+02  0.47441191039E+02  0.00000000000E+00 0.  1.
<mgrwt>
<rscale>  0 0.79875324E+02</rscale>
<asrwt>0</asrwt>
<pdfrwt beam="1">  1        2 0.32802516E-01 0.79875324E+02</pdfrwt>
<pdfrwt beam="2">  1       -1 0.11508836E-02 0.79875324E+02</pdfrwt>
<totfact> 0.22650041E+05</totfact>
</mgrwt>
</event>
<event>
 8    1  0.2676873E-016  0.7824777E+02  0.7818608E-02  0.1334099E+00
         -1   -1    0    0    0  501 -0.00000000000E+00  0.00000000000E+00  0.19160932834E+01  0.19160999119E+01  0.50400000000E-02 0.  1.
          2   -1    0    0  501    0  0.00000000000E+00 -0.00000000000E+00 -0.79885237484E+03  0.79885237485E+03  0.25500000000E-02 0. -1.
         24    2    1    2    0    0 -0.35527136788E-14  0.00000000000E+00 -0.79693628156E+03  0.80076847476E+03  0.78247768670E+02 0.  0.
         66    2    3    3    0    0 -0.30835773510E+02 -0.46210084458E+01 -0.64013911355E+03  0.64090114943E+03  0.20000002238E+01 0.  0.
        -13    1    3    3    0    0  0.30835773510E+02  0.46210084458E+01 -0.15679716801E+03  0.15986732533E+03  0.10566000000E+00 0.  1.
         13    1    4    4    0    0 -0.17307447354E+02 -0.31478290845E+01 -0.35429173800E+03  0.35472821053E+03  0.10566000000E+00 0. -1.
        -13    1    4    4    0    0 -0.10136728026E+02 -0.67147068150E+00 -0.21495934215E+03  0.21519928920E+03  0.10566000000E+00 0.  1.
        -14    1    4    4    0    0 -0.33915981299E+01 -0.80170867980E+00 -0.70888033396E+02  0.70973649712E+02  0.00000000000E+00 0.  1.
<mgrwt>
<rscale>  0 0.78247769E+02</rscale>
<asrwt>0</asrwt>
<pdfrwt beam="1">  1        2 0.12290010E+00 0.78247769E+02</pdfrwt>
<pdfrwt beam="2">  1       -1 0.29478473E-03 0.78247769E+02</pdfrwt>
<totfact> 0.36389249E+05</totfact>
</mgrwt>
</event>
<event>
 8    1  0.2676873E-016  0.7973840E+02  0.7818608E-02  0.1329795E+00
          2   -1    0    0  501    0  0.00000000000E+00  0.00000000000E+00  0.91935241259E+02  0.91935241294E+02  0.25500000000E-02 0. -1.
         -1   -1    0    0    0  501 -0.00000000000E+00 -0.00000000000E+00 -0.17289919665E+02  0.17289920400E+02  0.50400000000E-02 0.  1.
         24    2    1    2    0    0 -0.35527136788E-14 -0.35527136788E-14  0.74645321594E+02  0.10922516169E+03  0.79738396718E+02 0.  0.
         66    2    3    3    0    0  0.20899941036E+02  0.16877539633E+02  0.77653620159E+02  0.82193330390E+02  0.19999893684E+01 0.  0.
        -13    1    3    3    0    0 -0.20899941036E+02 -0.16877539633E+02 -0.30082985644E+01  0.27031831304E+02  0.10566000000E+00 0.  1.
         13    1    4    4    0    0  0.43172359693E+01  0.42006494753E+01  0.16643838542E+02  0.17700635805E+02  0.10566000000E+00 0. -1.
        -13    1    4    4    0    0  0.15848883729E+02  0.12364144248E+02  0.59003813816E+02  0.62333942498E+02  0.10566000000E+00 0.  1.
        -14    1    4    4    0    0  0.73382133772E+00  0.31274590946E+00  0.20059677999E+01  0.21587520872E+01  0.00000000000E+00 0.  1.
<mgrwt>
<rscale>  0 0.79738397E+02</rscale>
<asrwt>0</asrwt>
<pdfrwt beam="1">  1        2 0.14143883E-01 0.79738397E+02</pdfrwt>
<pdfrwt beam="2">  1       -1 0.26599877E-02 0.79738397E+02</pdfrwt>
<totfact> 0.17472881E+05</totfact>
</mgrwt>
</event>
<event>
 8    1  0.2676873E-016  0.7325172E+02  0.7818608E-02  0.1349372E+00
          2   -1    0    0  501    0  0.00000000000E+00  0.00000000000E+00  0.51018046016E+02  0.51018046079E+02  0.25500000000E-02 0. -1.
         -1   -1    0    0    0  501 -0.00000000000E+00 -0.00000000000E+00 -0.26293711204E+02  0.26293711687E+02  0.50400000000E-02 0.  1.
         24    2    1    2    0    0  0.35527136788E-14  0.00000000000E+00  0.24724334812E+02  0.77311757766E+02  0.73251724601E+02 0.  0.
         66    2    3    3    0    0  0.30262383987E+02  0.45894343055E+01  0.33547684381E+02  0.45456813825E+02  0.20000009869E+01 0.  0.
        -13    1    3    3    0    0 -0.30262383987E+02 -0.45894343055E+01 -0.88233495687E+01  0.31854943941E+02  0.10566000000E+00 0.  1.
         13    1    4    4    0    0  0.32708496228E+01  0.44528901828E+00  0.28381629839E+01  0.43546610343E+01  0.10566000000E+00 0. -1.
        -13    1    4    4    0    0  0.11755943299E+02  0.15910194611E+01  0.13804971578E+02  0.18202251237E+02  0.10566000000E+00 0.  1.
         14    1    4    4    0    0  0.15235591065E+02  0.25531258262E+01  0.16904549819E+02  0.22899901554E+02  0.00000000000E+00 0. -1.
<mgrwt>
<rscale>  0 0.73251725E+02</rscale>
<asrwt>0</asrwt>
<pdfrwt beam="1">  1        2 0.78489301E-02 0.73251725E+02</pdfrwt>
<pdfrwt beam="2">  1       -1 0.40451864E-02 0.73251725E+02</pdfrwt>
<totfact> 0.19071183E+05</totfact>
</mgrwt>
</event>
<event>
 8    1  0.2832627E-016  0.7961054E+02  0.7818608E-02  0.1330160E+00
          2   -1    0    0  501    0  0.00000000000E+00  0.00000000000E+00  0.90303331972E+02  0.90303332008E+02  0.25500000000E-02 0. -1.
         -1   -1    0    0    0  501 -0.00000000000E+00 -0.00000000000E+00 -0.17545969749E+02  0.17545970473E+02  0.50400000000E-02 0.  1.
         24    2    1    2    0    0  0.88817841970E-15  0.00000000000E+00  0.72757362223E+02  0.10784930248E+03  0.79610541312E+02 0.  0.
         66    2    3    3    0    0 -0.57781101813E+01 -0.11707427571E+02  0.87307082622E+02  0.88300493173E+02  0.20000002466E+01 0.  0.
        -13    1    3    3    0    0  0.57781101813E+01  0.11707427571E+02 -0.14549720400E+02  0.19548809308E+02  0.10566000000E+00 0.  1.
         13    1    4    4    0    0 -0.38615734014E+01 -0.76621140796E+01  0.54408312140E+02  0.55080807322E+02  0.10566000000E+00 0. -1.
        -13    1    4    4    0    0 -0.57509749683E+00 -0.22849752115E+01  0.14935404584E+02  0.15120493476E+02  0.10566000000E+00 0.  1.
        -14    1    4    4    0    0 -0.13414392832E+01 -0.17603382802E+01  0.17963365899E+02  0.18099192375E+02  0.00000000000E+00 0.  1.
<mgrwt>
<rscale>  0 0.79610541E+02</rscale>
<asrwt>0</asrwt>
<pdfrwt beam="1">  1        2 0.13892821E-01 0.79610541E+02</pdfrwt>
<pdfrwt beam="2">  1       -1 0.26993800E-02 0.79610541E+02</pdfrwt>
<totfact> 0.17463677E+05</totfact>
</mgrwt>
</event>
<event>
 8    1  0.2676873E-016  0.7926541E+02  0.7818608E-02  0.1331149E+00
          2   -1    0    0  501    0  0.00000000000E+00  0.00000000000E+00  0.12824069460E+04  0.12824069460E+04  0.25500000000E-02 0. -1.
         -1   -1    0    0    0  501 -0.00000000000E+00 -0.00000000000E+00 -0.12248410585E+01  0.12248514278E+01  0.50400000000E-02 0.  1.
         24    2    1    2    0    0  0.17763568394E-14  0.00000000000E+00  0.12811821050E+04  0.12836317975E+04  0.79265410816E+02 0.  0.
         66    2    3    3    0    0 -0.13853253690E+02 -0.21650810541E+02  0.11289955653E+04  0.11292898905E+04  0.19999988546E+01 0.  0.
        -13    1    3    3    0    0  0.13853253690E+02  0.21650810541E+02  0.15218653966E+03  0.15434190699E+03  0.10566000000E+00 0.  1.
         13    1    4    4    0    0 -0.45790379469E+01 -0.58316870363E+01  0.33387045210E+03  0.33395279024E+03  0.10566000000E+00 0. -1.
        -13    1    4    4    0    0 -0.47409926915E+00 -0.12286787326E+01  0.60135831297E+02  0.60150343235E+02  0.10566000000E+00 0.  1.
         14    1    4    4    0    0 -0.88001164742E+01 -0.14590444773E+02  0.73498928193E+03  0.73518675700E+03  0.00000000000E+00 0. -1.
<mgrwt>
<rscale>  0 0.79265411E+02</rscale>
<asrwt>0</asrwt>
<pdfrwt beam="1">  1        2 0.19729422E+00 0.79265411E+02</pdfrwt>
<pdfrwt beam="2">  1       -1 0.18843708E-03 0.79265411E+02</pdfrwt>
<totfact> 0.35545896E+05</totfact>
</mgrwt>
</event>
<event>
 8    1  0.2676873E-016  0.7863559E+02  0.7818608E-02  0.1332969E+00
         -1   -1    0    0    0  501 -0.00000000000E+00  0.00000000000E+00  0.25721707253E+01  0.25721756631E+01  0.50400000000E-02 0.  1.
          2   -1    0    0  501    0  0.00000000000E+00 -0.00000000000E+00 -0.60100508564E+03  0.60100508565E+03  0.25500000000E-02 0. -1.
         24    2    1    2    0    0  0.00000000000E+00  0.00000000000E+00 -0.59843291492E+03  0.60357726131E+03  0.78635594456E+02 0.  0.
         66    2    3    3    0    0 -0.24646653994E+02  0.17601684717E+02 -0.49154666920E+03  0.49248289807E+03  0.20000061235E+01 0.  0.
        -13    1    3    3    0    0  0.24646653994E+02 -0.17601684717E+02 -0.10688624571E+03  0.11109436325E+03  0.10566000000E+00 0.  1.
         13    1    4    4    0    0 -0.20522978404E+01  0.17881620148E+01 -0.44257563516E+02  0.44341318679E+02  0.10566000000E+00 0. -1.
        -13    1    4    4    0    0 -0.48806354216E+00  0.65393445529E+00 -0.13902698735E+02  0.13927025254E+02  0.10566000000E+00 0.  1.
         14    1    4    4    0    0 -0.22106292612E+02  0.15159588247E+02 -0.43338640695E+03  0.43421455413E+03  0.00000000000E+00 0. -1.
<mgrwt>
<rscale>  0 0.78635594E+02</rscale>
<asrwt>0</asrwt>
<pdfrwt beam="1">  1        2 0.92462209E-01 0.78635594E+02</pdfrwt>
<pdfrwt beam="2">  1       -1 0.39571943E-03 0.78635594E+02</pdfrwt>
<totfact> 0.33650309E+05</totfact>
</mgrwt>
</event>
<event>
 8    1  0.2676873E-016  0.8308119E+02  0.7818608E-02  0.1320528E+00
         -1   -1    0    0    0  501 -0.00000000000E+00  0.00000000000E+00  0.12135499009E+02  0.12135500056E+02  0.50400000000E-02 0.  1.
          2   -1    0    0  501    0  0.00000000000E+00 -0.00000000000E+00 -0.14219612699E+03  0.14219612701E+03  0.25500000000E-02 0. -1.
         24    2    1    2    0    0 -0.16653345369E-15 -0.35527136788E-14 -0.13006062798E+03  0.15433162706E+03  0.83081190186E+02 0.  0.
         66    2    3    3    0    0 -0.33233417737E+00 -0.26118115868E+02 -0.12501255434E+03  0.12772785602E+03  0.20000092234E+01 0.  0.
        -13    1    3    3    0    0  0.33233417737E+00  0.26118115868E+02 -0.50480736328E+01  0.26603771047E+02  0.10566000000E+00 0.  1.
         13    1    4    4    0    0  0.17580792498E+00 -0.11206516544E+02 -0.56823286860E+02  0.57918166537E+02  0.10566000000E+00 0. -1.
        -13    1    4    4    0    0  0.27715007849E-01 -0.55231555735E+01 -0.23283301052E+02  0.23929673787E+02  0.10566000000E+00 0.  1.
         14    1    4    4    0    0 -0.53585711019E+00 -0.93884437500E+01 -0.44905966431E+02  0.45880015693E+02  0.00000000000E+00 0. -1.
<mgrwt>
<rscale>  0 0.83081190E+02</rscale>
<asrwt>0</asrwt>
<pdfrwt beam="1">  1        2 0.21876326E-01 0.83081190E+02</pdfrwt>
<pdfrwt beam="2">  1       -1 0.18670000E-02 0.83081190E+02</pdfrwt>
<totfact> 0.17806327E+05</totfact>
</mgrwt>
</event>
<event>
 8    1  0.2676873E-016  0.7888344E+02  0.7818608E-02  0.1332250E+00
         -1   -1    0    0    0  501 -0.00000000000E+00  0.00000000000E+00  0.17632481318E+01  0.17632553349E+01  0.50400000000E-02 0.  1.
          2   -1    0    0  501    0  0.00000000000E+00 -0.00000000000E+00 -0.88226165224E+03  0.88226165224E+03  0.25500000000E-02 0. -1.
         24    2    1    2    0    0 -0.17763568394E-14  0.00000000000E+00 -0.88049840411E+03  0.88402490758E+03  0.78883443018E+02 0.  0.
         66    2    3    3    0    0 -0.85524205054E+01  0.11430573331E+02 -0.85226870148E+03  0.85239060377E+03  0.19999908128E+01 0.  0.
        -13    1    3    3    0    0  0.85524205054E+01 -0.11430573331E+02 -0.28229702628E+02  0.31634303812E+02  0.10566000000E+00 0.  1.
         13    1    4    4    0    0 -0.17427555004E+01  0.33280718451E+01 -0.21886380087E+03  0.21889606610E+03  0.10566000000E+00 0.  1.
        -13    1    4    4    0    0 -0.61375875017E+01  0.70948954607E+01 -0.53591513624E+03  0.53599724994E+03  0.10566000000E+00 0. -1.
         14    1    4    4    0    0 -0.67207750331E+00  0.10076060255E+01 -0.97489764375E+02  0.97497287736E+02  0.00000000000E+00 0. -1.
<mgrwt>
<rscale>  0 0.78883443E+02</rscale>
<asrwt>0</asrwt>
<pdfrwt beam="1">  1        2 0.13573221E+00 0.78883443E+02</pdfrwt>
<pdfrwt beam="2">  1       -1 0.27127020E-03 0.78883443E+02</pdfrwt>
<totfact> 0.36161218E+05</totfact>
</mgrwt>
</event>
<event>
 8    1  0.2676873E-016  0.8015957E+02  0.7818608E-02  0.1328599E+00
          2   -1    0    0  501    0  0.00000000000E+00  0.00000000000E+00  0.14778476985E+03  0.14778476988E+03  0.25500000000E-02 0. -1.
         -1   -1    0    0    0  501 -0.00000000000E+00 -0.00000000000E+00 -0.10869786885E+02  0.10869788054E+02  0.50400000000E-02 0.  1.
         24    2    1    2    0    0  0.35527136788E-14  0.00000000000E+00  0.13691498297E+03  0.15865455793E+03  0.80159567055E+02 0.  0.
         66    2    3    3    0    0  0.20604773222E+02 -0.12286963038E+02  0.13198554008E+03  0.13416299384E+03  0.19999963022E+01 0.  0.
        -13    1    3    3    0    0 -0.20604773222E+02  0.12286963038E+02  0.49294428842E+01  0.24491564087E+02  0.10566000000E+00 0.  1.
         13    1    4    4    0    0  0.87182854853E+01 -0.41748597189E+01  0.53289002227E+02  0.54158719315E+02  0.10566000000E+00 0. -1.
        -13    1    4    4    0    0  0.48595499027E+00 -0.38287851793E+00  0.38831861824E+01  0.39335794355E+01  0.10566000000E+00 0.  1.
        -14    1    4    4    0    0  0.11400532746E+02 -0.77292248012E+01  0.74813351676E+02  0.76070695093E+02  0.00000000000E+00 0.  1.
<mgrwt>
<rscale>  0 0.80159567E+02</rscale>
<asrwt>0</asrwt>
<pdfrwt beam="1">  1        2 0.22736117E-01 0.80159567E+02</pdfrwt>
<pdfrwt beam="2">  1       -1 0.16722751E-02 0.80159567E+02</pdfrwt>
<totfact> 0.19829263E+05</totfact>
</mgrwt>
</event>
<event>
 8    1  0.2676873E-016  0.7980158E+02  0.7818608E-02  0.1329615E+00
         -1   -1    0    0    0  501 -0.00000000000E+00  0.00000000000E+00  0.68352177391E+02  0.68352177577E+02  0.50400000000E-02 0.  1.
          2   -1    0    0  501    0  0.00000000000E+00 -0.00000000000E+00 -0.23292209375E+02  0.23292209514E+02  0.25500000000E-02 0. -1.
         24    2    1    2    0    0  0.44408920985E-15  0.00000000000E+00  0.45059968016E+02  0.91644387091E+02  0.79801584995E+02 0.  0.
         66    2    3    3    0    0  0.19677455561E+01 -0.18348488358E+02 -0.18050438550E+02  0.25891260712E+02  0.20000004545E+01 0.  0.
        -13    1    3    3    0    0 -0.19677455561E+01  0.18348488358E+02  0.63110406566E+02  0.65753126379E+02  0.10566000000E+00 0.  1.
         13    1    4    4    0    0 -0.26607876187E+00 -0.35173927344E+01 -0.37544687823E+01  0.51526740075E+01  0.10566000000E+00 0. -1.
        -13    1    4    4    0    0  0.11549567154E+01 -0.98406113871E+01 -0.90860718116E+01  0.13443936272E+02  0.10566000000E+00 0.  1.
         14    1    4    4    0    0  0.10788676026E+01 -0.49904842362E+01 -0.52098979565E+01  0.72946504326E+01  0.00000000000E+00 0. -1.
<mgrwt>
<rscale>  0 0.79801585E+02</rscale>
<asrwt>0</asrwt>
<pdfrwt beam="1">  1        2 0.35834168E-02 0.79801585E+02</pdfrwt>
<pdfrwt beam="2">  1       -1 0.10515720E-01 0.79801585E+02</pdfrwt>
<totfact> 0.12890714E+05</totfact>
</mgrwt>
</event>
<event>
 8    1  0.2676873E-016  0.8510892E+02  0.7818608E-02  0.1315148E+00
          2   -1    0    0  501    0  0.00000000000E+00  0.00000000000E+00  0.67622520861E+03  0.67622520862E+03  0.25500000000E-02 0. -1.
         -1   -1    0    0    0  501 -0.00000000000E+00 -0.00000000000E+00 -0.26779249059E+01  0.26779296487E+01  0.50400000000E-02 0.  1.
         24    2    1    2    0    0 -0.44408920985E-15  0.00000000000E+00  0.67354728370E+03  0.67890313826E+03  0.85108917035E+02 0.  0.
         66    2    3    3    0    0 -0.26476523545E+01  0.16624667555E+02  0.64851575985E+03  0.64873729691E+03  0.19999972833E+01 0.  0.
        -13    1    3    3    0    0  0.26476523545E+01 -0.16624667555E+02  0.25031523854E+02  0.30165841357E+02  0.10566000000E+00 0.  1.
         13    1    4    4    0    0 -0.25314650927E+00  0.45091756307E+01  0.14728465645E+03  0.14735392068E+03  0.10566000000E+00 0.  1.
        -13    1    4    4    0    0 -0.84976578136E+00  0.51934577879E+01  0.21240959592E+03  0.21247480252E+03  0.10566000000E+00 0. -1.
        -14    1    4    4    0    0 -0.15447400639E+01  0.69220341361E+01  0.28882150748E+03  0.28890857371E+03  0.00000000000E+00 0.  1.
<mgrwt>
<rscale>  0 0.85108917E+02</rscale>
<asrwt>0</asrwt>
<pdfrwt beam="1">  1        2 0.10403464E+00 0.85108917E+02</pdfrwt>
<pdfrwt beam="2">  1       -1 0.41198885E-03 0.85108917E+02</pdfrwt>
<totfact> 0.28234104E+05</totfact>
</mgrwt>
</event>
<event>
 8    1  0.2676873E-016  0.7981842E+02  0.7818608E-02  0.1329568E+00
          2   -1    0    0  501    0  0.00000000000E+00  0.00000000000E+00  0.54593251944E+03  0.54593251944E+03  0.25500000000E-02 0. -1.
         -1   -1    0    0    0  501 -0.00000000000E+00 -0.00000000000E+00 -0.29174739694E+01  0.29174783227E+01  0.50400000000E-02 0.  1.
         24    2    1    2    0    0 -0.17763568394E-14  0.35527136788E-14  0.54301504547E+03  0.54884999776E+03  0.79818421703E+02 0.  0.
         66    2    3    3    0    0 -0.15970769045E+02 -0.31902563785E+02  0.39427922996E+03  0.39589512527E+03  0.19999996432E+01 0.  0.
        -13    1    3    3    0    0  0.15970769045E+02  0.31902563785E+02  0.14873581551E+03  0.15295487249E+03  0.10566000000E+00 0.  1.
         13    1    4    4    0    0 -0.52830980390E+01 -0.11036436401E+02  0.14271346909E+03  0.14323707438E+03  0.10566000000E+00 0. -1.
        -13    1    4    4    0    0 -0.61592101888E+00 -0.16762343571E+01  0.20875805450E+02  0.20952315804E+02  0.10566000000E+00 0.  1.
        -14    1    4    4    0    0 -0.10071749987E+02 -0.19189893026E+02  0.23068995542E+03  0.23170573509E+03  0.00000000000E+00 0.  1.
<mgrwt>
<rscale>  0 0.79818422E+02</rscale>
<asrwt>0</asrwt>
<pdfrwt beam="1">  1        2 0.83989684E-01 0.79818422E+02</pdfrwt>
<pdfrwt beam="2">  1       -1 0.44884214E-03 0.79818422E+02</pdfrwt>
<totfact> 0.31478754E+05</totfact>
</mgrwt>
</event>
<event>
 8    1  0.2676873E-016  0.8776600E+02  0.7818608E-02  0.1308354E+00
         -1   -1    0    0    0  501 -0.00000000000E+00  0.00000000000E+00  0.99499540903E+01  0.99499553667E+01  0.50400000000E-02 0.  1.
          2   -1    0    0  501    0  0.00000000000E+00 -0.00000000000E+00 -0.19354035947E+03  0.19354035949E+03  0.25500000000E-02 0. -1.
         24    2    1    2    0    0 -0.88817841970E-15  0.00000000000E+00 -0.18359040538E+03  0.20349031485E+03  0.87766003052E+02 0.  0.
         66    2    3    3    0    0  0.41315669545E+01  0.31401160110E+02 -0.16219130875E+03  0.16526682466E+03  0.19999997504E+01 0.  0.
        -13    1    3    3    0    0 -0.41315669545E+01 -0.31401160110E+02 -0.21399096634E+02  0.38223490193E+02  0.10566000000E+00 0.  1.
         13    1    4    4    0    0  0.14092444125E+01  0.72939736052E+01 -0.38069638432E+02  0.38787840300E+02  0.10566000000E+00 0. -1.
        -13    1    4    4    0    0  0.31901056678E+00  0.71894791987E+01 -0.34465190550E+02  0.35208676525E+02  0.10566000000E+00 0.  1.
        -14    1    4    4    0    0  0.24033119751E+01  0.16917707306E+02 -0.89656479764E+02  0.91270307836E+02  0.00000000000E+00 0.  1.
<mgrwt>
<rscale>  0 0.87766003E+02</rscale>
<asrwt>0</asrwt>
<pdfrwt beam="1">  1        2 0.29775437E-01 0.87766003E+02</pdfrwt>
<pdfrwt beam="2">  1       -1 0.15307624E-02 0.87766003E+02</pdfrwt>
<totfact> 0.17056429E+05</totfact>
</mgrwt>
</event>
<event>
 8    1  0.2676873E-016  0.8038537E+02  0.7818608E-02  0.1327961E+00
         -1   -1    0    0    0  501 -0.00000000000E+00  0.00000000000E+00  0.12512590313E+03  0.12512590323E+03  0.50400000000E-02 0.  1.
          2   -1    0    0  501    0  0.00000000000E+00 -0.00000000000E+00 -0.12910611144E+02  0.12910611396E+02  0.25500000000E-02 0. -1.
         24    2    1    2    0    0  0.71054273576E-14  0.00000000000E+00  0.11221529199E+03  0.13803651463E+03  0.80385369410E+02 0.  0.
         66    2    3    3    0    0  0.36716443936E+02  0.10759006156E+02  0.35139669086E+02  0.51987015628E+02  0.19999954001E+01 0.  0.
        -13    1    3    3    0    0 -0.36716443936E+02 -0.10759006156E+02  0.77075622902E+02  0.86049499002E+02  0.10566000000E+00 0.  1.
         13    1    4    4    0    0  0.32744905217E+02  0.92390028397E+01  0.31480884807E+02  0.46353481676E+02  0.10566000000E+00 0. -1.
        -13    1    4    4    0    0  0.36858324687E+01  0.13093378759E+01  0.34778493912E+01  0.52351052601E+01  0.10566000000E+00 0.  1.
        -14    1    4    4    0    0  0.28570624997E+00  0.21066544005E+00  0.18093488796E+00  0.39842869197E+00  0.00000000000E+00 0.  1.
<mgrwt>
<rscale>  0 0.80385369E+02</rscale>
<asrwt>0</asrwt>
<pdfrwt beam="1">  1        2 0.19862479E-02 0.80385369E+02</pdfrwt>
<pdfrwt beam="2">  1       -1 0.19250139E-01 0.80385369E+02</pdfrwt>
<totfact> 0.11139471E+05</totfact>
</mgrwt>
</event>
<event>
 8    1  0.2676873E-016  0.8098836E+02  0.7818608E-02  0.1326270E+00
         -1   -1    0    0    0  501 -0.00000000000E+00  0.00000000000E+00  0.50195355372E+01  0.50195380675E+01  0.50400000000E-02 0.  1.
          2   -1    0    0  501    0  0.00000000000E+00 -0.00000000000E+00 -0.32667924196E+03  0.32667924197E+03  0.25500000000E-02 0. -1.
         24    2    1    2    0    0  0.00000000000E+00  0.00000000000E+00 -0.32165970643E+03  0.33169878004E+03  0.80988356832E+02 0.  0.
         66    2    3    3    0    0 -0.13982252613E+02  0.37094412280E+02 -0.12758538943E+03  0.13361710373E+03  0.20000003168E+01 0.  0.
        -13    1    3    3    0    0  0.13982252613E+02 -0.37094412280E+02 -0.19407431700E+03  0.19808167632E+03  0.10566000000E+00 0.  1.
         13    1    4    4    0    0 -0.52585660057E+01  0.13915780953E+02 -0.47624000328E+02  0.49893466980E+02  0.10566000000E+00 0. -1.
        -13    1    4    4    0    0 -0.34159179024E+01  0.93333710050E+01 -0.29552987198E+02  0.31179649225E+02  0.10566000000E+00 0.  1.
        -14    1    4    4    0    0 -0.53077687054E+01  0.13845260322E+02 -0.50408401904E+02  0.52543987521E+02  0.00000000000E+00 0.  1.
<mgrwt>
<rscale>  0 0.80988357E+02</rscale>
<asrwt>0</asrwt>
<pdfrwt beam="1">  1        2 0.50258328E-01 0.80988357E+02</pdfrwt>
<pdfrwt beam="2">  1       -1 0.77223669E-03 0.80988357E+02</pdfrwt>
<totfact> 0.25458790E+05</totfact>
</mgrwt>
</event>
<event>
 8    1  0.2676873E-016  0.7996886E+02  0.7818608E-02  0.1329140E+00
         -1   -1    0    0    0  501 -0.00000000000E+00  0.00000000000E+00  0.62284101495E+01  0.62284121887E+01  0.50400000000E-02 0.  1.
          2   -1    0    0  501    0  0.00000000000E+00 -0.00000000000E+00 -0.25668741872E+03  0.25668741873E+03  0.25500000000E-02 0. -1.
         24    2    1    2    0    0 -0.17763568394E-14  0.00000000000E+00 -0.25045900857E+03  0.26291583092E+03  0.79968863784E+02 0.  0.
         66    2    3    3    0    0 -0.14248699580E+02 -0.35310489198E+02 -0.16515477853E+03  0.16949913587E+03  0.20000257254E+01 0.  0.
        -13    1    3    3    0    0  0.14248699580E+02  0.35310489198E+02 -0.85304230041E+02  0.93416695050E+02  0.10566000000E+00 0.  1.
         13    1    4    4    0    0 -0.99917142001E+01 -0.22776288225E+02 -0.10694884320E+03  0.10980282275E+03  0.10566000000E+00 0. -1.
        -13    1    4    4    0    0 -0.57937742780E+00 -0.17755741876E+01 -0.92747285993E+01  0.94615060389E+01  0.10566000000E+00 0.  1.
         14    1    4    4    0    0 -0.36776079521E+01 -0.10758626785E+02 -0.48931206725E+02  0.50234807078E+02  0.00000000000E+00 0. -1.
<mgrwt>
<rscale>  0 0.79968864E+02</rscale>
<asrwt>0</asrwt>
<pdfrwt beam="1">  1        2 0.39490364E-01 0.79968864E+02</pdfrwt>
<pdfrwt beam="2">  1       -1 0.95821731E-03 0.79968864E+02</pdfrwt>
<totfact> 0.24120099E+05</totfact>
</mgrwt>
</event>
<event>
 8    1  0.2676873E-016  0.7868779E+02  0.7818608E-02  0.1332817E+00
         -1   -1    0    0    0  501 -0.00000000000E+00  0.00000000000E+00  0.38530233813E+02  0.38530234142E+02  0.50400000000E-02 0.  1.
          2   -1    0    0  501    0  0.00000000000E+00 -0.00000000000E+00 -0.40174742162E+02  0.40174742243E+02  0.25500000000E-02 0. -1.
         24    2    1    2    0    0  0.35527136788E-14  0.00000000000E+00 -0.16445083491E+01  0.78704976385E+02  0.78687793844E+02 0.  0.
         66    2    3    3    0    0 -0.19310988531E+02 -0.34142553807E+02 -0.35268957518E+01  0.39434340982E+02  0.19999991332E+01 0.  0.
        -13    1    3    3    0    0  0.19310988531E+02  0.34142553807E+02  0.18823874027E+01  0.39270635402E+02  0.10566000000E+00 0.  1.
         13    1    4    4    0    0 -0.30763644488E+01 -0.60714503355E+01 -0.38861524092E-01  0.68072903311E+01  0.10566000000E+00 0. -1.
        -13    1    4    4    0    0 -0.33463566564E+01 -0.51545855803E+01 -0.53763525749E+00  0.61699328264E+01  0.10566000000E+00 0.  1.
         14    1    4    4    0    0 -0.12888267426E+02 -0.22916517892E+02 -0.29503989702E+01  0.26457117825E+02  0.00000000000E+00 0. -1.
<mgrwt>
<rscale>  0 0.78687794E+02</rscale>
<asrwt>0</asrwt>
<pdfrwt beam="1">  1        2 0.61807295E-02 0.78687794E+02</pdfrwt>
<pdfrwt beam="2">  1       -1 0.59277284E-02 0.78687794E+02</pdfrwt>
<totfact> 0.14934487E+05</totfact>
</mgrwt>
</event>
<event>
 8    1  0.2676873E-016  0.8007341E+02  0.7818608E-02  0.1328843E+00
          2   -1    0    0  501    0  0.00000000000E+00  0.00000000000E+00  0.45442270652E+03  0.45442270652E+03  0.25500000000E-02 0. -1.
         -1   -1    0    0    0  501 -0.00000000000E+00 -0.00000000000E+00 -0.35274133902E+01  0.35274169908E+01  0.50400000000E-02 0.  1.
         24    2    1    2    0    0  0.00000000000E+00  0.35527136788E-14  0.45089529313E+03  0.45795012351E+03  0.80073405470E+02 0.  0.
         66    2    3    3    0    0  0.24832886023E+02  0.28429074974E+02  0.30147107962E+03  0.30383169088E+03  0.20000006784E+01 0.  0.
        -13    1    3    3    0    0 -0.24832886023E+02 -0.28429074974E+02  0.14942421350E+03  0.15411843263E+03  0.10566000000E+00 0.  1.
         13    1    4    4    0    0  0.53866749674E+01  0.59110519416E+01  0.66230934289E+02  0.66712102524E+02  0.10566000000E+00 0. -1.
        -13    1    4    4    0    0  0.93963586188E+01  0.97283660310E+01  0.10876167173E+03  0.10959947565E+03  0.10566000000E+00 0.  1.
         14    1    4    4    0    0  0.10049852437E+02  0.12789657002E+02  0.12647847360E+03  0.12752011271E+03  0.00000000000E+00 0. -1.
<mgrwt>
<rscale>  0 0.80073405E+02</rscale>
<asrwt>0</asrwt>
<pdfrwt beam="1">  1        2 0.69911163E-01 0.80073405E+02</pdfrwt>
<pdfrwt beam="2">  1       -1 0.54267944E-03 0.80073405E+02</pdfrwt>
<totfact> 0.29444488E+05</totfact>
</mgrwt>
</event>
<event>
 8    1  0.2676873E-016  0.7979242E+02  0.7818608E-02  0.1329642E+00
          2   -1    0    0  501    0  0.00000000000E+00  0.00000000000E+00  0.36199413062E+03  0.36199413063E+03  0.25500000000E-02 0. -1.
         -1   -1    0    0    0  501 -0.00000000000E+00 -0.00000000000E+00 -0.43970515243E+01  0.43970544128E+01  0.50400000000E-02 0.  1.
         24    2    1    2    0    0 -0.71054273576E-14  0.00000000000E+00  0.35759707910E+03  0.36639118504E+03  0.79792415044E+02 0.  0.
         66    2    3    3    0    0 -0.38949598078E+02  0.50845069184E+01  0.21031629809E+03  0.21396230648E+03  0.19999880523E+01 0.  0.
        -13    1    3    3    0    0  0.38949598078E+02 -0.50845069184E+01  0.14728078101E+03  0.15242887856E+03  0.10566000000E+00 0.  1.
         13    1    4    4    0    0 -0.35900847614E+02  0.47040656626E+01  0.19226974433E+03  0.19564934153E+03  0.10566000000E+00 0. -1.
        -13    1    4    4    0    0 -0.25849014554E+01  0.29037642126E+00  0.16147696319E+02  0.16356200489E+02  0.10566000000E+00 0.  1.
         14    1    4    4    0    0 -0.46384900815E+00  0.90064834554E-01  0.18988574387E+01  0.19567644593E+01  0.00000000000E+00 0. -1.
<mgrwt>
<rscale>  0 0.79792415E+02</rscale>
<asrwt>0</asrwt>
<pdfrwt beam="1">  1        2 0.55691387E-01 0.79792415E+02</pdfrwt>
<pdfrwt beam="2">  1       -1 0.67646991E-03 0.79792415E+02</pdfrwt>
<totfact> 0.27460860E+05</totfact>
</mgrwt>
</event>
<event>
 8    1  0.2676873E-016  0.8062769E+02  0.7818608E-02  0.1327280E+00
         -1   -1    0    0    0  501 -0.00000000000E+00  0.00000000000E+00  0.31169019993E+01  0.31169060741E+01  0.50400000000E-02 0.  1.
          2   -1    0    0  501    0  0.00000000000E+00 -0.00000000000E+00 -0.52141680084E+03  0.52141680085E+03  0.25500000000E-02 0. -1.
         24    2    1    2    0    0  0.00000000000E+00  0.71054273576E-14 -0.51829989884E+03  0.52453370692E+03  0.80627691008E+02 0.  0.
         66    2    3    3    0    0  0.59118865603E+01 -0.39348930491E+02 -0.30040910037E+03  0.30303946330E+03  0.20000000495E+01 0.  0.
        -13    1    3    3    0    0 -0.59118865603E+01  0.39348930491E+02 -0.21789079847E+03  0.22149424362E+03  0.10566000000E+00 0.  1.
         13    1    4    4    0    0  0.16887010888E+01 -0.87146112694E+01 -0.67727335260E+02  0.68306656091E+02  0.10566000000E+00 0. -1.
        -13    1    4    4    0    0  0.32462312533E+00 -0.70327755727E+01 -0.52518881923E+02  0.52988767064E+02  0.10566000000E+00 0.  1.
        -14    1    4    4    0    0  0.38985623462E+01 -0.23601543649E+02 -0.18016288319E+03  0.18174404015E+03  0.00000000000E+00 0.  1.
<mgrwt>
<rscale>  0 0.80627691E+02</rscale>
<asrwt>0</asrwt>
<pdfrwt beam="1">  1        2 0.80217900E-01 0.80627691E+02</pdfrwt>
<pdfrwt beam="2">  1       -1 0.47952411E-03 0.80627691E+02</pdfrwt>
<totfact> 0.30233780E+05</totfact>
</mgrwt>
</event>
<event>
 8    1  0.2676873E-016  0.8125812E+02  0.7818608E-02  0.1325519E+00
         -1   -1    0    0    0  501 -0.00000000000E+00  0.00000000000E+00  0.24455621088E+02  0.24455621607E+02  0.50400000000E-02 0.  1.
          2   -1    0    0  501    0  0.00000000000E+00 -0.00000000000E+00 -0.67498611752E+02  0.67498611801E+02  0.25500000000E-02 0. -1.
         24    2    1    2    0    0  0.00000000000E+00  0.00000000000E+00 -0.43042990665E+02  0.91954233408E+02  0.81258119571E+02 0.  0.
         66    2    3    3    0    0  0.32572529869E+02 -0.12681739127E+02 -0.44916291523E+02  0.56949710422E+02  0.20000158870E+01 0.  0.
        -13    1    3    3    0    0 -0.32572529869E+02  0.12681739127E+02  0.18733008586E+01  0.35004522986E+02  0.10566000000E+00 0.  1.
         13    1    4    4    0    0  0.11587012143E+02 -0.52258048472E+01 -0.16693036666E+02  0.20981814122E+02  0.10566000000E+00 0. -1.
        -13    1    4    4    0    0  0.76411063265E+01 -0.31879284990E+01 -0.10893288969E+02  0.13682993189E+02  0.10566000000E+00 0.  1.
         14    1    4    4    0    0  0.13344411400E+02 -0.42680057804E+01 -0.17329965888E+02  0.22284903110E+02  0.00000000000E+00 0. -1.
<mgrwt>
<rscale>  0 0.81258120E+02</rscale>
<asrwt>0</asrwt>
<pdfrwt beam="1">  1        2 0.10384402E-01 0.81258120E+02</pdfrwt>
<pdfrwt beam="2">  1       -1 0.37624033E-02 0.81258120E+02</pdfrwt>
<totfact> 0.15341267E+05</totfact>
</mgrwt>
</event>
<event>
 8    1  0.2676873E-016  0.8046379E+02  0.7818608E-02  0.1327740E+00
          2   -1    0    0  501    0  0.00000000000E+00  0.00000000000E+00  0.39816985672E+02  0.39816985754E+02  0.25500000000E-02 0. -1.
         -1   -1    0    0    0  501 -0.00000000000E+00 -0.00000000000E+00 -0.40651127275E+02  0.40651127588E+02  0.50400000000E-02 0.  1.
         24    2    1    2    0    0 -0.17763568394E-14  0.00000000000E+00 -0.83414160356E+00  0.80468113341E+02  0.80463789822E+02 0.  0.
         66    2    3    3    0    0 -0.10435273160E+02  0.19690549299E+02  0.33050688382E+02  0.39911911291E+02  0.20000006840E+01 0.  0.
        -13    1    3    3    0    0  0.10435273160E+02 -0.19690549299E+02 -0.33884829986E+02  0.40556202051E+02  0.10566000000E+00 0.  1.
         13    1    4    4    0    0 -0.40890539002E+01  0.86857328883E+01  0.13461490856E+02  0.16534364750E+02  0.10566000000E+00 0. -1.
        -13    1    4    4    0    0 -0.44616452943E+01  0.79341918718E+01  0.13046999348E+02  0.15908897995E+02  0.10566000000E+00 0.  1.
        -14    1    4    4    0    0 -0.18845739651E+01  0.30706245386E+01  0.65421981784E+01  0.74686485452E+01  0.00000000000E+00 0.  1.
<mgrwt>
<rscale>  0 0.80463790E+02</rscale>
<asrwt>0</asrwt>
<pdfrwt beam="1">  1        2 0.61256901E-02 0.80463790E+02</pdfrwt>
<pdfrwt beam="2">  1       -1 0.62540196E-02 0.80463790E+02</pdfrwt>
<totfact> 0.14015881E+05</totfact>
</mgrwt>
</event>
<event>
 8    1  0.2676873E-016  0.7855577E+02  0.7818608E-02  0.1333201E+00
         -1   -1    0    0    0  501 -0.00000000000E+00  0.00000000000E+00  0.22354326292E+01  0.22354383108E+01  0.50400000000E-02 0.  1.
          2   -1    0    0  501    0  0.00000000000E+00 -0.00000000000E+00 -0.69013497584E+03  0.69013497584E+03  0.25500000000E-02 0. -1.
         24    2    1    2    0    0  0.17763568394E-14  0.17763568394E-14 -0.68789954321E+03  0.69237041415E+03  0.78555769032E+02 0.  0.
         66    2    3    3    0    0  0.15286411451E+02  0.13910814523E+02 -0.63828741407E+03  0.63862509196E+03  0.19999968233E+01 0.  0.
        -13    1    3    3    0    0 -0.15286411451E+02 -0.13910814523E+02 -0.49612129136E+02  0.53745322189E+02  0.10566000000E+00 0.  1.
         13    1    4    4    0    0  0.11216940546E+02  0.10216457685E+02 -0.46858923642E+03  0.46883481037E+03  0.10566000000E+00 0. -1.
        -13    1    4    4    0    0  0.17877737236E+01  0.17452704719E+01 -0.62247569159E+02  0.62297777923E+02  0.10566000000E+00 0.  1.
         14    1    4    4    0    0  0.22816971814E+01  0.19490863662E+01 -0.10745060849E+03  0.10749250367E+03  0.00000000000E+00 0. -1.
<mgrwt>
<rscale>  0 0.78555769E+02</rscale>
<asrwt>0</asrwt>
<pdfrwt beam="1">  1        2 0.10617444E+00 0.78555769E+02</pdfrwt>
<pdfrwt beam="2">  1       -1 0.34391370E-03 0.78555769E+02</pdfrwt>
<totfact> 0.34957599E+05</totfact>
</mgrwt>
</event>
<event>
 8    1  0.2676873E-016  0.8152078E+02  0.7818608E-02  0.1324790E+00
          2   -1    0    0  501    0  0.00000000000E+00  0.00000000000E+00  0.32303336250E+02  0.32303336351E+02  0.25500000000E-02 0. -1.
         -1   -1    0    0    0  501 -0.00000000000E+00 -0.00000000000E+00 -0.51431504793E+02  0.51431505040E+02  0.50400000000E-02 0.  1.
         24    2    1    2    0    0  0.00000000000E+00 -0.17763568394E-14 -0.19128168543E+02  0.83734841391E+02  0.81520775456E+02 0.  0.
         66    2    3    3    0    0 -0.87797089770E+01  0.14993303550E+02  0.28275418788E+02  0.33247281568E+02  0.19999957427E+01 0.  0.
        -13    1    3    3    0    0  0.87797089770E+01 -0.14993303550E+02 -0.47403587331E+02  0.50487559823E+02  0.10566000000E+00 0.  1.
         13    1    4    4    0    0 -0.40994826155E+01  0.60360881479E+01  0.11458917044E+02  0.13585214820E+02  0.10566000000E+00 0. -1.
        -13    1    4    4    0    0 -0.50457451695E+00  0.10290296153E+01  0.12379066924E+01  0.16902882615E+01  0.10566000000E+00 0.  1.
         14    1    4    4    0    0 -0.41756518445E+01  0.79281857867E+01  0.15578595051E+02  0.17971778486E+02  0.00000000000E+00 0. -1.
<mgrwt>
<rscale>  0 0.81520775E+02</rscale>
<asrwt>0</asrwt>
<pdfrwt beam="1">  1        2 0.49697440E-02 0.81520775E+02</pdfrwt>
<pdfrwt beam="2">  1       -1 0.79125393E-02 0.81520775E+02</pdfrwt>
<totfact> 0.12953246E+05</totfact>
</mgrwt>
</event>
<event>
 8    1  0.2676873E-016  0.8041351E+02  0.7818608E-02  0.1327882E+00
         -1   -1    0    0    0  501 -0.00000000000E+00  0.00000000000E+00  0.33212778102E+02  0.33212778485E+02  0.50400000000E-02 0.  1.
          2   -1    0    0  501    0  0.00000000000E+00 -0.00000000000E+00 -0.48673534764E+02  0.48673534831E+02  0.25500000000E-02 0. -1.
         24    2    1    2    0    0 -0.35527136788E-14  0.00000000000E+00 -0.15460756662E+02  0.81886313316E+02  0.80413514485E+02 0.  0.
         66    2    3    3    0    0 -0.25865301000E+02  0.10772584846E+02 -0.37063971243E+02  0.46505917270E+02  0.19999991843E+01 0.  0.
        -13    1    3    3    0    0  0.25865301000E+02 -0.10772584846E+02  0.21603214581E+02  0.35380396046E+02  0.10566000000E+00 0.  1.
         13    1    4    4    0    0 -0.11098873502E+01  0.44365095785E+00 -0.13986892232E+01  0.18428705004E+01  0.10566000000E+00 0. -1.
        -13    1    4    4    0    0 -0.37738530969E+01  0.14755703920E+01 -0.64956237470E+01  0.76566028418E+01  0.10566000000E+00 0.  1.
        -14    1    4    4    0    0 -0.20981560553E+02  0.88533634961E+01 -0.29169658273E+02  0.37006443928E+02  0.00000000000E+00 0.  1.
<mgrwt>
<rscale>  0 0.80413514E+02</rscale>
<asrwt>0</asrwt>
<pdfrwt beam="1">  1        2 0.74882361E-02 0.80413514E+02</pdfrwt>
<pdfrwt beam="2">  1       -1 0.51096582E-02 0.80413514E+02</pdfrwt>
<totfact> 0.14647518E+05</totfact>
</mgrwt>
</event>
<event>
 8    1  0.2676873E-016  0.7705202E+02  0.7818608E-02  0.1337632E+00
         -1   -1    0    0    0  501 -0.00000000000E+00  0.00000000000E+00  0.85597591147E+01  0.85597605985E+01  0.50400000000E-02 0.  1.
          2   -1    0    0  501    0  0.00000000000E+00 -0.00000000000E+00 -0.17339894694E+03  0.17339894696E+03  0.25500000000E-02 0. -1.
         24    2    1    2    0    0  0.22204460493E-15  0.71054273576E-14 -0.16483918782E+03  0.18195870756E+03  0.77052017579E+02 0.  0.
         66    2    3    3    0    0 -0.14453852422E+01 -0.35220869106E+02 -0.11903253306E+03  0.12415853850E+03  0.19999986605E+01 0.  0.
        -13    1    3    3    0    0  0.14453852422E+01  0.35220869106E+02 -0.45806654759E+02  0.57800169059E+02  0.10566000000E+00 0.  1.
         13    1    4    4    0    0  0.42275020154E-01 -0.14104241768E+02 -0.49702840165E+02  0.51665413068E+02  0.10566000000E+00 0. -1.
        -13    1    4    4    0    0 -0.71789694368E-01 -0.32312442188E+01 -0.11231840727E+02  0.11688092364E+02  0.10566000000E+00 0.  1.
         14    1    4    4    0    0 -0.14158705680E+01 -0.17885383119E+02 -0.58097852173E+02  0.60805033064E+02  0.00000000000E+00 0. -1.
<mgrwt>
<rscale>  0 0.77052018E+02</rscale>
<asrwt>0</asrwt>
<pdfrwt beam="1">  1        2 0.26676758E-01 0.77052018E+02</pdfrwt>
<pdfrwt beam="2">  1       -1 0.13168863E-02 0.77052018E+02</pdfrwt>
<totfact> 0.23197310E+05</totfact>
</mgrwt>
</event>
<event>
 8    1  0.2676873E-016  0.7851514E+02  0.7818608E-02  0.1333319E+00
          2   -1    0    0  501    0  0.00000000000E+00  0.00000000000E+00  0.55128388503E+03  0.55128388504E+03  0.25500000000E-02 0. -1.
         -1   -1    0    0    0  501 -0.00000000000E+00 -0.00000000000E+00 -0.27955749014E+01  0.27955794445E+01  0.50400000000E-02 0.  1.
         24    2    1    2    0    0  0.88817841970E-15  0.00000000000E+00  0.54848831013E+03  0.55407946448E+03  0.78515136192E+02 0.  0.
         66    2    3    3    0    0  0.72287341488E+01 -0.19764114848E+02  0.50807860426E+03  0.50851818349E+03  0.19999999646E+01 0.  0.
        -13    1    3    3    0    0 -0.72287341488E+01  0.19764114848E+02  0.40409705871E+02  0.45561280993E+02  0.10566000000E+00 0.  1.
         13    1    4    4    0    0  0.23524402967E+01 -0.49494152944E+01  0.14116424484E+03  0.14127061220E+03  0.10566000000E+00 0. -1.
        -13    1    4    4    0    0  0.11538234472E+01 -0.45107823233E+01  0.11972351929E+03  0.11981406721E+03  0.10566000000E+00 0.  1.
         14    1    4    4    0    0  0.37224704049E+01 -0.10303917230E+02  0.24719084013E+03  0.24743350408E+03  0.00000000000E+00 0. -1.
<mgrwt>
<rscale>  0 0.78515136E+02</rscale>
<asrwt>0</asrwt>
<pdfrwt beam="1">  1        2 0.84812929E-01 0.78515136E+02</pdfrwt>
<pdfrwt beam="2">  1       -1 0.43008868E-03 0.78515136E+02</pdfrwt>
<totfact> 0.32952595E+05</totfact>
</mgrwt>
</event>
<event>
 8    1  0.2676873E-016  0.7869314E+02  0.7818608E-02  0.1332802E+00
          2   -1    0    0  501    0  0.00000000000E+00  0.00000000000E+00  0.41991271646E+03  0.41991271647E+03  0.25500000000E-02 0. -1.
         -1   -1    0    0    0  501 -0.00000000000E+00 -0.00000000000E+00 -0.36868424287E+01  0.36868458736E+01  0.50400000000E-02 0.  1.
         24    2    1    2    0    0  0.00000000000E+00  0.00000000000E+00  0.41622587403E+03  0.42359956234E+03  0.78693144572E+02 0.  0.
         66    2    3    3    0    0 -0.18151234823E+02 -0.19286735251E+02  0.36469514448E+03  0.36566103686E+03  0.19999980018E+01 0.  0.
        -13    1    3    3    0    0  0.18151234823E+02  0.19286735251E+02  0.51530729553E+02  0.57938525478E+02  0.10566000000E+00 0.  1.
         13    1    4    4    0    0 -0.96811427648E+01 -0.10799194177E+02  0.19901677610E+03  0.19954457009E+03  0.10566000000E+00 0. -1.
        -13    1    4    4    0    0 -0.26938907481E+01 -0.33806974922E+01  0.64477514288E+02  0.64622342698E+02  0.10566000000E+00 0.  1.
        -14    1    4    4    0    0 -0.57762013100E+01 -0.51068435809E+01  0.10120085409E+03  0.10149412408E+03  0.00000000000E+00 0.  1.
<mgrwt>
<rscale>  0 0.78693145E+02</rscale>
<asrwt>0</asrwt>
<pdfrwt beam="1">  1        2 0.64601943E-01 0.78693145E+02</pdfrwt>
<pdfrwt beam="2">  1       -1 0.56720691E-03 0.78693145E+02</pdfrwt>
<totfact> 0.29995547E+05</totfact>
</mgrwt>
</event>
<event>
 8    1  0.2676873E-016  0.8277301E+02  0.7818608E-02  0.1321361E+00
         -1   -1    0    0    0  501 -0.00000000000E+00  0.00000000000E+00  0.82028741576E+02  0.82028741730E+02  0.50400000000E-02 0.  1.
          2   -1    0    0  501    0  0.00000000000E+00 -0.00000000000E+00 -0.20881006091E+02  0.20881006246E+02  0.25500000000E-02 0. -1.
         24    2    1    2    0    0  0.00000000000E+00  0.00000000000E+00  0.61147735485E+02  0.10290974798E+03  0.82773006915E+02 0.  0.
         66    2    3    3    0    0 -0.38304317438E+02  0.14742461467E+02  0.24218524162E+02  0.47697985484E+02  0.20000005582E+01 0.  0.
        -13    1    3    3    0    0  0.38304317438E+02 -0.14742461467E+02  0.36929211324E+02  0.55211762492E+02  0.10566000000E+00 0.  1.
         13    1    4    4    0    0 -0.23921179224E+02  0.89893655015E+01  0.14901251521E+02  0.29581919621E+02  0.10566000000E+00 0. -1.
        -13    1    4    4    0    0 -0.45771329882E+01  0.12756011174E+01  0.30367102393E+01  0.56400423505E+01  0.10566000000E+00 0.  1.
         14    1    4    4    0    0 -0.98060052260E+01  0.44774948482E+01  0.62805624014E+01  0.12476023513E+02  0.00000000000E+00 0. -1.
<mgrwt>
<rscale>  0 0.82773007E+02</rscale>
<asrwt>0</asrwt>
<pdfrwt beam="1">  1        2 0.32124625E-02 0.82773007E+02</pdfrwt>
<pdfrwt beam="2">  1       -1 0.12619807E-01 0.82773007E+02</pdfrwt>
<totfact> 0.11355826E+05</totfact>
</mgrwt>
</event>
<event>
 8    1  0.2676873E-016  0.8101987E+02  0.7818608E-02  0.1326182E+00
          2   -1    0    0  501    0  0.00000000000E+00  0.00000000000E+00  0.11821171926E+03  0.11821171929E+03  0.25500000000E-02 0. -1.
         -1   -1    0    0    0  501 -0.00000000000E+00 -0.00000000000E+00 -0.13882334752E+02  0.13882335667E+02  0.50400000000E-02 0.  1.
         24    2    1    2    0    0  0.00000000000E+00  0.35527136788E-14  0.10432938451E+03  0.13209405495E+03  0.81019867209E+02 0.  0.
         66    2    3    3    0    0  0.21316839228E+02 -0.88749682455E+01 -0.20218182638E+01  0.23265004647E+02  0.19999990210E+01 0.  0.
        -13    1    3    3    0    0 -0.21316839228E+02  0.88749682455E+01  0.10635120277E+03  0.10882905031E+03  0.10566000000E+00 0.  1.
         13    1    4    4    0    0  0.99810252935E+01 -0.45070832050E+01 -0.37404535034E+00  0.10958363878E+02  0.10566000000E+00 0. -1.
        -13    1    4    4    0    0  0.15427759600E+01 -0.86513546185E+00  0.26404620045E-01  0.17721394611E+01  0.10566000000E+00 0.  1.
        -14    1    4    4    0    0  0.97930379745E+01 -0.35027495787E+01 -0.16741775335E+01  0.10534501307E+02  0.00000000000E+00 0.  1.
<mgrwt>
<rscale>  0 0.81019867E+02</rscale>
<asrwt>0</asrwt>
<pdfrwt beam="1">  1        2 0.18186418E-01 0.81019867E+02</pdfrwt>
<pdfrwt beam="2">  1       -1 0.21357439E-02 0.81019867E+02</pdfrwt>
<totfact> 0.17984415E+05</totfact>
</mgrwt>
</event>
<event>
 8    1  0.2676873E-016  0.8101953E+02  0.7818608E-02  0.1326183E+00
         -1   -1    0    0    0  501 -0.00000000000E+00  0.00000000000E+00  0.45530969169E+01  0.45530997064E+01  0.50400000000E-02 0.  1.
          2   -1    0    0  501    0  0.00000000000E+00 -0.00000000000E+00 -0.36042291240E+03  0.36042291241E+03  0.25500000000E-02 0. -1.
         24    2    1    2    0    0 -0.88817841970E-15  0.00000000000E+00 -0.35586981548E+03  0.36497601212E+03  0.81019527570E+02 0.  0.
         66    2    3    3    0    0 -0.58299254467E+01 -0.13298818994E+02 -0.34828534692E+03  0.34859364523E+03  0.20000001022E+01 0.  0.
        -13    1    3    3    0    0  0.58299254467E+01  0.13298818994E+02 -0.75844685692E+01  0.16382366888E+02  0.10566000000E+00 0.  1.
         13    1    4    4    0    0 -0.17837721929E+01 -0.53655444458E+01 -0.14843440251E+03  0.14854209478E+03  0.10566000000E+00 0. -1.
        -13    1    4    4    0    0 -0.12940234169E+01 -0.18870105537E+01 -0.57757684303E+02  0.57803084395E+02  0.10566000000E+00 0. -1.
        -14    1    4    4    0    0 -0.27521298370E+01 -0.60462639946E+01 -0.14209326010E+03  0.14224846605E+03  0.00000000000E+00 0.  1.
<mgrwt>
<rscale>  0 0.81019528E+02</rscale>
<asrwt>0</asrwt>
<pdfrwt beam="1">  1        2 0.55449656E-01 0.81019528E+02</pdfrwt>
<pdfrwt beam="2">  1       -1 0.70047695E-03 0.81019528E+02</pdfrwt>
<totfact> 0.26345015E+05</totfact>
</mgrwt>
</event>
<event>
 8    1  0.2676873E-016  0.7986704E+02  0.7818608E-02  0.1329429E+00
         -1   -1    0    0    0  501 -0.00000000000E+00  0.00000000000E+00  0.10254194795E+02  0.10254196034E+02  0.50400000000E-02 0.  1.
          2   -1    0    0  501    0  0.00000000000E+00 -0.00000000000E+00 -0.15551548328E+03  0.15551548330E+03  0.25500000000E-02 0. -1.
         24    2    1    2    0    0  0.00000000000E+00  0.00000000000E+00 -0.14526128849E+03  0.16576967933E+03  0.79867043606E+02 0.  0.
         66    2    3    3    0    0 -0.31461016139E+02  0.69648994527E+01 -0.12154575857E+03  0.12576039436E+03  0.20000006220E+01 0.  0.
        -13    1    3    3    0    0  0.31461016139E+02 -0.69648994527E+01 -0.23715529913E+02  0.40009284972E+02  0.10566000000E+00 0.  1.
         13    1    4    4    0    0 -0.23725351631E+02  0.49577509750E+01 -0.88273363409E+02  0.91540534499E+02  0.10566000000E+00 0. -1.
        -13    1    4    4    0    0 -0.41656556321E+01  0.11851041761E+01 -0.17759813201E+02  0.18280571318E+02  0.10566000000E+00 0.  1.
         14    1    4    4    0    0 -0.35700088760E+01  0.82204430161E+00 -0.15512581962E+02  0.15939288546E+02  0.00000000000E+00 0. -1.
<mgrwt>
<rscale>  0 0.79867044E+02</rscale>
<asrwt>0</asrwt>
<pdfrwt beam="1">  1        2 0.23925457E-01 0.79867044E+02</pdfrwt>
<pdfrwt beam="2">  1       -1 0.15775686E-02 0.79867044E+02</pdfrwt>
<totfact> 0.20355231E+05</totfact>
</mgrwt>
</event>
<event>
 8    1  0.2676873E-016  0.7995309E+02  0.7818608E-02  0.1329185E+00
         -1   -1    0    0    0  501 -0.00000000000E+00  0.00000000000E+00  0.19261554729E+03  0.19261554736E+03  0.50400000000E-02 0.  1.
          2   -1    0    0  501    0  0.00000000000E+00 -0.00000000000E+00 -0.82969633741E+01  0.82969637659E+01  0.25500000000E-02 0. -1.
         24    2    1    2    0    0 -0.88817841970E-15  0.00000000000E+00  0.18431858392E+03  0.20091251112E+03  0.79953090925E+02 0.  0.
         66    2    3    3    0    0 -0.79076251092E+01  0.34548297738E+02  0.45881323088E+02  0.58010440594E+02  0.19999995522E+01 0.  0.
        -13    1    3    3    0    0  0.79076251092E+01 -0.34548297738E+02  0.13843726083E+03  0.14290207053E+03  0.10566000000E+00 0.  1.
         13    1    4    4    0    0 -0.12792244777E+01  0.53863689296E+01  0.82128084098E+01  0.99050881633E+01  0.10566000000E+00 0. -1.
        -13    1    4    4    0    0 -0.35115552049E+01  0.16575968807E+02  0.21944602882E+02  0.27724907962E+02  0.10566000000E+00 0.  1.
        -14    1    4    4    0    0 -0.31168454266E+01  0.12585960001E+02  0.15723911797E+02  0.20380444469E+02  0.00000000000E+00 0.  1.
<mgrwt>
<rscale>  0 0.79953091E+02</rscale>
<asrwt>0</asrwt>
<pdfrwt beam="1">  1        2 0.12764559E-02 0.79953091E+02</pdfrwt>
<pdfrwt beam="2">  1       -1 0.29633161E-01 0.79953091E+02</pdfrwt>
<totfact> 0.10088089E+05</totfact>
</mgrwt>
</event>
<event>
 8    1  0.2676873E-016  0.7840686E+02  0.7818608E-02  0.1333634E+00
          2   -1    0    0  501    0  0.00000000000E+00  0.00000000000E+00  0.62612952270E+03  0.62612952271E+03  0.25500000000E-02 0. -1.
         -1   -1    0    0    0  501 -0.00000000000E+00 -0.00000000000E+00 -0.24546155673E+01  0.24546207415E+01  0.50400000000E-02 0.  1.
         24    2    1    2    0    0 -0.35527136788E-14 -0.17763568394E-14  0.62367490714E+03  0.62858414345E+03  0.78406859430E+02 0.  0.
         66    2    3    3    0    0  0.25064542946E+02 -0.12794921243E+02  0.53056062182E+03  0.53131018693E+03  0.19999973562E+01 0.  0.
        -13    1    3    3    0    0 -0.25064542946E+02  0.12794921243E+02  0.93114285319E+02  0.97273956521E+02  0.10566000000E+00 0.  1.
         13    1    4    4    0    0  0.87080427415E+01 -0.38144282343E+01  0.17751563804E+03  0.17777005593E+03  0.10566000000E+00 0. -1.
        -13    1    4    4    0    0  0.60387800404E+01 -0.26217216611E+01  0.12285346888E+03  0.12302977797E+03  0.10566000000E+00 0.  1.
        -14    1    4    4    0    0  0.10317720164E+02 -0.63587713470E+01  0.23019151490E+03  0.23051035303E+03  0.00000000000E+00 0.  1.
<mgrwt>
<rscale>  0 0.78406859E+02</rscale>
<asrwt>0</asrwt>
<pdfrwt beam="1">  1        2 0.96327673E-01 0.78406859E+02</pdfrwt>
<pdfrwt beam="2">  1       -1 0.37763335E-03 0.78406859E+02</pdfrwt>
<totfact> 0.34285164E+05</totfact>
</mgrwt>
</event>
<event>
 8    1  0.2676873E-016  0.8067252E+02  0.7818608E-02  0.1327154E+00
          2   -1    0    0  501    0  0.00000000000E+00  0.00000000000E+00  0.35697562676E+02  0.35697562767E+02  0.25500000000E-02 0. -1.
         -1   -1    0    0    0  501 -0.00000000000E+00 -0.00000000000E+00 -0.45577733230E+02  0.45577733509E+02  0.50400000000E-02 0.  1.
         24    2    1    2    0    0  0.00000000000E+00  0.00000000000E+00 -0.98801705549E+01  0.81275296276E+02  0.80672523293E+02 0.  0.
         66    2    3    3    0    0 -0.37685088148E+02 -0.13689896817E+02 -0.73700729154E+00  0.40151243191E+02  0.20000016180E+01 0.  0.
        -13    1    3    3    0    0  0.37685088148E+02  0.13689896817E+02 -0.91431632633E+01  0.41124053084E+02  0.10566000000E+00 0.  1.
         13    1    4    4    0    0 -0.53481053021E+01 -0.19974356673E+01 -0.29980660385E+00  0.57177817030E+01  0.10566000000E+00 0.  1.
        -13    1    4    4    0    0 -0.15478189590E+02 -0.58364324557E+01 -0.10540483010E+01  0.16575900538E+02  0.10566000000E+00 0.  1.
         14    1    4    4    0    0 -0.16858793256E+02 -0.58560286944E+01  0.61684761331E+00  0.17857560951E+02  0.00000000000E+00 0. -1.
<mgrwt>
<rscale>  0 0.80672523E+02</rscale>
<asrwt>0</asrwt>
<pdfrwt beam="1">  1        2 0.54919327E-02 0.80672523E+02</pdfrwt>
<pdfrwt beam="2">  1       -1 0.70119590E-02 0.80672523E+02</pdfrwt>
<totfact> 0.13608635E+05</totfact>
</mgrwt>
</event>
<event>
 8    1  0.2676873E-016  0.7861792E+02  0.7818608E-02  0.1333020E+00
         -1   -1    0    0    0  501 -0.00000000000E+00  0.00000000000E+00  0.14540658435E+02  0.14540659308E+02  0.50400000000E-02 0.  1.
          2   -1    0    0  501    0  0.00000000000E+00 -0.00000000000E+00 -0.10626714226E+03  0.10626714229E+03  0.25500000000E-02 0. -1.
         24    2    1    2    0    0  0.00000000000E+00  0.00000000000E+00 -0.91726483826E+02  0.12080780160E+03  0.78617918391E+02 0.  0.
         66    2    3    3    0    0  0.36668210958E+02  0.10661984737E+02 -0.60056145195E+02  0.71196743089E+02  0.20000093603E+01 0.  0.
        -13    1    3    3    0    0 -0.36668210958E+02 -0.10661984737E+02 -0.31670338631E+02  0.49611058510E+02  0.10566000000E+00 0.  1.
         13    1    4    4    0    0  0.22738414025E+02  0.71355134011E+01 -0.37515992704E+02  0.44445606042E+02  0.10566000000E+00 0. -1.
        -13    1    4    4    0    0  0.38638339068E+01  0.70260651826E+00 -0.54865127796E+01  0.67480259999E+01  0.10566000000E+00 0.  1.
         14    1    4    4    0    0  0.10065963027E+02  0.28238648174E+01 -0.17053639711E+02  0.20003111047E+02  0.00000000000E+00 0. -1.
<mgrwt>
<rscale>  0 0.78617918E+02</rscale>
<asrwt>0</asrwt>
<pdfrwt beam="1">  1        2 0.16348791E-01 0.78617918E+02</pdfrwt>
<pdfrwt beam="2">  1       -1 0.22370245E-02 0.78617918E+02</pdfrwt>
<totfact> 0.18893106E+05</totfact>
</mgrwt>
</event>
<event>
 8    1  0.2676873E-016  0.8201011E+02  0.7818608E-02  0.1323442E+00
         -1   -1    0    0    0  501 -0.00000000000E+00  0.00000000000E+00  0.42030343049E+01  0.42030373267E+01  0.50400000000E-02 0.  1.
          2   -1    0    0  501    0  0.00000000000E+00 -0.00000000000E+00 -0.40004760781E+03  0.40004760782E+03  0.25500000000E-02 0. -1.
         24    2    1    2    0    0  0.00000000000E+00  0.00000000000E+00 -0.39584457351E+03  0.40425064515E+03  0.82010107466E+02 0.  0.
         66    2    3    3    0    0  0.87538199051E+01  0.72316291933E+01 -0.39213582475E+03  0.39230527763E+03  0.19999946821E+01 0.  0.
        -13    1    3    3    0    0 -0.87538199051E+01 -0.72316291933E+01 -0.37087487536E+01  0.11945367515E+02  0.10566000000E+00 0.  1.
         13    1    4    4    0    0  0.90352355555E+00  0.16055009764E+01 -0.59505302854E+02  0.59533908153E+02  0.10566000000E+00 0. -1.
        -13    1    4    4    0    0  0.13176408766E+01  0.71548399161E+00 -0.47800731405E+02  0.47824357619E+02  0.10566000000E+00 0.  1.
         14    1    4    4    0    0  0.65326554729E+01  0.49106442253E+01 -0.28482979050E+03  0.28494701186E+03  0.00000000000E+00 0. -1.
<mgrwt>
<rscale>  0 0.82010107E+02</rscale>
<asrwt>0</asrwt>
<pdfrwt beam="1">  1        2 0.61545756E-01 0.82010107E+02</pdfrwt>
<pdfrwt beam="2">  1       -1 0.64662121E-03 0.82010107E+02</pdfrwt>
<totfact> 0.26479208E+05</totfact>
</mgrwt>
</event>
<event>
 8    1  0.2676873E-016  0.7855139E+02  0.7818608E-02  0.1333213E+00
         -1   -1    0    0    0  501 -0.00000000000E+00  0.00000000000E+00  0.16468251847E+02  0.16468252619E+02  0.50400000000E-02 0.  1.
          2   -1    0    0  501    0  0.00000000000E+00 -0.00000000000E+00 -0.93669929422E+02  0.93669929456E+02  0.25500000000E-02 0. -1.
         24    2    1    2    0    0 -0.35527136788E-14 -0.44408920985E-15 -0.77201677574E+02  0.11013818208E+03  0.78551385287E+02 0.  0.
         66    2    3    3    0    0 -0.30430482730E+02  0.20624033722E+01 -0.73264233863E+02  0.79384606448E+02  0.19999976384E+01 0.  0.
        -13    1    3    3    0    0  0.30430482730E+02 -0.20624033722E+01 -0.39374437114E+01  0.30753575627E+02  0.10566000000E+00 0.  1.
         13    1    4    4    0    0 -0.17877743434E+02  0.76017248058E+00 -0.43650367549E+02  0.47175812910E+02  0.10566000000E+00 0. -1.
        -13    1    4    4    0    0 -0.15449884152E+01 -0.16265519487E+00 -0.39147925227E+01  0.42130998620E+01  0.10566000000E+00 0.  1.
         14    1    4    4    0    0 -0.11007750880E+02  0.14648860865E+01 -0.25699073791E+02  0.27995693676E+02  0.00000000000E+00 0. -1.
<mgrwt>
<rscale>  0 0.78551385E+02</rscale>
<asrwt>0</asrwt>
<pdfrwt beam="1">  1        2 0.14410758E-01 0.78551385E+02</pdfrwt>
<pdfrwt beam="2">  1       -1 0.25335773E-02 0.78551385E+02</pdfrwt>
<totfact> 0.18282191E+05</totfact>
</mgrwt>
</event>
<event>
 8    1  0.2676873E-016  0.7345370E+02  0.7818608E-02  0.1348727E+00
          2   -1    0    0  501    0  0.00000000000E+00  0.00000000000E+00  0.15547508017E+03  0.15547508019E+03  0.25500000000E-02 0. -1.
         -1   -1    0    0    0  501 -0.00000000000E+00 -0.00000000000E+00 -0.86757405726E+01  0.86757420365E+01  0.50400000000E-02 0.  1.
         24    2    1    2    0    0  0.00000000000E+00 -0.35527136788E-14  0.14679933960E+03  0.16415082223E+03  0.73453701960E+02 0.  0.
         66    2    3    3    0    0 -0.32327804886E+02 -0.17371176336E+02  0.73698588760E+02  0.82354883006E+02  0.20000084150E+01 0.  0.
        -13    1    3    3    0    0  0.32327804886E+02  0.17371176336E+02  0.73100750837E+02  0.81795939221E+02  0.10566000000E+00 0.  1.
         13    1    4    4    0    0 -0.82763102097E+01 -0.46039788834E+01  0.18021244393E+02  0.20358544785E+02  0.10566000000E+00 0. -1.
        -13    1    4    4    0    0 -0.10857619054E+02 -0.58824569701E+01  0.23641917501E+02  0.26672881709E+02  0.10566000000E+00 0.  1.
        -14    1    4    4    0    0 -0.13193875623E+02 -0.68847404829E+01  0.32035426866E+02  0.35323456512E+02  0.00000000000E+00 0.  1.
<mgrwt>
<rscale>  0 0.73453702E+02</rscale>
<asrwt>0</asrwt>
<pdfrwt beam="1">  1        2 0.23919242E-01 0.73453702E+02</pdfrwt>
<pdfrwt beam="2">  1       -1 0.13347295E-02 0.73453702E+02</pdfrwt>
<totfact> 0.25381957E+05</totfact>
</mgrwt>
</event>
<event>
 8    1  0.2676873E-016  0.7690547E+02  0.7818608E-02  0.1338070E+00
         -1   -1    0    0    0  501 -0.00000000000E+00  0.00000000000E+00  0.92964353528E+02  0.92964353664E+02  0.50400000000E-02 0.  1.
          2   -1    0    0  501    0  0.00000000000E+00 -0.00000000000E+00 -0.15905158055E+02  0.15905158260E+02  0.25500000000E-02 0. -1.
         24    2    1    2    0    0  0.35527136788E-14 -0.35527136788E-14  0.77059195472E+02  0.10886951192E+03  0.76905468074E+02 0.  0.
         66    2    3    3    0    0  0.22066995596E+02 -0.28731905476E+02  0.20419344957E+02  0.41634413074E+02  0.20000041498E+01 0.  0.
        -13    1    3    3    0    0 -0.22066995596E+02  0.28731905476E+02  0.56639850515E+02  0.67235098850E+02  0.10566000000E+00 0.  1.
         13    1    4    4    0    0  0.12191869556E+02 -0.16507067292E+02  0.11044921688E+02  0.23305072687E+02  0.10566000000E+00 0. -1.
        -13    1    4    4    0    0  0.34252561535E+01 -0.41486647516E+01  0.37880306172E+01  0.65805880383E+01  0.10566000000E+00 0.  1.
        -14    1    4    4    0    0  0.64498698869E+01 -0.80761734331E+01  0.55863926523E+01  0.11748752348E+02  0.00000000000E+00 0.  1.
<mgrwt>
<rscale>  0 0.76905468E+02</rscale>
<asrwt>0</asrwt>
<pdfrwt beam="1">  1        2 0.24469474E-02 0.76905468E+02</pdfrwt>
<pdfrwt beam="2">  1       -1 0.14302208E-01 0.76905468E+02</pdfrwt>
<totfact> 0.13277694E+05</totfact>
</mgrwt>
</event>
<event>
 8    1  0.2676873E-016  0.7873334E+02  0.7818608E-02  0.1332685E+00
          2   -1    0    0  501    0  0.00000000000E+00  0.00000000000E+00  0.26124158105E+03  0.26124158106E+03  0.25500000000E-02 0. -1.
         -1   -1    0    0    0  501 -0.00000000000E+00 -0.00000000000E+00 -0.59321891439E+01  0.59321912849E+01  0.50400000000E-02 0.  1.
         24    2    1    2    0    0  0.00000000000E+00 -0.55511151231E-16  0.25530939191E+03  0.26717377235E+03  0.78733341317E+02 0.  0.
         66    2    3    3    0    0 -0.27208965148E+02  0.48271865173E+00  0.22414579440E+03  0.22580057117E+03  0.19999985494E+01 0.  0.
        -13    1    3    3    0    0  0.27208965148E+02 -0.48271865173E+00  0.31163597508E+02  0.41373201174E+02  0.10566000000E+00 0.  1.
         13    1    4    4    0    0 -0.88564181437E+01  0.23084720943E+00  0.79628798679E+02  0.80120198301E+02  0.10566000000E+00 0. -1.
        -13    1    4    4    0    0 -0.87322660187E+01 -0.26001100241E+00  0.70145905977E+02  0.70687901121E+02  0.10566000000E+00 0.  1.
        -14    1    4    4    0    0 -0.96202809855E+01  0.51188244471E+00  0.74371089741E+02  0.74992471750E+02  0.00000000000E+00 0.  1.
<mgrwt>
<rscale>  0 0.78733341E+02</rscale>
<asrwt>0</asrwt>
<pdfrwt beam="1">  1        2 0.40191026E-01 0.78733341E+02</pdfrwt>
<pdfrwt beam="2">  1       -1 0.91264435E-03 0.78733341E+02</pdfrwt>
<totfact> 0.25286398E+05</totfact>
</mgrwt>
</event>
<event>
 8    1  0.2676873E-016  0.8026928E+02  0.7818608E-02  0.1328289E+00
         -1   -1    0    0    0  501 -0.00000000000E+00  0.00000000000E+00  0.14162796978E+03  0.14162796987E+03  0.50400000000E-02 0.  1.
          2   -1    0    0  501    0  0.00000000000E+00 -0.00000000000E+00 -0.11373384666E+02  0.11373384952E+02  0.25500000000E-02 0. -1.
         24    2    1    2    0    0  0.00000000000E+00  0.00000000000E+00  0.13025458511E+03  0.15300135482E+03  0.80269282005E+02 0.  0.
         66    2    3    3    0    0  0.13166078473E+02  0.21374899765E+02  0.55412981186E+01  0.25786390766E+02  0.20000003850E+01 0.  0.
        -13    1    3    3    0    0 -0.13166078473E+02 -0.21374899765E+02  0.12471328699E+03  0.12721496405E+03  0.10566000000E+00 0.  1.
         13    1    4    4    0    0  0.33829972434E+01  0.50656559790E+01  0.13488149316E+01  0.62398723226E+01  0.10566000000E+00 0. -1.
        -13    1    4    4    0    0  0.24986205452E+01  0.33636591841E+01  0.14894024741E+01  0.44482346500E+01  0.10566000000E+00 0.  1.
         14    1    4    4    0    0  0.72844606849E+01  0.12945584602E+02  0.27030807130E+01  0.15098283793E+02  0.00000000000E+00 0. -1.
<mgrwt>
<rscale>  0 0.80269282E+02</rscale>
<asrwt>0</asrwt>
<pdfrwt beam="1">  1        2 0.17497514E-02 0.80269282E+02</pdfrwt>
<pdfrwt beam="2">  1       -1 0.21788920E-01 0.80269282E+02</pdfrwt>
<totfact> 0.10851604E+05</totfact>
</mgrwt>
</event>
<event>
 8    1  0.2676873E-016  0.7623712E+02  0.7818608E-02  0.1340082E+00
          2   -1    0    0  501    0  0.00000000000E+00  0.00000000000E+00  0.12260272105E+03  0.12260272107E+03  0.25500000000E-02 0. -1.
         -1   -1    0    0    0  501 -0.00000000000E+00 -0.00000000000E+00 -0.11851488232E+02  0.11851489304E+02  0.50400000000E-02 0.  1.
         24    2    1    2    0    0  0.17763568394E-14  0.00000000000E+00  0.11075123282E+03  0.13445421038E+03  0.76237124278E+02 0.  0.
         66    2    3    3    0    0  0.80428823198E+01  0.35315884311E+02  0.76215523346E+02  0.84407971425E+02  0.20000001300E+01 0.  0.
        -13    1    3    3    0    0 -0.80428823198E+01 -0.35315884311E+02  0.34535709470E+02  0.50046238953E+02  0.10566000000E+00 0.  1.
         13    1    4    4    0    0  0.48630203848E+01  0.22804040863E+02  0.50411148712E+02  0.55542491171E+02  0.10566000000E+00 0. -1.
        -13    1    4    4    0    0  0.30494668815E+01  0.12381236051E+02  0.25419403214E+02  0.28438556191E+02  0.10566000000E+00 0.  1.
        -14    1    4    4    0    0  0.13039505354E+00  0.13060739728E+00  0.38497141932E+00  0.42692406339E+00  0.00000000000E+00 0.  1.
<mgrwt>
<rscale>  0 0.76237124E+02</rscale>
<asrwt>0</asrwt>
<pdfrwt beam="1">  1        2 0.18861957E-01 0.76237124E+02</pdfrwt>
<pdfrwt beam="2">  1       -1 0.18233060E-02 0.76237124E+02</pdfrwt>
<totfact> 0.21376792E+05</totfact>
</mgrwt>
</event>
<event>
 8    1  0.2676873E-016  0.7980938E+02  0.7818608E-02  0.1329593E+00
         -1   -1    0    0    0  501 -0.00000000000E+00  0.00000000000E+00  0.87667229728E+01  0.87667244215E+01  0.50400000000E-02 0.  1.
          2   -1    0    0  501    0  0.00000000000E+00 -0.00000000000E+00 -0.18163961142E+03  0.18163961144E+03  0.25500000000E-02 0. -1.
         24    2    1    2    0    0  0.00000000000E+00  0.00000000000E+00 -0.17287288845E+03  0.19040633586E+03  0.79809380247E+02 0.  0.
         66    2    3    3    0    0  0.11407401940E+02 -0.29502892037E+01 -0.17738618326E+03  0.17778833208E+03  0.19999966125E+01 0.  0.
        -13    1    3    3    0    0 -0.11407401940E+02  0.29502892037E+01  0.45132948095E+01  0.12618003784E+02  0.10566000000E+00 0.  1.
         13    1    4    4    0    0  0.78620974557E+01 -0.21817825153E+01 -0.13192816447E+03  0.13218027272E+03  0.10566000000E+00 0. -1.
        -13    1    4    4    0    0  0.94150504562E+00 -0.19752173674E-01 -0.90895769812E+01  0.91388399500E+01  0.10566000000E+00 0.  1.
         14    1    4    4    0    0  0.26037994390E+01 -0.74875451469E+00 -0.36368441806E+02  0.36469219409E+02  0.00000000000E+00 0. -1.
<mgrwt>
<rscale>  0 0.79809380E+02</rscale>
<asrwt>0</asrwt>
<pdfrwt beam="1">  1        2 0.27944553E-01 0.79809380E+02</pdfrwt>
<pdfrwt beam="2">  1       -1 0.13487269E-02 0.79809380E+02</pdfrwt>
<totfact> 0.21475076E+05</totfact>
</mgrwt>
</event>
<event>
 8    1  0.2676873E-016  0.8081090E+02  0.7818608E-02  0.1326766E+00
         -1   -1    0    0    0  501 -0.00000000000E+00  0.00000000000E+00  0.23050237638E+01  0.23050292738E+01  0.50400000000E-02 0.  1.
          2   -1    0    0  501    0  0.00000000000E+00 -0.00000000000E+00 -0.70827836432E+03  0.70827836432E+03  0.25500000000E-02 0. -1.
         24    2    1    2    0    0  0.35527136788E-14  0.00000000000E+00 -0.70597334055E+03  0.71058339359E+03  0.80810900760E+02 0.  0.
         66    2    3    3    0    0 -0.17159888464E+02  0.13431199188E+02 -0.65213574080E+03  0.65250278414E+03  0.19999987742E+01 0.  0.
        -13    1    3    3    0    0  0.17159888464E+02 -0.13431199188E+02 -0.53837599751E+02  0.58080609456E+02  0.10566000000E+00 0.  1.
         13    1    4    4    0    0 -0.11500296962E+02  0.90102958444E+01 -0.43632639209E+03  0.43657092650E+03  0.10566000000E+00 0. -1.
        -13    1    4    4    0    0 -0.12843259549E+01  0.46887809817E+00 -0.44111472075E+02  0.44132782288E+02  0.10566000000E+00 0.  1.
        -14    1    4    4    0    0 -0.43752655469E+01  0.39520252451E+01 -0.17169787663E+03  0.17179907535E+03  0.00000000000E+00 0.  1.
<mgrwt>
<rscale>  0 0.80810901E+02</rscale>
<asrwt>0</asrwt>
<pdfrwt beam="1">  1        2 0.10896573E+00 0.80810901E+02</pdfrwt>
<pdfrwt beam="2">  1       -1 0.35462003E-03 0.80810901E+02</pdfrwt>
<totfact> 0.32672667E+05</totfact>
</mgrwt>
</event>
<event>
 8    1  0.2676873E-016  0.7687388E+02  0.7818608E-02  0.1338165E+00
          2   -1    0    0  501    0  0.00000000000E+00  0.00000000000E+00  0.36878476018E+03  0.36878476019E+03  0.25500000000E-02 0. -1.
         -1   -1    0    0    0  501 -0.00000000000E+00 -0.00000000000E+00 -0.40061246400E+01  0.40061278103E+01  0.50400000000E-02 0.  1.
         24    2    1    2    0    0  0.71054273576E-14  0.44408920985E-15  0.36477863554E+03  0.37279088800E+03  0.76873878716E+02 0.  0.
         66    2    3    3    0    0  0.37496836475E+02  0.28131855403E+01  0.14449294166E+03  0.14931891022E+03  0.20000005971E+01 0.  0.
        -13    1    3    3    0    0 -0.37496836475E+02 -0.28131855403E+01  0.22028569389E+03  0.22347197778E+03  0.10566000000E+00 0.  1.
         13    1    4    4    0    0  0.69077175977E+01  0.52292492052E+00  0.26917122455E+02  0.27794471719E+02  0.10566000000E+00 0. -1.
        -13    1    4    4    0    0  0.24891486523E+02  0.14150537218E+01  0.97526242649E+02  0.10066264276E+03  0.10566000000E+00 0.  1.
        -14    1    4    4    0    0  0.56976323545E+01  0.87520689794E+00  0.20049576554E+02  0.20861795742E+02  0.00000000000E+00 0.  1.
<mgrwt>
<rscale>  0 0.76873879E+02</rscale>
<asrwt>0</asrwt>
<pdfrwt beam="1">  1        2 0.56736123E-01 0.76873879E+02</pdfrwt>
<pdfrwt beam="2">  1       -1 0.61632705E-03 0.76873879E+02</pdfrwt>
<totfact> 0.30464878E+05</totfact>
</mgrwt>
</event>
<event>
 8    1  0.2676873E-016  0.7933100E+02  0.7818608E-02  0.1330961E+00
         -1   -1    0    0    0  501 -0.00000000000E+00  0.00000000000E+00  0.84832602431E+01  0.84832617402E+01  0.50400000000E-02 0.  1.
          2   -1    0    0  501    0  0.00000000000E+00 -0.00000000000E+00 -0.18546547423E+03  0.18546547424E+03  0.25500000000E-02 0. -1.
         24    2    1    2    0    0  0.00000000000E+00  0.71054273576E-14 -0.17698221398E+03  0.19394873598E+03  0.79331003545E+02 0.  0.
         66    2    3    3    0    0 -0.18108587134E+02 -0.31707260539E+02 -0.50824594911E+02  0.62613183627E+02  0.20000042975E+01 0.  0.
        -13    1    3    3    0    0  0.18108587134E+02  0.31707260539E+02 -0.12615761907E+03  0.13133555236E+03  0.10566000000E+00 0.  1.
         13    1    4    4    0    0 -0.21247158564E+01 -0.38197474621E+01 -0.66946686064E+01  0.79959139521E+01  0.10566000000E+00 0. -1.
        -13    1    4    4    0    0 -0.31069675402E+01 -0.55296179572E+01 -0.97690388816E+01  0.11647970070E+02  0.10566000000E+00 0.  1.
        -14    1    4    4    0    0 -0.12876903738E+02 -0.22357895119E+02 -0.34360887423E+02  0.42969299605E+02  0.00000000000E+00 0.  1.
<mgrwt>
<rscale>  0 0.79331004E+02</rscale>
<asrwt>0</asrwt>
<pdfrwt beam="1">  1        2 0.28533147E-01 0.79331004E+02</pdfrwt>
<pdfrwt beam="2">  1       -1 0.13051172E-02 0.79331004E+02</pdfrwt>
<totfact> 0.21974360E+05</totfact>
</mgrwt>
</event>
<event>
 8    1  0.2676873E-016  0.8009215E+02  0.7818608E-02  0.1328790E+00
          2   -1    0    0  501    0  0.00000000000E+00  0.00000000000E+00  0.30296510292E+02  0.30296510399E+02  0.25500000000E-02 0. -1.
         -1   -1    0    0    0  501 -0.00000000000E+00 -0.00000000000E+00 -0.52933098109E+02  0.52933098349E+02  0.50400000000E-02 0.  1.
         24    2    1    2    0    0  0.17763568394E-14  0.00000000000E+00 -0.22636587818E+02  0.83229608748E+02  0.80092151078E+02 0.  0.
         66    2    3    3    0    0  0.14921834556E+02  0.22972065623E+02  0.18994780580E+02  0.33394290507E+02  0.20000009128E+01 0.  0.
        -13    1    3    3    0    0 -0.14921834556E+02 -0.22972065623E+02 -0.41631368398E+02  0.49835318241E+02  0.10566000000E+00 0.  1.
         13    1    4    4    0    0  0.44641653007E+01  0.74265892240E+01  0.56135061257E+01  0.10324999486E+02  0.10566000000E+00 0. -1.
        -13    1    4    4    0    0  0.36960488593E+01  0.66038413906E+01  0.58149675112E+01  0.95444491446E+01  0.10566000000E+00 0.  1.
        -14    1    4    4    0    0  0.67616203959E+01  0.89416350085E+01  0.75663069431E+01  0.13524841876E+02  0.00000000000E+00 0.  1.
<mgrwt>
<rscale>  0 0.80092151E+02</rscale>
<asrwt>0</asrwt>
<pdfrwt beam="1">  1        2 0.46610016E-02 0.80092151E+02</pdfrwt>
<pdfrwt beam="2">  1       -1 0.81435536E-02 0.80092151E+02</pdfrwt>
<totfact> 0.13437966E+05</totfact>
</mgrwt>
</event>
<event>
 8    1  0.2676873E-016  0.8043104E+02  0.7818608E-02  0.1327833E+00
         -1   -1    0    0    0  501 -0.00000000000E+00  0.00000000000E+00  0.89034144588E+02  0.89034144730E+02  0.50400000000E-02 0.  1.
          2   -1    0    0  501    0  0.00000000000E+00 -0.00000000000E+00 -0.18164807241E+02  0.18164807420E+02  0.25500000000E-02 0. -1.
         24    2    1    2    0    0  0.00000000000E+00  0.00000000000E+00  0.70869337346E+02  0.10719895215E+03  0.80431041062E+02 0.  0.
         66    2    3    3    0    0  0.17033340983E+02  0.12421572523E+02 -0.10149067353E+02  0.23482626186E+02  0.19999988629E+01 0.  0.
        -13    1    3    3    0    0 -0.17033340983E+02 -0.12421572523E+02  0.81018404699E+02  0.83716325965E+02  0.10566000000E+00 0.  1.
         13    1    4    4    0    0  0.13066462527E+02  0.98362935950E+01 -0.72393223792E+01  0.17885862216E+02  0.10566000000E+00 0. -1.
        -13    1    4    4    0    0  0.34231694981E+00  0.26600961977E+00 -0.99065604395E-01  0.45707771933E+00  0.10566000000E+00 0.  1.
         14    1    4    4    0    0  0.36245615063E+01  0.23192693084E+01 -0.28106793694E+01  0.51396862507E+01  0.00000000000E+00 0. -1.
<mgrwt>
<rscale>  0 0.80431041E+02</rscale>
<asrwt>0</asrwt>
<pdfrwt beam="1">  1        2 0.27945858E-02 0.80431041E+02</pdfrwt>
<pdfrwt beam="2">  1       -1 0.13697560E-01 0.80431041E+02</pdfrwt>
<totfact> 0.11985885E+05</totfact>
</mgrwt>
</event>
<event>
 8    1  0.2676873E-016  0.8011111E+02  0.7818608E-02  0.1328736E+00
         -1   -1    0    0    0  501 -0.00000000000E+00  0.00000000000E+00  0.16708251339E+02  0.16708252099E+02  0.50400000000E-02 0.  1.
          2   -1    0    0  501    0  0.00000000000E+00 -0.00000000000E+00 -0.96027249840E+02  0.96027249874E+02  0.25500000000E-02 0. -1.
         24    2    1    2    0    0  0.17763568394E-14 -0.71054273576E-14 -0.79318998501E+02  0.11273550197E+03  0.80111109604E+02 0.  0.
         66    2    3    3    0    0 -0.15245984704E+02  0.36582467417E+02 -0.31757813769E+02  0.50825935434E+02  0.20000013644E+01 0.  0.
        -13    1    3    3    0    0  0.15245984704E+02 -0.36582467417E+02 -0.47561184732E+02  0.61909566539E+02  0.10566000000E+00 0.  1.
         13    1    4    4    0    0 -0.37693019027E+01  0.92575618816E+01 -0.83098662574E+01  0.12999043429E+02  0.10566000000E+00 0. -1.
        -13    1    4    4    0    0 -0.73786078036E+01  0.19489402645E+02 -0.16348953086E+02  0.26487357355E+02  0.10566000000E+00 0.  1.
         14    1    4    4    0    0 -0.40980749979E+01  0.78355028902E+01 -0.70989944253E+01  0.11339534650E+02  0.00000000000E+00 0. -1.
<mgrwt>
<rscale>  0 0.80111110E+02</rscale>
<asrwt>0</asrwt>
<pdfrwt beam="1">  1        2 0.14773423E-01 0.80111110E+02</pdfrwt>
<pdfrwt beam="2">  1       -1 0.25705003E-02 0.80111110E+02</pdfrwt>
<totfact> 0.17462248E+05</totfact>
</mgrwt>
</event>
<event>
 8    1  0.2676873E-016  0.7970662E+02  0.7818608E-02  0.1329886E+00
          2   -1    0    0  501    0  0.00000000000E+00  0.00000000000E+00  0.16034265519E+03  0.16034265521E+03  0.25500000000E-02 0. -1.
         -1   -1    0    0    0  501 -0.00000000000E+00 -0.00000000000E+00 -0.99055757696E+01  0.99055770517E+01  0.50400000000E-02 0.  1.
         24    2    1    2    0    0  0.35527136788E-14 -0.17763568394E-14  0.15043707942E+03  0.17024823227E+03  0.79706622836E+02 0.  0.
         66    2    3    3    0    0 -0.30462055420E+02  0.65291165570E+01  0.12826604689E+03  0.13201039719E+03  0.19999997377E+01 0.  0.
        -13    1    3    3    0    0  0.30462055420E+02 -0.65291165570E+01  0.22171032536E+02  0.38237835074E+02  0.10566000000E+00 0.  1.
         13    1    4    4    0    0 -0.17646581952E+02  0.39975804524E+01  0.74983673340E+02  0.77135886173E+02  0.10566000000E+00 0. -1.
        -13    1    4    4    0    0 -0.80869840653E+01  0.20645925147E+01  0.35522584465E+02  0.36490094884E+02  0.10566000000E+00 0.  1.
         14    1    4    4    0    0 -0.47284894020E+01  0.46694358983E+00  0.17759789083E+02  0.18384416135E+02  0.00000000000E+00 0. -1.
<mgrwt>
<rscale>  0 0.79706623E+02</rscale>
<asrwt>0</asrwt>
<pdfrwt beam="1">  1        2 0.24668097E-01 0.79706623E+02</pdfrwt>
<pdfrwt beam="2">  1       -1 0.15239351E-02 0.79706623E+02</pdfrwt>
<totfact> 0.20669454E+05</totfact>
</mgrwt>
</event>
<event>
 8    1  0.2676873E-016  0.7960120E+02  0.7818608E-02  0.1330187E+00
         -1   -1    0    0    0  501 -0.00000000000E+00  0.00000000000E+00  0.32752616344E+01  0.32752655122E+01  0.50400000000E-02 0.  1.
          2   -1    0    0  501    0  0.00000000000E+00 -0.00000000000E+00 -0.48365204294E+03  0.48365204295E+03  0.25500000000E-02 0. -1.
         24    2    1    2    0    0  0.00000000000E+00  0.00000000000E+00 -0.48037678131E+03  0.48692730846E+03  0.79601204172E+02 0.  0.
         66    2    3    3    0    0 -0.13338450980E+02 -0.26915064368E+02 -0.39982408757E+03  0.40095590277E+03  0.19999995916E+01 0.  0.
        -13    1    3    3    0    0  0.13338450980E+02  0.26915064368E+02 -0.80552693737E+02  0.85971405693E+02  0.10566000000E+00 0.  1.
         13    1    4    4    0    0 -0.32212852945E+01 -0.63979785872E+01 -0.95983558117E+02  0.96250534553E+02  0.10566000000E+00 0. -1.
        -13    1    4    4    0    0 -0.48769728678E+01 -0.10844652831E+02 -0.14784893141E+03  0.14832635991E+03  0.10566000000E+00 0.  1.
        -14    1    4    4    0    0 -0.52401928181E+01 -0.96724329505E+01 -0.15599159804E+03  0.15637900831E+03  0.00000000000E+00 0.  1.
<mgrwt>
<rscale>  0 0.79601204E+02</rscale>
<asrwt>0</asrwt>
<pdfrwt beam="1">  1        2 0.74407950E-01 0.79601204E+02</pdfrwt>
<pdfrwt beam="2">  1       -1 0.50388709E-03 0.79601204E+02</pdfrwt>
<totfact> 0.30522503E+05</totfact>
</mgrwt>
</event>
<event>
 8    1  0.2676873E-016  0.8924759E+02  0.7818608E-02  0.1304684E+00
          2   -1    0    0  501    0  0.00000000000E+00  0.00000000000E+00  0.53018388059E+02  0.53018388121E+02  0.25500000000E-02 0. -1.
         -1   -1    0    0    0  501 -0.00000000000E+00 -0.00000000000E+00 -0.37558346235E+02  0.37558346573E+02  0.50400000000E-02 0.  1.
         24    2    1    2    0    0  0.00000000000E+00  0.00000000000E+00  0.15460041824E+02  0.90576734694E+02  0.89247588061E+02 0.  0.
         66    2    3    3    0    0 -0.31062980732E+02 -0.12731451218E+02  0.37535805457E+02  0.50397770968E+02  0.20000012908E+01 0.  0.
        -13    1    3    3    0    0  0.31062980732E+02  0.12731451218E+02 -0.22075763633E+02  0.40178963726E+02  0.10566000000E+00 0.  1.
         13    1    4    4    0    0 -0.20325196198E+02 -0.85449080272E+01  0.25527185163E+02  0.33730956109E+02  0.10566000000E+00 0. -1.
        -13    1    4    4    0    0 -0.13594975070E+01 -0.82914534184E+00  0.16073319217E+01  0.22650376181E+01  0.10566000000E+00 0.  1.
        -14    1    4    4    0    0 -0.93782870271E+01 -0.33573978491E+01  0.10401288373E+02  0.14401777241E+02  0.00000000000E+00 0.  1.
<mgrwt>
<rscale>  0 0.89247588E+02</rscale>
<asrwt>0</asrwt>
<pdfrwt beam="1">  1        2 0.81566750E-02 0.89247588E+02</pdfrwt>
<pdfrwt beam="2">  1       -1 0.57782072E-02 0.89247588E+02</pdfrwt>
<totfact> 0.11198610E+05</totfact>
</mgrwt>
</event>
<event>
 8    1  0.2676873E-016  0.7982130E+02  0.7818608E-02  0.1329559E+00
         -1   -1    0    0    0  501 -0.00000000000E+00  0.00000000000E+00  0.21659254425E+01  0.21659313064E+01  0.50400000000E-02 0.  1.
          2   -1    0    0  501    0  0.00000000000E+00 -0.00000000000E+00 -0.73541672676E+03  0.73541672677E+03  0.25500000000E-02 0. -1.
         24    2    1    2    0    0  0.22204460493E-15  0.00000000000E+00 -0.73325080132E+03  0.73758265807E+03  0.79821299501E+02 0.  0.
         66    2    3    3    0    0  0.68424447134E+00  0.27442052518E+02 -0.63424038384E+03  0.63483730114E+03  0.19999983957E+01 0.  0.
        -13    1    3    3    0    0 -0.68424447134E+00 -0.27442052518E+02 -0.99010417481E+02  0.10274535693E+03  0.10566000000E+00 0.  1.
         13    1    4    4    0    0  0.95996323139E+00  0.23930231355E+02 -0.55370847446E+03  0.55422618430E+03  0.10566000000E+00 0. -1.
        -13    1    4    4    0    0  0.78876232666E-01  0.41253799112E+00 -0.12968398529E+02  0.12975628443E+02  0.10566000000E+00 0.  1.
        -14    1    4    4    0    0 -0.35459499271E+00  0.30992831720E+01 -0.67563510844E+02  0.67635488402E+02  0.00000000000E+00 0.  1.
<mgrwt>
<rscale>  0 0.79821300E+02</rscale>
<asrwt>0</asrwt>
<pdfrwt beam="1">  1        2 0.11314084E+00 0.79821300E+02</pdfrwt>
<pdfrwt beam="2">  1       -1 0.33322034E-03 0.79821300E+02</pdfrwt>
<totfact> 0.34012997E+05</totfact>
</mgrwt>
</event>
<event>
 8    1  0.2676873E-016  0.7311154E+02  0.7818608E-02  0.1349821E+00
         -1   -1    0    0    0  501 -0.00000000000E+00  0.00000000000E+00  0.70203547517E+01  0.70203565609E+01  0.50400000000E-02 0.  1.
          2   -1    0    0  501    0  0.00000000000E+00 -0.00000000000E+00 -0.19034992137E+03  0.19034992138E+03  0.25500000000E-02 0. -1.
         24    2    1    2    0    0  0.00000000000E+00 -0.35527136788E-14 -0.18332956661E+03  0.19737027794E+03  0.73111535483E+02 0.  0.
         66    2    3    3    0    0 -0.59857978684E+01  0.31465603009E+02 -0.13914175179E+03  0.14279475145E+03  0.20000006299E+01 0.  0.
        -13    1    3    3    0    0  0.59857978684E+01 -0.31465603009E+02 -0.44187814826E+02  0.54575526493E+02  0.10566000000E+00 0.  1.
         13    1    4    4    0    0 -0.15818322492E+01  0.11251324108E+02 -0.46956524476E+02  0.48311705024E+02  0.10566000000E+00 0. -1.
        -13    1    4    4    0    0 -0.30206509901E+01  0.11881052322E+02 -0.53676536688E+02  0.55058745822E+02  0.10566000000E+00 0.  1.
         14    1    4    4    0    0 -0.13833146291E+01  0.83332265789E+01 -0.38508690624E+02  0.39424300604E+02  0.00000000000E+00 0. -1.
<mgrwt>
<rscale>  0 0.73111535E+02</rscale>
<asrwt>0</asrwt>
<pdfrwt beam="1">  1        2 0.29284599E-01 0.73111535E+02</pdfrwt>
<pdfrwt beam="2">  1       -1 0.10800549E-02 0.73111535E+02</pdfrwt>
<totfact> 0.27471675E+05</totfact>
</mgrwt>
</event>
<event>
 8    1  0.2676873E-016  0.7962185E+02  0.7818608E-02  0.1330128E+00
          2   -1    0    0  501    0  0.00000000000E+00  0.00000000000E+00  0.74861640526E+03  0.74861640526E+03  0.25500000000E-02 0. -1.
         -1   -1    0    0    0  501 -0.00000000000E+00 -0.00000000000E+00 -0.21171157794E+01  0.21171217785E+01  0.50400000000E-02 0.  1.
         24    2    1    2    0    0  0.00000000000E+00  0.44408920985E-15  0.74649928948E+03  0.75073352704E+03  0.79621852724E+02 0.  0.
         66    2    3    3    0    0 -0.15916476068E+02 -0.28536480749E+01  0.71623269061E+03  0.71641799573E+03  0.19999989004E+01 0.  0.
        -13    1    3    3    0    0  0.15916476068E+02  0.28536480749E+01  0.30266598870E+02  0.34315531308E+02  0.10566000000E+00 0.  1.
         13    1    4    4    0    0 -0.38665888090E+01 -0.12897109441E+01  0.17641211287E+03  0.17645922643E+03  0.10566000000E+00 0. -1.
        -13    1    4    4    0    0 -0.97760912107E+01 -0.97002436523E+00  0.41710783178E+03  0.41722352211E+03  0.10566000000E+00 0.  1.
         14    1    4    4    0    0 -0.22737960485E+01 -0.59391276555E+00  0.12271274596E+03  0.12273524719E+03  0.00000000000E+00 0. -1.
<mgrwt>
<rscale>  0 0.79621853E+02</rscale>
<asrwt>0</asrwt>
<pdfrwt beam="1">  1        2 0.11517176E+00 0.79621853E+02</pdfrwt>
<pdfrwt beam="2">  1       -1 0.32571056E-03 0.79621853E+02</pdfrwt>
<totfact> 0.34360464E+05</totfact>
</mgrwt>
</event>
<event>
 8    1  0.2676873E-016  0.7631349E+02  0.7818608E-02  0.1339851E+00
          2   -1    0    0  501    0  0.00000000000E+00  0.00000000000E+00  0.16011526003E+03  0.16011526005E+03  0.25500000000E-02 0. -1.
         -1   -1    0    0    0  501 -0.00000000000E+00 -0.00000000000E+00 -0.90930569306E+01  0.90930583273E+01  0.50400000000E-02 0.  1.
         24    2    1    2    0    0 -0.17763568394E-14  0.00000000000E+00  0.15102220310E+03  0.16920831838E+03  0.76313492773E+02 0.  0.
         66    2    3    3    0    0  0.12841593073E+02  0.97406200130E+01  0.15218405286E+03  0.15304826733E+03  0.19999998415E+01 0.  0.
        -13    1    3    3    0    0 -0.12841593073E+02 -0.97406200130E+01 -0.11618497551E+01  0.16160051045E+02  0.10566000000E+00 0.  1.
         13    1    4    4    0    0  0.83085576768E+01  0.63359405790E+01  0.10709269060E+03  0.10760126309E+03  0.10566000000E+00 0. -1.
        -13    1    4    4    0    0  0.18242413983E+01  0.13563184480E+01  0.17408870125E+02  0.17556975237E+02  0.10566000000E+00 0.  1.
         14    1    4    4    0    0  0.27087939981E+01  0.20483609860E+01  0.27682492129E+02  0.27890029009E+02  0.00000000000E+00 0. -1.
<mgrwt>
<rscale>  0 0.76313493E+02</rscale>
<asrwt>0</asrwt>
<pdfrwt beam="1">  1        2 0.24633116E-01 0.76313493E+02</pdfrwt>
<pdfrwt beam="2">  1       -1 0.13989320E-02 0.76313493E+02</pdfrwt>
<totfact> 0.23176962E+05</totfact>
</mgrwt>
</event>
<event>
 8    1  0.2676873E-016  0.7968517E+02  0.7818608E-02  0.1329947E+00
          2   -1    0    0  501    0  0.00000000000E+00  0.00000000000E+00  0.39510216203E+03  0.39510216204E+03  0.25500000000E-02 0. -1.
         -1   -1    0    0    0  501 -0.00000000000E+00 -0.00000000000E+00 -0.40177738478E+01  0.40177770089E+01  0.50400000000E-02 0.  1.
         24    2    1    2    0    0 -0.35527136788E-14  0.00000000000E+00  0.39108438818E+03  0.39911993905E+03  0.79685174688E+02 0.  0.
         66    2    3    3    0    0  0.28469364655E+02  0.18572099310E+02  0.29952775995E+03  0.30145697302E+03  0.20000006870E+01 0.  0.
        -13    1    3    3    0    0 -0.28469364655E+02 -0.18572099310E+02  0.91556628229E+02  0.97662966027E+02  0.10566000000E+00 0.  1.
         13    1    4    4    0    0  0.81493286373E+01  0.51866662853E+01  0.81797998615E+02  0.82366478654E+02  0.10566000000E+00 0. -1.
        -13    1    4    4    0    0  0.19194096868E+02  0.13011791878E+02  0.20803812570E+03  0.20932652243E+03  0.10566000000E+00 0.  1.
        -14    1    4    4    0    0  0.11259391502E+01  0.37364114661E+00  0.96916356371E+01  0.97639719376E+01  0.00000000000E+00 0.  1.
<mgrwt>
<rscale>  0 0.79685175E+02</rscale>
<asrwt>0</asrwt>
<pdfrwt beam="1">  1        2 0.60784991E-01 0.79685175E+02</pdfrwt>
<pdfrwt beam="2">  1       -1 0.61811886E-03 0.79685175E+02</pdfrwt>
<totfact> 0.28423259E+05</totfact>
</mgrwt>
</event>
<event>
 8    1  0.2676873E-016  0.8786522E+02  0.7818608E-02  0.1308105E+00
          2   -1    0    0  501    0  0.00000000000E+00  0.00000000000E+00  0.91565797710E+03  0.91565797711E+03  0.25500000000E-02 0. -1.
         -1   -1    0    0    0  501 -0.00000000000E+00 -0.00000000000E+00 -0.21078520546E+01  0.21078580801E+01  0.50400000000E-02 0.  1.
         24    2    1    2    0    0 -0.17763568394E-14  0.71054273576E-14  0.91355012505E+03  0.91776583519E+03  0.87865222130E+02 0.  0.
         66    2    3    3    0    0 -0.15899285259E+02  0.31776485681E+02  0.72647519082E+03  0.72734636534E+03  0.19999975887E+01 0.  0.
        -13    1    3    3    0    0  0.15899285259E+02 -0.31776485681E+02  0.18707493423E+03  0.19041946984E+03  0.10566000000E+00 0.  1.
         13    1    4    4    0    0 -0.52538680274E+01  0.98901566769E+01  0.22786516411E+03  0.22814022554E+03  0.10566000000E+00 0. -1.
        -13    1    4    4    0    0 -0.30934015752E+01  0.49450080690E+01  0.11442010916E+03  0.11456873388E+03  0.10566000000E+00 0.  1.
        -14    1    4    4    0    0 -0.75520156565E+01  0.16941320935E+02  0.38418991754E+03  0.38463740593E+03  0.00000000000E+00 0.  1.
<mgrwt>
<rscale>  0 0.87865222E+02</rscale>
<asrwt>0</asrwt>
<pdfrwt beam="1">  1        2 0.14087083E+00 0.87865222E+02</pdfrwt>
<pdfrwt beam="2">  1       -1 0.32428454E-03 0.87865222E+02</pdfrwt>
<totfact> 0.27412092E+05</totfact>
</mgrwt>
</event>
<event>
 8    1  0.2676873E-016  0.7896349E+02  0.7818608E-02  0.1332019E+00
         -1   -1    0    0    0  501 -0.00000000000E+00  0.00000000000E+00  0.81670911264E+02  0.81670911419E+02  0.50400000000E-02 0.  1.
          2   -1    0    0  501    0  0.00000000000E+00 -0.00000000000E+00 -0.19086457380E+02  0.19086457551E+02  0.25500000000E-02 0. -1.
         24    2    1    2    0    0  0.00000000000E+00  0.00000000000E+00  0.62584453883E+02  0.10075736897E+03  0.78963494944E+02 0.  0.
         66    2    3    3    0    0  0.19610524557E+02 -0.41311014862E+01 -0.12056057126E+02  0.23473116236E+02  0.19999998843E+01 0.  0.
        -13    1    3    3    0    0 -0.19610524557E+02  0.41311014862E+01  0.74640511009E+02  0.77284252734E+02  0.10566000000E+00 0.  1.
         13    1    4    4    0    0  0.10179744284E+02 -0.16511497694E+01 -0.60468807190E+01  0.11955309269E+02  0.10566000000E+00 0. -1.
        -13    1    4    4    0    0  0.16919571491E+00  0.79702440449E-01 -0.16989512606E+00  0.27387599095E+00  0.10566000000E+00 0. -1.
        -14    1    4    4    0    0  0.92615845584E+01 -0.25596541572E+01 -0.58392812805E+01  0.11243930977E+02  0.00000000000E+00 0.  1.
<mgrwt>
<rscale>  0 0.78963495E+02</rscale>
<asrwt>0</asrwt>
<pdfrwt beam="1">  1        2 0.29363781E-02 0.78963495E+02</pdfrwt>
<pdfrwt beam="2">  1       -1 0.12564756E-01 0.78963495E+02</pdfrwt>
<totfact> 0.12768622E+05</totfact>
</mgrwt>
</event>
<event>
 8    1  0.2676873E-016  0.7321304E+02  0.7818608E-02  0.1349496E+00
          2   -1    0    0  501    0  0.00000000000E+00  0.00000000000E+00  0.33434557697E+03  0.33434557698E+03  0.25500000000E-02 0. -1.
         -1   -1    0    0    0  501 -0.00000000000E+00 -0.00000000000E+00 -0.40079397151E+01  0.40079428841E+01  0.50400000000E-02 0.  1.
         24    2    1    2    0    0 -0.35527136788E-14  0.00000000000E+00  0.33033763726E+03  0.33835351986E+03  0.73213044037E+02 0.  0.
         66    2    3    3    0    0  0.22643250273E+02  0.11910783310E+02  0.28611075293E+03  0.28725937144E+03  0.19999991181E+01 0.  0.
        -13    1    3    3    0    0 -0.22643250273E+02 -0.11910783310E+02  0.44226884331E+02  0.51094148429E+02  0.10566000000E+00 0.  1.
         13    1    4    4    0    0  0.14586358157E+02  0.74861306021E+01  0.18204184838E+03  0.18277869055E+03  0.10566000000E+00 0. -1.
        -13    1    4    4    0    0  0.40840575424E+01  0.24846027158E+01  0.47916368165E+02  0.48154358877E+02  0.10566000000E+00 0.  1.
         14    1    4    4    0    0  0.39728345736E+01  0.19400499924E+01  0.56152536382E+02  0.56326322005E+02  0.00000000000E+00 0. -1.
<mgrwt>
<rscale>  0 0.73213044E+02</rscale>
<asrwt>0</asrwt>
<pdfrwt beam="1">  1        2 0.51437804E-01 0.73213044E+02</pdfrwt>
<pdfrwt beam="2">  1       -1 0.61660608E-03 0.73213044E+02</pdfrwt>
<totfact> 0.33399910E+05</totfact>
</mgrwt>
</event>
<event>
 8    1  0.2676873E-016  0.8247351E+02  0.7818608E-02  0.1322175E+00
          2   -1    0    0  501    0  0.00000000000E+00  0.00000000000E+00  0.32144512449E+02  0.32144512550E+02  0.25500000000E-02 0. -1.
         -1   -1    0    0    0  501 -0.00000000000E+00 -0.00000000000E+00 -0.52900791579E+02  0.52900791819E+02  0.50400000000E-02 0.  1.
         24    2    1    2    0    0  0.17763568394E-14 -0.71054273576E-14 -0.20756279130E+02  0.85045304369E+02  0.82473514973E+02 0.  0.
         66    2    3    3    0    0 -0.71313375911E+01  0.37355925335E+02  0.59899780120E+01  0.38551277134E+02  0.19999996545E+01 0.  0.
        -13    1    3    3    0    0  0.71313375911E+01 -0.37355925335E+02 -0.26746257142E+02  0.46494027235E+02  0.10566000000E+00 0.  1.
         13    1    4    4    0    0 -0.37723566278E+01  0.21870465763E+02  0.39592160455E+01  0.22544056932E+02  0.10566000000E+00 0. -1.
        -13    1    4    4    0    0 -0.28295658990E+01  0.14005848159E+02  0.20507803769E+01  0.14435618796E+02  0.10566000000E+00 0.  1.
        -14    1    4    4    0    0 -0.52941506437E+00  0.14796114130E+01 -0.20018410435E-01  0.15716014064E+01  0.00000000000E+00 0.  1.
<mgrwt>
<rscale>  0 0.82473515E+02</rscale>
<asrwt>0</asrwt>
<pdfrwt beam="1">  1        2 0.49453096E-02 0.82473515E+02</pdfrwt>
<pdfrwt beam="2">  1       -1 0.81385834E-02 0.82473515E+02</pdfrwt>
<totfact> 0.12525511E+05</totfact>
</mgrwt>
</event>
<event>
 8    1  0.2676873E-016  0.8043435E+02  0.7818608E-02  0.1327823E+00
          2   -1    0    0  501    0  0.00000000000E+00  0.00000000000E+00  0.40664966826E+03  0.40664966827E+03  0.25500000000E-02 0. -1.
         -1   -1    0    0    0  501 -0.00000000000E+00 -0.00000000000E+00 -0.39774297529E+01  0.39774329461E+01  0.50400000000E-02 0.  1.
         24    2    1    2    0    0  0.35527136788E-14 -0.35527136788E-14  0.40267223850E+03  0.41062710121E+03  0.80434349547E+02 0.  0.
         66    2    3    3    0    0  0.20305605239E+02 -0.11379912155E+02  0.36873351610E+03  0.36947290280E+03  0.19999998057E+01 0.  0.
        -13    1    3    3    0    0 -0.20305605239E+02  0.11379912155E+02  0.33938722400E+02  0.41154198412E+02  0.10566000000E+00 0.  1.
         13    1    4    4    0    0  0.70524492621E+01 -0.39708300764E+01  0.11920383326E+03  0.11947832255E+03  0.10566000000E+00 0.  1.
        -13    1    4    4    0    0  0.40981293689E+01 -0.22232005668E+01  0.86650662273E+02  0.86776066524E+02  0.10566000000E+00 0. -1.
         14    1    4    4    0    0  0.91550266081E+01 -0.51858815119E+01  0.16287902058E+03  0.16321851373E+03  0.00000000000E+00 0. -1.
<mgrwt>
<rscale>  0 0.80434350E+02</rscale>
<asrwt>0</asrwt>
<pdfrwt beam="1">  1        2 0.62561466E-01 0.80434350E+02</pdfrwt>
<pdfrwt beam="2">  1       -1 0.61191273E-03 0.80434350E+02</pdfrwt>
<totfact> 0.28017393E+05</totfact>
</mgrwt>
</event>
<event>
 8    1  0.2676873E-016  0.7795097E+02  0.7818608E-02  0.1334969E+00
          2   -1    0    0  501    0  0.00000000000E+00  0.00000000000E+00  0.25413667252E+03  0.25413667253E+03  0.25500000000E-02 0. -1.
         -1   -1    0    0    0  501 -0.00000000000E+00 -0.00000000000E+00 -0.59774464217E+01  0.59774485465E+01  0.50400000000E-02 0.  1.
         24    2    1    2    0    0  0.00000000000E+00  0.00000000000E+00  0.24815922610E+03  0.26011412108E+03  0.77950974896E+02 0.  0.
         66    2    3    3    0    0 -0.35418559915E+02 -0.10062233254E+02  0.81773218246E+02  0.89702743238E+02  0.19999994291E+01 0.  0.
        -13    1    3    3    0    0  0.35418559915E+02  0.10062233254E+02  0.16638600785E+03  0.17041137784E+03  0.10566000000E+00 0.  1.
         13    1    4    4    0    0 -0.11305040313E+02 -0.27367993541E+01  0.26987947853E+02  0.29387999260E+02  0.10566000000E+00 0. -1.
        -13    1    4    4    0    0 -0.52958679778E+01 -0.13012483433E+01  0.12726548489E+02  0.13846142617E+02  0.10566000000E+00 0. -1.
         14    1    4    4    0    0 -0.18817651624E+02 -0.60241855570E+01  0.42058721904E+02  0.46468601361E+02  0.00000000000E+00 0. -1.
<mgrwt>
<rscale>  0 0.77950975E+02</rscale>
<asrwt>0</asrwt>
<pdfrwt beam="1">  1        2 0.39097947E-01 0.77950975E+02</pdfrwt>
<pdfrwt beam="2">  1       -1 0.91960738E-03 0.77950975E+02</pdfrwt>
<totfact> 0.25701235E+05</totfact>
</mgrwt>
</event>
<event>
 8    1  0.2676873E-016  0.7888413E+02  0.7818608E-02  0.1332248E+00
          2   -1    0    0  501    0  0.00000000000E+00  0.00000000000E+00  0.26803048727E+03  0.26803048728E+03  0.25500000000E-02 0. -1.
         -1   -1    0    0    0  501 -0.00000000000E+00 -0.00000000000E+00 -0.58041011329E+01  0.58041033211E+01  0.50400000000E-02 0.  1.
         24    2    1    2    0    0  0.00000000000E+00  0.00000000000E+00  0.26222638613E+03  0.27383459060E+03  0.78884126567E+02 0.  0.
         66    2    3    3    0    0 -0.25441601513E+02  0.15112258548E+01  0.23557546821E+03  0.23695856205E+03  0.20000041701E+01 0.  0.
        -13    1    3    3    0    0  0.25441601513E+02 -0.15112258548E+01  0.26650917922E+02  0.36876028545E+02  0.10566000000E+00 0.  1.
         13    1    4    4    0    0 -0.12792307241E+02  0.10280873622E+01  0.11412153937E+03  0.11484092041E+03  0.10566000000E+00 0. -1.
        -13    1    4    4    0    0 -0.22724651624E+00  0.74245783028E-01  0.16266219239E+01  0.16474878860E+01  0.10566000000E+00 0. -1.
         14    1    4    4    0    0 -0.12422047756E+02  0.40889270953E+00  0.11982730692E+03  0.12047015376E+03  0.00000000000E+00 0. -1.
<mgrwt>
<rscale>  0 0.78884127E+02</rscale>
<asrwt>0</asrwt>
<pdfrwt beam="1">  1        2 0.41235460E-01 0.78884127E+02</pdfrwt>
<pdfrwt beam="2">  1       -1 0.89293881E-03 0.78884127E+02</pdfrwt>
<totfact> 0.25393922E+05</totfact>
</mgrwt>
</event>
<event>
 8    1  0.2676873E-016  0.8109053E+02  0.7818608E-02  0.1325985E+00
          2   -1    0    0  501    0  0.00000000000E+00  0.00000000000E+00  0.51609190084E+02  0.51609190147E+02  0.25500000000E-02 0. -1.
         -1   -1    0    0    0  501 -0.00000000000E+00 -0.00000000000E+00 -0.31853213871E+02  0.31853214270E+02  0.50400000000E-02 0.  1.
         24    2    1    2    0    0  0.00000000000E+00  0.00000000000E+00  0.19755976213E+02  0.83462404417E+02  0.81090531845E+02 0.  0.
         66    2    3    3    0    0 -0.21862537209E+02 -0.32662101881E+02  0.20027713700E+02  0.44157589981E+02  0.20000010996E+01 0.  0.
        -13    1    3    3    0    0  0.21862537209E+02  0.32662101881E+02 -0.27173748717E+00  0.39304814435E+02  0.10566000000E+00 0.  1.
         13    1    4    4    0    0 -0.78855353298E+01 -0.10724994887E+02  0.67214282692E+01  0.14912945544E+02  0.10566000000E+00 0. -1.
        -13    1    4    4    0    0 -0.37840003756E+01 -0.70099380725E+01  0.40469743851E+01  0.89357180088E+01  0.10566000000E+00 0.  1.
        -14    1    4    4    0    0 -0.10193001504E+02 -0.14927168921E+02  0.92593110459E+01  0.20308926429E+02  0.00000000000E+00 0.  1.
<mgrwt>
<rscale>  0 0.81090532E+02</rscale>
<asrwt>0</asrwt>
<pdfrwt beam="1">  1        2 0.79398754E-02 0.81090532E+02</pdfrwt>
<pdfrwt beam="2">  1       -1 0.49004945E-02 0.81090532E+02</pdfrwt>
<totfact> 0.14499172E+05</totfact>
</mgrwt>
</event>
<event>
 8    1  0.2676873E-016  0.7980230E+02  0.7818608E-02  0.1329613E+00
         -1   -1    0    0    0  501 -0.00000000000E+00  0.00000000000E+00  0.22049331993E+01  0.22049389594E+01  0.50400000000E-02 0.  1.
          2   -1    0    0  501    0  0.00000000000E+00 -0.00000000000E+00 -0.72206263270E+03  0.72206263271E+03  0.25500000000E-02 0. -1.
         24    2    1    2    0    0 -0.35527136788E-14  0.00000000000E+00 -0.71985769950E+03  0.72426757167E+03  0.79802304688E+02 0.  0.
         66    2    3    3    0    0 -0.22811804094E+02  0.10154373026E+02 -0.64232286386E+03  0.64281113177E+03  0.19999996432E+01 0.  0.
        -13    1    3    3    0    0  0.22811804094E+02 -0.10154373026E+02 -0.77534835646E+02  0.81456439895E+02  0.10566000000E+00 0.  1.
         13    1    4    4    0    0 -0.21741080736E+02  0.98717870877E+01 -0.60709071169E+03  0.60756009592E+03  0.10566000000E+00 0. -1.
        -13    1    4    4    0    0 -0.36850492302E+00  0.21521223374E+00 -0.15678713781E+02  0.15684876220E+02  0.10566000000E+00 0.  1.
         14    1    4    4    0    0 -0.70221843550E+00  0.67373704858E-01 -0.19553438385E+02  0.19566159629E+02  0.00000000000E+00 0. -1.
<mgrwt>
<rscale>  0 0.79802305E+02</rscale>
<asrwt>0</asrwt>
<pdfrwt beam="1">  1        2 0.11108637E+00 0.79802305E+02</pdfrwt>
<pdfrwt beam="2">  1       -1 0.33922151E-03 0.79802305E+02</pdfrwt>
<totfact> 0.33901242E+05</totfact>
</mgrwt>
</event>
<event>
 8    1  0.2676873E-016  0.7845378E+02  0.7818608E-02  0.1333498E+00
         -1   -1    0    0    0  501 -0.00000000000E+00  0.00000000000E+00  0.92782496127E+01  0.92782509816E+01  0.50400000000E-02 0.  1.
          2   -1    0    0  501    0  0.00000000000E+00 -0.00000000000E+00 -0.16584474690E+03  0.16584474692E+03  0.25500000000E-02 0. -1.
         24    2    1    2    0    0  0.00000000000E+00  0.00000000000E+00 -0.15656649728E+03  0.17512299790E+03  0.78453784618E+02 0.  0.
         66    2    3    3    0    0  0.15347160433E+02 -0.35640052097E+02 -0.65906630019E+02  0.76507728576E+02  0.20000011408E+01 0.  0.
        -13    1    3    3    0    0 -0.15347160433E+02  0.35640052097E+02 -0.90659867264E+02  0.98615269321E+02  0.10566000000E+00 0.  1.
         13    1    4    4    0    0  0.34693679139E+01 -0.88340916878E+01 -0.15369584962E+02  0.18064135618E+02  0.10566000000E+00 0. -1.
        -13    1    4    4    0    0  0.36825013192E+01 -0.67883867792E+01 -0.13194922467E+02  0.15289216918E+02  0.10566000000E+00 0.  1.
         14    1    4    4    0    0  0.81952912004E+01 -0.20017573630E+02 -0.37342122590E+02  0.43154376040E+02  0.00000000000E+00 0. -1.
<mgrwt>
<rscale>  0 0.78453785E+02</rscale>
<asrwt>0</asrwt>
<pdfrwt beam="1">  1        2 0.25514574E-01 0.78453785E+02</pdfrwt>
<pdfrwt beam="2">  1       -1 0.14274233E-02 0.78453785E+02</pdfrwt>
<totfact> 0.21795050E+05</totfact>
</mgrwt>
</event>
<event>
 8    1  0.2676873E-016  0.8088552E+02  0.7818608E-02  0.1326557E+00
          2   -1    0    0  501    0  0.00000000000E+00  0.00000000000E+00  0.69860338676E+03  0.69860338677E+03  0.25500000000E-02 0. -1.
         -1   -1    0    0    0  501 -0.00000000000E+00 -0.00000000000E+00 -0.23412640647E+01  0.23412694895E+01  0.50400000000E-02 0.  1.
         24    2    1    2    0    0  0.00000000000E+00  0.35527136788E-14  0.69626212270E+03  0.70094465626E+03  0.80885521765E+02 0.  0.
         66    2    3    3    0    0 -0.24821693639E+02 -0.22182118162E+02  0.54698859607E+03  0.54800427651E+03  0.20000002001E+01 0.  0.
        -13    1    3    3    0    0  0.24821693639E+02  0.22182118162E+02  0.14927352662E+03  0.15294037974E+03  0.10566000000E+00 0.  1.
         13    1    4    4    0    0 -0.88453617870E+01 -0.73387858109E+01  0.18960951869E+03  0.18995757143E+03  0.10566000000E+00 0. -1.
        -13    1    4    4    0    0 -0.21962936174E+01 -0.23039574608E+01  0.60165097013E+02  0.60249331849E+02  0.10566000000E+00 0.  1.
        -14    1    4    4    0    0 -0.13780038235E+02 -0.12539374890E+02  0.29721398037E+03  0.29779737324E+03  0.00000000000E+00 0.  1.
<mgrwt>
<rscale>  0 0.80885522E+02</rscale>
<asrwt>0</asrwt>
<pdfrwt beam="1">  1        2 0.10747764E+00 0.80885522E+02</pdfrwt>
<pdfrwt beam="2">  1       -1 0.36019424E-03 0.80885522E+02</pdfrwt>
<totfact> 0.32492634E+05</totfact>
</mgrwt>
</event>
<event>
 8    1  0.2676873E-016  0.7860222E+02  0.7818608E-02  0.1333066E+00
         -1   -1    0    0    0  501 -0.00000000000E+00  0.00000000000E+00  0.14512156656E+01  0.14512244174E+01  0.50400000000E-02 0.  1.
          2   -1    0    0  501    0  0.00000000000E+00 -0.00000000000E+00 -0.10643300741E+04  0.10643300741E+04  0.25500000000E-02 0. -1.
         24    2    1    2    0    0  0.00000000000E+00 -0.44408920985E-15 -0.10628788584E+04  0.10657812985E+04  0.78602217329E+02 0.  0.
         66    2    3    3    0    0 -0.27690207498E+02  0.13799515636E+01 -0.90899100164E+03  0.90941590756E+03  0.20000003836E+01 0.  0.
        -13    1    3    3    0    0  0.27690207498E+02 -0.13799515636E+01 -0.15388785678E+03  0.15636539095E+03  0.10566000000E+00 0.  1.
         13    1    4    4    0    0 -0.12635810236E+02  0.14186014644E+00 -0.41556373351E+03  0.41575583170E+03  0.10566000000E+00 0. -1.
        -13    1    4    4    0    0 -0.73096375102E+00  0.19946379355E+00 -0.33139345631E+02  0.33148174711E+02  0.10566000000E+00 0.  1.
         14    1    4    4    0    0 -0.14323433511E+02  0.10386276236E+01 -0.46028792250E+03  0.46051190114E+03  0.00000000000E+00 0. -1.
<mgrwt>
<rscale>  0 0.78602217E+02</rscale>
<asrwt>0</asrwt>
<pdfrwt beam="1">  1        2 0.16374247E+00 0.78602217E+02</pdfrwt>
<pdfrwt beam="2">  1       -1 0.22326547E-03 0.78602217E+02</pdfrwt>
<totfact> 0.36923001E+05</totfact>
</mgrwt>
</event>
<event>
 8    1  0.2676873E-016  0.7986180E+02  0.7818608E-02  0.1329444E+00
          2   -1    0    0  501    0  0.00000000000E+00  0.00000000000E+00  0.17928715328E+03  0.17928715329E+03  0.25500000000E-02 0. -1.
         -1   -1    0    0    0  501 -0.00000000000E+00 -0.00000000000E+00 -0.88934237467E+01  0.88934251748E+01  0.50400000000E-02 0.  1.
         24    2    1    2    0    0  0.00000000000E+00 -0.71054273576E-14  0.17039372953E+03  0.18818057847E+03  0.79861799692E+02 0.  0.
         66    2    3    3    0    0  0.13732570423E+01 -0.37553306948E+02  0.11689301665E+03  0.12280111579E+03  0.19999999818E+01 0.  0.
        -13    1    3    3    0    0 -0.13732570423E+01  0.37553306948E+02  0.53500712876E+02  0.65379462677E+02  0.10566000000E+00 0.  1.
         13    1    4    4    0    0  0.17046941971E+01 -0.24991211885E+02  0.78934149562E+02  0.82813512091E+02  0.10566000000E+00 0.  1.
        -13    1    4    4    0    0 -0.15838443018E-02 -0.71016543029E+01  0.21066895547E+02  0.22231930829E+02  0.10566000000E+00 0. -1.
        -14    1    4    4    0    0 -0.32985331055E+00 -0.54604407591E+01  0.16891971545E+02  0.17755672873E+02  0.00000000000E+00 0.  1.
<mgrwt>
<rscale>  0 0.79861800E+02</rscale>
<asrwt>0</asrwt>
<pdfrwt beam="1">  1        2 0.27582640E-01 0.79861800E+02</pdfrwt>
<pdfrwt beam="2">  1       -1 0.13682191E-02 0.79861800E+02</pdfrwt>
<totfact> 0.21343137E+05</totfact>
</mgrwt>
</event>
<event>
 8    1  0.2676873E-016  0.8060450E+02  0.7818608E-02  0.1327345E+00
          2   -1    0    0  501    0  0.00000000000E+00  0.00000000000E+00  0.47242307318E+03  0.47242307318E+03  0.25500000000E-02 0. -1.
         -1   -1    0    0    0  501 -0.00000000000E+00 -0.00000000000E+00 -0.34381694480E+01  0.34381731421E+01  0.50400000000E-02 0.  1.
         24    2    1    2    0    0  0.44408920985E-15  0.00000000000E+00  0.46898490373E+03  0.47586124633E+03  0.80604502537E+02 0.  0.
         66    2    3    3    0    0  0.37133035114E+01  0.25094299789E+02  0.41933255167E+03  0.42010391736E+03  0.19999956594E+01 0.  0.
        -13    1    3    3    0    0 -0.37133035114E+01 -0.25094299789E+02  0.49652352057E+02  0.55757328968E+02  0.10566000000E+00 0.  1.
         13    1    4    4    0    0  0.10568684647E+01  0.10220290309E+02  0.15630964822E+03  0.15664701911E+03  0.10566000000E+00 0. -1.
        -13    1    4    4    0    0  0.40203589669E+00  0.24900909140E+01  0.41758799599E+02  0.41835041456E+02  0.10566000000E+00 0. -1.
         14    1    4    4    0    0  0.22543991500E+01  0.12383918565E+02  0.22126410385E+03  0.22162185679E+03  0.00000000000E+00 0. -1.
<mgrwt>
<rscale>  0 0.80604503E+02</rscale>
<asrwt>0</asrwt>
<pdfrwt beam="1">  1        2 0.72680399E-01 0.80604503E+02</pdfrwt>
<pdfrwt beam="2">  1       -1 0.52894997E-03 0.80604503E+02</pdfrwt>
<totfact> 0.29316003E+05</totfact>
</mgrwt>
</event>
<event>
 8    1  0.2676873E-016  0.8384101E+02  0.7818608E-02  0.1318492E+00
          2   -1    0    0  501    0  0.00000000000E+00  0.00000000000E+00  0.18603945241E+03  0.18603945242E+03  0.25500000000E-02 0. -1.
         -1   -1    0    0    0  501 -0.00000000000E+00 -0.00000000000E+00 -0.94460002069E+01  0.94460015514E+01  0.50400000000E-02 0.  1.
         24    2    1    2    0    0  0.35527136788E-14  0.71054273576E-14  0.17659345220E+03  0.19548545397E+03  0.83841012375E+02 0.  0.
         66    2    3    3    0    0 -0.15620800227E+02 -0.33166186406E+02  0.13563440715E+03  0.14051582731E+03  0.20000002452E+01 0.  0.
        -13    1    3    3    0    0  0.15620800227E+02  0.33166186406E+02  0.40959045049E+02  0.54969626666E+02  0.10566000000E+00 0.  1.
         13    1    4    4    0    0 -0.32137294591E+01 -0.57897380642E+01  0.26519844493E+02  0.27334272258E+02  0.10566000000E+00 0.  1.
        -13    1    4    4    0    0 -0.62136502041E+01 -0.13254297288E+02  0.54478234539E+02  0.56410770673E+02  0.10566000000E+00 0. -1.
        -14    1    4    4    0    0 -0.61934205636E+01 -0.14122151053E+02  0.54636328117E+02  0.56770784377E+02  0.00000000000E+00 0.  1.
<mgrwt>
<rscale>  0 0.83841012E+02</rscale>
<asrwt>0</asrwt>
<pdfrwt beam="1">  1        2 0.28621455E-01 0.83841012E+02</pdfrwt>
<pdfrwt beam="2">  1       -1 0.14532309E-02 0.83841012E+02</pdfrwt>
<totfact> 0.19001918E+05</totfact>
</mgrwt>
</event>
<event>
 8    1  0.2676873E-016  0.7875154E+02  0.7818608E-02  0.1332632E+00
          2   -1    0    0  501    0  0.00000000000E+00  0.00000000000E+00  0.45324295237E+03  0.45324295237E+03  0.25500000000E-02 0. -1.
         -1   -1    0    0    0  501 -0.00000000000E+00 -0.00000000000E+00 -0.34207934966E+01  0.34207972094E+01  0.50400000000E-02 0.  1.
         24    2    1    2    0    0  0.00000000000E+00  0.00000000000E+00  0.44982215887E+03  0.45666374958E+03  0.78751543305E+02 0.  0.
         66    2    3    3    0    0  0.31526506786E+02  0.12901680870E+02  0.33928933853E+03  0.34100092265E+03  0.20000009839E+01 0.  0.
        -13    1    3    3    0    0 -0.31526506786E+02 -0.12901680870E+02  0.11053282033E+03  0.11566282693E+03  0.10566000000E+00 0.  1.
         13    1    4    4    0    0  0.46279978024E+01  0.24477589704E+01  0.51249434046E+02  0.51516264827E+02  0.10566000000E+00 0. -1.
        -13    1    4    4    0    0  0.11715912870E+02  0.41174133704E+01  0.12854204743E+03  0.12914056229E+03  0.10566000000E+00 0.  1.
         14    1    4    4    0    0  0.15182596113E+02  0.63365085289E+01  0.15949785706E+03  0.16034409554E+03  0.00000000000E+00 0. -1.
<mgrwt>
<rscale>  0 0.78751543E+02</rscale>
<asrwt>0</asrwt>
<pdfrwt beam="1">  1        2 0.69729672E-01 0.78751543E+02</pdfrwt>
<pdfrwt beam="2">  1       -1 0.52627631E-03 0.78751543E+02</pdfrwt>
<totfact> 0.30723572E+05</totfact>
</mgrwt>
</event>
<event>
 8    1  0.2676873E-016  0.7873277E+02  0.7818608E-02  0.1332687E+00
          2   -1    0    0  501    0  0.00000000000E+00  0.00000000000E+00  0.30241269499E+02  0.30241269606E+02  0.25500000000E-02 0. -1.
         -1   -1    0    0    0  501 -0.00000000000E+00 -0.00000000000E+00 -0.51244945878E+02  0.51244946125E+02  0.50400000000E-02 0.  1.
         24    2    1    2    0    0 -0.88817841970E-15  0.35527136788E-14 -0.21003676379E+02  0.81486215732E+02  0.78732769117E+02 0.  0.
         66    2    3    3    0    0 -0.69590615697E+01  0.13765669069E+02  0.26948029484E+02  0.31114602277E+02  0.19999997392E+01 0.  0.
        -13    1    3    3    0    0  0.69590615697E+01 -0.13765669069E+02 -0.47951705863E+02  0.50371613455E+02  0.10566000000E+00 0.  1.
         13    1    4    4    0    0 -0.39674700825E+01  0.72742797813E+01  0.13079303141E+02  0.15483387868E+02  0.10566000000E+00 0. -1.
        -13    1    4    4    0    0 -0.29312027761E+01  0.65080330863E+01  0.13807416944E+02  0.15543563654E+02  0.10566000000E+00 0.  1.
        -14    1    4    4    0    0 -0.60388711058E-01 -0.16643798449E-01  0.61309399429E-01  0.87650755322E-01  0.00000000000E+00 0.  1.
<mgrwt>
<rscale>  0 0.78732769E+02</rscale>
<asrwt>0</asrwt>
<pdfrwt beam="1">  1        2 0.46525030E-02 0.78732769E+02</pdfrwt>
<pdfrwt beam="2">  1       -1 0.78838378E-02 0.78732769E+02</pdfrwt>
<totfact> 0.14092227E+05</totfact>
</mgrwt>
</event>
<event>
 8    1  0.2676873E-016  0.7973059E+02  0.7818608E-02  0.1329818E+00
         -1   -1    0    0    0  501 -0.00000000000E+00  0.00000000000E+00  0.28082085985E+01  0.28082131212E+01  0.50400000000E-02 0.  1.
          2   -1    0    0  501    0  0.00000000000E+00 -0.00000000000E+00 -0.56592679451E+03  0.56592679452E+03  0.25500000000E-02 0. -1.
         24    2    1    2    0    0  0.35527136788E-14 -0.35527136788E-14 -0.56311858592E+03  0.56873500764E+03  0.79730590822E+02 0.  0.
         66    2    3    3    0    0  0.31333492119E+02 -0.22443542504E+02 -0.35368473004E+03  0.35578418825E+03  0.20000040923E+01 0.  0.
        -13    1    3    3    0    0 -0.31333492119E+02  0.22443542504E+02 -0.20943385587E+03  0.21295081939E+03  0.10566000000E+00 0.  1.
         13    1    4    4    0    0  0.22030450751E+02 -0.16593267523E+02 -0.25527298633E+03  0.25675861427E+03  0.10566000000E+00 0. -1.
        -13    1    4    4    0    0  0.25008211059E+01 -0.12647212751E+01 -0.25608624345E+02  0.25761724146E+02  0.10566000000E+00 0.  1.
         14    1    4    4    0    0  0.68022202627E+01 -0.45855537062E+01 -0.72803119364E+02  0.73263849834E+02  0.00000000000E+00 0. -1.
<mgrwt>
<rscale>  0 0.79730591E+02</rscale>
<asrwt>0</asrwt>
<pdfrwt beam="1">  1        2 0.87065570E-01 0.79730591E+02</pdfrwt>
<pdfrwt beam="2">  1       -1 0.43203289E-03 0.79730591E+02</pdfrwt>
<totfact> 0.31909000E+05</totfact>
</mgrwt>
</event>
<event>
 8    1  0.2676873E-016  0.7882181E+02  0.7818608E-02  0.1332429E+00
         -1   -1    0    0    0  501 -0.00000000000E+00  0.00000000000E+00  0.13614574997E+03  0.13614575006E+03  0.50400000000E-02 0.  1.
          2   -1    0    0  501    0  0.00000000000E+00 -0.00000000000E+00 -0.11408505493E+02  0.11408505778E+02  0.25500000000E-02 0. -1.
         24    2    1    2    0    0  0.35527136788E-14  0.35527136788E-14  0.12473724447E+03  0.14755425584E+03  0.78821813332E+02 0.  0.
         66    2    3    3    0    0 -0.30480009619E+02 -0.19805296484E+02  0.34022491756E+02  0.49827809674E+02  0.19999790891E+01 0.  0.
        -13    1    3    3    0    0  0.30480009619E+02  0.19805296484E+02  0.90714752716E+02  0.97726446163E+02  0.10566000000E+00 0.  1.
         13    1    4    4    0    0 -0.10577967814E+02 -0.76544665377E+01  0.12651229186E+02  0.18181007260E+02  0.10566000000E+00 0. -1.
        -13    1    4    4    0    0 -0.15706415755E+02 -0.97613603826E+01  0.17460417542E+02  0.25433304881E+02  0.10566000000E+00 0.  1.
        -14    1    4    4    0    0 -0.41956260501E+01 -0.23894695641E+01  0.39108450284E+01  0.62134975325E+01  0.00000000000E+00 0.  1.
<mgrwt>
<rscale>  0 0.78821813E+02</rscale>
<asrwt>0</asrwt>
<pdfrwt beam="1">  1        2 0.17551547E-02 0.78821813E+02</pdfrwt>
<pdfrwt beam="2">  1       -1 0.20945501E-01 0.78821813E+02</pdfrwt>
<totfact> 0.11471408E+05</totfact>
</mgrwt>
</event>
<event>
 8    1  0.2676873E-016  0.8025770E+02  0.7818608E-02  0.1328322E+00
          2   -1    0    0  501    0  0.00000000000E+00  0.00000000000E+00  0.60725801400E+03  0.60725801401E+03  0.25500000000E-02 0. -1.
         -1   -1    0    0    0  501 -0.00000000000E+00 -0.00000000000E+00 -0.26517940539E+01  0.26517988434E+01  0.50400000000E-02 0.  1.
         24    2    1    2    0    0  0.00000000000E+00  0.35527136788E-14  0.60460621995E+03  0.60990981285E+03  0.80257701261E+02 0.  0.
         66    2    3    3    0    0  0.11614080282E+02  0.28633563341E+02  0.49676621761E+03  0.49773029120E+03  0.20000012139E+01 0.  0.
        -13    1    3    3    0    0 -0.11614080282E+02 -0.28633563341E+02  0.10784000233E+03  0.11217952165E+03  0.10566000000E+00 0.  1.
         13    1    4    4    0    0  0.19731039920E+01  0.62421756967E+01  0.10369846453E+03  0.10390495949E+03  0.10566000000E+00 0. -1.
        -13    1    4    4    0    0  0.14826819610E+01  0.24526973087E+01  0.48721997166E+02  0.48806334034E+02  0.10566000000E+00 0.  1.
        -14    1    4    4    0    0  0.81582943286E+01  0.19938690336E+02  0.34434575591E+03  0.34501899767E+03  0.00000000000E+00 0.  1.
<mgrwt>
<rscale>  0 0.80257701E+02</rscale>
<asrwt>0</asrwt>
<pdfrwt beam="1">  1        2 0.93424402E-01 0.80257701E+02</pdfrwt>
<pdfrwt beam="2">  1       -1 0.40796828E-03 0.80257701E+02</pdfrwt>
<totfact> 0.32001737E+05</totfact>
</mgrwt>
</event>
<event>
 8    1  0.2676873E-016  0.8061011E+02  0.7818608E-02  0.1327329E+00
          2   -1    0    0  501    0  0.00000000000E+00  0.00000000000E+00  0.18941125679E+02  0.18941125851E+02  0.25500000000E-02 0. -1.
         -1   -1    0    0    0  501 -0.00000000000E+00 -0.00000000000E+00 -0.85765625404E+02  0.85765625552E+02  0.50400000000E-02 0.  1.
         24    2    1    2    0    0  0.35527136788E-14 -0.17763568394E-14 -0.66824499725E+02  0.10470675140E+03  0.80610111189E+02 0.  0.
         66    2    3    3    0    0  0.18411012694E+02 -0.12300466499E+02  0.10274306778E+02  0.24491391323E+02  0.20000011705E+01 0.  0.
        -13    1    3    3    0    0 -0.18411012694E+02  0.12300466499E+02 -0.77098806503E+02  0.80215360080E+02  0.10566000000E+00 0.  1.
         13    1    4    4    0    0  0.42132130242E+01 -0.25802209850E+01  0.18732855290E+01  0.52847958359E+01  0.10566000000E+00 0.  1.
        -13    1    4    4    0    0  0.11370504496E+01 -0.12207914267E+01  0.10760263126E+01  0.19880171260E+01  0.10566000000E+00 0. -1.
         14    1    4    4    0    0  0.13060749220E+02 -0.84994540872E+01  0.73249949369E+01  0.17218578361E+02  0.00000000000E+00 0. -1.
<mgrwt>
<rscale>  0 0.80610111E+02</rscale>
<asrwt>0</asrwt>
<pdfrwt beam="1">  1        2 0.29140194E-02 0.80610111E+02</pdfrwt>
<pdfrwt beam="2">  1       -1 0.13194711E-01 0.80610111E+02</pdfrwt>
<totfact> 0.12012798E+05</totfact>
</mgrwt>
</event>
<event>
 8    1  0.2676873E-016  0.8025703E+02  0.7818608E-02  0.1328324E+00
          2   -1    0    0  501    0  0.00000000000E+00  0.00000000000E+00  0.72296775843E+03  0.72296775844E+03  0.25500000000E-02 0. -1.
         -1   -1    0    0    0  501 -0.00000000000E+00 -0.00000000000E+00 -0.22273406287E+01  0.22273463310E+01  0.50400000000E-02 0.  1.
         24    2    1    2    0    0  0.00000000000E+00  0.35527136788E-14  0.72074041781E+03  0.72519510477E+03  0.80257025384E+02 0.  0.
         66    2    3    3    0    0 -0.21432244469E+02 -0.28586571032E+02  0.52517579249E+03  0.52639352785E+03  0.20000000401E+01 0.  0.
        -13    1    3    3    0    0  0.21432244469E+02  0.28586571032E+02  0.19556462531E+03  0.19880157692E+03  0.10566000000E+00 0.  1.
         13    1    4    4    0    0 -0.40007126196E+01 -0.46613011383E+01  0.88626345586E+02  0.88839032670E+02  0.10566000000E+00 0. -1.
        -13    1    4    4    0    0 -0.39489857480E+01 -0.45708960495E+01  0.93878357873E+02  0.94072550832E+02  0.10566000000E+00 0.  1.
         14    1    4    4    0    0 -0.13482546101E+02 -0.19354373844E+02  0.34267108903E+03  0.34348194435E+03  0.00000000000E+00 0. -1.
<mgrwt>
<rscale>  0 0.80257025E+02</rscale>
<asrwt>0</asrwt>
<pdfrwt beam="1">  1        2 0.11122586E+00 0.80257025E+02</pdfrwt>
<pdfrwt beam="2">  1       -1 0.34266806E-03 0.80257025E+02</pdfrwt>
<totfact> 0.33413350E+05</totfact>
</mgrwt>
</event>
<event>
 8    1  0.2676873E-016  0.8061431E+02  0.7818608E-02  0.1327317E+00
         -1   -1    0    0    0  501 -0.00000000000E+00  0.00000000000E+00  0.58680782279E+02  0.58680782496E+02  0.50400000000E-02 0.  1.
          2   -1    0    0  501    0  0.00000000000E+00 -0.00000000000E+00 -0.27686520553E+02  0.27686520671E+02  0.25500000000E-02 0. -1.
         24    2    1    2    0    0  0.00000000000E+00  0.00000000000E+00  0.30994261726E+02  0.86367303167E+02  0.80614308881E+02 0.  0.
         66    2    3    3    0    0  0.20325314899E+02 -0.23302122520E+02 -0.12153538271E+02  0.33283867443E+02  0.19999999426E+01 0.  0.
        -13    1    3    3    0    0 -0.20325314899E+02  0.23302122520E+02  0.43147799997E+02  0.53083435724E+02  0.10566000000E+00 0.  1.
         13    1    4    4    0    0  0.56055050545E+01 -0.61598920848E+01 -0.34462278125E+01  0.90140782991E+01  0.10566000000E+00 0. -1.
        -13    1    4    4    0    0  0.43628305740E+01 -0.44614580172E+01 -0.30564904869E+01  0.69492586934E+01  0.10566000000E+00 0. -1.
        -14    1    4    4    0    0  0.10356979271E+02 -0.12680772418E+02 -0.56508199714E+01  0.17320530450E+02  0.00000000000E+00 0.  1.
<mgrwt>
<rscale>  0 0.80614309E+02</rscale>
<asrwt>0</asrwt>
<pdfrwt beam="1">  1        2 0.42594647E-02 0.80614309E+02</pdfrwt>
<pdfrwt beam="2">  1       -1 0.90278127E-02 0.80614309E+02</pdfrwt>
<totfact> 0.12961806E+05</totfact>
</mgrwt>
</event>
<event>
 8    1  0.2676873E-016  0.7778747E+02  0.7818608E-02  0.1335450E+00
          2   -1    0    0  501    0  0.00000000000E+00  0.00000000000E+00  0.19142664747E+03  0.19142664749E+03  0.25500000000E-02 0. -1.
         -1   -1    0    0    0  501 -0.00000000000E+00 -0.00000000000E+00 -0.79023616994E+01  0.79023633067E+01  0.50400000000E-02 0.  1.
         24    2    1    2    0    0  0.00000000000E+00 -0.35527136788E-14  0.18352428578E+03  0.19932901080E+03  0.77787473776E+02 0.  0.
         66    2    3    3    0    0  0.11804663994E+02 -0.29308267183E+02  0.14982724667E+03  0.15313565385E+03  0.20000048395E+01 0.  0.
        -13    1    3    3    0    0 -0.11804663994E+02  0.29308267183E+02  0.33697039104E+02  0.46193356943E+02  0.10566000000E+00 0.  1.
         13    1    4    4    0    0  0.45649273322E+01 -0.13092934147E+02  0.62297878246E+02  0.63822412084E+02  0.10566000000E+00 0. -1.
        -13    1    4    4    0    0  0.19092408481E+01 -0.45740495941E+01  0.24493311453E+02  0.24990010010E+02  0.10566000000E+00 0.  1.
         14    1    4    4    0    0  0.53304958136E+01 -0.11641283441E+02  0.63036056971E+02  0.64323231761E+02  0.00000000000E+00 0. -1.
<mgrwt>
<rscale>  0 0.77787474E+02</rscale>
<asrwt>0</asrwt>
<pdfrwt beam="1">  1        2 0.29450251E-01 0.77787474E+02</pdfrwt>
<pdfrwt beam="2">  1       -1 0.12157482E-02 0.77787474E+02</pdfrwt>
<totfact> 0.23394601E+05</totfact>
</mgrwt>
</event>
<event>
 8    1  0.2676873E-016  0.8027081E+02  0.7818608E-02  0.1328285E+00
         -1   -1    0    0    0  501 -0.00000000000E+00  0.00000000000E+00  0.71911754264E+02  0.71911754441E+02  0.50400000000E-02 0.  1.
          2   -1    0    0  501    0  0.00000000000E+00 -0.00000000000E+00 -0.22400382462E+02  0.22400382607E+02  0.25500000000E-02 0. -1.
         24    2    1    2    0    0  0.00000000000E+00 -0.71054273576E-14  0.49511371802E+02  0.94312137048E+02  0.80270811985E+02 0.  0.
         66    2    3    3    0    0  0.11473050380E+02  0.34189102134E+02  0.41404536094E+01  0.36354765028E+02  0.19999985979E+01 0.  0.
        -13    1    3    3    0    0 -0.11473050380E+02 -0.34189102134E+02  0.45370918193E+02  0.57957372020E+02  0.10566000000E+00 0.  1.
         13    1    4    4    0    0  0.30595270648E+01  0.80553793166E+01  0.91818966380E+00  0.86662609059E+01  0.10566000000E+00 0. -1.
        -13    1    4    4    0    0  0.54622500877E+01  0.16848374107E+02  0.13171731561E+01  0.17760912005E+02  0.10566000000E+00 0.  1.
         14    1    4    4    0    0  0.29512732274E+01  0.92853487099E+01  0.19050907895E+01  0.99275921171E+01  0.00000000000E+00 0. -1.
<mgrwt>
<rscale>  0 0.80270812E+02</rscale>
<asrwt>0</asrwt>
<pdfrwt beam="1">  1        2 0.34462127E-02 0.80270812E+02</pdfrwt>
<pdfrwt beam="2">  1       -1 0.11063347E-01 0.80270812E+02</pdfrwt>
<totfact> 0.12579339E+05</totfact>
</mgrwt>
</event>
<event>
 8    1  0.2676873E-016  0.7707999E+02  0.7818608E-02  0.1337548E+00
          2   -1    0    0  501    0  0.00000000000E+00  0.00000000000E+00  0.10539485414E+02  0.10539485723E+02  0.25500000000E-02 0. -1.
         -1   -1    0    0    0  501 -0.00000000000E+00 -0.00000000000E+00 -0.14093015530E+03  0.14093015539E+03  0.50400000000E-02 0.  1.
         24    2    1    2    0    0  0.35527136788E-14  0.00000000000E+00 -0.13039066988E+03  0.15146964111E+03  0.77079993419E+02 0.  0.
         66    2    3    3    0    0  0.20984087148E+02 -0.32240387499E+02 -0.68942640784E+02  0.78973807135E+02  0.19999988994E+01 0.  0.
        -13    1    3    3    0    0 -0.20984087148E+02  0.32240387499E+02 -0.61448029096E+02  0.72495833973E+02  0.10566000000E+00 0.  1.
         13    1    4    4    0    0  0.72058072557E+01 -0.11875590603E+02 -0.25641970971E+02  0.29162907086E+02  0.10566000000E+00 0. -1.
        -13    1    4    4    0    0  0.40447316063E+01 -0.50350458297E+01 -0.11677660082E+02  0.13345053365E+02  0.10566000000E+00 0.  1.
        -14    1    4    4    0    0  0.97335482858E+01 -0.15329751067E+02 -0.31623009730E+02  0.36465846684E+02  0.00000000000E+00 0.  1.
<mgrwt>
<rscale>  0 0.77079993E+02</rscale>
<asrwt>0</asrwt>
<pdfrwt beam="1">  1        2 0.16214594E-02 0.77079993E+02</pdfrwt>
<pdfrwt beam="2">  1       -1 0.21681561E-01 0.77079993E+02</pdfrwt>
<totfact> 0.12034587E+05</totfact>
</mgrwt>
</event>
<event>
 8    1  0.2676873E-016  0.7882151E+02  0.7818608E-02  0.1332429E+00
          2   -1    0    0  501    0  0.00000000000E+00  0.00000000000E+00  0.27129610092E+02  0.27129610212E+02  0.25500000000E-02 0. -1.
         -1   -1    0    0    0  501 -0.00000000000E+00 -0.00000000000E+00 -0.57251374816E+02  0.57251375038E+02  0.50400000000E-02 0.  1.
         24    2    1    2    0    0  0.00000000000E+00 -0.35527136788E-14 -0.30121764723E+02  0.84380985250E+02  0.78821506974E+02 0.  0.
         66    2    3    3    0    0  0.99960231288E+01 -0.26604322617E+02  0.14119712726E+02  0.31797433152E+02  0.20000018114E+01 0.  0.
        -13    1    3    3    0    0 -0.99960231288E+01  0.26604322617E+02 -0.44241477449E+02  0.52583552098E+02  0.10566000000E+00 0.  1.
         13    1    4    4    0    0  0.50633851298E+01 -0.11974330096E+02  0.65198802232E+01  0.14544499042E+02  0.10566000000E+00 0. -1.
        -13    1    4    4    0    0  0.82902647017E+00 -0.13397780932E+01  0.73256521204E+00  0.17407199812E+01  0.10566000000E+00 0. -1.
        -14    1    4    4    0    0  0.41036115289E+01 -0.13290214428E+02  0.68672672908E+01  0.15512214129E+02  0.00000000000E+00 0.  1.
<mgrwt>
<rscale>  0 0.78821507E+02</rscale>
<asrwt>0</asrwt>
<pdfrwt beam="1">  1        2 0.41737862E-02 0.78821507E+02</pdfrwt>
<pdfrwt beam="2">  1       -1 0.88079039E-02 0.78821507E+02</pdfrwt>
<totfact> 0.13753934E+05</totfact>
</mgrwt>
</event>
<event>
 8    1  0.2676873E-016  0.8013501E+02  0.7818608E-02  0.1328669E+00
         -1   -1    0    0    0  501 -0.00000000000E+00  0.00000000000E+00  0.62115375010E+02  0.62115375214E+02  0.50400000000E-02 0.  1.
          2   -1    0    0  501    0  0.00000000000E+00 -0.00000000000E+00 -0.25845533969E+02  0.25845534095E+02  0.25500000000E-02 0. -1.
         24    2    1    2    0    0  0.00000000000E+00  0.00000000000E+00  0.36269841041E+02  0.87960909310E+02  0.80135012307E+02 0.  0.
         66    2    3    3    0    0  0.80574149219E+01  0.32068954007E+02 -0.66439091779E+01  0.33785814772E+02  0.20000010869E+01 0.  0.
        -13    1    3    3    0    0 -0.80574149219E+01 -0.32068954007E+02  0.42913750218E+02  0.54175094538E+02  0.10566000000E+00 0.  1.
         13    1    4    4    0    0  0.23349299410E+01  0.10818581933E+02 -0.29705968096E+01  0.11459896261E+02  0.10566000000E+00 0. -1.
        -13    1    4    4    0    0  0.71983317280E+00  0.19271419785E+01 -0.41845056579E+00  0.21019754788E+01  0.10566000000E+00 0.  1.
         14    1    4    4    0    0  0.50026518082E+01  0.19323230095E+02 -0.32548618025E+01  0.20223943032E+02  0.00000000000E+00 0. -1.
<mgrwt>
<rscale>  0 0.80135012E+02</rscale>
<asrwt>0</asrwt>
<pdfrwt beam="1">  1        2 0.39762360E-02 0.80135012E+02</pdfrwt>
<pdfrwt beam="2">  1       -1 0.95562115E-02 0.80135012E+02</pdfrwt>
<totfact> 0.13003686E+05</totfact>
</mgrwt>
</event>
<event>
 8    1  0.2676873E-016  0.8261333E+02  0.7818608E-02  0.1321795E+00
          2   -1    0    0  501    0  0.00000000000E+00  0.00000000000E+00  0.29732427489E+03  0.29732427490E+03  0.25500000000E-02 0. -1.
         -1   -1    0    0    0  501 -0.00000000000E+00 -0.00000000000E+00 -0.57386514980E+01  0.57386537112E+01  0.50400000000E-02 0.  1.
         24    2    1    2    0    0  0.00000000000E+00  0.35527136788E-14  0.29158562339E+03  0.30306292861E+03  0.82613333852E+02 0.  0.
         66    2    3    3    0    0 -0.42054662691E+01  0.31873043071E+02  0.24088018808E+03  0.24302436471E+03  0.20000031285E+01 0.  0.
        -13    1    3    3    0    0  0.42054662691E+01 -0.31873043071E+02  0.50705435313E+02  0.60038563902E+02  0.10566000000E+00 0.  1.
         13    1    4    4    0    0 -0.14869590049E+01  0.89913091988E+01  0.69786711999E+02  0.70379336626E+02  0.10566000000E+00 0. -1.
        -13    1    4    4    0    0  0.10364450767E+00  0.11058449733E+01  0.99623893466E+01  0.10024669611E+02  0.10566000000E+00 0.  1.
         14    1    4    4    0    0 -0.28221517719E+01  0.21775888899E+02  0.16113108673E+03  0.16262035847E+03  0.00000000000E+00 0. -1.
<mgrwt>
<rscale>  0 0.82613334E+02</rscale>
<asrwt>0</asrwt>
<pdfrwt beam="1">  1        2 0.45742208E-01 0.82613334E+02</pdfrwt>
<pdfrwt beam="2">  1       -1 0.88286941E-03 0.82613334E+02</pdfrwt>
<totfact> 0.23354674E+05</totfact>
</mgrwt>
</event>
<event>
 8    1  0.2676873E-016  0.7929816E+02  0.7818608E-02  0.1331055E+00
          2   -1    0    0  501    0  0.00000000000E+00  0.00000000000E+00  0.14090224338E+02  0.14090224568E+02  0.25500000000E-02 0. -1.
         -1   -1    0    0    0  501 -0.00000000000E+00 -0.00000000000E+00 -0.11157021573E+03  0.11157021585E+03  0.50400000000E-02 0.  1.
         24    2    1    2    0    0  0.00000000000E+00  0.00000000000E+00 -0.97479991397E+02  0.12566044042E+03  0.79298156113E+02 0.  0.
         66    2    3    3    0    0  0.26988094869E+02  0.76345418639E+01 -0.93124376398E+02  0.97276888134E+02  0.19999978724E+01 0.  0.
        -13    1    3    3    0    0 -0.26988094869E+02 -0.76345418639E+01 -0.43556149988E+01  0.28383552282E+02  0.10566000000E+00 0.  1.
         13    1    4    4    0    0  0.14389224595E+02  0.42554366747E+01 -0.47542762887E+02  0.49854628598E+02  0.10566000000E+00 0. -1.
        -13    1    4    4    0    0  0.11792426059E+02  0.32353616194E+01 -0.41749484365E+02  0.43503557165E+02  0.10566000000E+00 0.  1.
        -14    1    4    4    0    0  0.80644421443E+00  0.14374356979E+00 -0.38321291459E+01  0.39187023714E+01  0.00000000000E+00 0.  1.
<mgrwt>
<rscale>  0 0.79298156E+02</rscale>
<asrwt>0</asrwt>
<pdfrwt beam="1">  1        2 0.21677269E-02 0.79298156E+02</pdfrwt>
<pdfrwt beam="2">  1       -1 0.17164648E-01 0.79298156E+02</pdfrwt>
<totfact> 0.11831270E+05</totfact>
</mgrwt>
</event>
<event>
 8    1  0.2676873E-016  0.7825668E+02  0.7818608E-02  0.1334073E+00
          2   -1    0    0  501    0  0.00000000000E+00  0.00000000000E+00  0.90048687174E+03  0.90048687174E+03  0.25500000000E-02 0. -1.
         -1   -1    0    0    0  501 -0.00000000000E+00 -0.00000000000E+00 -0.17002175580E+01  0.17002250281E+01  0.50400000000E-02 0.  1.
         24    2    1    2    0    0  0.00000000000E+00  0.00000000000E+00  0.89878665418E+03  0.90218709677E+03  0.78256679240E+02 0.  0.
         66    2    3    3    0    0 -0.20122217493E+02 -0.52282477217E+01  0.83148584675E+03  0.83174812988E+03  0.20000025247E+01 0.  0.
        -13    1    3    3    0    0  0.20122217493E+02  0.52282477217E+01  0.67300807434E+02  0.70438966889E+02  0.10566000000E+00 0.  1.
         13    1    4    4    0    0 -0.13316212545E+02 -0.37267975334E+01  0.54086365858E+03  0.54104040411E+03  0.10566000000E+00 0. -1.
        -13    1    4    4    0    0 -0.17435645821E+01 -0.15485297659E+00  0.57718779707E+02  0.57745412734E+02  0.10566000000E+00 0.  1.
         14    1    4    4    0    0 -0.50624403662E+01 -0.13465972117E+01  0.23290340845E+03  0.23296231304E+03  0.00000000000E+00 0. -1.
<mgrwt>
<rscale>  0 0.78256679E+02</rscale>
<asrwt>0</asrwt>
<pdfrwt beam="1">  1        2 0.13853693E+00 0.78256679E+02</pdfrwt>
<pdfrwt beam="2">  1       -1 0.26157158E-03 0.78256679E+02</pdfrwt>
<totfact> 0.37003994E+05</totfact>
</mgrwt>
</event>
<event>
 8    1  0.2676873E-016  0.7953821E+02  0.7818608E-02  0.1330367E+00
         -1   -1    0    0    0  501 -0.00000000000E+00  0.00000000000E+00  0.53592754868E+02  0.53592755105E+02  0.50400000000E-02 0.  1.
          2   -1    0    0  501    0  0.00000000000E+00 -0.00000000000E+00 -0.29511113202E+02  0.29511113312E+02  0.25500000000E-02 0. -1.
         24    2    1    2    0    0  0.17763568394E-14 -0.22204460493E-15  0.24081641666E+02  0.83103868417E+02  0.79538213964E+02 0.  0.
         66    2    3    3    0    0 -0.12814975357E+02  0.19167890640E+01 -0.27208253922E+02  0.30202429617E+02  0.19999998875E+01 0.  0.
        -13    1    3    3    0    0  0.12814975357E+02 -0.19167890640E+01  0.51289895588E+02  0.52901438801E+02  0.10566000000E+00 0.  1.
         13    1    4    4    0    0 -0.59124672931E+01  0.52233199910E+00 -0.11003786895E+02  0.12502983255E+02  0.10566000000E+00 0. -1.
        -13    1    4    4    0    0 -0.58671910125E+01  0.14770730693E+01 -0.14355494195E+02  0.15578737204E+02  0.10566000000E+00 0.  1.
        -14    1    4    4    0    0 -0.10353170512E+01 -0.82616004442E-01 -0.18489728322E+01  0.21207091585E+01  0.00000000000E+00 0.  1.
<mgrwt>
<rscale>  0 0.79538214E+02</rscale>
<asrwt>0</asrwt>
<pdfrwt beam="1">  1        2 0.45401713E-02 0.79538214E+02</pdfrwt>
<pdfrwt beam="2">  1       -1 0.82450392E-02 0.79538214E+02</pdfrwt>
<totfact> 0.13631147E+05</totfact>
</mgrwt>
</event>
<event>
 8    1  0.2676873E-016  0.8006495E+02  0.7818608E-02  0.1328867E+00
          2   -1    0    0  501    0  0.00000000000E+00  0.00000000000E+00  0.65972997700E+02  0.65972997750E+02  0.25500000000E-02 0. -1.
         -1   -1    0    0    0  501 -0.00000000000E+00 -0.00000000000E+00 -0.24291739055E+02  0.24291739578E+02  0.50400000000E-02 0.  1.
         24    2    1    2    0    0 -0.17763568394E-14  0.00000000000E+00  0.41681258645E+02  0.90264737327E+02  0.80064945404E+02 0.  0.
         66    2    3    3    0    0  0.13624236920E+02  0.29163541959E+02 -0.59314876404E+01  0.32791989140E+02  0.19999987224E+01 0.  0.
        -13    1    3    3    0    0 -0.13624236920E+02 -0.29163541959E+02  0.47612746286E+02  0.57472748187E+02  0.10566000000E+00 0.  1.
         13    1    4    4    0    0  0.71412133069E+00  0.21502947103E+01 -0.10920966808E+00  0.22708649021E+01  0.10566000000E+00 0. -1.
        -13    1    4    4    0    0  0.12533145682E+01  0.22393499510E+01 -0.75272057456E+00  0.26764225954E+01  0.10566000000E+00 0.  1.
         14    1    4    4    0    0  0.11656801021E+02  0.24773897298E+02 -0.50695573978E+01  0.27844701643E+02  0.00000000000E+00 0. -1.
<mgrwt>
<rscale>  0 0.80064945E+02</rscale>
<asrwt>0</asrwt>
<pdfrwt beam="1">  1        2 0.10149692E-01 0.80064945E+02</pdfrwt>
<pdfrwt beam="2">  1       -1 0.37371907E-02 0.80064945E+02</pdfrwt>
<totfact> 0.15882075E+05</totfact>
</mgrwt>
</event>
<event>
 8    1  0.2676873E-016  0.7933943E+02  0.7818608E-02  0.1330937E+00
         -1   -1    0    0    0  501 -0.00000000000E+00  0.00000000000E+00  0.17653215917E+01  0.17653287863E+01  0.50400000000E-02 0.  1.
          2   -1    0    0  501    0  0.00000000000E+00 -0.00000000000E+00 -0.89144264356E+03  0.89144264356E+03  0.25500000000E-02 0. -1.
         24    2    1    2    0    0  0.00000000000E+00  0.35527136788E-14 -0.88967732197E+03  0.89320797235E+03  0.79339426800E+02 0.  0.
         66    2    3    3    0    0  0.13416101852E+02 -0.26994713530E+02 -0.73499641402E+03  0.73561704369E+03  0.20000001663E+01 0.  0.
        -13    1    3    3    0    0 -0.13416101852E+02  0.26994713530E+02 -0.15468090795E+03  0.15759092866E+03  0.10566000000E+00 0.  1.
         13    1    4    4    0    0  0.17597766630E+01 -0.43958909765E+01 -0.11374286573E+03  0.11384143068E+03  0.10566000000E+00 0. -1.
        -13    1    4    4    0    0  0.40554811308E+01 -0.94801528527E+01 -0.25430386713E+03  0.25451284491E+03  0.10566000000E+00 0. -1.
         14    1    4    4    0    0  0.76008440582E+01 -0.13118669701E+02 -0.36694968117E+03  0.36726276811E+03  0.00000000000E+00 0. -1.
<mgrwt>
<rscale>  0 0.79339427E+02</rscale>
<asrwt>0</asrwt>
<pdfrwt beam="1">  1        2 0.13714466E+00 0.79339427E+02</pdfrwt>
<pdfrwt beam="2">  1       -1 0.27158920E-03 0.79339427E+02</pdfrwt>
<totfact> 0.35668343E+05</totfact>
</mgrwt>
</event>
<event>
 8    1  0.2676873E-016  0.8064620E+02  0.7818608E-02  0.1327228E+00
         -1   -1    0    0    0  501 -0.00000000000E+00  0.00000000000E+00  0.11785389766E+01  0.11785497533E+01  0.50400000000E-02 0.  1.
          2   -1    0    0  501    0  0.00000000000E+00 -0.00000000000E+00 -0.13796276675E+04  0.13796276675E+04  0.25500000000E-02 0. -1.
         24    2    1    2    0    0  0.17763568394E-14  0.00000000000E+00 -0.13784491285E+04  0.13808062172E+04  0.80646200684E+02 0.  0.
         66    2    3    3    0    0  0.13997900764E+02 -0.13816062650E+02 -0.12918673044E+04  0.12920185590E+04  0.20000001053E+01 0.  0.
        -13    1    3    3    0    0 -0.13997900764E+02  0.13816062650E+02 -0.86581824146E+02  0.88787658205E+02  0.10566000000E+00 0.  1.
         13    1    4    4    0    0  0.41389621072E+01 -0.44238044622E+01 -0.44641976307E+03  0.44646087967E+03  0.10566000000E+00 0. -1.
        -13    1    4    4    0    0  0.96828276449E+00 -0.91210049227E+00 -0.68492909676E+02  0.68505907327E+02  0.10566000000E+00 0.  1.
         14    1    4    4    0    0  0.88906558920E+01 -0.84801576957E+01 -0.77695463162E+03  0.77705177204E+03  0.00000000000E+00 0. -1.
<mgrwt>
<rscale>  0 0.80646201E+02</rscale>
<asrwt>0</asrwt>
<pdfrwt beam="1">  1        2 0.21224912E+00 0.80646201E+02</pdfrwt>
<pdfrwt beam="2">  1       -1 0.18131562E-03 0.80646201E+02</pdfrwt>
<totfact> 0.33443709E+05</totfact>
</mgrwt>
</event>
<event>
 8    1  0.2676873E-016  0.8093332E+02  0.7818608E-02  0.1326423E+00
         -1   -1    0    0    0  501 -0.00000000000E+00  0.00000000000E+00  0.28873428161E+01  0.28873472148E+01  0.50400000000E-02 0.  1.
          2   -1    0    0  501    0  0.00000000000E+00 -0.00000000000E+00 -0.56714749112E+03  0.56714749112E+03  0.25500000000E-02 0. -1.
         24    2    1    2    0    0  0.00000000000E+00  0.17763568394E-14 -0.56426014830E+03  0.57003483834E+03  0.80933317972E+02 0.  0.
         66    2    3    3    0    0  0.38644089756E+01  0.14376097291E+02 -0.54714548912E+03  0.54735161650E+03  0.19999975784E+01 0.  0.
        -13    1    3    3    0    0 -0.38644089756E+01 -0.14376097291E+02 -0.17114659183E+02  0.22683221840E+02  0.10566000000E+00 0.  1.
         13    1    4    4    0    0  0.14123924069E+01  0.58544531918E+01 -0.20024518026E+03  0.20033575032E+03  0.10566000000E+00 0. -1.
        -13    1    4    4    0    0  0.70998281616E+00  0.40178297635E+01 -0.14186473726E+03  0.14192343666E+03  0.10566000000E+00 0.  1.
        -14    1    4    4    0    0  0.17420337526E+01  0.45038143359E+01 -0.20503557160E+03  0.20509242952E+03  0.00000000000E+00 0.  1.
<mgrwt>
<rscale>  0 0.80933318E+02</rscale>
<asrwt>0</asrwt>
<pdfrwt beam="1">  1        2 0.87253372E-01 0.80933318E+02</pdfrwt>
<pdfrwt beam="2">  1       -1 0.44420738E-03 0.80933318E+02</pdfrwt>
<totfact> 0.30708117E+05</totfact>
</mgrwt>
</event>
<event>
 8    1  0.3211466E-016  0.7722571E+02  0.7818608E-02  0.1337114E+00
          2   -1    0    0  501    0  0.00000000000E+00  0.00000000000E+00  0.65400527635E+02  0.65400527685E+02  0.25500000000E-02 0. -1.
         -1   -1    0    0    0  501 -0.00000000000E+00 -0.00000000000E+00 -0.22797255636E+02  0.22797256193E+02  0.50400000000E-02 0.  1.
         24    2    1    2    0    0  0.88817841970E-15  0.00000000000E+00  0.42603271999E+02  0.88197783878E+02  0.77225710071E+02 0.  0.
         66    2    3    3    0    0 -0.63906627875E+01 -0.13196859045E+02  0.62079429185E+02  0.63818909370E+02  0.20000014457E+01 0.  0.
        -13    1    3    3    0    0  0.63906627875E+01  0.13196859045E+02 -0.19476157186E+02  0.24378874508E+02  0.10566000000E+00 0.  1.
         13    1    4    4    0    0 -0.26943219547E+01 -0.56900742381E+01  0.25630121601E+02  0.26392245319E+02  0.10566000000E+00 0. -1.
        -13    1    4    4    0    0 -0.26611672234E+01 -0.40864799987E+01  0.19085535467E+02  0.19698983676E+02  0.10566000000E+00 0.  1.
        -14    1    4    4    0    0 -0.10351736094E+01 -0.34203048078E+01  0.17363772116E+02  0.17727680375E+02  0.00000000000E+00 0.  1.
<mgrwt>
<rscale>  0 0.77225710E+02</rscale>
<asrwt>0</asrwt>
<pdfrwt beam="1">  1        2 0.10061620E-01 0.77225710E+02</pdfrwt>
<pdfrwt beam="2">  1       -1 0.35072701E-02 0.77225710E+02</pdfrwt>
<totfact> 0.17476153E+05</totfact>
</mgrwt>
</event>
<event>
 8    1  0.2676873E-016  0.8730616E+02  0.7818608E-02  0.1309510E+00
         -1   -1    0    0    0  501 -0.00000000000E+00  0.00000000000E+00  0.95824073229E+00  0.95825398649E+00  0.50400000000E-02 0.  1.
          2   -1    0    0  501    0  0.00000000000E+00 -0.00000000000E+00 -0.19886214105E+04  0.19886214105E+04  0.25500000000E-02 0. -1.
         24    2    1    2    0    0  0.00000000000E+00 -0.35527136788E-14 -0.19876631697E+04  0.19895796645E+04  0.87306156104E+02 0.  0.
         66    2    3    3    0    0  0.80691777377E+01  0.18458722876E+02 -0.18762857781E+04  0.18763949896E+04  0.20000008411E+01 0.  0.
        -13    1    3    3    0    0 -0.80691777377E+01 -0.18458722876E+02 -0.11137739169E+03  0.11318467486E+03  0.10566000000E+00 0.  1.
         13    1    4    4    0    0  0.37545391793E+01  0.94295066366E+01 -0.99947097947E+03  0.99952251707E+03  0.10566000000E+00 0. -1.
        -13    1    4    4    0    0  0.89124095808E+00  0.12287970778E+01 -0.15204915382E+03  0.15205676767E+03  0.10566000000E+00 0.  1.
        -14    1    4    4    0    0  0.34233976003E+01  0.78004191614E+01 -0.72476564477E+03  0.72481570487E+03  0.00000000000E+00 0.  1.
<mgrwt>
<rscale>  0 0.87306156E+02</rscale>
<asrwt>0</asrwt>
<pdfrwt beam="1">  1        2 0.30593845E+00 0.87306156E+02</pdfrwt>
<pdfrwt beam="2">  1       -1 0.14742426E-03 0.87306156E+02</pdfrwt>
<totfact> 0.22196373E+05</totfact>
</mgrwt>
</event>
<event>
 8    1  0.2676873E-016  0.7942449E+02  0.7818608E-02  0.1330693E+00
          2   -1    0    0  501    0  0.00000000000E+00  0.00000000000E+00  0.10039571723E+02  0.10039572046E+02  0.25500000000E-02 0. -1.
         -1   -1    0    0    0  501 -0.00000000000E+00 -0.00000000000E+00 -0.15708462776E+03  0.15708462784E+03  0.50400000000E-02 0.  1.
         24    2    1    2    0    0  0.00000000000E+00  0.71054273576E-14 -0.14704505604E+03  0.16712419989E+03  0.79424490448E+02 0.  0.
         66    2    3    3    0    0  0.12855646978E+02  0.37343636786E+02 -0.65353889137E+02  0.76386816295E+02  0.20000026890E+01 0.  0.
        -13    1    3    3    0    0 -0.12855646978E+02 -0.37343636786E+02 -0.81691166901E+02  0.90737383593E+02  0.10566000000E+00 0.  1.
         13    1    4    4    0    0  0.37944357221E+01  0.12552646905E+02 -0.21358650562E+02  0.25063315915E+02  0.10566000000E+00 0. -1.
        -13    1    4    4    0    0  0.14580923580E+01  0.32830523250E+01 -0.67581494659E+01  0.76542938363E+01  0.10566000000E+00 0.  1.
        -14    1    4    4    0    0  0.76031188978E+01  0.21507937556E+02 -0.37237089109E+02  0.43669206544E+02  0.00000000000E+00 0.  1.
<mgrwt>
<rscale>  0 0.79424490E+02</rscale>
<asrwt>0</asrwt>
<pdfrwt beam="1">  1        2 0.15445496E-02 0.79424490E+02</pdfrwt>
<pdfrwt beam="2">  1       -1 0.24166864E-01 0.79424490E+02</pdfrwt>
<totfact> 0.10856091E+05</totfact>
</mgrwt>
</event>
<event>
 8    1  0.2676873E-016  0.8014416E+02  0.7818608E-02  0.1328643E+00
          2   -1    0    0  501    0  0.00000000000E+00  0.00000000000E+00  0.24113937937E+02  0.24113938072E+02  0.25500000000E-02 0. -1.
         -1   -1    0    0    0  501 -0.00000000000E+00 -0.00000000000E+00 -0.66591020472E+02  0.66591020663E+02  0.50400000000E-02 0.  1.
         24    2    1    2    0    0  0.00000000000E+00  0.00000000000E+00 -0.42477082535E+02  0.90704958735E+02  0.80144163845E+02 0.  0.
         66    2    3    3    0    0 -0.78396651353E+00  0.18654932846E+02  0.18844744185E+02  0.26603486683E+02  0.19999993357E+01 0.  0.
        -13    1    3    3    0    0  0.78396651353E+00 -0.18654932846E+02 -0.61321826719E+02  0.64101472052E+02  0.10566000000E+00 0.  1.
         13    1    4    4    0    0 -0.54898922275E+00  0.91279431826E+01  0.88339230612E+01  0.12714955627E+02  0.10566000000E+00 0. -1.
        -13    1    4    4    0    0 -0.62730250840E+00  0.75071269965E+01  0.73550050359E+01  0.10528899624E+02  0.10566000000E+00 0.  1.
        -14    1    4    4    0    0  0.39232521762E+00  0.20198626665E+01  0.26558160875E+01  0.33596314319E+01  0.00000000000E+00 0.  1.
<mgrwt>
<rscale>  0 0.80144164E+02</rscale>
<asrwt>0</asrwt>
<pdfrwt beam="1">  1        2 0.37098367E-02 0.80144164E+02</pdfrwt>
<pdfrwt beam="2">  1       -1 0.10244772E-01 0.80144164E+02</pdfrwt>
<totfact> 0.12822495E+05</totfact>
</mgrwt>
</event>
<event>
 8    1  0.2676873E-016  0.7906225E+02  0.7818608E-02  0.1331734E+00
         -1   -1    0    0    0  501 -0.00000000000E+00  0.00000000000E+00  0.21539488585E+01  0.21539547550E+01  0.50400000000E-02 0.  1.
          2   -1    0    0  501    0  0.00000000000E+00 -0.00000000000E+00 -0.72550821527E+03  0.72550821527E+03  0.25500000000E-02 0. -1.
         24    2    1    2    0    0  0.00000000000E+00  0.17763568394E-14 -0.72335426641E+03  0.72766217003E+03  0.79062247352E+02 0.  0.
         66    2    3    3    0    0  0.14353929200E+02  0.15392801084E+02 -0.66960922607E+03  0.66994289999E+03  0.19999996047E+01 0.  0.
        -13    1    3    3    0    0 -0.14353929200E+02 -0.15392801084E+02 -0.53745040338E+02  0.57719270038E+02  0.10566000000E+00 0.  1.
         13    1    4    4    0    0  0.68487803814E+01  0.69455985544E+01 -0.29962243885E+03  0.29978119381E+03  0.10566000000E+00 0. -1.
        -13    1    4    4    0    0  0.26277547908E+01  0.20684117807E+01 -0.11250806735E+03  0.11255780650E+03  0.10566000000E+00 0.  1.
         14    1    4    4    0    0  0.48773940275E+01  0.63787907488E+01 -0.25747871987E+03  0.25760389968E+03  0.00000000000E+00 0. -1.
<mgrwt>
<rscale>  0 0.79062247E+02</rscale>
<asrwt>0</asrwt>
<pdfrwt beam="1">  1        2 0.11161645E+00 0.79062247E+02</pdfrwt>
<pdfrwt beam="2">  1       -1 0.33137778E-03 0.79062247E+02</pdfrwt>
<totfact> 0.34767300E+05</totfact>
</mgrwt>
</event>
<event>
 8    1  0.2676873E-016  0.7948849E+02  0.7818608E-02  0.1330509E+00
         -1   -1    0    0    0  501 -0.00000000000E+00  0.00000000000E+00  0.95281860605E+01  0.95281873935E+01  0.50400000000E-02 0.  1.
          2   -1    0    0  501    0  0.00000000000E+00 -0.00000000000E+00 -0.16578234216E+03  0.16578234218E+03  0.25500000000E-02 0. -1.
         24    2    1    2    0    0 -0.17763568394E-14  0.35527136788E-14 -0.15625415610E+03  0.17531052958E+03  0.79488492758E+02 0.  0.
         66    2    3    3    0    0  0.12841770950E+02 -0.27511840667E+02 -0.13465518891E+03  0.13805010814E+03  0.19999995118E+01 0.  0.
        -13    1    3    3    0    0 -0.12841770950E+02  0.27511840667E+02 -0.21598967191E+02  0.37260421438E+02  0.10566000000E+00 0.  1.
         13    1    4    4    0    0  0.89877179667E+01 -0.18620416460E+02 -0.90399453341E+02  0.92733873594E+02  0.10566000000E+00 0. -1.
        -13    1    4    4    0    0  0.18635824749E+01 -0.30670929498E+01 -0.16592939411E+02  0.16976949111E+02  0.10566000000E+00 0.  1.
        -14    1    4    4    0    0  0.19904705082E+01 -0.58243312566E+01 -0.27662796160E+02  0.28339285433E+02  0.00000000000E+00 0.  1.
<mgrwt>
<rscale>  0 0.79488493E+02</rscale>
<asrwt>0</asrwt>
<pdfrwt beam="1">  1        2 0.25504974E-01 0.79488493E+02</pdfrwt>
<pdfrwt beam="2">  1       -1 0.14658750E-02 0.79488493E+02</pdfrwt>
<totfact> 0.21050178E+05</totfact>
</mgrwt>
</event>
<event>
 8    1  0.2676873E-016  0.7913214E+02  0.7818608E-02  0.1331532E+00
          2   -1    0    0  501    0  0.00000000000E+00  0.00000000000E+00  0.27330308593E+02  0.27330308712E+02  0.25500000000E-02 0. -1.
         -1   -1    0    0    0  501 -0.00000000000E+00 -0.00000000000E+00 -0.57279771231E+02  0.57279771452E+02  0.50400000000E-02 0.  1.
         24    2    1    2    0    0  0.88817841970E-15  0.35527136788E-14 -0.29949462638E+02  0.84610080164E+02  0.79132138560E+02 0.  0.
         66    2    3    3    0    0  0.61153845787E+01 -0.30866554259E+02  0.10617518334E+02  0.33269713886E+02  0.20000165205E+01 0.  0.
        -13    1    3    3    0    0 -0.61153845787E+01  0.30866554259E+02 -0.40566980972E+02  0.51340366278E+02  0.10566000000E+00 0.  1.
         13    1    4    4    0    0  0.32082829972E+01 -0.15109163019E+02  0.44254305596E+01  0.16067840135E+02  0.10566000000E+00 0. -1.
        -13    1    4    4    0    0  0.11459238701E+01 -0.86569144356E+01  0.33478483030E+01  0.93527836154E+01  0.10566000000E+00 0.  1.
        -14    1    4    4    0    0  0.17611777114E+01 -0.71004768044E+01  0.28442394714E+01  0.78490901353E+01  0.00000000000E+00 0.  1.
<mgrwt>
<rscale>  0 0.79132139E+02</rscale>
<asrwt>0</asrwt>
<pdfrwt beam="1">  1        2 0.42046629E-02 0.79132139E+02</pdfrwt>
<pdfrwt beam="2">  1       -1 0.88122725E-02 0.79132139E+02</pdfrwt>
<totfact> 0.13622250E+05</totfact>
</mgrwt>
</event>
<event>
 8    1  0.2676873E-016  0.8118555E+02  0.7818608E-02  0.1325720E+00
          2   -1    0    0  501    0  0.00000000000E+00  0.00000000000E+00  0.36191572516E+03  0.36191572517E+03  0.25500000000E-02 0. -1.
         -1   -1    0    0    0  501 -0.00000000000E+00 -0.00000000000E+00 -0.45529182629E+01  0.45529210525E+01  0.50400000000E-02 0.  1.
         24    2    1    2    0    0  0.00000000000E+00  0.00000000000E+00  0.35736280690E+03  0.36646864622E+03  0.81185546189E+02 0.  0.
         66    2    3    3    0    0  0.35897685677E+02 -0.13836762720E+02  0.23688978311E+03  0.24000181079E+03  0.20000003000E+01 0.  0.
        -13    1    3    3    0    0 -0.35897685677E+02  0.13836762720E+02  0.12047302379E+03  0.12646683543E+03  0.10566000000E+00 0.  1.
         13    1    4    4    0    0  0.89338863966E+01 -0.35981679167E+01  0.60305705585E+02  0.61070045265E+02  0.10566000000E+00 0. -1.
        -13    1    4    4    0    0  0.10866473017E+02 -0.39053468313E+01  0.75598587478E+02  0.76475418027E+02  0.10566000000E+00 0.  1.
        -14    1    4    4    0    0  0.16097326264E+02 -0.63332479719E+01  0.10098549005E+03  0.10245634750E+03  0.00000000000E+00 0.  1.
<mgrwt>
<rscale>  0 0.81185546E+02</rscale>
<asrwt>0</asrwt>
<pdfrwt beam="1">  1        2 0.55679357E-01 0.81185546E+02</pdfrwt>
<pdfrwt beam="2">  1       -1 0.70044899E-03 0.81185546E+02</pdfrwt>
<totfact> 0.26242714E+05</totfact>
</mgrwt>
</event>
<event>
 8    1  0.2676873E-016  0.7535790E+02  0.7818608E-02  0.1342766E+00
         -1   -1    0    0    0  501 -0.00000000000E+00  0.00000000000E+00  0.89035669472E+00  0.89037095945E+00  0.50400000000E-02 0.  1.
          2   -1    0    0  501    0  0.00000000000E+00 -0.00000000000E+00 -0.15945203792E+04  0.15945203792E+04  0.25500000000E-02 0. -1.
         24    2    1    2    0    0  0.00000000000E+00  0.17763568394E-14 -0.15936300225E+04  0.15954107502E+04  0.75357900056E+02 0.  0.
         66    2    3    3    0    0  0.92493688932E+01  0.15464326473E+02 -0.14973041048E+04  0.14974138635E+04  0.20000003855E+01 0.  0.
        -13    1    3    3    0    0 -0.92493688932E+01 -0.15464326473E+02 -0.96325917716E+02  0.97996886716E+02  0.10566000000E+00 0.  1.
         13    1    4    4    0    0  0.76309246118E+01  0.11808814921E+02 -0.11772257096E+04  0.11773096711E+04  0.10566000000E+00 0. -1.
        -13    1    4    4    0    0  0.40642114275E+00  0.36397646517E+00 -0.42006682650E+02  0.42010358346E+02  0.10566000000E+00 0.  1.
         14    1    4    4    0    0  0.12120231386E+01  0.32915350865E+01 -0.27807171255E+03  0.27809383403E+03  0.00000000000E+00 0. -1.
<mgrwt>
<rscale>  0 0.75357900E+02</rscale>
<asrwt>0</asrwt>
<pdfrwt beam="1">  1        2 0.24530854E+00 0.75357900E+02</pdfrwt>
<pdfrwt beam="2">  1       -1 0.13698033E-03 0.75357900E+02</pdfrwt>
<totfact> 0.37835734E+05</totfact>
</mgrwt>
</event>
<event>
 8    1  0.2676873E-016  0.7984134E+02  0.7818608E-02  0.1329502E+00
         -1   -1    0    0    0  501 -0.00000000000E+00  0.00000000000E+00  0.58874495498E+01  0.58874517071E+01  0.50400000000E-02 0.  1.
          2   -1    0    0  501    0  0.00000000000E+00 -0.00000000000E+00 -0.27068756690E+03  0.27068756691E+03  0.25500000000E-02 0. -1.
         24    2    1    2    0    0  0.00000000000E+00  0.00000000000E+00 -0.26480011735E+03  0.27657501862E+03  0.79841335006E+02 0.  0.
         66    2    3    3    0    0  0.31747437077E+02 -0.21509878985E+02 -0.17060015168E+03  0.17486848318E+03  0.20000002849E+01 0.  0.
        -13    1    3    3    0    0 -0.31747437077E+02  0.21509878985E+02 -0.94199965669E+02  0.10170653544E+03  0.10566000000E+00 0.  1.
         13    1    4    4    0    0  0.21300946887E+02 -0.14441074694E+02 -0.11641577973E+03  0.11922633900E+03  0.10566000000E+00 0. -1.
        -13    1    4    4    0    0  0.61829845437E+01 -0.37556251460E+01 -0.32510182009E+02  0.33305511802E+02  0.10566000000E+00 0.  1.
         14    1    4    4    0    0  0.42635056471E+01 -0.33131791446E+01 -0.21674189939E+02  0.22336632377E+02  0.00000000000E+00 0. -1.
<mgrwt>
<rscale>  0 0.79841335E+02</rscale>
<asrwt>0</asrwt>
<pdfrwt beam="1">  1        2 0.41644232E-01 0.79841335E+02</pdfrwt>
<pdfrwt beam="2">  1       -1 0.90576185E-03 0.79841335E+02</pdfrwt>
<totfact> 0.24690813E+05</totfact>
</mgrwt>
</event>
<event>
 8    1  0.2676873E-016  0.8041972E+02  0.7818608E-02  0.1327865E+00
         -1   -1    0    0    0  501 -0.00000000000E+00  0.00000000000E+00  0.24385656740E+01  0.24385708823E+01  0.50400000000E-02 0.  1.
          2   -1    0    0  501    0  0.00000000000E+00 -0.00000000000E+00 -0.66302548231E+03  0.66302548231E+03  0.25500000000E-02 0. -1.
         24    2    1    2    0    0 -0.44408920985E-15  0.00000000000E+00 -0.66058691663E+03  0.66546405320E+03  0.80419721879E+02 0.  0.
         66    2    3    3    0    0 -0.30298363374E+01  0.17015950354E+02 -0.63069488717E+03  0.63093483275E+03  0.20000019172E+01 0.  0.
        -13    1    3    3    0    0  0.30298363374E+01 -0.17015950354E+02 -0.29892029468E+02  0.34529220444E+02  0.10566000000E+00 0.  1.
         13    1    4    4    0    0 -0.37731850382E+00  0.51359157611E+01 -0.20926782312E+03  0.20933120397E+03  0.10566000000E+00 0. -1.
        -13    1    4    4    0    0 -0.25359199502E+01  0.11477200309E+02 -0.40091890207E+03  0.40109117943E+03  0.10566000000E+00 0.  1.
         14    1    4    4    0    0 -0.11659788334E+00  0.40283428371E+00 -0.20508161980E+02  0.20512449350E+02  0.00000000000E+00 0. -1.
<mgrwt>
<rscale>  0 0.80419722E+02</rscale>
<asrwt>0</asrwt>
<pdfrwt beam="1">  1        2 0.10200378E+00 0.80419722E+02</pdfrwt>
<pdfrwt beam="2">  1       -1 0.37516488E-03 0.80419722E+02</pdfrwt>
<totfact> 0.32575070E+05</totfact>
</mgrwt>
</event>
<event>
 8    1  0.2676873E-016  0.7998205E+02  0.7818608E-02  0.1329102E+00
          2   -1    0    0  501    0  0.00000000000E+00  0.00000000000E+00  0.93096201014E+03  0.93096201015E+03  0.25500000000E-02 0. -1.
         -1   -1    0    0    0  501 -0.00000000000E+00 -0.00000000000E+00 -0.17178772799E+01  0.17178846732E+01  0.50400000000E-02 0.  1.
         24    2    1    2    0    0 -0.35527136788E-14  0.00000000000E+00  0.92924413286E+03  0.93267989482E+03  0.79982046362E+02 0.  0.
         66    2    3    3    0    0  0.26027801462E+02  0.51947891262E+00  0.81852646364E+03  0.81894278676E+03  0.20000003800E+01 0.  0.
        -13    1    3    3    0    0 -0.26027801462E+02 -0.51947891262E+00  0.11071766922E+03  0.11373710806E+03  0.10566000000E+00 0.  1.
         13    1    4    4    0    0  0.67686387732E+01 -0.63807263375E+00  0.21730735758E+03  0.21741370801E+03  0.10566000000E+00 0. -1.
        -13    1    4    4    0    0  0.14633996339E+01  0.21628176188E+00  0.42735781210E+02  0.42761506942E+02  0.10566000000E+00 0.  1.
         14    1    4    4    0    0  0.17795763055E+02  0.94126978448E+00  0.55848332485E+03  0.55876757181E+03  0.00000000000E+00 0. -1.
<mgrwt>
<rscale>  0 0.79982046E+02</rscale>
<asrwt>0</asrwt>
<pdfrwt beam="1">  1        2 0.14322546E+00 0.79982046E+02</pdfrwt>
<pdfrwt beam="2">  1       -1 0.26428839E-03 0.79982046E+02</pdfrwt>
<totfact> 0.35085247E+05</totfact>
</mgrwt>
</event>
<event>
 8    1  0.2676873E-016  0.7911185E+02  0.7818608E-02  0.1331591E+00
         -1   -1    0    0    0  501 -0.00000000000E+00  0.00000000000E+00  0.67624583893E+01  0.67624602675E+01  0.50400000000E-02 0.  1.
          2   -1    0    0  501    0  0.00000000000E+00 -0.00000000000E+00 -0.23137608077E+03  0.23137608079E+03  0.25500000000E-02 0. -1.
         24    2    1    2    0    0  0.17763568394E-14  0.00000000000E+00 -0.22461362238E+03  0.23813854105E+03  0.79111853570E+02 0.  0.
         66    2    3    3    0    0  0.13659006492E+02 -0.10411777781E+02 -0.21955379520E+03  0.22023360905E+03  0.19999985461E+01 0.  0.
        -13    1    3    3    0    0 -0.13659006492E+02  0.10411777781E+02 -0.50598271853E+01  0.17904932005E+02  0.10566000000E+00 0.  1.
         13    1    4    4    0    0  0.85130985457E+01 -0.56431966508E+01 -0.13380884730E+03  0.13419812702E+03  0.10566000000E+00 0. -1.
        -13    1    4    4    0    0  0.13080742990E+01 -0.12968417149E+01 -0.18541523045E+02  0.18633091469E+02  0.10566000000E+00 0.  1.
         14    1    4    4    0    0  0.38378336474E+01 -0.34717394152E+01 -0.67203424851E+02  0.67402390561E+02  0.00000000000E+00 0. -1.
<mgrwt>
<rscale>  0 0.79111854E+02</rscale>
<asrwt>0</asrwt>
<pdfrwt beam="1">  1        2 0.35596314E-01 0.79111854E+02</pdfrwt>
<pdfrwt beam="2">  1       -1 0.10403785E-02 0.79111854E+02</pdfrwt>
<totfact> 0.23910066E+05</totfact>
</mgrwt>
</event>
<event>
 8    1  0.2676873E-016  0.8120513E+02  0.7818608E-02  0.1325666E+00
         -1   -1    0    0    0  501 -0.00000000000E+00  0.00000000000E+00  0.26927679706E+02  0.26927680177E+02  0.50400000000E-02 0.  1.
          2   -1    0    0  501    0  0.00000000000E+00 -0.00000000000E+00 -0.61222064856E+02  0.61222064909E+02  0.25500000000E-02 0. -1.
         24    2    1    2    0    0  0.35527136788E-14 -0.17763568394E-14 -0.34294385150E+02  0.88149745087E+02  0.81205127338E+02 0.  0.
         66    2    3    3    0    0 -0.28446473979E+02  0.99079433339E+01 -0.46670800033E+02  0.55583565816E+02  0.19999975373E+01 0.  0.
        -13    1    3    3    0    0  0.28446473979E+02 -0.99079433339E+01  0.12376414882E+02  0.32566179271E+02  0.10566000000E+00 0.  1.
         13    1    4    4    0    0 -0.13129143745E+02  0.41008280405E+01 -0.21151659406E+02  0.25230835613E+02  0.10566000000E+00 0. -1.
        -13    1    4    4    0    0 -0.11489464407E+02  0.48883637354E+01 -0.18933346398E+02  0.22680093965E+02  0.10566000000E+00 0.  1.
        -14    1    4    4    0    0 -0.38278658264E+01  0.91875155802E+00 -0.65857942286E+01  0.76726362374E+01  0.00000000000E+00 0.  1.
<mgrwt>
<rscale>  0 0.81205127E+02</rscale>
<asrwt>0</asrwt>
<pdfrwt beam="1">  1        2 0.94187792E-02 0.81205127E+02</pdfrwt>
<pdfrwt beam="2">  1       -1 0.41427200E-02 0.81205127E+02</pdfrwt>
<totfact> 0.15015498E+05</totfact>
</mgrwt>
</event>
<event>
 8    1  0.2676873E-016  0.7853173E+02  0.7818608E-02  0.1333271E+00
         -1   -1    0    0    0  501 -0.00000000000E+00  0.00000000000E+00  0.87613344642E+00  0.87614794272E+00  0.50400000000E-02 0.  1.
          2   -1    0    0  501    0  0.00000000000E+00 -0.00000000000E+00 -0.17597721827E+04  0.17597721827E+04  0.25500000000E-02 0. -1.
         24    2    1    2    0    0  0.00000000000E+00  0.00000000000E+00 -0.17588960493E+04  0.17606483307E+04  0.78531726848E+02 0.  0.
         66    2    3    3    0    0 -0.70570669442E+01 -0.17194560372E+02 -0.16548227239E+04  0.16549283074E+04  0.20000011532E+01 0.  0.
        -13    1    3    3    0    0  0.70570669442E+01  0.17194560372E+02 -0.10407332537E+03  0.10572002326E+03  0.10566000000E+00 0.  1.
         13    1    4    4    0    0 -0.44556244338E+01 -0.10002078569E+02 -0.10040302931E+04  0.10040900033E+04  0.10566000000E+00 0. -1.
        -13    1    4    4    0    0 -0.10968506482E+00 -0.27762441731E+00 -0.48358698045E+02  0.48359734767E+02  0.10566000000E+00 0.  1.
         14    1    4    4    0    0 -0.24917574455E+01 -0.69148573866E+01 -0.60243373278E+03  0.60247856932E+03  0.00000000000E+00 0. -1.
<mgrwt>
<rscale>  0 0.78531727E+02</rscale>
<asrwt>0</asrwt>
<pdfrwt beam="1">  1        2 0.27073135E+00 0.78531727E+02</pdfrwt>
<pdfrwt beam="2">  1       -1 0.13479228E-03 0.78531727E+02</pdfrwt>
<totfact> 0.32192580E+05</totfact>
</mgrwt>
</event>
<event>
 8    1  0.2676873E-016  0.7955592E+02  0.7818608E-02  0.1330316E+00
          2   -1    0    0  501    0  0.00000000000E+00  0.00000000000E+00  0.10741814934E+02  0.10741815236E+02  0.25500000000E-02 0. -1.
         -1   -1    0    0    0  501 -0.00000000000E+00 -0.00000000000E+00 -0.14730154617E+03  0.14730154626E+03  0.50400000000E-02 0.  1.
         24    2    1    2    0    0 -0.35527136788E-14  0.00000000000E+00 -0.13655973124E+03  0.15804336149E+03  0.79555916918E+02 0.  0.
         66    2    3    3    0    0 -0.19818582940E+02  0.21733380361E+02 -0.15196925797E+02  0.33167191789E+02  0.20000014554E+01 0.  0.
        -13    1    3    3    0    0  0.19818582940E+02 -0.21733380361E+02 -0.12136280544E+03  0.12487616970E+03  0.10566000000E+00 0.  1.
         13    1    4    4    0    0 -0.14747758855E+02  0.15340698999E+02 -0.10333820051E+02  0.23656551691E+02  0.10566000000E+00 0. -1.
        -13    1    4    4    0    0 -0.16346027978E+01  0.23972297801E+01 -0.17167769988E+01  0.33729992921E+01  0.10566000000E+00 0.  1.
         14    1    4    4    0    0 -0.34362212873E+01  0.39954515821E+01 -0.31463287469E+01  0.61376408060E+01  0.00000000000E+00 0. -1.
<mgrwt>
<rscale>  0 0.79555917E+02</rscale>
<asrwt>0</asrwt>
<pdfrwt beam="1">  1        2 0.16525870E-02 0.79555917E+02</pdfrwt>
<pdfrwt beam="2">  1       -1 0.22661775E-01 0.79555917E+02</pdfrwt>
<totfact> 0.10990514E+05</totfact>
</mgrwt>
</event>
<event>
 8    1  0.2676873E-016  0.8060611E+02  0.7818608E-02  0.1327340E+00
         -1   -1    0    0    0  501 -0.00000000000E+00  0.00000000000E+00  0.13944302552E+01  0.13944393634E+01  0.50400000000E-02 0.  1.
          2   -1    0    0  501    0  0.00000000000E+00 -0.00000000000E+00 -0.11648708279E+04  0.11648708279E+04  0.25500000000E-02 0. -1.
         24    2    1    2    0    0 -0.71054273576E-14  0.88817841970E-15 -0.11634763977E+04  0.11662652673E+04  0.80606114874E+02 0.  0.
         66    2    3    3    0    0 -0.20350110403E+02  0.31619308155E+01 -0.10829309701E+04  0.10831286216E+04  0.20000004361E+01 0.  0.
        -13    1    3    3    0    0  0.20350110403E+02 -0.31619308155E+01 -0.80545427550E+02  0.83136645729E+02  0.10566000000E+00 0.  1.
         13    1    4    4    0    0 -0.46227210345E+00 -0.15814441007E+00 -0.28894406403E+02  0.28898729912E+02  0.10566000000E+00 0. -1.
        -13    1    4    4    0    0 -0.30343973554E+01  0.84028837869E+00 -0.15749555002E+03  0.15752705511E+03  0.10566000000E+00 0.  1.
         14    1    4    4    0    0 -0.16853440944E+02  0.24797868468E+01 -0.89654101370E+03  0.89670283654E+03  0.00000000000E+00 0. -1.
<mgrwt>
<rscale>  0 0.80606115E+02</rscale>
<asrwt>0</asrwt>
<pdfrwt beam="1">  1        2 0.17921012E+00 0.80606115E+02</pdfrwt>
<pdfrwt beam="2">  1       -1 0.21452936E-03 0.80606115E+02</pdfrwt>
<totfact> 0.34456113E+05</totfact>
</mgrwt>
</event>
<event>
 8    1  0.2676873E-016  0.7295421E+02  0.7818608E-02  0.1350326E+00
          2   -1    0    0  501    0  0.00000000000E+00  0.00000000000E+00  0.82308616881E+03  0.82308616881E+03  0.25500000000E-02 0. -1.
         -1   -1    0    0    0  501 -0.00000000000E+00 -0.00000000000E+00 -0.16165695019E+01  0.16165773585E+01  0.50400000000E-02 0.  1.
         24    2    1    2    0    0  0.00000000000E+00  0.00000000000E+00  0.82146959931E+03  0.82470274617E+03  0.72954211372E+02 0.  0.
         66    2    3    3    0    0  0.50556850874E+01  0.13635605820E+02  0.78886713587E+03  0.78900370579E+03  0.20000001572E+01 0.  0.
        -13    1    3    3    0    0 -0.50556850874E+01 -0.13635605820E+02  0.32602463436E+02  0.35699040378E+02  0.10566000000E+00 0.  1.
         13    1    4    4    0    0  0.54753595579E+00  0.35529671137E+01  0.19964493116E+03  0.19967732238E+03  0.10566000000E+00 0. -1.
        -13    1    4    4    0    0  0.36762016254E+01  0.87404009371E+01  0.51642153137E+03  0.51650858492E+03  0.10566000000E+00 0.  1.
        -14    1    4    4    0    0  0.83194750612E+00  0.13422377690E+01  0.72800673342E+02  0.72817798497E+02  0.00000000000E+00 0.  1.
<mgrwt>
<rscale>  0 0.72954211E+02</rscale>
<asrwt>0</asrwt>
<pdfrwt beam="1">  1        2 0.12662843E+00 0.72954211E+02</pdfrwt>
<pdfrwt beam="2">  1       -1 0.24870402E-03 0.72954211E+02</pdfrwt>
<totfact> 0.43820191E+05</totfact>
</mgrwt>
</event>
<event>
 8    1  0.2676873E-016  0.8073850E+02  0.7818608E-02  0.1326969E+00
         -1   -1    0    0    0  501 -0.00000000000E+00  0.00000000000E+00  0.12171201810E+02  0.12171202854E+02  0.50400000000E-02 0.  1.
          2   -1    0    0  501    0  0.00000000000E+00 -0.00000000000E+00 -0.13389609401E+03  0.13389609403E+03  0.25500000000E-02 0. -1.
         24    2    1    2    0    0  0.00000000000E+00  0.00000000000E+00 -0.12172489220E+03  0.14606729689E+03  0.80738502829E+02 0.  0.
         66    2    3    3    0    0 -0.12952412272E+02 -0.24138430618E+02 -0.11448332350E+03  0.11773215444E+03  0.20000033432E+01 0.  0.
        -13    1    3    3    0    0  0.12952412272E+02  0.24138430618E+02 -0.72415687032E+01  0.28335142450E+02  0.10566000000E+00 0.  1.
         13    1    4    4    0    0 -0.16040029118E+01 -0.36432548615E+01 -0.16259416245E+02  0.16739949582E+02  0.10566000000E+00 0. -1.
        -13    1    4    4    0    0 -0.90586515539E+01 -0.17256000177E+02 -0.79701317620E+02  0.82049618552E+02  0.10566000000E+00 0.  1.
        -14    1    4    4    0    0 -0.22897578059E+01 -0.32391755794E+01 -0.18522589630E+02  0.18942586303E+02  0.00000000000E+00 0.  1.
<mgrwt>
<rscale>  0 0.80738503E+02</rscale>
<asrwt>0</asrwt>
<pdfrwt beam="1">  1        2 0.20599398E-01 0.80738503E+02</pdfrwt>
<pdfrwt beam="2">  1       -1 0.18724928E-02 0.80738503E+02</pdfrwt>
<totfact> 0.18855590E+05</totfact>
</mgrwt>
</event>
<event>
 8    1  0.2676873E-016  0.8475785E+02  0.7818608E-02  0.1316067E+00
         -1   -1    0    0    0  501 -0.00000000000E+00  0.00000000000E+00  0.59744235880E+02  0.59744236093E+02  0.50400000000E-02 0.  1.
          2   -1    0    0  501    0  0.00000000000E+00 -0.00000000000E+00 -0.30061027066E+02  0.30061027174E+02  0.25500000000E-02 0. -1.
         24    2    1    2    0    0 -0.35527136788E-14 -0.35527136788E-14  0.29683208814E+02  0.89805263267E+02  0.84757845802E+02 0.  0.
         66    2    3    3    0    0  0.27003560936E+02  0.26801126875E+02 -0.48724776760E+01  0.38408771773E+02  0.20000013604E+01 0.  0.
        -13    1    3    3    0    0 -0.27003560936E+02 -0.26801126875E+02  0.34555686490E+02  0.51396491494E+02  0.10566000000E+00 0.  1.
         13    1    4    4    0    0  0.12494733837E+02  0.12958471400E+02 -0.26927217460E+01  0.18201710610E+02  0.10566000000E+00 0. -1.
        -13    1    4    4    0    0  0.58559998757E+01  0.61178226676E+01 -0.13695318910E+01  0.85794679539E+01  0.10566000000E+00 0.  1.
        -14    1    4    4    0    0  0.86528272229E+01  0.77248328075E+01 -0.81022403901E+00  0.11627593209E+02  0.00000000000E+00 0.  1.
<mgrwt>
<rscale>  0 0.84757846E+02</rscale>
<asrwt>0</asrwt>
<pdfrwt beam="1">  1        2 0.46247735E-02 0.84757846E+02</pdfrwt>
<pdfrwt beam="2">  1       -1 0.91914209E-02 0.84757846E+02</pdfrwt>
<totfact> 0.11439173E+05</totfact>
</mgrwt>
</event>
<event>
 8    1  0.2676873E-016  0.7974781E+02  0.7818608E-02  0.1329769E+00
         -1   -1    0    0    0  501 -0.00000000000E+00  0.00000000000E+00  0.38169672538E+03  0.38169672541E+03  0.50400000000E-02 0.  1.
          2   -1    0    0  501    0  0.00000000000E+00 -0.00000000000E+00 -0.41654223475E+01  0.41654231280E+01  0.25500000000E-02 0. -1.
         24    2    1    2    0    0  0.00000000000E+00  0.00000000000E+00  0.37753130303E+03  0.38586214854E+03  0.79747808167E+02 0.  0.
         66    2    3    3    0    0 -0.58052983167E+01  0.38504810316E+02  0.22982651908E+03  0.23311059774E+03  0.19999999596E+01 0.  0.
        -13    1    3    3    0    0  0.58052983167E+01 -0.38504810316E+02  0.14770478395E+03  0.15275155080E+03  0.10566000000E+00 0.  1.
         13    1    4    4    0    0 -0.45144002333E+01  0.26122276011E+02  0.15566479706E+03  0.15790596353E+03  0.10566000000E+00 0. -1.
        -13    1    4    4    0    0 -0.12225811083E+00  0.50736604113E+01  0.30994201820E+02  0.31407143893E+02  0.10566000000E+00 0.  1.
        -14    1    4    4    0    0 -0.11686399726E+01  0.73088738935E+01  0.43167520204E+02  0.43797490311E+02  0.00000000000E+00 0.  1.
<mgrwt>
<rscale>  0 0.79747808E+02</rscale>
<asrwt>0</asrwt>
<pdfrwt beam="1">  1        2 0.64083424E-03 0.79747808E+02</pdfrwt>
<pdfrwt beam="2">  1       -1 0.58722576E-01 0.79747808E+02</pdfrwt>
<totfact> 0.78242303E+04</totfact>
</mgrwt>
</event>
<event>
 8    1  0.2676873E-016  0.7929808E+02  0.7818608E-02  0.1331055E+00
         -1   -1    0    0    0  501 -0.00000000000E+00  0.00000000000E+00  0.85328672108E+02  0.85328672257E+02  0.50400000000E-02 0.  1.
          2   -1    0    0  501    0  0.00000000000E+00 -0.00000000000E+00 -0.18423423344E+02  0.18423423520E+02  0.25500000000E-02 0. -1.
         24    2    1    2    0    0  0.35527136788E-14  0.00000000000E+00  0.66905248764E+02  0.10375209578E+03  0.79298077316E+02 0.  0.
         66    2    3    3    0    0  0.25261549834E+02 -0.16455870288E+02  0.67114753260E+02  0.73602524915E+02  0.20000004417E+01 0.  0.
        -13    1    3    3    0    0 -0.25261549834E+02  0.16455870288E+02 -0.20950449650E+00  0.30149570861E+02  0.10566000000E+00 0.  1.
         13    1    4    4    0    0  0.12588838890E+02 -0.83684860122E+01  0.35050002287E+02  0.38170986981E+02  0.10566000000E+00 0. -1.
        -13    1    4    4    0    0  0.21318876371E+01 -0.10347557852E+01  0.44163772834E+01  0.50131045049E+01  0.10566000000E+00 0.  1.
        -14    1    4    4    0    0  0.10540823307E+02 -0.70526284909E+01  0.27648373690E+02  0.30418433430E+02  0.00000000000E+00 0.  1.
<mgrwt>
<rscale>  0 0.79298077E+02</rscale>
<asrwt>0</asrwt>
<pdfrwt beam="1">  1        2 0.28343728E-02 0.79298077E+02</pdfrwt>
<pdfrwt beam="2">  1       -1 0.13127488E-01 0.79298077E+02</pdfrwt>
<totfact> 0.12523945E+05</totfact>
</mgrwt>
</event>
<event>
 8    1  0.2676873E-016  0.7923218E+02  0.7818608E-02  0.1331245E+00
          2   -1    0    0  501    0  0.00000000000E+00  0.00000000000E+00  0.50808144531E+03  0.50808144531E+03  0.25500000000E-02 0. -1.
         -1   -1    0    0    0  501 -0.00000000000E+00 -0.00000000000E+00 -0.30889406509E+01  0.30889447626E+01  0.50400000000E-02 0.  1.
         24    2    1    2    0    0 -0.17763568394E-14 -0.35527136788E-14  0.50499250466E+03  0.51117039008E+03  0.79232177376E+02 0.  0.
         66    2    3    3    0    0  0.11131559246E+02  0.23394020624E+02  0.44579823497E+03  0.44655487692E+03  0.19999975064E+01 0.  0.
        -13    1    3    3    0    0 -0.11131559246E+02 -0.23394020624E+02  0.59194269688E+02  0.64615513154E+02  0.10566000000E+00 0.  1.
         13    1    4    4    0    0  0.24278694935E+01  0.63447843947E+01  0.12038731961E+03  0.12057889005E+03  0.10566000000E+00 0. -1.
        -13    1    4    4    0    0  0.73096830295E+01  0.13173473915E+02  0.25662279816E+03  0.25706466809E+03  0.10566000000E+00 0.  1.
        -14    1    4    4    0    0  0.13940067233E+01  0.38757623141E+01  0.68788117198E+02  0.68911318779E+02  0.00000000000E+00 0.  1.
<mgrwt>
<rscale>  0 0.79232177E+02</rscale>
<asrwt>0</asrwt>
<pdfrwt beam="1">  1        2 0.78166271E-01 0.79232177E+02</pdfrwt>
<pdfrwt beam="2">  1       -1 0.47522260E-03 0.79232177E+02</pdfrwt>
<totfact> 0.31385124E+05</totfact>
</mgrwt>
</event>
<event>
 8    1  0.2676873E-016  0.8300654E+02  0.7818608E-02  0.1320730E+00
         -1   -1    0    0    0  501 -0.00000000000E+00  0.00000000000E+00  0.31280035497E+01  0.31280076100E+01  0.50400000000E-02 0.  1.
          2   -1    0    0  501    0  0.00000000000E+00 -0.00000000000E+00 -0.55067716876E+03  0.55067716877E+03  0.25500000000E-02 0. -1.
         24    2    1    2    0    0  0.88817841970E-15  0.00000000000E+00 -0.54754916521E+03  0.55380517638E+03  0.83006536238E+02 0.  0.
         66    2    3    3    0    0 -0.76307326941E+01  0.13984749971E+02 -0.52944877006E+03  0.52969217611E+03  0.19999998523E+01 0.  0.
        -13    1    3    3    0    0  0.76307326941E+01 -0.13984749971E+02 -0.18100395146E+02  0.24113000263E+02  0.10566000000E+00 0.  1.
         13    1    4    4    0    0 -0.18712236130E+01  0.35562463299E+01 -0.13140530766E+03  0.13146678064E+03  0.10566000000E+00 0.  1.
        -13    1    4    4    0    0 -0.47895579089E+01  0.96034733968E+01 -0.36380690556E+03  0.36396516628E+03  0.10566000000E+00 0. -1.
        -14    1    4    4    0    0 -0.96995117214E+00  0.82503024442E+00 -0.34236556839E+02  0.34260229193E+02  0.00000000000E+00 0.  1.
<mgrwt>
<rscale>  0 0.83006536E+02</rscale>
<asrwt>0</asrwt>
<pdfrwt beam="1">  1        2 0.84719488E-01 0.83006536E+02</pdfrwt>
<pdfrwt beam="2">  1       -1 0.48123207E-03 0.83006536E+02</pdfrwt>
<totfact> 0.28495839E+05</totfact>
</mgrwt>
</event>
<event>
 8    1  0.2676873E-016  0.7871725E+02  0.7818608E-02  0.1332732E+00
         -1   -1    0    0    0  501 -0.00000000000E+00  0.00000000000E+00  0.66545555845E+01  0.66545574931E+01  0.50400000000E-02 0.  1.
          2   -1    0    0  501    0  0.00000000000E+00 -0.00000000000E+00 -0.23278806801E+03  0.23278806803E+03  0.25500000000E-02 0. -1.
         24    2    1    2    0    0  0.71054273576E-14  0.00000000000E+00 -0.22613351243E+03  0.23944262552E+03  0.78717250159E+02 0.  0.
         66    2    3    3    0    0 -0.34774406549E+02 -0.57828020653E+01 -0.60069280710E+02  0.69677963795E+02  0.20000007322E+01 0.  0.
        -13    1    3    3    0    0  0.34774406549E+02  0.57828020653E+01 -0.16606423172E+03  0.16976466172E+03  0.10566000000E+00 0.  1.
         13    1    4    4    0    0 -0.15382295634E+02 -0.17014545725E+01 -0.26857552861E+02  0.30997568878E+02  0.10566000000E+00 0. -1.
        -13    1    4    4    0    0 -0.17485399577E+02 -0.34794696775E+01 -0.29822709423E+02  0.34745518689E+02  0.10566000000E+00 0.  1.
         14    1    4    4    0    0 -0.19067113378E+01 -0.60187781529E+00 -0.33890184273E+01  0.39348762281E+01  0.00000000000E+00 0. -1.
<mgrwt>
<rscale>  0 0.78717250E+02</rscale>
<asrwt>0</asrwt>
<pdfrwt beam="1">  1        2 0.35813543E-01 0.78717250E+02</pdfrwt>
<pdfrwt beam="2">  1       -1 0.10237781E-02 0.78717250E+02</pdfrwt>
<totfact> 0.24278751E+05</totfact>
</mgrwt>
</event>
<event>
 8    1  0.2676873E-016  0.7212330E+02  0.7818608E-02  0.1353018E+00
          2   -1    0    0  501    0  0.00000000000E+00  0.00000000000E+00  0.83591062338E+02  0.83591062377E+02  0.25500000000E-02 0. -1.
         -1   -1    0    0    0  501 -0.00000000000E+00 -0.00000000000E+00 -0.15557196792E+02  0.15557197609E+02  0.50400000000E-02 0.  1.
         24    2    1    2    0    0 -0.44408920985E-15  0.35527136788E-14  0.68033865546E+02  0.99148259985E+02  0.72123301346E+02 0.  0.
         66    2    3    3    0    0  0.33775584758E+01  0.29560672321E+02  0.61986971858E+02  0.68786815082E+02  0.19999999364E+01 0.  0.
        -13    1    3    3    0    0 -0.33775584758E+01 -0.29560672321E+02  0.60468936879E+01  0.30361444903E+02  0.10566000000E+00 0.  1.
         13    1    4    4    0    0  0.13028523698E+01  0.10156353948E+02  0.22496023369E+02  0.24717022096E+02  0.10566000000E+00 0. -1.
        -13    1    4    4    0    0  0.80437996355E+00  0.96796915526E+01  0.21052261983E+02  0.23185175313E+02  0.10566000000E+00 0.  1.
        -14    1    4    4    0    0  0.12703261424E+01  0.97246268204E+01  0.18438686506E+02  0.20884617673E+02  0.00000000000E+00 0.  1.
<mgrwt>
<rscale>  0 0.72123301E+02</rscale>
<asrwt>0</asrwt>
<pdfrwt beam="1">  1        2 0.12860163E-01 0.72123301E+02</pdfrwt>
<pdfrwt beam="2">  1       -1 0.23934150E-02 0.72123301E+02</pdfrwt>
<totfact> 0.22276368E+05</totfact>
</mgrwt>
</event>
<event>
 8    1  0.2676873E-016  0.8027929E+02  0.7818608E-02  0.1328261E+00
         -1   -1    0    0    0  501 -0.00000000000E+00  0.00000000000E+00  0.30803178225E+02  0.30803178637E+02  0.50400000000E-02 0.  1.
          2   -1    0    0  501    0  0.00000000000E+00 -0.00000000000E+00 -0.52305997540E+02  0.52305997602E+02  0.25500000000E-02 0. -1.
         24    2    1    2    0    0  0.00000000000E+00  0.00000000000E+00 -0.21502819315E+02  0.83109176240E+02  0.80279287097E+02 0.  0.
         66    2    3    3    0    0 -0.66620219692E+01  0.11988464112E+02 -0.49784129267E+02  0.51677512824E+02  0.19999990854E+01 0.  0.
        -13    1    3    3    0    0  0.66620219692E+01 -0.11988464112E+02  0.28281309951E+02  0.31431663416E+02  0.10566000000E+00 0.  1.
         13    1    4    4    0    0 -0.34797294972E+01  0.56514891532E+01 -0.24920487689E+02  0.25789333410E+02  0.10566000000E+00 0. -1.
        -13    1    4    4    0    0 -0.25119935808E+01  0.42882082264E+01 -0.15411192221E+02  0.16193049473E+02  0.10566000000E+00 0.  1.
        -14    1    4    4    0    0 -0.67029889131E+00  0.20487667327E+01 -0.94524493566E+01  0.96951299407E+01  0.00000000000E+00 0.  1.
<mgrwt>
<rscale>  0 0.80279287E+02</rscale>
<asrwt>0</asrwt>
<pdfrwt beam="1">  1        2 0.80470765E-02 0.80279287E+02</pdfrwt>
<pdfrwt beam="2">  1       -1 0.47389506E-02 0.80279287E+02</pdfrwt>
<totfact> 0.14948225E+05</totfact>
</mgrwt>
</event>
<event>
 8    1  0.2676873E-016  0.8029515E+02  0.7818608E-02  0.1328216E+00
          2   -1    0    0  501    0  0.00000000000E+00  0.00000000000E+00  0.34098448340E+03  0.34098448341E+03  0.25500000000E-02 0. -1.
         -1   -1    0    0    0  501 -0.00000000000E+00 -0.00000000000E+00 -0.47269816300E+01  0.47269843168E+01  0.50400000000E-02 0.  1.
         24    2    1    2    0    0  0.00000000000E+00  0.00000000000E+00  0.33625750177E+03  0.34571146773E+03  0.80295151914E+02 0.  0.
         66    2    3    3    0    0  0.38733742680E+02  0.46737586503E+01  0.12791793108E+03  0.13375030449E+03  0.20000042327E+01 0.  0.
        -13    1    3    3    0    0 -0.38733742680E+02 -0.46737586503E+01  0.20833957069E+03  0.21196116324E+03  0.10566000000E+00 0.  1.
         13    1    4    4    0    0  0.16743839407E+02  0.25945393927E+01  0.55337364291E+02  0.57873334477E+02  0.10566000000E+00 0. -1.
        -13    1    4    4    0    0  0.51058352802E+01  0.51368357927E+00  0.18663790554E+02  0.19356695653E+02  0.10566000000E+00 0.  1.
         14    1    4    4    0    0  0.16884067993E+02  0.15655356783E+01  0.53916776233E+02  0.56520274357E+02  0.00000000000E+00 0. -1.
<mgrwt>
<rscale>  0 0.80295152E+02</rscale>
<asrwt>0</asrwt>
<pdfrwt beam="1">  1        2 0.52459150E-01 0.80295152E+02</pdfrwt>
<pdfrwt beam="2">  1       -1 0.72722818E-03 0.80295152E+02</pdfrwt>
<totfact> 0.26443027E+05</totfact>
</mgrwt>
</event>
<event>
 8    1  0.2676873E-016  0.7508003E+02  0.7818608E-02  0.1343623E+00
         -1   -1    0    0    0  501 -0.00000000000E+00  0.00000000000E+00  0.87155291763E+02  0.87155291908E+02  0.50400000000E-02 0.  1.
          2   -1    0    0  501    0  0.00000000000E+00 -0.00000000000E+00 -0.16169446317E+02  0.16169446518E+02  0.25500000000E-02 0. -1.
         24    2    1    2    0    0 -0.35527136788E-14  0.88817841970E-15  0.70985845446E+02  0.10332473843E+03  0.75080032747E+02 0.  0.
         66    2    3    3    0    0  0.19307300377E+02  0.65173459228E+01 -0.78266383095E+01  0.21920399443E+02  0.19999996955E+01 0.  0.
        -13    1    3    3    0    0 -0.19307300377E+02 -0.65173459228E+01  0.78812483755E+02  0.81404338984E+02  0.10566000000E+00 0.  1.
         13    1    4    4    0    0  0.54581795988E+01  0.16863759309E+01 -0.20442393258E+01  0.60684155073E+01  0.10566000000E+00 0. -1.
        -13    1    4    4    0    0  0.88182788439E+01  0.26359191793E+01 -0.28887452085E+01  0.96470785528E+01  0.10566000000E+00 0.  1.
         14    1    4    4    0    0  0.50308419341E+01  0.21950508126E+01 -0.28936537751E+01  0.62049053826E+01  0.00000000000E+00 0. -1.
<mgrwt>
<rscale>  0 0.75080033E+02</rscale>
<asrwt>0</asrwt>
<pdfrwt beam="1">  1        2 0.24876072E-02 0.75080033E+02</pdfrwt>
<pdfrwt beam="2">  1       -1 0.13408506E-01 0.75080033E+02</pdfrwt>
<totfact> 0.14278481E+05</totfact>
</mgrwt>
</event>
<event>
 8    1  0.2676873E-016  0.8128691E+02  0.7818608E-02  0.1325439E+00
         -1   -1    0    0    0  501 -0.00000000000E+00  0.00000000000E+00  0.61832518263E+01  0.61832538804E+01  0.50400000000E-02 0.  1.
          2   -1    0    0  501    0  0.00000000000E+00 -0.00000000000E+00 -0.26715558064E+03  0.26715558065E+03  0.25500000000E-02 0. -1.
         24    2    1    2    0    0  0.88817841970E-15 -0.71054273576E-14 -0.26097232881E+03  0.27333883453E+03  0.81286911968E+02 0.  0.
         66    2    3    3    0    0  0.50655106234E+01 -0.39917937743E+02 -0.14922211193E+03  0.15456500202E+03  0.20000024658E+01 0.  0.
        -13    1    3    3    0    0 -0.50655106234E+01  0.39917937743E+02 -0.11175021688E+03  0.11877383251E+03  0.10566000000E+00 0.  1.
         13    1    4    4    0    0  0.22320172529E+01 -0.12260572225E+02 -0.47340939099E+02  0.48953847766E+02  0.10566000000E+00 0. -1.
        -13    1    4    4    0    0  0.15909750982E-01 -0.74961952624E+00 -0.23936693081E+01  0.25105774926E+01  0.10566000000E+00 0.  1.
        -14    1    4    4    0    0  0.28175836195E+01 -0.26907745992E+02 -0.99487503524E+02  0.10310057676E+03  0.00000000000E+00 0.  1.
<mgrwt>
<rscale>  0 0.81286912E+02</rscale>
<asrwt>0</asrwt>
<pdfrwt beam="1">  1        2 0.41100850E-01 0.81286912E+02</pdfrwt>
<pdfrwt beam="2">  1       -1 0.95126988E-03 0.81286912E+02</pdfrwt>
<totfact> 0.23441879E+05</totfact>
</mgrwt>
</event>
<event>
 8    1  0.2676873E-016  0.7891538E+02  0.7818608E-02  0.1332158E+00
          2   -1    0    0  501    0  0.00000000000E+00  0.00000000000E+00  0.14622954017E+03  0.14622954020E+03  0.25500000000E-02 0. -1.
         -1   -1    0    0    0  501 -0.00000000000E+00 -0.00000000000E+00 -0.10647023804E+02  0.10647024996E+02  0.50400000000E-02 0.  1.
         24    2    1    2    0    0  0.35527136788E-14  0.00000000000E+00  0.13558251637E+03  0.15687656519E+03  0.78915384820E+02 0.  0.
         66    2    3    3    0    0 -0.18677036996E+02 -0.33527780101E+02  0.85831652098E+02  0.94042630020E+02  0.20000024228E+01 0.  0.
        -13    1    3    3    0    0  0.18677036996E+02  0.33527780101E+02  0.49750864273E+02  0.62833935174E+02  0.10566000000E+00 0.  1.
         13    1    4    4    0    0 -0.10433205642E+02 -0.17310770739E+02  0.44805183070E+02  0.49153129682E+02  0.10566000000E+00 0. -1.
        -13    1    4    4    0    0 -0.43947699362E+01 -0.94312477060E+01  0.24220853250E+02  0.26361398526E+02  0.10566000000E+00 0.  1.
        -14    1    4    4    0    0 -0.38490614172E+01 -0.67857616563E+01  0.16805615779E+02  0.18528101812E+02  0.00000000000E+00 0.  1.
<mgrwt>
<rscale>  0 0.78915385E+02</rscale>
<asrwt>0</asrwt>
<pdfrwt beam="1">  1        2 0.22496852E-01 0.78915385E+02</pdfrwt>
<pdfrwt beam="2">  1       -1 0.16380038E-02 0.78915385E+02</pdfrwt>
<totfact> 0.20599630E+05</totfact>
</mgrwt>
</event>
<event>
 8    1  0.2676873E-016  0.7853077E+02  0.7818608E-02  0.1333273E+00
         -1   -1    0    0    0  501 -0.00000000000E+00  0.00000000000E+00  0.53967483079E+01  0.53967506613E+01  0.50400000000E-02 0.  1.
          2   -1    0    0  501    0  0.00000000000E+00 -0.00000000000E+00 -0.28568503796E+03  0.28568503798E+03  0.25500000000E-02 0. -1.
         24    2    1    2    0    0  0.00000000000E+00  0.35527136788E-14 -0.28028828966E+03  0.29108178864E+03  0.78530773316E+02 0.  0.
         66    2    3    3    0    0  0.90068831751E+01 -0.19981388531E+02 -0.26087782003E+03  0.26180453932E+03  0.19999990262E+01 0.  0.
        -13    1    3    3    0    0 -0.90068831751E+01  0.19981388531E+02 -0.19410469631E+02  0.29277249315E+02  0.10566000000E+00 0.  1.
         13    1    4    4    0    0  0.50562979163E+01 -0.10419182526E+02 -0.12746021847E+03  0.12798532717E+03  0.10566000000E+00 0. -1.
        -13    1    4    4    0    0  0.23670554260E+01 -0.63689960035E+01 -0.87339831718E+02  0.87603792327E+02  0.10566000000E+00 0.  1.
         14    1    4    4    0    0  0.15835298328E+01 -0.31932100011E+01 -0.46077769836E+02  0.46215419828E+02  0.00000000000E+00 0. -1.
<mgrwt>
<rscale>  0 0.78530773E+02</rscale>
<asrwt>0</asrwt>
<pdfrwt beam="1">  1        2 0.43951532E-01 0.78530773E+02</pdfrwt>
<pdfrwt beam="2">  1       -1 0.83026938E-03 0.78530773E+02</pdfrwt>
<totfact> 0.26293901E+05</totfact>
</mgrwt>
</event>
<event>
 8    1  0.2676873E-016  0.7679862E+02  0.7818608E-02  0.1338390E+00
         -1   -1    0    0    0  501 -0.00000000000E+00  0.00000000000E+00  0.15550444604E+01  0.15550526279E+01  0.50400000000E-02 0.  1.
          2   -1    0    0  501    0  0.00000000000E+00 -0.00000000000E+00 -0.94820649097E+03  0.94820649097E+03  0.25500000000E-02 0. -1.
         24    2    1    2    0    0  0.00000000000E+00  0.00000000000E+00 -0.94665144651E+03  0.94976154360E+03  0.76798623199E+02 0.  0.
         66    2    3    3    0    0 -0.10601251779E+02 -0.16578931972E+02 -0.88105142365E+03  0.88127343012E+03  0.20000001335E+01 0.  0.
        -13    1    3    3    0    0  0.10601251779E+02  0.16578931972E+02 -0.65600022860E+02  0.68488113478E+02  0.10566000000E+00 0.  1.
         13    1    4    4    0    0 -0.29685805206E+00 -0.43647107212E+00 -0.36608441862E+02  0.36612399694E+02  0.10566000000E+00 0.  1.
        -13    1    4    4    0    0 -0.20296004614E+01 -0.25178757011E+01 -0.15543864417E+03  0.15547231985E+03  0.10566000000E+00 0. -1.
         14    1    4    4    0    0 -0.82747932651E+01 -0.13624585199E+02 -0.68900433762E+03  0.68918871057E+03  0.00000000000E+00 0. -1.
<mgrwt>
<rscale>  0 0.76798623E+02</rscale>
<asrwt>0</asrwt>
<pdfrwt beam="1">  1        2 0.14587746E+00 0.76798623E+02</pdfrwt>
<pdfrwt beam="2">  1       -1 0.23923900E-03 0.76798623E+02</pdfrwt>
<totfact> 0.39038415E+05</totfact>
</mgrwt>
</event>
<event>
 8    1  0.2676873E-016  0.7947309E+02  0.7818608E-02  0.1330553E+00
          2   -1    0    0  501    0  0.00000000000E+00  0.00000000000E+00  0.57991834679E+03  0.57991834679E+03  0.25500000000E-02 0. -1.
         -1   -1    0    0    0  501 -0.00000000000E+00 -0.00000000000E+00 -0.27227827122E+01  0.27227873768E+01  0.50400000000E-02 0.  1.
         24    2    1    2    0    0 -0.17763568394E-14  0.00000000000E+00  0.57719556408E+03  0.58264113417E+03  0.79473090028E+02 0.  0.
         66    2    3    3    0    0  0.13668973061E+02 -0.33388063835E+01  0.56102705218E+03  0.56120703999E+03  0.19999992545E+01 0.  0.
        -13    1    3    3    0    0 -0.13668973061E+02  0.33388063835E+01  0.16168511894E+02  0.21434094185E+02  0.10566000000E+00 0.  1.
         13    1    4    4    0    0  0.56813224824E+01 -0.16112154998E+01  0.21081608526E+03  0.21089880609E+03  0.10566000000E+00 0. -1.
        -13    1    4    4    0    0  0.31846557396E+01 -0.11970250503E+01  0.13333087429E+03  0.13337431576E+03  0.10566000000E+00 0.  1.
         14    1    4    4    0    0  0.48029948394E+01 -0.53056583339E+00  0.21688009263E+03  0.21693391814E+03  0.00000000000E+00 0. -1.
<mgrwt>
<rscale>  0 0.79473090E+02</rscale>
<asrwt>0</asrwt>
<pdfrwt beam="1">  1        2 0.89218183E-01 0.79473090E+02</pdfrwt>
<pdfrwt beam="2">  1       -1 0.41889012E-03 0.79473090E+02</pdfrwt>
<totfact> 0.32407722E+05</totfact>
</mgrwt>
</event>
<event>
 8    1  0.2676873E-016  0.8236418E+02  0.7818608E-02  0.1322473E+00
         -1   -1    0    0    0  501 -0.00000000000E+00  0.00000000000E+00  0.49254864246E+02  0.49254864504E+02  0.50400000000E-02 0.  1.
          2   -1    0    0  501    0  0.00000000000E+00 -0.00000000000E+00 -0.34432430946E+02  0.34432431040E+02  0.25500000000E-02 0. -1.
         24    2    1    2    0    0  0.00000000000E+00  0.00000000000E+00  0.14822433300E+02  0.83687295544E+02  0.82364184611E+02 0.  0.
         66    2    3    3    0    0  0.17706936302E+02 -0.24416676155E+02 -0.21038758864E+02  0.36828508373E+02  0.19999966738E+01 0.  0.
        -13    1    3    3    0    0 -0.17706936302E+02  0.24416676155E+02  0.35861192165E+02  0.46858787172E+02  0.10566000000E+00 0.  1.
         13    1    4    4    0    0  0.23079443543E+01 -0.27094332567E+01 -0.19312432833E+01  0.40507407187E+01  0.10566000000E+00 0. -1.
        -13    1    4    4    0    0  0.29332176381E+01 -0.48021332114E+01 -0.40077254255E+01  0.69092167583E+01  0.10566000000E+00 0. -1.
         14    1    4    4    0    0  0.12465774310E+02 -0.16905109687E+02 -0.15099790156E+02  0.25868550896E+02  0.00000000000E+00 0. -1.
<mgrwt>
<rscale>  0 0.82364185E+02</rscale>
<asrwt>0</asrwt>
<pdfrwt beam="1">  1        2 0.52972971E-02 0.82364185E+02</pdfrwt>
<pdfrwt beam="2">  1       -1 0.75776715E-02 0.82364185E+02</pdfrwt>
<totfact> 0.12749286E+05</totfact>
</mgrwt>
</event>
<event>
 8    1  0.2676873E-016  0.8278425E+02  0.7818608E-02  0.1321331E+00
         -1   -1    0    0    0  501 -0.00000000000E+00  0.00000000000E+00  0.19993058892E+02  0.19993059527E+02  0.50400000000E-02 0.  1.
          2   -1    0    0  501    0  0.00000000000E+00 -0.00000000000E+00 -0.85695131469E+02  0.85695131507E+02  0.25500000000E-02 0. -1.
         24    2    1    2    0    0  0.00000000000E+00  0.35527136788E-14 -0.65702072577E+02  0.10568819103E+03  0.82784245985E+02 0.  0.
         66    2    3    3    0    0 -0.60610410719E+01  0.25751223126E+02 -0.73472310666E+02  0.78115569191E+02  0.20000009811E+01 0.  0.
        -13    1    3    3    0    0  0.60610410719E+01 -0.25751223126E+02  0.77702380894E+01  0.27572621844E+02  0.10566000000E+00 0.  1.
         13    1    4    4    0    0 -0.16126877878E+01  0.78524122051E+01 -0.21592910826E+02  0.23033152223E+02  0.10566000000E+00 0. -1.
        -13    1    4    4    0    0  0.88657219863E-01  0.39657918168E+00 -0.94600198238E+00  0.10349970706E+01  0.10566000000E+00 0.  1.
         14    1    4    4    0    0 -0.45370105039E+01  0.17502231739E+02 -0.50933397858E+02  0.54047419897E+02  0.00000000000E+00 0. -1.
<mgrwt>
<rscale>  0 0.82784246E+02</rscale>
<asrwt>0</asrwt>
<pdfrwt beam="1">  1        2 0.13183866E-01 0.82784246E+02</pdfrwt>
<pdfrwt beam="2">  1       -1 0.30758553E-02 0.82784246E+02</pdfrwt>
<totfact> 0.15499635E+05</totfact>
</mgrwt>
</event>
<event>
 8    1  0.2676873E-016  0.8192459E+02  0.7818608E-02  0.1323677E+00
          2   -1    0    0  501    0  0.00000000000E+00  0.00000000000E+00  0.19551431317E+02  0.19551431483E+02  0.25500000000E-02 0. -1.
         -1   -1    0    0    0  501 -0.00000000000E+00 -0.00000000000E+00 -0.85820300759E+02  0.85820300907E+02  0.50400000000E-02 0.  1.
         24    2    1    2    0    0  0.00000000000E+00  0.00000000000E+00 -0.66268869442E+02  0.10537173239E+03  0.81924592949E+02 0.  0.
         66    2    3    3    0    0 -0.83209674142E+01 -0.39663403308E+02 -0.40596423807E+02  0.57397680137E+02  0.19999996471E+01 0.  0.
        -13    1    3    3    0    0  0.83209674142E+01  0.39663403308E+02 -0.25672445635E+02  0.47974052253E+02  0.10566000000E+00 0.  1.
         13    1    4    4    0    0 -0.50392160943E+01 -0.24308950507E+02 -0.25581069937E+02  0.35647174877E+02  0.10566000000E+00 0. -1.
        -13    1    4    4    0    0 -0.62487144856E+00 -0.52201382043E+01 -0.51212338050E+01  0.73401980164E+01  0.10566000000E+00 0.  1.
         14    1    4    4    0    0 -0.26568798714E+01 -0.10134314597E+02 -0.98941200648E+01  0.14410307244E+02  0.00000000000E+00 0. -1.
<mgrwt>
<rscale>  0 0.81924593E+02</rscale>
<asrwt>0</asrwt>
<pdfrwt beam="1">  1        2 0.30079126E-02 0.81924593E+02</pdfrwt>
<pdfrwt beam="2">  1       -1 0.13203123E-01 0.81924593E+02</pdfrwt>
<totfact> 0.11539808E+05</totfact>
</mgrwt>
</event>
<event>
 8    1  0.2676873E-016  0.7893685E+02  0.7818608E-02  0.1332096E+00
         -1   -1    0    0    0  501 -0.00000000000E+00  0.00000000000E+00  0.13843020385E+02  0.13843021302E+02  0.50400000000E-02 0.  1.
          2   -1    0    0  501    0  0.00000000000E+00 -0.00000000000E+00 -0.11253009981E+03  0.11253009984E+03  0.25500000000E-02 0. -1.
         24    2    1    2    0    0 -0.71054273576E-14  0.11102230246E-15 -0.98687079427E+02  0.12637312114E+03  0.78936848820E+02 0.  0.
         66    2    3    3    0    0 -0.38318740455E+02  0.55676608679E+00 -0.34432629448E+02  0.51558140259E+02  0.19999994372E+01 0.  0.
        -13    1    3    3    0    0  0.38318740455E+02 -0.55676608679E+00 -0.64254449979E+02  0.74814980884E+02  0.10566000000E+00 0.  1.
         13    1    4    4    0    0 -0.14776614495E+02 -0.10860929911E+00 -0.14308122356E+02  0.20569240660E+02  0.10566000000E+00 0. -1.
        -13    1    4    4    0    0 -0.12634145154E+02  0.71626698084E+00 -0.11017888549E+02  0.16779144623E+02  0.10566000000E+00 0.  1.
        -14    1    4    4    0    0 -0.10907980805E+02 -0.50891594942E-01 -0.91066185435E+01  0.14209754977E+02  0.00000000000E+00 0.  1.
<mgrwt>
<rscale>  0 0.78936849E+02</rscale>
<asrwt>0</asrwt>
<pdfrwt beam="1">  1        2 0.17312322E-01 0.78936849E+02</pdfrwt>
<pdfrwt beam="2">  1       -1 0.21296956E-02 0.78936849E+02</pdfrwt>
<totfact> 0.19001246E+05</totfact>
</mgrwt>
</event>
<event>
 8    1  0.2676873E-016  0.8283927E+02  0.7818608E-02  0.1321182E+00
          2   -1    0    0  501    0  0.00000000000E+00  0.00000000000E+00  0.16903882792E+02  0.16903882984E+02  0.25500000000E-02 0. -1.
         -1   -1    0    0    0  501 -0.00000000000E+00 -0.00000000000E+00 -0.10149065853E+03  0.10149065865E+03  0.50400000000E-02 0.  1.
         24    2    1    2    0    0 -0.71054273576E-14  0.00000000000E+00 -0.84586775737E+02  0.11839454164E+03  0.82839271244E+02 0.  0.
         66    2    3    3    0    0  0.34802567037E+02  0.21683584815E+02 -0.34209853039E+02  0.53438848837E+02  0.19999993143E+01 0.  0.
        -13    1    3    3    0    0 -0.34802567037E+02 -0.21683584815E+02 -0.50376922699E+02  0.64955692802E+02  0.10566000000E+00 0.  1.
         13    1    4    4    0    0  0.13371436971E+02  0.78824688627E+01 -0.12648467293E+02  0.20023074962E+02  0.10566000000E+00 0. -1.
        -13    1    4    4    0    0  0.18231086399E+02  0.12211245148E+02 -0.18897735362E+02  0.28958981081E+02  0.10566000000E+00 0.  1.
        -14    1    4    4    0    0  0.32000436666E+01  0.15898708044E+01 -0.26636503829E+01  0.44567927936E+01  0.00000000000E+00 0.  1.
<mgrwt>
<rscale>  0 0.82839271E+02</rscale>
<asrwt>0</asrwt>
<pdfrwt beam="1">  1        2 0.26005974E-02 0.82839271E+02</pdfrwt>
<pdfrwt beam="2">  1       -1 0.15613947E-01 0.82839271E+02</pdfrwt>
<totfact> 0.10831188E+05</totfact>
</mgrwt>
</event>
<event>
 8    1  0.2676873E-016  0.8084301E+02  0.7818608E-02  0.1326676E+00
         -1   -1    0    0    0  501 -0.00000000000E+00  0.00000000000E+00  0.15998615436E+02  0.15998616230E+02  0.50400000000E-02 0.  1.
          2   -1    0    0  501    0  0.00000000000E+00 -0.00000000000E+00 -0.10212745622E+03  0.10212745625E+03  0.25500000000E-02 0. -1.
         24    2    1    2    0    0  0.00000000000E+00 -0.35527136788E-14 -0.86128840779E+02  0.11812607248E+03  0.80843007025E+02 0.  0.
         66    2    3    3    0    0  0.21704383234E+02  0.27790507661E+02 -0.71891138476E+02  0.80098241899E+02  0.19999990600E+01 0.  0.
        -13    1    3    3    0    0 -0.21704383234E+02 -0.27790507661E+02 -0.14237702303E+02  0.38027830579E+02  0.10566000000E+00 0.  1.
         13    1    4    4    0    0  0.82232004951E+01  0.11048832320E+02 -0.27997449096E+02  0.31202019837E+02  0.10566000000E+00 0. -1.
        -13    1    4    4    0    0  0.62802934801E+01  0.81444777436E+01 -0.19420203841E+02  0.21975670301E+02  0.10566000000E+00 0.  1.
        -14    1    4    4    0    0  0.72008892586E+01  0.85971975974E+01 -0.24473485539E+02  0.26920551760E+02  0.00000000000E+00 0.  1.
<mgrwt>
<rscale>  0 0.80843007E+02</rscale>
<asrwt>0</asrwt>
<pdfrwt beam="1">  1        2 0.15711916E-01 0.80843007E+02</pdfrwt>
<pdfrwt beam="2">  1       -1 0.24613256E-02 0.80843007E+02</pdfrwt>
<totfact> 0.17337231E+05</totfact>
</mgrwt>
</event>
<event>
 8    1  0.2676873E-016  0.8066726E+02  0.7818608E-02  0.1327168E+00
         -1   -1    0    0    0  501 -0.00000000000E+00  0.00000000000E+00  0.35926866640E+02  0.35926866993E+02  0.50400000000E-02 0.  1.
          2   -1    0    0  501    0  0.00000000000E+00 -0.00000000000E+00 -0.45280923788E+02  0.45280923859E+02  0.25500000000E-02 0. -1.
         24    2    1    2    0    0  0.00000000000E+00  0.00000000000E+00 -0.93540571478E+01  0.81207790853E+02  0.80667260460E+02 0.  0.
         66    2    3    3    0    0 -0.34537942990E+01  0.32654058706E+02 -0.28215613988E+02  0.43339786740E+02  0.19999992222E+01 0.  0.
        -13    1    3    3    0    0  0.34537942990E+01 -0.32654058706E+02  0.18861556841E+02  0.37868004113E+02  0.10566000000E+00 0.  1.
         13    1    4    4    0    0 -0.74309528976E+00  0.38280055837E+01 -0.34174275604E+01  0.51861153597E+01  0.10566000000E+00 0. -1.
        -13    1    4    4    0    0 -0.14174881234E+01  0.77503375949E+01 -0.66152860115E+01  0.10288351591E+02  0.10566000000E+00 0.  1.
         14    1    4    4    0    0 -0.12932108859E+01  0.21075715527E+02 -0.18182900417E+02  0.27865319789E+02  0.00000000000E+00 0. -1.
<mgrwt>
<rscale>  0 0.80667260E+02</rscale>
<asrwt>0</asrwt>
<pdfrwt beam="1">  1        2 0.69662960E-02 0.80667260E+02</pdfrwt>
<pdfrwt beam="2">  1       -1 0.55272103E-02 0.80667260E+02</pdfrwt>
<totfact> 0.14297923E+05</totfact>
</mgrwt>
</event>
<event>
 8    1  0.2676873E-016  0.8894233E+02  0.7818608E-02  0.1305433E+00
          2   -1    0    0  501    0  0.00000000000E+00  0.00000000000E+00  0.25783847697E+03  0.25783847698E+03  0.25500000000E-02 0. -1.
         -1   -1    0    0    0  501 -0.00000000000E+00 -0.00000000000E+00 -0.76702455266E+01  0.76702471824E+01  0.50400000000E-02 0.  1.
         24    2    1    2    0    0 -0.71054273576E-14  0.71054273576E-14  0.25016823144E+03  0.26550872416E+03  0.88942332914E+02 0.  0.
         66    2    3    3    0    0 -0.28597777819E+02 -0.33579723219E+02  0.10872901725E+03  0.11735173586E+03  0.20000024351E+01 0.  0.
        -13    1    3    3    0    0  0.28597777819E+02  0.33579723219E+02  0.14143921419E+03  0.14815698830E+03  0.10566000000E+00 0.  1.
         13    1    4    4    0    0 -0.52356384590E+00 -0.85955457870E+00  0.26705405326E+01  0.28558543286E+01  0.10566000000E+00 0.  1.
        -13    1    4    4    0    0 -0.53623396100E+01 -0.62251427999E+01  0.21752089105E+02  0.23252346837E+02  0.10566000000E+00 0.  1.
         14    1    4    4    0    0 -0.22711874363E+02 -0.26495025840E+02  0.84306387609E+02  0.91243534691E+02  0.00000000000E+00 0. -1.
<mgrwt>
<rscale>  0 0.88942333E+02</rscale>
<asrwt>0</asrwt>
<pdfrwt beam="1">  1        2 0.39667456E-01 0.88942333E+02</pdfrwt>
<pdfrwt beam="2">  1       -1 0.11800380E-02 0.88942333E+02</pdfrwt>
<totfact> 0.18241711E+05</totfact>
</mgrwt>
</event>
<event>
 8    1  0.2676873E-016  0.8176063E+02  0.7818608E-02  0.1324128E+00
         -1   -1    0    0    0  501 -0.00000000000E+00  0.00000000000E+00  0.51655031070E+01  0.51655055658E+01  0.50400000000E-02 0.  1.
          2   -1    0    0  501    0  0.00000000000E+00 -0.00000000000E+00 -0.32353090889E+03  0.32353090890E+03  0.25500000000E-02 0. -1.
         24    2    1    2    0    0  0.00000000000E+00  0.35527136788E-14 -0.31836540578E+03  0.32869641446E+03  0.81760634068E+02 0.  0.
         66    2    3    3    0    0  0.87089432116E+01  0.18064292240E+02 -0.30237923632E+03  0.30305010627E+03  0.20000011756E+01 0.  0.
        -13    1    3    3    0    0 -0.87089432116E+01 -0.18064292240E+02 -0.15986169456E+02  0.25646308192E+02  0.10566000000E+00 0.  1.
         13    1    4    4    0    0  0.44286059124E+01  0.95327769748E+01 -0.16289664662E+03  0.16323545887E+03  0.10566000000E+00 0. -1.
        -13    1    4    4    0    0  0.24797225812E+01  0.35652364816E+01 -0.64847236309E+02  0.64992577701E+02  0.10566000000E+00 0.  1.
        -14    1    4    4    0    0  0.18006147179E+01  0.49662787832E+01 -0.74635353391E+02  0.74822069699E+02  0.00000000000E+00 0.  1.
<mgrwt>
<rscale>  0 0.81760634E+02</rscale>
<asrwt>0</asrwt>
<pdfrwt beam="1">  1        2 0.49773970E-01 0.81760634E+02</pdfrwt>
<pdfrwt beam="2">  1       -1 0.79469323E-03 0.81760634E+02</pdfrwt>
<totfact> 0.24746147E+05</totfact>
</mgrwt>
</event>
<event>
 8    1  0.2676873E-016  0.7798174E+02  0.7818608E-02  0.1334879E+00
          2   -1    0    0  501    0  0.00000000000E+00  0.00000000000E+00  0.32042130081E+03  0.32042130082E+03  0.25500000000E-02 0. -1.
         -1   -1    0    0    0  501 -0.00000000000E+00 -0.00000000000E+00 -0.47446513546E+01  0.47446540315E+01  0.50400000000E-02 0.  1.
         24    2    1    2    0    0  0.00000000000E+00 -0.13877787808E-16  0.31567664946E+03  0.32516595485E+03  0.77981736216E+02 0.  0.
         66    2    3    3    0    0  0.38478639009E+02  0.11924242210E+00  0.13235190003E+03  0.13784645561E+03  0.20000012534E+01 0.  0.
        -13    1    3    3    0    0 -0.38478639009E+02 -0.11924242210E+00  0.18332474943E+03  0.18731949924E+03  0.10566000000E+00 0.  1.
         13    1    4    4    0    0  0.15632172328E+02  0.60521047983E+00  0.54566104667E+02  0.56764443396E+02  0.10566000000E+00 0. -1.
        -13    1    4    4    0    0  0.31384683047E+01 -0.44481472743E+00  0.11319439490E+02  0.11755369745E+02  0.10566000000E+00 0.  1.
         14    1    4    4    0    0  0.19707998376E+02 -0.41153330310E-01  0.66466355869E+02  0.69326642469E+02  0.00000000000E+00 0. -1.
<mgrwt>
<rscale>  0 0.77981736E+02</rscale>
<asrwt>0</asrwt>
<pdfrwt beam="1">  1        2 0.49295576E-01 0.77981736E+02</pdfrwt>
<pdfrwt beam="2">  1       -1 0.72994670E-03 0.77981736E+02</pdfrwt>
<totfact> 0.27913589E+05</totfact>
</mgrwt>
</event>
<event>
 8    1  0.2676873E-016  0.7890857E+02  0.7818608E-02  0.1332178E+00
         -1   -1    0    0    0  501 -0.00000000000E+00  0.00000000000E+00  0.12306583772E+01  0.12306686975E+01  0.50400000000E-02 0.  1.
          2   -1    0    0  501    0  0.00000000000E+00 -0.00000000000E+00 -0.12648792410E+04  0.12648792410E+04  0.25500000000E-02 0. -1.
         24    2    1    2    0    0  0.35527136788E-14 -0.17763568394E-14 -0.12636485826E+04  0.12661099097E+04  0.78908574162E+02 0.  0.
         66    2    3    3    0    0 -0.19590314353E+02  0.13741237566E+02 -0.11350466006E+04  0.11353005715E+04  0.19999998402E+01 0.  0.
        -13    1    3    3    0    0  0.19590314353E+02 -0.13741237566E+02 -0.12860198200E+03  0.13080933822E+03  0.10566000000E+00 0.  1.
         13    1    4    4    0    0 -0.26353034557E+00  0.88922082297E-01 -0.11835451811E+02  0.11839190808E+02  0.10566000000E+00 0. -1.
        -13    1    4    4    0    0 -0.61083084583E+01  0.35108682638E+01 -0.34297575790E+03  0.34304812972E+03  0.10566000000E+00 0.  1.
         14    1    4    4    0    0 -0.13218475549E+02  0.10141447220E+02 -0.78023539092E+03  0.78041325097E+03  0.00000000000E+00 0. -1.
<mgrwt>
<rscale>  0 0.78908574E+02</rscale>
<asrwt>0</asrwt>
<pdfrwt beam="1">  1        2 0.19459577E+00 0.78908574E+02</pdfrwt>
<pdfrwt beam="2">  1       -1 0.18933387E-03 0.78908574E+02</pdfrwt>
<totfact> 0.36049173E+05</totfact>
</mgrwt>
</event>
<event>
 8    1  0.2676873E-016  0.8023913E+02  0.7818608E-02  0.1328374E+00
         -1   -1    0    0    0  501 -0.00000000000E+00  0.00000000000E+00  0.34157645716E+01  0.34157682899E+01  0.50400000000E-02 0.  1.
          2   -1    0    0  501    0  0.00000000000E+00 -0.00000000000E+00 -0.47122058261E+03  0.47122058262E+03  0.25500000000E-02 0. -1.
         24    2    1    2    0    0 -0.11102230246E-15 -0.71054273576E-14 -0.46780481804E+03  0.47463635091E+03  0.80239128997E+02 0.  0.
         66    2    3    3    0    0 -0.62102856013E+00 -0.37825345741E+02 -0.31261854705E+03  0.31490553884E+03  0.19999935784E+01 0.  0.
        -13    1    3    3    0    0  0.62102856013E+00  0.37825345741E+02 -0.15518627099E+03  0.15973081207E+03  0.10566000000E+00 0.  1.
         13    1    4    4    0    0 -0.17034393372E+00 -0.29052177192E+01 -0.24348315970E+02  0.24521846620E+02  0.10566000000E+00 0. -1.
        -13    1    4    4    0    0 -0.93064731252E+00 -0.10110137693E+02 -0.82039126347E+02  0.82665049473E+02  0.10566000000E+00 0.  1.
        -14    1    4    4    0    0  0.47996268611E+00 -0.24809990329E+02 -0.20623110473E+03  0.20771864274E+03  0.00000000000E+00 0.  1.
<mgrwt>
<rscale>  0 0.80239129E+02</rscale>
<asrwt>0</asrwt>
<pdfrwt beam="1">  1        2 0.72495423E-01 0.80239129E+02</pdfrwt>
<pdfrwt beam="2">  1       -1 0.52550290E-03 0.80239129E+02</pdfrwt>
<totfact> 0.29640726E+05</totfact>
</mgrwt>
</event>
<event>
 8    1  0.2676873E-016  0.7810662E+02  0.7818608E-02  0.1334512E+00
         -1   -1    0    0    0  501 -0.00000000000E+00  0.00000000000E+00  0.25871850165E+02  0.25871850656E+02  0.50400000000E-02 0.  1.
          2   -1    0    0  501    0  0.00000000000E+00 -0.00000000000E+00 -0.58950590131E+02  0.58950590186E+02  0.25500000000E-02 0. -1.
         24    2    1    2    0    0  0.00000000000E+00  0.00000000000E+00 -0.33078739965E+02  0.84822440842E+02  0.78106615807E+02 0.  0.
         66    2    3    3    0    0  0.25818571090E+02 -0.20689183666E+02 -0.39030683519E+02  0.51205812070E+02  0.19999999569E+01 0.  0.
        -13    1    3    3    0    0 -0.25818571090E+02  0.20689183666E+02  0.59519435540E+01  0.33616628772E+02  0.10566000000E+00 0.  1.
         13    1    4    4    0    0  0.62173759322E+01 -0.46550436038E+01 -0.90345523541E+01  0.11914675602E+02  0.10566000000E+00 0. -1.
        -13    1    4    4    0    0  0.97792792262E+01 -0.90301554898E+01 -0.16037476616E+02  0.20842020789E+02  0.10566000000E+00 0.  1.
         14    1    4    4    0    0  0.98219159320E+01 -0.70039845725E+01 -0.13958654550E+02  0.18449115678E+02  0.00000000000E+00 0. -1.
<mgrwt>
<rscale>  0 0.78106616E+02</rscale>
<asrwt>0</asrwt>
<pdfrwt beam="1">  1        2 0.90693216E-02 0.78106616E+02</pdfrwt>
<pdfrwt beam="2">  1       -1 0.39802847E-02 0.78106616E+02</pdfrwt>
<totfact> 0.16545898E+05</totfact>
</mgrwt>
</event>
<event>
 8    1  0.2676873E-016  0.8110288E+02  0.7818608E-02  0.1325950E+00
          2   -1    0    0  501    0  0.00000000000E+00  0.00000000000E+00  0.36572795383E+02  0.36572795472E+02  0.25500000000E-02 0. -1.
         -1   -1    0    0    0  501 -0.00000000000E+00 -0.00000000000E+00 -0.44962908833E+02  0.44962909116E+02  0.50400000000E-02 0.  1.
         24    2    1    2    0    0  0.35527136788E-14 -0.88817841970E-15 -0.83901134504E+01  0.81535704588E+02  0.81102879843E+02 0.  0.
         66    2    3    3    0    0 -0.26872437184E+02  0.52256693303E+01  0.25844626634E+02  0.37701196574E+02  0.19999992755E+01 0.  0.
        -13    1    3    3    0    0  0.26872437184E+02 -0.52256693303E+01 -0.34234740085E+02  0.43834508014E+02  0.10566000000E+00 0.  1.
         13    1    4    4    0    0 -0.35394509599E+01  0.11096177725E+00  0.35350137616E+01  0.50047489391E+01  0.10566000000E+00 0. -1.
        -13    1    4    4    0    0 -0.28034254717E+01  0.84036075810E+00  0.29405427388E+01  0.41501031570E+01  0.10566000000E+00 0.  1.
         14    1    4    4    0    0 -0.20529560752E+02  0.42743467949E+01  0.19369070134E+02  0.28546344478E+02  0.00000000000E+00 0. -1.
<mgrwt>
<rscale>  0 0.81102880E+02</rscale>
<asrwt>0</asrwt>
<pdfrwt beam="1">  1        2 0.56265839E-02 0.81102880E+02</pdfrwt>
<pdfrwt beam="2">  1       -1 0.69173706E-02 0.81102880E+02</pdfrwt>
<totfact> 0.13474814E+05</totfact>
</mgrwt>
</event>
<event>
 8    1  0.2676873E-016  0.7994707E+02  0.7818608E-02  0.1329202E+00
          2   -1    0    0  501    0  0.00000000000E+00  0.00000000000E+00  0.94490035032E+03  0.94490035033E+03  0.25500000000E-02 0. -1.
         -1   -1    0    0    0  501 -0.00000000000E+00 -0.00000000000E+00 -0.16910566592E+01  0.16910641698E+01  0.50400000000E-02 0.  1.
         24    2    1    2    0    0  0.35527136788E-14 -0.44408920985E-15  0.94320929366E+03  0.94659141450E+03  0.79947072144E+02 0.  0.
         66    2    3    3    0    0  0.29528100301E+02  0.27382156929E+01  0.78882625642E+03  0.78938600783E+03  0.20000017274E+01 0.  0.
        -13    1    3    3    0    0 -0.29528100301E+02 -0.27382156929E+01  0.15438303724E+03  0.15720540667E+03  0.10566000000E+00 0.  1.
         13    1    4    4    0    0  0.33755096961E+01 -0.32047602073E-01  0.96181003339E+02  0.96240280861E+02  0.10566000000E+00 0. -1.
        -13    1    4    4    0    0  0.72093611865E+01  0.86083401481E+00  0.20757737898E+03  0.20770434601E+03  0.10566000000E+00 0.  1.
         14    1    4    4    0    0  0.18943229419E+02  0.19094292802E+01  0.48506787411E+03  0.48544138096E+03  0.00000000000E+00 0. -1.
<mgrwt>
<rscale>  0 0.79947072E+02</rscale>
<asrwt>0</asrwt>
<pdfrwt beam="1">  1        2 0.14536910E+00 0.79947072E+02</pdfrwt>
<pdfrwt beam="2">  1       -1 0.26016347E-03 0.79947072E+02</pdfrwt>
<totfact> 0.35169393E+05</totfact>
</mgrwt>
</event>
<event>
 8    1  0.2676873E-016  0.7921015E+02  0.7818608E-02  0.1331308E+00
         -1   -1    0    0    0  501 -0.00000000000E+00  0.00000000000E+00  0.59268478991E+01  0.59268500420E+01  0.50400000000E-02 0.  1.
          2   -1    0    0  501    0  0.00000000000E+00 -0.00000000000E+00 -0.26465359972E+03  0.26465359973E+03  0.25500000000E-02 0. -1.
         24    2    1    2    0    0  0.17763568394E-14  0.35527136788E-14 -0.25872675182E+03  0.27058044977E+03  0.79210148921E+02 0.  0.
         66    2    3    3    0    0  0.81974673988E+01  0.22210759925E+02 -0.23779422941E+03  0.23897826652E+03  0.19999991879E+01 0.  0.
        -13    1    3    3    0    0 -0.81974673988E+01 -0.22210759925E+02 -0.20932522405E+02  0.31602183255E+02  0.10566000000E+00 0.  1.
         13    1    4    4    0    0  0.25983131816E+01  0.64622009692E+01 -0.66583537106E+02  0.66946918154E+02  0.10566000000E+00 0. -1.
        -13    1    4    4    0    0  0.38503460443E+01  0.87376201029E+01 -0.10019620333E+03  0.10065019372E+03  0.10566000000E+00 0.  1.
        -14    1    4    4    0    0  0.17488081728E+01  0.70109388533E+01 -0.71014488973E+02  0.71381154640E+02  0.00000000000E+00 0.  1.
<mgrwt>
<rscale>  0 0.79210149E+02</rscale>
<asrwt>0</asrwt>
<pdfrwt beam="1">  1        2 0.40715929E-01 0.79210149E+02</pdfrwt>
<pdfrwt beam="2">  1       -1 0.91182313E-03 0.79210149E+02</pdfrwt>
<totfact> 0.25005882E+05</totfact>
</mgrwt>
</event>
<event>
 8    1  0.2676873E-016  0.7852209E+02  0.7818608E-02  0.1333299E+00
          2   -1    0    0  501    0  0.00000000000E+00  0.00000000000E+00  0.14824538932E+03  0.14824538934E+03  0.25500000000E-02 0. -1.
         -1   -1    0    0    0  501 -0.00000000000E+00 -0.00000000000E+00 -0.10397825669E+02  0.10397826891E+02  0.50400000000E-02 0.  1.
         24    2    1    2    0    0  0.88817841970E-15  0.00000000000E+00  0.13784756365E+03  0.15864321623E+03  0.78522094038E+02 0.  0.
         66    2    3    3    0    0  0.79919222677E+01  0.14715388097E+02  0.14065604129E+03  0.14166345831E+03  0.19999999602E+01 0.  0.
        -13    1    3    3    0    0 -0.79919222677E+01 -0.14715388097E+02 -0.28084776430E+01  0.16979757922E+02  0.10566000000E+00 0.  1.
         13    1    4    4    0    0  0.33113613284E+01  0.57483356237E+01  0.56461582051E+02  0.56850064978E+02  0.10566000000E+00 0. -1.
        -13    1    4    4    0    0  0.28603903433E+01  0.68328303062E+01  0.63034253402E+02  0.63468083860E+02  0.10566000000E+00 0.  1.
        -14    1    4    4    0    0  0.18201705961E+01  0.21342221670E+01  0.21160205836E+02  0.21345309468E+02  0.00000000000E+00 0.  1.
<mgrwt>
<rscale>  0 0.78522094E+02</rscale>
<asrwt>0</asrwt>
<pdfrwt beam="1">  1        2 0.22806981E-01 0.78522094E+02</pdfrwt>
<pdfrwt beam="2">  1       -1 0.15996657E-02 0.78522094E+02</pdfrwt>
<totfact> 0.20965689E+05</totfact>
</mgrwt>
</event>
<event>
 8    1  0.2676873E-016  0.8052918E+02  0.7818608E-02  0.1327556E+00
         -1   -1    0    0    0  501 -0.00000000000E+00  0.00000000000E+00  0.10151314750E+03  0.10151314762E+03  0.50400000000E-02 0.  1.
          2   -1    0    0  501    0  0.00000000000E+00 -0.00000000000E+00 -0.15970712054E+02  0.15970712258E+02  0.25500000000E-02 0. -1.
         24    2    1    2    0    0  0.00000000000E+00  0.00000000000E+00  0.85542435446E+02  0.11748385988E+03  0.80529181487E+02 0.  0.
         66    2    3    3    0    0 -0.22725766371E+02  0.33197130974E+02  0.41557602835E+02  0.57875247872E+02  0.20000001701E+01 0.  0.
        -13    1    3    3    0    0  0.22725766371E+02 -0.33197130974E+02  0.43984832610E+02  0.59608612011E+02  0.10566000000E+00 0.  1.
         13    1    4    4    0    0 -0.14195962528E+02  0.21028789213E+02  0.25711465470E+02  0.36122374624E+02  0.10566000000E+00 0. -1.
        -13    1    4    4    0    0 -0.29990421730E+01  0.39852650066E+01  0.46072575726E+01  0.67907714955E+01  0.10566000000E+00 0.  1.
        -14    1    4    4    0    0 -0.55307616707E+01  0.81830767548E+01  0.11238879793E+02  0.14962101752E+02  0.00000000000E+00 0.  1.
<mgrwt>
<rscale>  0 0.80529181E+02</rscale>
<asrwt>0</asrwt>
<pdfrwt beam="1">  1        2 0.24570327E-02 0.80529181E+02</pdfrwt>
<pdfrwt beam="2">  1       -1 0.15617407E-01 0.80529181E+02</pdfrwt>
<totfact> 0.11622139E+05</totfact>
</mgrwt>
</event>
<event>
 8    1  0.2676873E-016  0.7945045E+02  0.7818608E-02  0.1330618E+00
          2   -1    0    0  501    0  0.00000000000E+00  0.00000000000E+00  0.44806526139E+03  0.44806526140E+03  0.25500000000E-02 0. -1.
         -1   -1    0    0    0  501 -0.00000000000E+00 -0.00000000000E+00 -0.35220156606E+01  0.35220192667E+01  0.50400000000E-02 0.  1.
         24    2    1    2    0    0  0.00000000000E+00  0.00000000000E+00  0.44454324573E+03  0.45158728067E+03  0.79450454586E+02 0.  0.
         66    2    3    3    0    0  0.37811149314E+02 -0.11143825950E+02  0.24920535079E+03  0.25231166190E+03  0.20000001684E+01 0.  0.
        -13    1    3    3    0    0 -0.37811149314E+02  0.11143825950E+02  0.19533789494E+03  0.19927561876E+03  0.10566000000E+00 0.  1.
         13    1    4    4    0    0  0.29857048231E+02 -0.92472558117E+01  0.19574412053E+03  0.19822393134E+03  0.10566000000E+00 0. -1.
        -13    1    4    4    0    0  0.87562112500E+00 -0.84157979599E-01  0.69027192994E+01  0.69593457079E+01  0.10566000000E+00 0.  1.
        -14    1    4    4    0    0  0.70784799571E+01 -0.18124121585E+01  0.46558510963E+02  0.47128384859E+02  0.00000000000E+00 0.  1.
<mgrwt>
<rscale>  0 0.79450455E+02</rscale>
<asrwt>0</asrwt>
<pdfrwt beam="1">  1        2 0.68933069E-01 0.79450455E+02</pdfrwt>
<pdfrwt beam="2">  1       -1 0.54184922E-03 0.79450455E+02</pdfrwt>
<totfact> 0.29908835E+05</totfact>
</mgrwt>
</event>
<event>
 8    1  0.2676873E-016  0.8215983E+02  0.7818608E-02  0.1323032E+00
          2   -1    0    0  501    0  0.00000000000E+00  0.00000000000E+00  0.55304634449E+03  0.55304634450E+03  0.25500000000E-02 0. -1.
         -1   -1    0    0    0  501 -0.00000000000E+00 -0.00000000000E+00 -0.30513864242E+01  0.30513905865E+01  0.50400000000E-02 0.  1.
         24    2    1    2    0    0  0.71054273576E-14  0.35527136788E-14  0.54999495807E+03  0.55609773508E+03  0.82159826351E+02 0.  0.
         66    2    3    3    0    0  0.34758933963E+02  0.20720998286E+02  0.32205881636E+03  0.32459732661E+03  0.19999977856E+01 0.  0.
        -13    1    3    3    0    0 -0.34758933963E+02 -0.20720998286E+02  0.22793614171E+03  0.23150040847E+03  0.10566000000E+00 0.  1.
         13    1    4    4    0    0  0.13249960502E+02  0.77564940781E+01  0.12921845663E+03  0.13012741967E+03  0.10566000000E+00 0. -1.
        -13    1    4    4    0    0  0.10868287498E+02  0.63017970909E+01  0.94632348377E+02  0.95462688225E+02  0.10566000000E+00 0.  1.
         14    1    4    4    0    0  0.10640685962E+02  0.66627071166E+01  0.98208011356E+02  0.99007218718E+02  0.00000000000E+00 0. -1.
<mgrwt>
<rscale>  0 0.82159826E+02</rscale>
<asrwt>0</asrwt>
<pdfrwt beam="1">  1        2 0.85084057E-01 0.82159826E+02</pdfrwt>
<pdfrwt beam="2">  1       -1 0.46944436E-03 0.82159826E+02</pdfrwt>
<totfact> 0.29307069E+05</totfact>
</mgrwt>
</event>
<event>
 8    1  0.2676873E-016  0.8242804E+02  0.7818608E-02  0.1322299E+00
          2   -1    0    0  501    0  0.00000000000E+00  0.00000000000E+00  0.23932925417E+03  0.23932925418E+03  0.25500000000E-02 0. -1.
         -1   -1    0    0    0  501 -0.00000000000E+00 -0.00000000000E+00 -0.70973153952E+01  0.70973171847E+01  0.50400000000E-02 0.  1.
         24    2    1    2    0    0  0.00000000000E+00  0.35527136788E-14  0.23223193878E+03  0.24642657137E+03  0.82428039460E+02 0.  0.
         66    2    3    3    0    0 -0.16519201024E+01  0.22903176706E+02  0.21841374027E+03  0.21962660649E+03  0.19999998278E+01 0.  0.
        -13    1    3    3    0    0  0.16519201024E+01 -0.22903176706E+02  0.13818198508E+02  0.26799964875E+02  0.10566000000E+00 0.  1.
         13    1    4    4    0    0 -0.10460862082E+01  0.16573182516E+02  0.15164776225E+03  0.15255431700E+03  0.10566000000E+00 0. -1.
        -13    1    4    4    0    0 -0.13805238173E-01  0.17616896416E+01  0.15667014059E+02  0.15766110317E+02  0.10566000000E+00 0.  1.
        -14    1    4    4    0    0 -0.59202865603E+00  0.45683045480E+01  0.51098963958E+02  0.51306179179E+02  0.00000000000E+00 0.  1.
<mgrwt>
<rscale>  0 0.82428039E+02</rscale>
<asrwt>0</asrwt>
<pdfrwt beam="1">  1        2 0.36819879E-01 0.82428039E+02</pdfrwt>
<pdfrwt beam="2">  1       -1 0.10918950E-02 0.82428039E+02</pdfrwt>
<totfact> 0.21718926E+05</totfact>
</mgrwt>
</event>
<event>
 8    1  0.2676873E-016  0.7744833E+02  0.7818608E-02  0.1336453E+00
          2   -1    0    0  501    0  0.00000000000E+00  0.00000000000E+00  0.75575210770E+02  0.75575210813E+02  0.25500000000E-02 0. -1.
         -1   -1    0    0    0  501 -0.00000000000E+00 -0.00000000000E+00 -0.19841965909E+02  0.19841966549E+02  0.50400000000E-02 0.  1.
         24    2    1    2    0    0  0.35527136788E-14  0.35527136788E-14  0.55733244861E+02  0.95417177362E+02  0.77448325695E+02 0.  0.
         66    2    3    3    0    0  0.26310342786E+02  0.16418999122E+02  0.56401300364E+02  0.64396617536E+02  0.19999993971E+01 0.  0.
        -13    1    3    3    0    0 -0.26310342786E+02 -0.16418999122E+02 -0.66805550346E+00  0.31020559826E+02  0.10566000000E+00 0.  1.
         13    1    4    4    0    0  0.80092519473E+01  0.52173418096E+01  0.16303155044E+02  0.18899015867E+02  0.10566000000E+00 0. -1.
        -13    1    4    4    0    0  0.54785641827E+01  0.36437139106E+01  0.11146498738E+02  0.12943991452E+02  0.10566000000E+00 0.  1.
         14    1    4    4    0    0  0.12822526656E+02  0.75579434021E+01  0.28951646582E+02  0.32553610217E+02  0.00000000000E+00 0. -1.
<mgrwt>
<rscale>  0 0.77448326E+02</rscale>
<asrwt>0</asrwt>
<pdfrwt beam="1">  1        2 0.11626955E-01 0.77448326E+02</pdfrwt>
<pdfrwt beam="2">  1       -1 0.30526103E-02 0.77448326E+02</pdfrwt>
<totfact> 0.17958221E+05</totfact>
</mgrwt>
</event>
<event>
 8    1  0.2676873E-016  0.8040809E+02  0.7818608E-02  0.1327897E+00
         -1   -1    0    0    0  501 -0.00000000000E+00  0.00000000000E+00  0.46721647579E+01  0.46721674763E+01  0.50400000000E-02 0.  1.
          2   -1    0    0  501    0  0.00000000000E+00 -0.00000000000E+00 -0.34595629287E+03  0.34595629288E+03  0.25500000000E-02 0. -1.
         24    2    1    2    0    0  0.00000000000E+00  0.00000000000E+00 -0.34128412812E+03  0.35062846036E+03  0.80408091074E+02 0.  0.
         66    2    3    3    0    0 -0.24714853401E+02  0.48594295716E+01 -0.30725066535E+03  0.30828786771E+03  0.19999954639E+01 0.  0.
        -13    1    3    3    0    0  0.24714853401E+02 -0.48594295716E+01 -0.34033462763E+02  0.42340592651E+02  0.10566000000E+00 0.  1.
         13    1    4    4    0    0 -0.37233587692E+01  0.23282298324E+00 -0.46227299952E+02  0.46377710507E+02  0.10566000000E+00 0. -1.
        -13    1    4    4    0    0 -0.14937738496E+02  0.38881509190E+01 -0.18703859444E+03  0.18767445410E+03  0.10566000000E+00 0.  1.
        -14    1    4    4    0    0 -0.60537561353E+01  0.73845566933E+00 -0.73984770966E+02  0.74235703102E+02  0.00000000000E+00 0.  1.
<mgrwt>
<rscale>  0 0.80408091E+02</rscale>
<asrwt>0</asrwt>
<pdfrwt beam="1">  1        2 0.53224025E-01 0.80408091E+02</pdfrwt>
<pdfrwt beam="2">  1       -1 0.71879506E-03 0.80408091E+02</pdfrwt>
<totfact> 0.26482831E+05</totfact>
</mgrwt>
</event>
<event>
 8    1  0.2676873E-016  0.8194372E+02  0.7818608E-02  0.1323624E+00
          2   -1    0    0  501    0  0.00000000000E+00  0.00000000000E+00  0.16512334963E+03  0.16512334965E+03  0.25500000000E-02 0. -1.
         -1   -1    0    0    0  501 -0.00000000000E+00 -0.00000000000E+00 -0.10166297997E+02  0.10166299246E+02  0.50400000000E-02 0.  1.
         24    2    1    2    0    0  0.00000000000E+00  0.00000000000E+00  0.15495705164E+03  0.17528964890E+03  0.81943719461E+02 0.  0.
         66    2    3    3    0    0 -0.34955329945E+02 -0.96371682400E+01  0.11822112098E+03  0.12367288933E+03  0.20000013814E+01 0.  0.
        -13    1    3    3    0    0  0.34955329945E+02  0.96371682400E+01  0.36735930652E+02  0.51616759567E+02  0.10566000000E+00 0.  1.
         13    1    4    4    0    0 -0.63166172267E+01 -0.19346642790E+01  0.22314302128E+02  0.23271910591E+02  0.10566000000E+00 0. -1.
        -13    1    4    4    0    0 -0.10857033296E+01 -0.57445098762E+00  0.35015183058E+01  0.37122149909E+01  0.10566000000E+00 0.  1.
         14    1    4    4    0    0 -0.27553009389E+02 -0.71280529734E+01  0.92405300550E+02  0.96688763749E+02  0.00000000000E+00 0. -1.
<mgrwt>
<rscale>  0 0.81943719E+02</rscale>
<asrwt>0</asrwt>
<pdfrwt beam="1">  1        2 0.25403593E-01 0.81943719E+02</pdfrwt>
<pdfrwt beam="2">  1       -1 0.15640459E-02 0.81943719E+02</pdfrwt>
<totfact> 0.19393760E+05</totfact>
</mgrwt>
</event>
<event>
 8    1  0.2676873E-016  0.7933339E+02  0.7818608E-02  0.1330954E+00
          2   -1    0    0  501    0  0.00000000000E+00  0.00000000000E+00  0.52616307210E+03  0.52616307210E+03  0.25500000000E-02 0. -1.
         -1   -1    0    0    0  501 -0.00000000000E+00 -0.00000000000E+00 -0.29904141652E+01  0.29904184124E+01  0.50400000000E-02 0.  1.
         24    2    1    2    0    0  0.00000000000E+00  0.00000000000E+00  0.52317265793E+03  0.52915349052E+03  0.79333388415E+02 0.  0.
         66    2    3    3    0    0  0.31415322622E+02  0.13713060163E+02  0.39456232545E+03  0.39605353071E+03  0.20000027076E+01 0.  0.
        -13    1    3    3    0    0 -0.31415322622E+02 -0.13713060163E+02  0.12861033248E+03  0.13309995980E+03  0.10566000000E+00 0.  1.
         13    1    4    4    0    0  0.44474999026E+01  0.16121449566E+01  0.56865850726E+02  0.57062381738E+02  0.10566000000E+00 0. -1.
        -13    1    4    4    0    0  0.79582954411E+01  0.28441428722E+01  0.98760734231E+02  0.99121730235E+02  0.10566000000E+00 0.  1.
        -14    1    4    4    0    0  0.19009527278E+02  0.92567723341E+01  0.23893574049E+03  0.23986941874E+03  0.00000000000E+00 0.  1.
<mgrwt>
<rscale>  0 0.79333388E+02</rscale>
<asrwt>0</asrwt>
<pdfrwt beam="1">  1        2 0.80948155E-01 0.79333388E+02</pdfrwt>
<pdfrwt beam="2">  1       -1 0.46006411E-03 0.79333388E+02</pdfrwt>
<totfact> 0.31624252E+05</totfact>
</mgrwt>
</event>
<event>
 8    1  0.2676873E-016  0.8119855E+02  0.7818608E-02  0.1325684E+00
          2   -1    0    0  501    0  0.00000000000E+00  0.00000000000E+00  0.60135492541E+03  0.60135492541E+03  0.25500000000E-02 0. -1.
         -1   -1    0    0    0  501 -0.00000000000E+00 -0.00000000000E+00 -0.27409764967E+01  0.27409811304E+01  0.50400000000E-02 0.  1.
         24    2    1    2    0    0  0.14210854715E-13  0.00000000000E+00  0.59861394891E+03  0.60409590654E+03  0.81198549690E+02 0.  0.
         66    2    3    3    0    0  0.38501530862E+02  0.56847141866E+01  0.38483850719E+03  0.38680661896E+03  0.19999990692E+01 0.  0.
        -13    1    3    3    0    0 -0.38501530862E+02 -0.56847141866E+01  0.21377544172E+03  0.21728928758E+03  0.10566000000E+00 0.  1.
         13    1    4    4    0    0  0.46075063501E+01  0.53955667062E+00  0.41703916871E+02  0.41961268839E+02  0.10566000000E+00 0. -1.
        -13    1    4    4    0    0  0.85079915150E+01  0.74631601157E+00  0.84125196303E+02  0.84557688735E+02  0.10566000000E+00 0.  1.
         14    1    4    4    0    0  0.25386032997E+02  0.43988415044E+01  0.25900939402E+03  0.26028766138E+03  0.00000000000E+00 0. -1.
<mgrwt>
<rscale>  0 0.81198550E+02</rscale>
<asrwt>0</asrwt>
<pdfrwt beam="1">  1        2 0.92516341E-01 0.81198550E+02</pdfrwt>
<pdfrwt beam="2">  1       -1 0.42168815E-03 0.81198550E+02</pdfrwt>
<totfact> 0.30961265E+05</totfact>
</mgrwt>
</event>
<event>
 8    1  0.2676873E-016  0.8000862E+02  0.7818608E-02  0.1329027E+00
         -1   -1    0    0    0  501 -0.00000000000E+00  0.00000000000E+00  0.64298682881E+01  0.64298702633E+01  0.50400000000E-02 0.  1.
          2   -1    0    0  501    0  0.00000000000E+00 -0.00000000000E+00 -0.24889229283E+03  0.24889229284E+03  0.25500000000E-02 0. -1.
         24    2    1    2    0    0 -0.17763568394E-14  0.00000000000E+00 -0.24246242454E+03  0.25532216310E+03  0.80008622401E+02 0.  0.
         66    2    3    3    0    0 -0.11882673045E+02  0.33977943746E+00 -0.24311745985E+03  0.24341613085E+03  0.20000255688E+01 0.  0.
        -13    1    3    3    0    0  0.11882673045E+02 -0.33977943746E+00  0.65503531531E+00  0.11906032255E+02  0.10566000000E+00 0.  1.
         13    1    4    4    0    0 -0.55110905188E+01  0.79845066196E-01 -0.11672451017E+03  0.11685461451E+03  0.10566000000E+00 0. -1.
        -13    1    4    4    0    0 -0.58708783171E+01 -0.14480989492E+00 -0.11137414511E+03  0.11152891797E+03  0.10566000000E+00 0.  1.
         14    1    4    4    0    0 -0.50070420934E+00  0.40474426619E+00 -0.15018804575E+02  0.15032598361E+02  0.00000000000E+00 0. -1.
<mgrwt>
<rscale>  0 0.80008622E+02</rscale>
<asrwt>0</asrwt>
<pdfrwt beam="1">  1        2 0.38291114E-01 0.80008622E+02</pdfrwt>
<pdfrwt beam="2">  1       -1 0.98921086E-03 0.80008622E+02</pdfrwt>
<totfact> 0.23823687E+05</totfact>
</mgrwt>
</event>
<event>
 8    1  0.2676873E-016  0.7663760E+02  0.7818608E-02  0.1338874E+00
          2   -1    0    0  501    0  0.00000000000E+00  0.00000000000E+00  0.10537893987E+03  0.10537893990E+03  0.25500000000E-02 0. -1.
         -1   -1    0    0    0  501 -0.00000000000E+00 -0.00000000000E+00 -0.13933811140E+02  0.13933812051E+02  0.50400000000E-02 0.  1.
         24    2    1    2    0    0  0.00000000000E+00  0.00000000000E+00  0.91445128733E+02  0.11931275195E+03  0.76637596583E+02 0.  0.
         66    2    3    3    0    0 -0.36541976468E+02  0.10418490847E+01  0.63499168918E+02  0.73297653045E+02  0.19999987143E+01 0.  0.
        -13    1    3    3    0    0  0.36541976468E+02 -0.10418490847E+01  0.27945959815E+02  0.46015098910E+02  0.10566000000E+00 0.  1.
         13    1    4    4    0    0 -0.55709233424E+01  0.40246602058E+00  0.98473805106E+01  0.11321626771E+02  0.10566000000E+00 0. -1.
        -13    1    4    4    0    0 -0.56166199617E+01  0.31196908459E-01  0.84919858721E+01  0.10181963520E+02  0.10566000000E+00 0.  1.
        -14    1    4    4    0    0 -0.25354433164E+02  0.60818615570E+00  0.45159802536E+02  0.51794062754E+02  0.00000000000E+00 0.  1.
<mgrwt>
<rscale>  0 0.76637597E+02</rscale>
<asrwt>0</asrwt>
<pdfrwt beam="1">  1        2 0.16212145E-01 0.76637597E+02</pdfrwt>
<pdfrwt beam="2">  1       -1 0.21436633E-02 0.76637597E+02</pdfrwt>
<totfact> 0.20174511E+05</totfact>
</mgrwt>
</event>
<event>
 8    1  0.2676873E-016  0.7911847E+02  0.7818608E-02  0.1331572E+00
          2   -1    0    0  501    0  0.00000000000E+00  0.00000000000E+00  0.89924292631E+01  0.89924296247E+01  0.25500000000E-02 0. -1.
         -1   -1    0    0    0  501 -0.00000000000E+00 -0.00000000000E+00 -0.17402782804E+03  0.17402782811E+03  0.50400000000E-02 0.  1.
         24    2    1    2    0    0  0.00000000000E+00  0.00000000000E+00 -0.16503539878E+03  0.18302025774E+03  0.79118467458E+02 0.  0.
         66    2    3    3    0    0 -0.72006307851E+01  0.38567659302E+02 -0.93811453008E+02  0.10170497601E+03  0.20000004266E+01 0.  0.
        -13    1    3    3    0    0  0.72006307851E+01 -0.38567659302E+02 -0.71223945770E+02  0.81315281730E+02  0.10566000000E+00 0.  1.
         13    1    4    4    0    0 -0.37510741525E+01  0.20461549413E+02 -0.51536445740E+02  0.55576631467E+02  0.10566000000E+00 0. -1.
        -13    1    4    4    0    0 -0.32193054132E+01  0.17365985329E+02 -0.40883338898E+02  0.44535378490E+02  0.10566000000E+00 0.  1.
        -14    1    4    4    0    0 -0.23025121942E+00  0.74012456040E+00 -0.13916683703E+01  0.15929660517E+01  0.00000000000E+00 0.  1.
<mgrwt>
<rscale>  0 0.79118467E+02</rscale>
<asrwt>0</asrwt>
<pdfrwt beam="1">  1        2 0.13834508E-02 0.79118467E+02</pdfrwt>
<pdfrwt beam="2">  1       -1 0.26773510E-01 0.79118467E+02</pdfrwt>
<totfact> 0.10665581E+05</totfact>
</mgrwt>
</event>
<event>
 8    1  0.2676873E-016  0.7910701E+02  0.7818608E-02  0.1331605E+00
         -1   -1    0    0    0  501 -0.00000000000E+00  0.00000000000E+00  0.22584415265E+02  0.22584415828E+02  0.50400000000E-02 0.  1.
          2   -1    0    0  501    0  0.00000000000E+00 -0.00000000000E+00 -0.69272536946E+02  0.69272536993E+02  0.25500000000E-02 0. -1.
         24    2    1    2    0    0  0.00000000000E+00  0.00000000000E+00 -0.46688121681E+02  0.91856952821E+02  0.79107010280E+02 0.  0.
         66    2    3    3    0    0  0.41681923381E+01  0.37470648545E+02 -0.37149627606E+02  0.52967142292E+02  0.20000003782E+01 0.  0.
        -13    1    3    3    0    0 -0.41681923381E+01 -0.37470648545E+02 -0.95384940748E+01  0.38889810529E+02  0.10566000000E+00 0.  1.
         13    1    4    4    0    0 -0.43746754973E-01  0.16328414186E+01 -0.17805090211E+01  0.24185659566E+01  0.10566000000E+00 0.  1.
        -13    1    4    4    0    0  0.23612074022E+01  0.21922992442E+02 -0.22542265367E+02  0.31533439234E+02  0.10566000000E+00 0. -1.
         14    1    4    4    0    0  0.18507316908E+01  0.13914814684E+02 -0.12826853218E+02  0.19015137101E+02  0.00000000000E+00 0. -1.
<mgrwt>
<rscale>  0 0.79107010E+02</rscale>
<asrwt>0</asrwt>
<pdfrwt beam="1">  1        2 0.10657313E-01 0.79107010E+02</pdfrwt>
<pdfrwt beam="2">  1       -1 0.34745255E-02 0.79107010E+02</pdfrwt>
<totfact> 0.16602119E+05</totfact>
</mgrwt>
</event>
<event>
 8    1  0.2676873E-016  0.8037333E+02  0.7818608E-02  0.1327995E+00
          2   -1    0    0  501    0  0.00000000000E+00  0.00000000000E+00  0.23052633512E+03  0.23052633514E+03  0.25500000000E-02 0. -1.
         -1   -1    0    0    0  501 -0.00000000000E+00 -0.00000000000E+00 -0.70055676986E+01  0.70055695116E+01  0.50400000000E-02 0.  1.
         24    2    1    2    0    0  0.00000000000E+00 -0.17763568394E-14  0.22352076743E+03  0.23753190465E+03  0.80373330503E+02 0.  0.
         66    2    3    3    0    0  0.27035088649E+02  0.86566362944E+01  0.19579117739E+03  0.19784847362E+03  0.20000006929E+01 0.  0.
        -13    1    3    3    0    0 -0.27035088649E+02 -0.86566362944E+01  0.27729590039E+02  0.39683431026E+02  0.10566000000E+00 0.  1.
         13    1    4    4    0    0  0.56790961779E+01  0.20969175288E+01  0.37680224918E+02  0.38163591425E+02  0.10566000000E+00 0. -1.
        -13    1    4    4    0    0  0.47876719390E+01  0.13095440309E+01  0.38013293732E+02  0.38336123599E+02  0.10566000000E+00 0.  1.
         14    1    4    4    0    0  0.16568320533E+02  0.52501747348E+01  0.12009765874E+03  0.12134875860E+03  0.00000000000E+00 0. -1.
<mgrwt>
<rscale>  0 0.80373331E+02</rscale>
<asrwt>0</asrwt>
<pdfrwt beam="1">  1        2 0.35465594E-01 0.80373331E+02</pdfrwt>
<pdfrwt beam="2">  1       -1 0.10777797E-02 0.80373331E+02</pdfrwt>
<totfact> 0.22905223E+05</totfact>
</mgrwt>
</event>
<event>
 8    1  0.2676873E-016  0.8348870E+02  0.7818608E-02  0.1319433E+00
         -1   -1    0    0    0  501 -0.00000000000E+00  0.00000000000E+00  0.21373939462E+02  0.21373940056E+02  0.50400000000E-02 0.  1.
          2   -1    0    0  501    0  0.00000000000E+00 -0.00000000000E+00 -0.81528748435E+02  0.81528748475E+02  0.25500000000E-02 0. -1.
         24    2    1    2    0    0  0.00000000000E+00  0.00000000000E+00 -0.60154808973E+02  0.10290268853E+03  0.83488695429E+02 0.  0.
         66    2    3    3    0    0  0.23953035239E+02 -0.25746820619E+01 -0.72077000803E+02  0.76022831631E+02  0.19999999059E+01 0.  0.
        -13    1    3    3    0    0 -0.23953035239E+02  0.25746820619E+01  0.11922191830E+02  0.26879856900E+02  0.10566000000E+00 0.  1.
         13    1    4    4    0    0  0.16281808181E+02 -0.11618054718E+01 -0.46866246695E+02  0.49627646658E+02  0.10566000000E+00 0. -1.
        -13    1    4    4    0    0  0.65899978443E+00 -0.13290474641E-01 -0.21200262203E+01  0.22226408983E+01  0.10566000000E+00 0.  1.
        -14    1    4    4    0    0  0.70122272739E+01 -0.13995861154E+01 -0.23090727888E+02  0.24172544075E+02  0.00000000000E+00 0.  1.
<mgrwt>
<rscale>  0 0.83488695E+02</rscale>
<asrwt>0</asrwt>
<pdfrwt beam="1">  1        2 0.12542884E-01 0.83488695E+02</pdfrwt>
<pdfrwt beam="2">  1       -1 0.32882985E-02 0.83488695E+02</pdfrwt>
<totfact> 0.14950004E+05</totfact>
</mgrwt>
</event>
<event>
 8    1  0.2676873E-016  0.8071221E+02  0.7818608E-02  0.1327042E+00
         -1   -1    0    0    0  501 -0.00000000000E+00  0.00000000000E+00  0.76378297035E+01  0.76378313664E+01  0.50400000000E-02 0.  1.
          2   -1    0    0  501    0  0.00000000000E+00 -0.00000000000E+00 -0.21323009481E+03  0.21323009483E+03  0.25500000000E-02 0. -1.
         24    2    1    2    0    0  0.00000000000E+00  0.00000000000E+00 -0.20559226511E+03  0.22086792620E+03  0.80712213132E+02 0.  0.
         66    2    3    3    0    0 -0.34702968203E+01 -0.22089776891E+02 -0.19470926047E+03  0.19599922785E+03  0.20000011564E+01 0.  0.
        -13    1    3    3    0    0  0.34702968203E+01  0.22089776891E+02 -0.10883004644E+02  0.24868698342E+02  0.10566000000E+00 0.  1.
         13    1    4    4    0    0 -0.19590245342E+01 -0.11556318462E+02 -0.10710358735E+03  0.10774310123E+03  0.10566000000E+00 0. -1.
        -13    1    4    4    0    0 -0.49535353447E-01 -0.20351883323E+01 -0.14161468882E+02  0.14307438982E+02  0.10566000000E+00 0.  1.
        -14    1    4    4    0    0 -0.14617369326E+01 -0.84982700969E+01 -0.73444204232E+02  0.73948687647E+02  0.00000000000E+00 0.  1.
<mgrwt>
<rscale>  0 0.80712213E+02</rscale>
<asrwt>0</asrwt>
<pdfrwt beam="1">  1        2 0.32804626E-01 0.80712213E+02</pdfrwt>
<pdfrwt beam="2">  1       -1 0.11750510E-02 0.80712213E+02</pdfrwt>
<totfact> 0.22036530E+05</totfact>
</mgrwt>
</event>
<event>
 8    1  0.2676873E-016  0.7908101E+02  0.7818608E-02  0.1331680E+00
          2   -1    0    0  501    0  0.00000000000E+00  0.00000000000E+00  0.81893318861E+03  0.81893318861E+03  0.25500000000E-02 0. -1.
         -1   -1    0    0    0  501 -0.00000000000E+00 -0.00000000000E+00 -0.19091287848E+01  0.19091354375E+01  0.50400000000E-02 0.  1.
         24    2    1    2    0    0  0.00000000000E+00  0.00000000000E+00  0.81702405982E+03  0.82084232405E+03  0.79081013024E+02 0.  0.
         66    2    3    3    0    0  0.28337240251E+02 -0.21873910470E+01  0.69372745036E+03  0.69431229230E+03  0.19999987920E+01 0.  0.
        -13    1    3    3    0    0 -0.28337240251E+02  0.21873910470E+01  0.12329660947E+03  0.12653003175E+03  0.10566000000E+00 0.  1.
         13    1    4    4    0    0  0.16650354392E+02 -0.35289729525E+00  0.40742833116E+03  0.40776858024E+03  0.10566000000E+00 0. -1.
        -13    1    4    4    0    0  0.80770508659E+00 -0.12496232715E+00  0.20304861638E+02  0.20321579005E+02  0.10566000000E+00 0.  1.
         14    1    4    4    0    0  0.10879180772E+02 -0.17095314246E+01  0.26599425756E+03  0.26622213306E+03  0.00000000000E+00 0. -1.
<mgrwt>
<rscale>  0 0.79081013E+02</rscale>
<asrwt>0</asrwt>
<pdfrwt beam="1">  1        2 0.12598996E+00 0.79081013E+02</pdfrwt>
<pdfrwt beam="2">  1       -1 0.29371207E-03 0.79081013E+02</pdfrwt>
<totfact> 0.35550407E+05</totfact>
</mgrwt>
</event>
<event>
 8    1  0.2676873E-016  0.8160177E+02  0.7818608E-02  0.1324566E+00
          2   -1    0    0  501    0  0.00000000000E+00  0.00000000000E+00  0.14453656771E+04  0.14453656771E+04  0.25500000000E-02 0. -1.
         -1   -1    0    0    0  501 -0.00000000000E+00 -0.00000000000E+00 -0.11517531086E+01  0.11517641359E+01  0.50400000000E-02 0.  1.
         24    2    1    2    0    0  0.35527136788E-14  0.00000000000E+00  0.14442139240E+04  0.14465174412E+04  0.81601774219E+02 0.  0.
         66    2    3    3    0    0  0.22149396163E+02 -0.61443627788E+01  0.13195737524E+04  0.13197754494E+04  0.20000003456E+01 0.  0.
        -13    1    3    3    0    0 -0.22149396163E+02  0.61443627788E+01  0.12464017160E+03  0.12674199180E+03  0.10566000000E+00 0.  1.
         13    1    4    4    0    0  0.16900764533E+01 -0.17562135904E+00  0.78507199169E+02  0.78525656232E+02  0.10566000000E+00 0. -1.
        -13    1    4    4    0    0  0.11663999581E+02 -0.31650618866E+01  0.72220623125E+03  0.72230735710E+03  0.10566000000E+00 0.  1.
         14    1    4    4    0    0  0.87953201287E+01 -0.28036795332E+01  0.51886032197E+03  0.51894243611E+03  0.00000000000E+00 0. -1.
<mgrwt>
<rscale>  0 0.81601774E+02</rscale>
<asrwt>0</asrwt>
<pdfrwt beam="1">  1        2 0.22236492E+00 0.81601774E+02</pdfrwt>
<pdfrwt beam="2">  1       -1 0.17719286E-03 0.81601774E+02</pdfrwt>
<totfact> 0.31993238E+05</totfact>
</mgrwt>
</event>
<event>
 8    1  0.2676873E-016  0.7870396E+02  0.7818608E-02  0.1332770E+00
          2   -1    0    0  501    0  0.00000000000E+00  0.00000000000E+00  0.10836232336E+03  0.10836232339E+03  0.25500000000E-02 0. -1.
         -1   -1    0    0    0  501 -0.00000000000E+00 -0.00000000000E+00 -0.14290742978E+02  0.14290743867E+02  0.50400000000E-02 0.  1.
         24    2    1    2    0    0  0.00000000000E+00  0.00000000000E+00  0.94071580377E+02  0.12265306725E+03  0.78703955884E+02 0.  0.
         66    2    3    3    0    0 -0.70944660451E+00 -0.11501951039E+02  0.10566262346E+03  0.10630798738E+03  0.19999981184E+01 0.  0.
        -13    1    3    3    0    0  0.70944660451E+00  0.11501951039E+02 -0.11591043083E+02  0.16345079871E+02  0.10566000000E+00 0.  1.
         13    1    4    4    0    0 -0.91503862329E+00 -0.48015594947E+01  0.42568094783E+02  0.42847941920E+02  0.10566000000E+00 0. -1.
        -13    1    4    4    0    0 -0.51932764088E-02 -0.23012689956E+01  0.16952925805E+02  0.17108732371E+02  0.10566000000E+00 0.  1.
         14    1    4    4    0    0  0.21078529519E+00 -0.43991225489E+01  0.46141602873E+02  0.46351313091E+02  0.00000000000E+00 0. -1.
<mgrwt>
<rscale>  0 0.78703956E+02</rscale>
<asrwt>0</asrwt>
<pdfrwt beam="1">  1        2 0.16671126E-01 0.78703956E+02</pdfrwt>
<pdfrwt beam="2">  1       -1 0.21985760E-02 0.78703956E+02</pdfrwt>
<totfact> 0.18943595E+05</totfact>
</mgrwt>
</event>
<event>
 8    1  0.2676873E-016  0.7648002E+02  0.7818608E-02  0.1339348E+00
         -1   -1    0    0    0  501 -0.00000000000E+00  0.00000000000E+00  0.49895061128E+01  0.49895086583E+01  0.50400000000E-02 0.  1.
          2   -1    0    0  501    0  0.00000000000E+00 -0.00000000000E+00 -0.29307468095E+03  0.29307468096E+03  0.25500000000E-02 0. -1.
         24    2    1    2    0    0  0.71054273576E-14 -0.88817841970E-15 -0.28808517484E+03  0.29806418962E+03  0.76480018126E+02 0.  0.
         66    2    3    3    0    0 -0.35720403916E+02  0.75240318225E+01 -0.18818787521E+03  0.19170611542E+03  0.20000005679E+01 0.  0.
        -13    1    3    3    0    0  0.35720403916E+02 -0.75240318225E+01 -0.99897299629E+02  0.10635807420E+03  0.10566000000E+00 0.  1.
         13    1    4    4    0    0 -0.26393664573E+01  0.71222528897E+00 -0.13487241016E+02  0.13761916815E+02  0.10566000000E+00 0. -1.
        -13    1    4    4    0    0 -0.20472120764E+02  0.40551587608E+01 -0.11228126508E+03  0.11420440312E+03  0.10566000000E+00 0.  1.
        -14    1    4    4    0    0 -0.12608916695E+02  0.27566477728E+01 -0.62419369115E+02  0.63739795480E+02  0.00000000000E+00 0.  1.
<mgrwt>
<rscale>  0 0.76480018E+02</rscale>
<asrwt>0</asrwt>
<pdfrwt beam="1">  1        2 0.45088399E-01 0.76480018E+02</pdfrwt>
<pdfrwt beam="2">  1       -1 0.76761675E-03 0.76480018E+02</pdfrwt>
<totfact> 0.28438683E+05</totfact>
</mgrwt>
</event>
<event>
 8    1  0.2676873E-016  0.7572563E+02  0.7818608E-02  0.1341639E+00
          2   -1    0    0  501    0  0.00000000000E+00  0.00000000000E+00  0.33422970434E+03  0.33422970435E+03  0.25500000000E-02 0. -1.
         -1   -1    0    0    0  501 -0.00000000000E+00 -0.00000000000E+00 -0.42892425802E+01  0.42892455413E+01  0.50400000000E-02 0.  1.
         24    2    1    2    0    0  0.00000000000E+00  0.00000000000E+00  0.32994046176E+03  0.33851894989E+03  0.75725630595E+02 0.  0.
         66    2    3    3    0    0  0.37424540520E+02 -0.41187718008E+00  0.18990320525E+03  0.19356650855E+03  0.19999980009E+01 0.  0.
        -13    1    3    3    0    0 -0.37424540520E+02  0.41187718008E+00  0.14003725651E+03  0.14495244134E+03  0.10566000000E+00 0.  1.
         13    1    4    4    0    0  0.15270491180E+02  0.33266228326E-01  0.76263330475E+02  0.77777218687E+02  0.10566000000E+00 0. -1.
        -13    1    4    4    0    0  0.74384337071E+00 -0.25375529627E+00  0.37387094113E+01  0.38218852427E+01  0.10566000000E+00 0.  1.
        -14    1    4    4    0    0  0.21410205969E+02 -0.19138811213E+00  0.10990116537E+03  0.11196740462E+03  0.00000000000E+00 0.  1.
<mgrwt>
<rscale>  0 0.75725631E+02</rscale>
<asrwt>0</asrwt>
<pdfrwt beam="1">  1        2 0.51419952E-01 0.75725631E+02</pdfrwt>
<pdfrwt beam="2">  1       -1 0.65988373E-03 0.75725631E+02</pdfrwt>
<totfact> 0.30594442E+05</totfact>
</mgrwt>
</event>
<event>
 8    1  0.2676873E-016  0.7924814E+02  0.7818608E-02  0.1331199E+00
         -1   -1    0    0    0  501 -0.00000000000E+00  0.00000000000E+00  0.11163567948E+01  0.11163681717E+01  0.50400000000E-02 0.  1.
          2   -1    0    0  501    0  0.00000000000E+00 -0.00000000000E+00 -0.14064131522E+04  0.14064131522E+04  0.25500000000E-02 0. -1.
         24    2    1    2    0    0  0.17763568394E-14  0.17763568394E-14 -0.14052967954E+04  0.14075295204E+04  0.79248139083E+02 0.  0.
         66    2    3    3    0    0 -0.95009483659E+01  0.12342337709E+02 -0.13497187269E+04  0.13498100766E+04  0.19999978782E+01 0.  0.
        -13    1    3    3    0    0  0.95009483659E+01 -0.12342337709E+02 -0.55578068567E+02  0.57719443775E+02  0.10566000000E+00 0.  1.
         13    1    4    4    0    0 -0.42442397296E+01  0.59747255540E+01 -0.67952202703E+03  0.67956155520E+03  0.10566000000E+00 0. -1.
        -13    1    4    4    0    0 -0.27110520673E+01  0.41505922881E+01 -0.39704353962E+03  0.39707450276E+03  0.10566000000E+00 0.  1.
        -14    1    4    4    0    0 -0.25456565690E+01  0.22170198669E+01 -0.27315316022E+03  0.27317401868E+03  0.00000000000E+00 0.  1.
<mgrwt>
<rscale>  0 0.79248139E+02</rscale>
<asrwt>0</asrwt>
<pdfrwt beam="1">  1        2 0.21636984E+00 0.79248139E+02</pdfrwt>
<pdfrwt beam="2">  1       -1 0.17174920E-03 0.79248139E+02</pdfrwt>
<totfact> 0.34812787E+05</totfact>
</mgrwt>
</event>
<event>
 8    1  0.2676873E-016  0.8133958E+02  0.7818608E-02  0.1325292E+00
         -1   -1    0    0    0  501 -0.00000000000E+00  0.00000000000E+00  0.82311651176E+01  0.82311666606E+01  0.50400000000E-02 0.  1.
          2   -1    0    0  501    0  0.00000000000E+00 -0.00000000000E+00 -0.20094747536E+03  0.20094747538E+03  0.25500000000E-02 0. -1.
         24    2    1    2    0    0 -0.71054273576E-14  0.00000000000E+00 -0.19271631024E+03  0.20917864204E+03  0.81339584772E+02 0.  0.
         66    2    3    3    0    0  0.34549879021E+02  0.21111448653E+02 -0.10555912307E+03  0.11307570845E+03  0.19999932520E+01 0.  0.
        -13    1    3    3    0    0 -0.34549879021E+02 -0.21111448653E+02 -0.87157187171E+02  0.96102933588E+02  0.10566000000E+00 0.  1.
         13    1    4    4    0    0  0.17970127639E+02  0.99628562509E+01 -0.53145191957E+02  0.56979001257E+02  0.10566000000E+00 0.  1.
        -13    1    4    4    0    0  0.10958416038E+02  0.76477344972E+01 -0.34478458086E+02  0.36977695454E+02  0.10566000000E+00 0. -1.
        -14    1    4    4    0    0  0.56213353435E+01  0.35008579044E+01 -0.17935473028E+02  0.19119011738E+02  0.00000000000E+00 0.  1.
<mgrwt>
<rscale>  0 0.81339585E+02</rscale>
<asrwt>0</asrwt>
<pdfrwt beam="1">  1        2 0.30914993E-01 0.81339585E+02</pdfrwt>
<pdfrwt beam="2">  1       -1 0.12663334E-02 0.81339585E+02</pdfrwt>
<totfact> 0.21146839E+05</totfact>
</mgrwt>
</event>
<event>
 8    1  0.2676873E-016  0.7835201E+02  0.7818608E-02  0.1333794E+00
         -1   -1    0    0    0  501 -0.00000000000E+00  0.00000000000E+00  0.12887547845E+02  0.12887548830E+02  0.50400000000E-02 0.  1.
          2   -1    0    0  501    0  0.00000000000E+00 -0.00000000000E+00 -0.11908855673E+03  0.11908855676E+03  0.25500000000E-02 0. -1.
         24    2    1    2    0    0  0.00000000000E+00  0.00000000000E+00 -0.10620100889E+03  0.13197610559E+03  0.78352014382E+02 0.  0.
         66    2    3    3    0    0  0.45616518000E+00 -0.36690543508E+02 -0.76128791496E+02  0.84533998843E+02  0.19999990632E+01 0.  0.
        -13    1    3    3    0    0 -0.45616518000E+00  0.36690543508E+02 -0.30072217390E+02  0.47442106744E+02  0.10566000000E+00 0.  1.
         13    1    4    4    0    0 -0.44645991759E-01 -0.53456534911E+00 -0.94104361388E+00  0.10883384106E+01  0.10566000000E+00 0. -1.
        -13    1    4    4    0    0  0.94665185126E+00 -0.22265715657E+02 -0.47266246109E+02  0.52256745294E+02  0.10566000000E+00 0. -1.
         14    1    4    4    0    0 -0.44584067950E+00 -0.13890262501E+02 -0.27921501773E+02  0.31188915138E+02  0.00000000000E+00 0. -1.
<mgrwt>
<rscale>  0 0.78352014E+02</rscale>
<asrwt>0</asrwt>
<pdfrwt beam="1">  1        2 0.18321316E-01 0.78352014E+02</pdfrwt>
<pdfrwt beam="2">  1       -1 0.19826998E-02 0.78352014E+02</pdfrwt>
<totfact> 0.19707105E+05</totfact>
</mgrwt>
</event>
<event>
 8    1  0.2676873E-016  0.8142968E+02  0.7818608E-02  0.1325042E+00
          2   -1    0    0  501    0  0.00000000000E+00  0.00000000000E+00  0.59731746812E+02  0.59731746866E+02  0.25500000000E-02 0. -1.
         -1   -1    0    0    0  501 -0.00000000000E+00 -0.00000000000E+00 -0.27752379850E+02  0.27752380308E+02  0.50400000000E-02 0.  1.
         24    2    1    2    0    0  0.00000000000E+00  0.00000000000E+00  0.31979366961E+02  0.87484127174E+02  0.81429678841E+02 0.  0.
         66    2    3    3    0    0 -0.29363165923E+02  0.74958903362E+01  0.45171650874E+02  0.54432177098E+02  0.19999940083E+01 0.  0.
        -13    1    3    3    0    0  0.29363165923E+02 -0.74958903362E+01 -0.13192283912E+02  0.33051950076E+02  0.10566000000E+00 0.  1.
         13    1    4    4    0    0 -0.15823149762E+02  0.36856858494E+01  0.22950219787E+02  0.28119034494E+02  0.10566000000E+00 0. -1.
        -13    1    4    4    0    0 -0.71176372227E+00  0.17035737588E+00  0.14918943434E+01  0.16650951922E+01  0.10566000000E+00 0.  1.
         14    1    4    4    0    0 -0.12828252439E+02  0.36398471109E+01  0.20729536744E+02  0.24648047412E+02  0.00000000000E+00 0. -1.
<mgrwt>
<rscale>  0 0.81429679E+02</rscale>
<asrwt>0</asrwt>
<pdfrwt beam="1">  1        2 0.91894994E-02 0.81429679E+02</pdfrwt>
<pdfrwt beam="2">  1       -1 0.42695970E-02 0.81429679E+02</pdfrwt>
<totfact> 0.14817485E+05</totfact>
</mgrwt>
</event>
<event>
 8    1  0.2676873E-016  0.7897636E+02  0.7818608E-02  0.1331982E+00
          2   -1    0    0  501    0  0.00000000000E+00  0.00000000000E+00  0.74263940705E+03  0.74263940705E+03  0.25500000000E-02 0. -1.
         -1   -1    0    0    0  501 -0.00000000000E+00 -0.00000000000E+00 -0.20996921254E+01  0.20996981743E+01  0.50400000000E-02 0.  1.
         24    2    1    2    0    0 -0.35527136788E-14  0.00000000000E+00  0.74053971492E+03  0.74473910523E+03  0.78976360237E+02 0.  0.
         66    2    3    3    0    0 -0.18408589631E+02 -0.99024000918E+00  0.69953509648E+03  0.69978082851E+03  0.19999996666E+01 0.  0.
        -13    1    3    3    0    0  0.18408589631E+02  0.99024000918E+00  0.41004618446E+02  0.44958276718E+02  0.10566000000E+00 0.  1.
         13    1    4    4    0    0 -0.16270361192E+02 -0.12703563798E+01  0.61020119737E+03  0.61041940573E+03  0.10566000000E+00 0. -1.
        -13    1    4    4    0    0 -0.19918561110E+01  0.17947237889E+00  0.76164548812E+02  0.76190874525E+02  0.10566000000E+00 0.  1.
        -14    1    4    4    0    0 -0.14637232823E+00  0.10064399172E+00  0.13169350301E+02  0.13170548258E+02  0.00000000000E+00 0.  1.
<mgrwt>
<rscale>  0 0.78976360E+02</rscale>
<asrwt>0</asrwt>
<pdfrwt beam="1">  1        2 0.11425212E+00 0.78976360E+02</pdfrwt>
<pdfrwt beam="2">  1       -1 0.32303030E-03 0.78976360E+02</pdfrwt>
<totfact> 0.35037048E+05</totfact>
</mgrwt>
</event>
<event>
 8    1  0.2676873E-016  0.8075018E+02  0.7818608E-02  0.1326936E+00
          2   -1    0    0  501    0  0.00000000000E+00  0.00000000000E+00  0.11225341060E+03  0.11225341063E+03  0.25500000000E-02 0. -1.
         -1   -1    0    0    0  501 -0.00000000000E+00 -0.00000000000E+00 -0.14522032353E+02  0.14522033227E+02  0.50400000000E-02 0.  1.
         24    2    1    2    0    0  0.71054273576E-14 -0.88817841970E-15  0.97731378244E+02  0.12677544385E+03  0.80750175670E+02 0.  0.
         66    2    3    3    0    0 -0.36054275654E+02  0.58486679913E+01  0.75816124911E+02  0.84179584865E+02  0.20000003469E+01 0.  0.
        -13    1    3    3    0    0  0.36054275654E+02 -0.58486679913E+01  0.21915253333E+02  0.42595858988E+02  0.10566000000E+00 0.  1.
         13    1    4    4    0    0 -0.13908809025E+02  0.17243965521E+01  0.29712204000E+02  0.32852012763E+02  0.10566000000E+00 0. -1.
        -13    1    4    4    0    0 -0.90310633087E+01  0.15277094876E+01  0.20076638763E+02  0.22067546053E+02  0.10566000000E+00 0.  1.
         14    1    4    4    0    0 -0.13114403320E+02  0.25965619516E+01  0.26027282148E+02  0.29260026050E+02  0.00000000000E+00 0. -1.
<mgrwt>
<rscale>  0 0.80750176E+02</rscale>
<asrwt>0</asrwt>
<pdfrwt beam="1">  1        2 0.17269756E-01 0.80750176E+02</pdfrwt>
<pdfrwt beam="2">  1       -1 0.22341589E-02 0.80750176E+02</pdfrwt>
<totfact> 0.17870207E+05</totfact>
</mgrwt>
</event>
<event>
 8    1  0.2676873E-016  0.8824097E+02  0.7818608E-02  0.1307168E+00
          2   -1    0    0  501    0  0.00000000000E+00  0.00000000000E+00  0.78773004306E+01  0.78773008433E+01  0.25500000000E-02 0. -1.
         -1   -1    0    0    0  501 -0.00000000000E+00 -0.00000000000E+00 -0.24711728171E+03  0.24711728176E+03  0.50400000000E-02 0.  1.
         24    2    1    2    0    0  0.00000000000E+00  0.00000000000E+00 -0.23923998128E+03  0.25499458261E+03  0.88240968463E+02 0.  0.
         66    2    3    3    0    0  0.18681936217E+02  0.39942947188E+02 -0.11853157320E+03  0.12648394213E+03  0.19999999713E+01 0.  0.
        -13    1    3    3    0    0 -0.18681936217E+02 -0.39942947188E+02 -0.12070840808E+03  0.12851064048E+03  0.10566000000E+00 0.  1.
         13    1    4    4    0    0  0.13760862527E+02  0.29148941297E+02 -0.87871555840E+02  0.93597241444E+02  0.10566000000E+00 0. -1.
        -13    1    4    4    0    0  0.37912573500E+01  0.86855835451E+01 -0.25309341829E+02  0.27025671900E+02  0.10566000000E+00 0.  1.
         14    1    4    4    0    0  0.11298163404E+01  0.21084223453E+01 -0.53506755322E+01  0.58610287834E+01  0.00000000000E+00 0. -1.
<mgrwt>
<rscale>  0 0.88240968E+02</rscale>
<asrwt>0</asrwt>
<pdfrwt beam="1">  1        2 0.12118926E-02 0.88240968E+02</pdfrwt>
<pdfrwt beam="2">  1       -1 0.38018038E-01 0.88240968E+02</pdfrwt>
<totfact> 0.72335674E+04</totfact>
</mgrwt>
</event>
<event>
 8    1  0.2676873E-016  0.7926691E+02  0.7818608E-02  0.1331145E+00
          2   -1    0    0  501    0  0.00000000000E+00  0.00000000000E+00  0.98860815013E+01  0.98860818302E+01  0.25500000000E-02 0. -1.
         -1   -1    0    0    0  501 -0.00000000000E+00 -0.00000000000E+00 -0.15889115227E+03  0.15889115235E+03  0.50400000000E-02 0.  1.
         24    2    1    2    0    0 -0.55511151231E-16  0.00000000000E+00 -0.14900507077E+03  0.16877723418E+03  0.79266914048E+02 0.  0.
         66    2    3    3    0    0 -0.10039594410E+00  0.24039181211E+02 -0.75243698306E+01  0.25268724974E+02  0.20000019533E+01 0.  0.
        -13    1    3    3    0    0  0.10039594410E+00 -0.24039181211E+02 -0.14148070094E+03  0.14350850921E+03  0.10566000000E+00 0.  1.
         13    1    4    4    0    0  0.48526668026E+00  0.94819924529E+01 -0.33714474822E+01  0.10075787155E+02  0.10566000000E+00 0. -1.
        -13    1    4    4    0    0 -0.44113613848E+00  0.91239174078E+01 -0.31700959106E+01  0.96695988580E+01  0.10566000000E+00 0.  1.
         14    1    4    4    0    0 -0.14452648587E+00  0.54332713503E+01 -0.98282643778E+00  0.55233389610E+01  0.00000000000E+00 0. -1.
<mgrwt>
<rscale>  0 0.79266914E+02</rscale>
<asrwt>0</asrwt>
<pdfrwt beam="1">  1        2 0.15209358E-02 0.79266914E+02</pdfrwt>
<pdfrwt beam="2">  1       -1 0.24444791E-01 0.79266914E+02</pdfrwt>
<totfact> 0.10878206E+05</totfact>
</mgrwt>
</event>
<event>
 8    1  0.2676873E-016  0.8129863E+02  0.7818608E-02  0.1325406E+00
          2   -1    0    0  501    0  0.00000000000E+00  0.00000000000E+00  0.39839747771E+02  0.39839747853E+02  0.25500000000E-02 0. -1.
         -1   -1    0    0    0  501 -0.00000000000E+00 -0.00000000000E+00 -0.41475331511E+02  0.41475331817E+02  0.50400000000E-02 0.  1.
         24    2    1    2    0    0  0.17763568394E-14 -0.71054273576E-14 -0.16355837394E+01  0.81315079670E+02  0.81298628817E+02 0.  0.
         66    2    3    3    0    0  0.14129887223E+02 -0.32645098343E+02  0.18807245147E+02  0.40287325945E+02  0.20000007587E+01 0.  0.
        -13    1    3    3    0    0 -0.14129887223E+02  0.32645098343E+02 -0.20442828886E+02  0.41027753724E+02  0.10566000000E+00 0.  1.
         13    1    4    4    0    0  0.55083182170E+01 -0.12057955853E+02  0.75697568296E+01  0.15265917969E+02  0.10566000000E+00 0. -1.
        -13    1    4    4    0    0  0.35127232223E+01 -0.91905221554E+01  0.43417049108E+01  0.10754835540E+02  0.10566000000E+00 0.  1.
        -14    1    4    4    0    0  0.51088457836E+01 -0.11396620335E+02  0.68957834067E+01  0.14266572437E+02  0.00000000000E+00 0.  1.
<mgrwt>
<rscale>  0 0.81298629E+02</rscale>
<asrwt>0</asrwt>
<pdfrwt beam="1">  1        2 0.61291920E-02 0.81298629E+02</pdfrwt>
<pdfrwt beam="2">  1       -1 0.63808202E-02 0.81298629E+02</pdfrwt>
<totfact> 0.13622445E+05</totfact>
</mgrwt>
</event>
<event>
 8    1  0.2676873E-016  0.8110403E+02  0.7818608E-02  0.1325947E+00
         -1   -1    0    0    0  501 -0.00000000000E+00  0.00000000000E+00  0.32309509615E+02  0.32309510008E+02  0.50400000000E-02 0.  1.
          2   -1    0    0  501    0  0.00000000000E+00 -0.00000000000E+00 -0.50897268127E+02  0.50897268190E+02  0.25500000000E-02 0. -1.
         24    2    1    2    0    0  0.17763568394E-14 -0.17763568394E-14 -0.18587758511E+02  0.83206778199E+02  0.81104026853E+02 0.  0.
         66    2    3    3    0    0  0.11261800948E+02 -0.14384026523E+02 -0.46413853409E+02  0.49919677080E+02  0.19999979709E+01 0.  0.
        -13    1    3    3    0    0 -0.11261800948E+02  0.14384026523E+02  0.27826094898E+02  0.33287101119E+02  0.10566000000E+00 0.  1.
         13    1    4    4    0    0  0.77610445335E+00 -0.73794099229E+00 -0.40350281858E+01  0.41760641190E+01  0.10566000000E+00 0. -1.
        -13    1    4    4    0    0  0.16614847296E+01 -0.23046069809E+01 -0.65417457705E+01  0.71328358038E+01  0.10566000000E+00 0.  1.
         14    1    4    4    0    0  0.88242117647E+01 -0.11341478549E+02 -0.35837079453E+02  0.38610777157E+02  0.00000000000E+00 0. -1.
<mgrwt>
<rscale>  0 0.81104027E+02</rscale>
<asrwt>0</asrwt>
<pdfrwt beam="1">  1        2 0.78303489E-02 0.81104027E+02</pdfrwt>
<pdfrwt beam="2">  1       -1 0.49706939E-02 0.81104027E+02</pdfrwt>
<totfact> 0.14448190E+05</totfact>
</mgrwt>
</event>
<event>
 8    1  0.2676873E-016  0.8073432E+02  0.7818608E-02  0.1326980E+00
         -1   -1    0    0    0  501 -0.00000000000E+00  0.00000000000E+00  0.16225308574E+01  0.16225386851E+01  0.50400000000E-02 0.  1.
          2   -1    0    0  501    0  0.00000000000E+00 -0.00000000000E+00 -0.10042974296E+04  0.10042974296E+04  0.25500000000E-02 0. -1.
         24    2    1    2    0    0  0.00000000000E+00  0.35527136788E-14 -0.10026748987E+04  0.10059199683E+04  0.80734317564E+02 0.  0.
         66    2    3    3    0    0  0.13169130292E+02 -0.11735494782E+02 -0.95369970927E+03  0.95386491879E+03  0.20000008594E+01 0.  0.
        -13    1    3    3    0    0 -0.13169130292E+02  0.11735494782E+02 -0.48975189456E+02  0.52055049483E+02  0.10566000000E+00 0.  1.
         13    1    4    4    0    0  0.91672006699E+01 -0.88353858716E+01 -0.69987381678E+03  0.69998962292E+03  0.10566000000E+00 0. -1.
        -13    1    4    4    0    0  0.11615002739E+01 -0.12443718091E+01 -0.77641885088E+02  0.77660614394E+02  0.10566000000E+00 0.  1.
        -14    1    4    4    0    0  0.28404293477E+01 -0.16557371009E+01 -0.17618400740E+03  0.17621468148E+03  0.00000000000E+00 0.  1.
<mgrwt>
<rscale>  0 0.80734318E+02</rscale>
<asrwt>0</asrwt>
<pdfrwt beam="1">  1        2 0.15450680E+00 0.80734318E+02</pdfrwt>
<pdfrwt beam="2">  1       -1 0.24962154E-03 0.80734318E+02</pdfrwt>
<totfact> 0.34410841E+05</totfact>
</mgrwt>
</event>
<event>
 8    1  0.2676873E-016  0.7585515E+02  0.7818608E-02  0.1341243E+00
          2   -1    0    0  501    0  0.00000000000E+00  0.00000000000E+00  0.22534351770E+03  0.22534351772E+03  0.25500000000E-02 0. -1.
         -1   -1    0    0    0  501 -0.00000000000E+00 -0.00000000000E+00 -0.63835907941E+01  0.63835927837E+01  0.50400000000E-02 0.  1.
         24    2    1    2    0    0  0.00000000000E+00  0.00000000000E+00  0.21895992691E+03  0.23172711050E+03  0.75855152424E+02 0.  0.
         66    2    3    3    0    0 -0.34036112607E+02  0.12155672537E+02  0.74687728591E+02  0.82996832119E+02  0.20000008454E+01 0.  0.
        -13    1    3    3    0    0  0.34036112607E+02 -0.12155672537E+02  0.14427219832E+03  0.14873027838E+03  0.10566000000E+00 0.  1.
         13    1    4    4    0    0 -0.19469371960E+02  0.64427976493E+01  0.42334218654E+02  0.47040018274E+02  0.10566000000E+00 0. -1.
        -13    1    4    4    0    0 -0.95053977281E+00  0.48529889156E+00  0.16953314945E+01  0.20060792073E+01  0.10566000000E+00 0. -1.
        -14    1    4    4    0    0 -0.13616200874E+02  0.52275759964E+01  0.30658178442E+02  0.33950734638E+02  0.00000000000E+00 0.  1.
<mgrwt>
<rscale>  0 0.75855152E+02</rscale>
<asrwt>0</asrwt>
<pdfrwt beam="1">  1        2 0.34668233E-01 0.75855152E+02</pdfrwt>
<pdfrwt beam="2">  1       -1 0.98209105E-03 0.75855152E+02</pdfrwt>
<totfact> 0.26450533E+05</totfact>
</mgrwt>
</event>
<event>
 8    1  0.2676873E-016  0.7832806E+02  0.7818608E-02  0.1333864E+00
         -1   -1    0    0    0  501 -0.00000000000E+00  0.00000000000E+00  0.36956971274E+02  0.36956971618E+02  0.50400000000E-02 0.  1.
          2   -1    0    0  501    0  0.00000000000E+00 -0.00000000000E+00 -0.41502894421E+02  0.41502894499E+02  0.25500000000E-02 0. -1.
         24    2    1    2    0    0  0.00000000000E+00 -0.35527136788E-14 -0.45459231467E+01  0.78459866117E+02  0.78328061216E+02 0.  0.
         66    2    3    3    0    0  0.25238500724E+02  0.19816564709E+02 -0.24720587114E+02  0.40555956215E+02  0.20000004008E+01 0.  0.
        -13    1    3    3    0    0 -0.25238500724E+02 -0.19816564709E+02  0.20174663967E+02  0.37903909902E+02  0.10566000000E+00 0.  1.
         13    1    4    4    0    0  0.18176587372E+01  0.17414197859E+01 -0.20797351061E+01  0.32669386745E+01  0.10566000000E+00 0. -1.
        -13    1    4    4    0    0  0.55427885755E+01  0.51149957308E+01 -0.60432376883E+01  0.96652766288E+01  0.10566000000E+00 0.  1.
         14    1    4    4    0    0  0.17878053411E+02  0.12960149193E+02 -0.16597614319E+02  0.27623740912E+02  0.00000000000E+00 0. -1.
<mgrwt>
<rscale>  0 0.78328061E+02</rscale>
<asrwt>0</asrwt>
<pdfrwt beam="1">  1        2 0.63850607E-02 0.78328061E+02</pdfrwt>
<pdfrwt beam="2">  1       -1 0.56856879E-02 0.78328061E+02</pdfrwt>
<totfact> 0.15224898E+05</totfact>
</mgrwt>
</event>
<event>
 8    1  0.2676873E-016  0.7735703E+02  0.7818608E-02  0.1336724E+00
         -1   -1    0    0    0  501 -0.00000000000E+00  0.00000000000E+00  0.44465198389E+01  0.44465226952E+01  0.50400000000E-02 0.  1.
          2   -1    0    0  501    0  0.00000000000E+00 -0.00000000000E+00 -0.33644893070E+03  0.33644893071E+03  0.25500000000E-02 0. -1.
         24    2    1    2    0    0  0.00000000000E+00  0.00000000000E+00 -0.33200241086E+03  0.34089545340E+03  0.77357025114E+02 0.  0.
         66    2    3    3    0    0 -0.16698715464E+02  0.74752398977E+01 -0.31615585856E+03  0.31669110062E+03  0.20000003884E+01 0.  0.
        -13    1    3    3    0    0  0.16698715464E+02 -0.74752398977E+01 -0.15846552296E+02  0.24204352777E+02  0.10566000000E+00 0.  1.
         13    1    4    4    0    0 -0.10040343466E+02  0.45820091540E+01 -0.18888247468E+03  0.18920466091E+03  0.10566000000E+00 0. -1.
        -13    1    4    4    0    0 -0.69906918700E+00  0.33721143921E+00 -0.21680584818E+02  0.21694730498E+02  0.10566000000E+00 0.  1.
         14    1    4    4    0    0 -0.59593028112E+01  0.25560193046E+01 -0.10559279906E+03  0.10579170921E+03  0.00000000000E+00 0. -1.
<mgrwt>
<rscale>  0 0.77357025E+02</rscale>
<asrwt>0</asrwt>
<pdfrwt beam="1">  1        2 0.51761354E-01 0.77357025E+02</pdfrwt>
<pdfrwt beam="2">  1       -1 0.68408046E-03 0.77357025E+02</pdfrwt>
<totfact> 0.29009687E+05</totfact>
</mgrwt>
</event>
<event>
 8    1  0.2676873E-016  0.8085254E+02  0.7818608E-02  0.1326649E+00
          2   -1    0    0  501    0  0.00000000000E+00  0.00000000000E+00  0.57598548527E+03  0.57598548527E+03  0.25500000000E-02 0. -1.
         -1   -1    0    0    0  501 -0.00000000000E+00 -0.00000000000E+00 -0.28373665274E+01  0.28373710036E+01  0.50400000000E-02 0.  1.
         24    2    1    2    0    0  0.17763568394E-14 -0.71054273576E-14  0.57314811874E+03  0.57882285628E+03  0.80852538198E+02 0.  0.
         66    2    3    3    0    0 -0.10731629686E+02 -0.38167496247E+02  0.34236496067E+03  0.34465880512E+03  0.20000001040E+01 0.  0.
        -13    1    3    3    0    0  0.10731629686E+02  0.38167496247E+02  0.23078315807E+03  0.23416405116E+03  0.10566000000E+00 0.  1.
         13    1    4    4    0    0 -0.36119797334E+01 -0.13768258807E+02  0.12308547097E+03  0.12390583390E+03  0.10566000000E+00 0. -1.
        -13    1    4    4    0    0 -0.25291067347E+01 -0.10173557208E+02  0.95848986068E+02  0.96420625083E+02  0.10566000000E+00 0.  1.
        -14    1    4    4    0    0 -0.45905432181E+01 -0.14225680232E+02  0.12343050364E+03  0.12433234613E+03  0.00000000000E+00 0.  1.
<mgrwt>
<rscale>  0 0.80852538E+02</rscale>
<asrwt>0</asrwt>
<pdfrwt beam="1">  1        2 0.88613083E-01 0.80852538E+02</pdfrwt>
<pdfrwt beam="2">  1       -1 0.43651861E-03 0.80852538E+02</pdfrwt>
<totfact> 0.30927133E+05</totfact>
</mgrwt>
</event>
<event>
 8    1  0.2676873E-016  0.8230055E+02  0.7818608E-02  0.1322647E+00
          2   -1    0    0  501    0  0.00000000000E+00  0.00000000000E+00  0.86939011767E+02  0.86939011805E+02  0.25500000000E-02 0. -1.
         -1   -1    0    0    0  501 -0.00000000000E+00 -0.00000000000E+00 -0.19477390512E+02  0.19477391164E+02  0.50400000000E-02 0.  1.
         24    2    1    2    0    0  0.00000000000E+00  0.00000000000E+00  0.67461621255E+02  0.10641640297E+03  0.82300549685E+02 0.  0.
         66    2    3    3    0    0  0.37537406937E+02  0.16448502426E+02  0.29322198209E+02  0.50432147093E+02  0.20000002656E+01 0.  0.
        -13    1    3    3    0    0 -0.37537406937E+02 -0.16448502426E+02  0.38139423047E+02  0.55984255876E+02  0.10566000000E+00 0.  1.
         13    1    4    4    0    0  0.26312986999E+02  0.10640265082E+02  0.20060572777E+02  0.34756672309E+02  0.10566000000E+00 0. -1.
        -13    1    4    4    0    0  0.32388111467E+01  0.16789142330E+01  0.24375282283E+01  0.43887764292E+01  0.10566000000E+00 0.  1.
         14    1    4    4    0    0  0.79856087913E+01  0.41293231106E+01  0.68240972028E+01  0.11286698355E+02  0.00000000000E+00 0. -1.
<mgrwt>
<rscale>  0 0.82300550E+02</rscale>
<asrwt>0</asrwt>
<pdfrwt beam="1">  1        2 0.13375233E-01 0.82300550E+02</pdfrwt>
<pdfrwt beam="2">  1       -1 0.29965217E-02 0.82300550E+02</pdfrwt>
<totfact> 0.15807636E+05</totfact>
</mgrwt>
</event>
<event>
 8    1  0.2676873E-016  0.8680070E+02  0.7818608E-02  0.1310790E+00
          2   -1    0    0  501    0  0.00000000000E+00  0.00000000000E+00  0.13107674795E+04  0.13107674795E+04  0.25500000000E-02 0. -1.
         -1   -1    0    0    0  501 -0.00000000000E+00 -0.00000000000E+00 -0.14370090804E+01  0.14370179187E+01  0.50400000000E-02 0.  1.
         24    2    1    2    0    0  0.00000000000E+00  0.35527136788E-14  0.13093304704E+04  0.13122044974E+04  0.86800704393E+02 0.  0.
         66    2    3    3    0    0  0.15466478284E+02 -0.24380754078E+02  0.11443950203E+04  0.11447609338E+04  0.20000005159E+01 0.  0.
        -13    1    3    3    0    0 -0.15466478284E+02  0.24380754078E+02  0.16493545011E+03  0.16744356359E+03  0.10566000000E+00 0.  1.
         13    1    4    4    0    0  0.13696386203E+02 -0.21731746035E+02  0.10185153955E+04  0.10188392816E+04  0.10566000000E+00 0. -1.
        -13    1    4    4    0    0  0.61365044432E+00 -0.67565185455E+00  0.46522443623E+02  0.46531516169E+02  0.10566000000E+00 0.  1.
        -14    1    4    4    0    0  0.11564416370E+01 -0.19733561881E+01  0.79357181243E+02  0.79390136080E+02  0.00000000000E+00 0.  1.
<mgrwt>
<rscale>  0 0.86800704E+02</rscale>
<asrwt>0</asrwt>
<pdfrwt beam="1">  1        2 0.20165769E+00 0.86800704E+02</pdfrwt>
<pdfrwt beam="2">  1       -1 0.22107774E-03 0.86800704E+02</pdfrwt>
<totfact> 0.27935985E+05</totfact>
</mgrwt>
</event>
<event>
 8    1  0.2676873E-016  0.8071750E+02  0.7818608E-02  0.1327028E+00
          2   -1    0    0  501    0  0.00000000000E+00  0.00000000000E+00  0.96055010777E+02  0.96055010811E+02  0.25500000000E-02 0. -1.
         -1   -1    0    0    0  501 -0.00000000000E+00 -0.00000000000E+00 -0.16957248885E+02  0.16957249634E+02  0.50400000000E-02 0.  1.
         24    2    1    2    0    0  0.00000000000E+00  0.00000000000E+00  0.79097761893E+02  0.11301226044E+03  0.80717501661E+02 0.  0.
         66    2    3    3    0    0 -0.31115288843E+02 -0.20673514911E+02  0.18281116905E+02  0.41638379437E+02  0.19999970581E+01 0.  0.
        -13    1    3    3    0    0  0.31115288843E+02  0.20673514911E+02  0.60816644988E+02  0.71373881008E+02  0.10566000000E+00 0.  1.
         13    1    4    4    0    0 -0.16822316794E+02 -0.11554678850E+02  0.10537158451E+02  0.22968322052E+02  0.10566000000E+00 0. -1.
        -13    1    4    4    0    0 -0.44080679905E+00 -0.20729439434E+00  0.38471533506E+00  0.62964396657E+00  0.10566000000E+00 0. -1.
         14    1    4    4    0    0 -0.13852165250E+02 -0.89115416673E+01  0.73592431195E+01  0.18040413418E+02  0.00000000000E+00 0. -1.
<mgrwt>
<rscale>  0 0.80717502E+02</rscale>
<asrwt>0</asrwt>
<pdfrwt beam="1">  1        2 0.14777693E-01 0.80717502E+02</pdfrwt>
<pdfrwt beam="2">  1       -1 0.26088077E-02 0.80717502E+02</pdfrwt>
<totfact> 0.17113820E+05</totfact>
</mgrwt>
</event>
<event>
 8    1  0.2676873E-016  0.8134500E+02  0.7818608E-02  0.1325277E+00
          2   -1    0    0  501    0  0.00000000000E+00  0.00000000000E+00  0.60430660784E+03  0.60430660784E+03  0.25500000000E-02 0. -1.
         -1   -1    0    0    0  501 -0.00000000000E+00 -0.00000000000E+00 -0.27374365280E+01  0.27374411677E+01  0.50400000000E-02 0.  1.
         24    2    1    2    0    0  0.00000000000E+00 -0.35527136788E-14  0.60156917131E+03  0.60704404901E+03  0.81345003345E+02 0.  0.
         66    2    3    3    0    0 -0.11116428411E+01 -0.16693162440E+02  0.57741919553E+03  0.57766497625E+03  0.19999993058E+01 0.  0.
        -13    1    3    3    0    0  0.11116428411E+01  0.16693162440E+02  0.24149975777E+02  0.29379072758E+02  0.10566000000E+00 0.  1.
         13    1    4    4    0    0 -0.12129789711E+01 -0.80341889817E+01  0.29960956201E+03  0.29971973630E+03  0.10566000000E+00 0. -1.
        -13    1    4    4    0    0  0.52831361110E-01 -0.42685982615E+01  0.12747011994E+03  0.12754162600E+03  0.10566000000E+00 0.  1.
         14    1    4    4    0    0  0.48504768939E-01 -0.43903751970E+01  0.15033951358E+03  0.15040361395E+03  0.00000000000E+00 0. -1.
<mgrwt>
<rscale>  0 0.81345003E+02</rscale>
<asrwt>0</asrwt>
<pdfrwt beam="1">  1        2 0.92970356E-01 0.81345003E+02</pdfrwt>
<pdfrwt beam="2">  1       -1 0.42114395E-03 0.81345003E+02</pdfrwt>
<totfact> 0.30858063E+05</totfact>
</mgrwt>
</event>
<event>
 8    1  0.2676873E-016  0.7577043E+02  0.7818608E-02  0.1341502E+00
          2   -1    0    0  501    0  0.00000000000E+00  0.00000000000E+00  0.14054081566E+02  0.14054081797E+02  0.25500000000E-02 0. -1.
         -1   -1    0    0    0  501 -0.00000000000E+00 -0.00000000000E+00 -0.10212617133E+03  0.10212617145E+03  0.50400000000E-02 0.  1.
         24    2    1    2    0    0  0.00000000000E+00  0.71054273576E-14 -0.88072089762E+02  0.11618025325E+03  0.75770431237E+02 0.  0.
         66    2    3    3    0    0  0.19742737782E+02  0.23652718980E+02 -0.10331602576E+02  0.32557162405E+02  0.20000004573E+01 0.  0.
        -13    1    3    3    0    0 -0.19742737782E+02 -0.23652718980E+02 -0.77740487186E+02  0.83623090843E+02  0.10566000000E+00 0.  1.
         13    1    4    4    0    0  0.45308201300E+01  0.61074358363E+01 -0.22865841287E+01  0.79415826230E+01  0.10566000000E+00 0. -1.
        -13    1    4    4    0    0  0.28531093526E+01  0.25721287427E+01 -0.15410542613E+01  0.41403008971E+01  0.10566000000E+00 0.  1.
        -14    1    4    4    0    0  0.12358808300E+02  0.14973154401E+02 -0.65039641862E+01  0.20475278885E+02  0.00000000000E+00 0.  1.
<mgrwt>
<rscale>  0 0.75770431E+02</rscale>
<asrwt>0</asrwt>
<pdfrwt beam="1">  1        2 0.21621665E-02 0.75770431E+02</pdfrwt>
<pdfrwt beam="2">  1       -1 0.15711718E-01 0.75770431E+02</pdfrwt>
<totfact> 0.13511893E+05</totfact>
</mgrwt>
</event>
<event>
 8    1  0.2676873E-016  0.7904427E+02  0.7818608E-02  0.1331786E+00
          2   -1    0    0  501    0  0.00000000000E+00  0.00000000000E+00  0.18142388413E+03  0.18142388415E+03  0.25500000000E-02 0. -1.
         -1   -1    0    0    0  501 -0.00000000000E+00 -0.00000000000E+00 -0.86096663752E+01  0.86096678503E+01  0.50400000000E-02 0.  1.
         24    2    1    2    0    0  0.35527136788E-14 -0.17763568394E-14  0.17281421776E+03  0.19003355200E+03  0.79044272575E+02 0.  0.
         66    2    3    3    0    0 -0.20297177994E+02 -0.86644114022E+01  0.16521198649E+03  0.16669147532E+03  0.20000013461E+01 0.  0.
        -13    1    3    3    0    0  0.20297177994E+02  0.86644114022E+01  0.76022312682E+01  0.23342076680E+02  0.10566000000E+00 0.  1.
         13    1    4    4    0    0 -0.24444438706E+01 -0.13359377372E+01  0.22639230951E+02  0.22810216517E+02  0.10566000000E+00 0. -1.
        -13    1    4    4    0    0 -0.11505477004E+02 -0.50015527702E+01  0.87403373479E+02  0.88299220782E+02  0.10566000000E+00 0.  1.
         14    1    4    4    0    0 -0.63472571188E+01 -0.23269208947E+01  0.55169382059E+02  0.55582038020E+02  0.00000000000E+00 0. -1.
<mgrwt>
<rscale>  0 0.79044273E+02</rscale>
<asrwt>0</asrwt>
<pdfrwt beam="1">  1        2 0.27911363E-01 0.79044273E+02</pdfrwt>
<pdfrwt beam="2">  1       -1 0.13245643E-02 0.79044273E+02</pdfrwt>
<totfact> 0.22019588E+05</totfact>
</mgrwt>
</event>
<event>
 8    1  0.2676873E-016  0.7831000E+02  0.7818608E-02  0.1333917E+00
         -1   -1    0    0    0  501 -0.00000000000E+00  0.00000000000E+00  0.21304566820E+01  0.21304626435E+01  0.50400000000E-02 0.  1.
          2   -1    0    0  501    0  0.00000000000E+00 -0.00000000000E+00 -0.71961650917E+03  0.71961650917E+03  0.25500000000E-02 0. -1.
         24    2    1    2    0    0  0.00000000000E+00  0.88817841970E-15 -0.71748605249E+03  0.72174697182E+03  0.78309998171E+02 0.  0.
         66    2    3    3    0    0  0.19681532148E+02 -0.42961371891E+01 -0.66814818277E+03  0.66845479552E+03  0.20000024828E+01 0.  0.
        -13    1    3    3    0    0 -0.19681532148E+02  0.42961371891E+01 -0.49337869719E+02  0.53292176300E+02  0.10566000000E+00 0.  1.
         13    1    4    4    0    0  0.83515884375E+01 -0.13150225793E+01 -0.27087987321E+03  0.27101179898E+03  0.10566000000E+00 0. -1.
        -13    1    4    4    0    0  0.10107385836E+02 -0.24176432838E+01 -0.33969624923E+03  0.33985520027E+03  0.10566000000E+00 0.  1.
        -14    1    4    4    0    0  0.12225578741E+01 -0.56347132602E+00 -0.57572060337E+02  0.57587796269E+02  0.00000000000E+00 0.  1.
<mgrwt>
<rscale>  0 0.78309998E+02</rscale>
<asrwt>0</asrwt>
<pdfrwt beam="1">  1        2 0.11071004E+00 0.78309998E+02</pdfrwt>
<pdfrwt beam="2">  1       -1 0.32776360E-03 0.78309998E+02</pdfrwt>
<totfact> 0.35577663E+05</totfact>
</mgrwt>
</event>
<event>
 8    1  0.2676873E-016  0.8026677E+02  0.7818608E-02  0.1328296E+00
         -1   -1    0    0    0  501 -0.00000000000E+00  0.00000000000E+00  0.82815188130E+01  0.82815203466E+01  0.50400000000E-02 0.  1.
          2   -1    0    0  501    0  0.00000000000E+00 -0.00000000000E+00 -0.19449190496E+03  0.19449190498E+03  0.25500000000E-02 0. -1.
         24    2    1    2    0    0  0.17763568394E-14  0.00000000000E+00 -0.18621038615E+03  0.20277342533E+03  0.80266768394E+02 0.  0.
         66    2    3    3    0    0  0.12292720572E+02  0.13437536399E+02 -0.18343868751E+03  0.18435137764E+03  0.19999997115E+01 0.  0.
        -13    1    3    3    0    0 -0.12292720572E+02 -0.13437536399E+02 -0.27716986384E+01  0.18422047685E+02  0.10566000000E+00 0.  1.
         13    1    4    4    0    0  0.96940110725E+00  0.10752310821E+01 -0.14941768894E+02  0.15012111181E+02  0.10566000000E+00 0.  1.
        -13    1    4    4    0    0  0.29779416439E+01  0.33654231363E+01 -0.53932687905E+02  0.54119684016E+02  0.10566000000E+00 0.  1.
         14    1    4    4    0    0  0.83453778204E+01  0.89968821806E+01 -0.11456423071E+03  0.11521958244E+03  0.00000000000E+00 0. -1.
<mgrwt>
<rscale>  0 0.80266768E+02</rscale>
<asrwt>0</asrwt>
<pdfrwt beam="1">  1        2 0.29921828E-01 0.80266768E+02</pdfrwt>
<pdfrwt beam="2">  1       -1 0.12740801E-02 0.80266768E+02</pdfrwt>
<totfact> 0.21655049E+05</totfact>
</mgrwt>
</event>
<event>
 8    1  0.2676873E-016  0.7910406E+02  0.7818608E-02  0.1331613E+00
         -1   -1    0    0    0  501 -0.00000000000E+00  0.00000000000E+00  0.11462603594E+02  0.11462604702E+02  0.50400000000E-02 0.  1.
          2   -1    0    0  501    0  0.00000000000E+00 -0.00000000000E+00 -0.13647536131E+03  0.13647536134E+03  0.25500000000E-02 0. -1.
         24    2    1    2    0    0  0.17763568394E-14 -0.71054273576E-14 -0.12501275772E+03  0.14793796604E+03  0.79104059335E+02 0.  0.
         66    2    3    3    0    0  0.11899580980E+02 -0.36032861853E+02 -0.41856460856E+02  0.56532561205E+02  0.20000000563E+01 0.  0.
        -13    1    3    3    0    0 -0.11899580980E+02  0.36032861853E+02 -0.83156296863E+02  0.91405404834E+02  0.10566000000E+00 0.  1.
         13    1    4    4    0    0  0.77529208715E+01 -0.25092262985E+02 -0.29946923930E+02  0.39831631409E+02  0.10566000000E+00 0. -1.
        -13    1    4    4    0    0  0.24795148973E+01 -0.70426863184E+01 -0.74613340916E+01  0.10556045432E+02  0.10566000000E+00 0.  1.
         14    1    4    4    0    0  0.16671452112E+01 -0.38979125490E+01 -0.44482028345E+01  0.61448843644E+01  0.00000000000E+00 0. -1.
<mgrwt>
<rscale>  0 0.79104059E+02</rscale>
<asrwt>0</asrwt>
<pdfrwt beam="1">  1        2 0.20996208E-01 0.79104059E+02</pdfrwt>
<pdfrwt beam="2">  1       -1 0.17634777E-02 0.79104059E+02</pdfrwt>
<totfact> 0.20028228E+05</totfact>
</mgrwt>
</event>
<event>
 8    1  0.2676873E-016  0.7166561E+02  0.7818608E-02  0.1354519E+00
         -1   -1    0    0    0  501 -0.00000000000E+00  0.00000000000E+00  0.80935761488E+01  0.80935777180E+01  0.50400000000E-02 0.  1.
          2   -1    0    0  501    0  0.00000000000E+00 -0.00000000000E+00 -0.15864304982E+03  0.15864304984E+03  0.25500000000E-02 0. -1.
         24    2    1    2    0    0 -0.35527136788E-14  0.35527136788E-14 -0.15054947368E+03  0.16673662756E+03  0.71665605049E+02 0.  0.
         66    2    3    3    0    0 -0.21148684929E+02  0.26634218490E+02 -0.10138027259E+03  0.10695142900E+03  0.20000059883E+01 0.  0.
        -13    1    3    3    0    0  0.21148684929E+02 -0.26634218490E+02 -0.49169201081E+02  0.59785198568E+02  0.10566000000E+00 0.  1.
         13    1    4    4    0    0 -0.51282136105E+01  0.76995016349E+01 -0.26978846594E+02  0.28521048856E+02  0.10566000000E+00 0.  1.
        -13    1    4    4    0    0 -0.98711718895E+01  0.11660010911E+02 -0.44674847249E+02  0.47214923802E+02  0.10566000000E+00 0. -1.
         14    1    4    4    0    0 -0.61492994288E+01  0.72747059440E+01 -0.29726578752E+02  0.31215456337E+02  0.00000000000E+00 0. -1.
<mgrwt>
<rscale>  0 0.71665605E+02</rscale>
<asrwt>0</asrwt>
<pdfrwt beam="1">  1        2 0.24406621E-01 0.71665605E+02</pdfrwt>
<pdfrwt beam="2">  1       -1 0.12451658E-02 0.71665605E+02</pdfrwt>
<totfact> 0.27249897E+05</totfact>
</mgrwt>
</event>
<event>
 8    1  0.2676873E-016  0.8231665E+02  0.7818608E-02  0.1322603E+00
          2   -1    0    0  501    0  0.00000000000E+00  0.00000000000E+00  0.29832701607E+03  0.29832701608E+03  0.25500000000E-02 0. -1.
         -1   -1    0    0    0  501 -0.00000000000E+00 -0.00000000000E+00 -0.56783577842E+01  0.56783600209E+01  0.50400000000E-02 0.  1.
         24    2    1    2    0    0 -0.17763568394E-14  0.00000000000E+00  0.29264865828E+03  0.30400537610E+03  0.82316653858E+02 0.  0.
         66    2    3    3    0    0 -0.99053814670E+01 -0.27103547760E+02  0.25466894371E+03  0.25630643726E+03  0.20000020421E+01 0.  0.
        -13    1    3    3    0    0  0.99053814670E+01  0.27103547760E+02  0.37979714576E+02  0.47698938841E+02  0.10566000000E+00 0.  1.
         13    1    4    4    0    0 -0.20732205174E+01 -0.65702474271E+01  0.65917655241E+02  0.66276804624E+02  0.10566000000E+00 0. -1.
        -13    1    4    4    0    0 -0.30531303629E+01 -0.70263471033E+01  0.69215841881E+02  0.69638603446E+02  0.10566000000E+00 0.  1.
        -14    1    4    4    0    0 -0.47790305867E+01 -0.13506953230E+02  0.11953544658E+03  0.12039102919E+03  0.00000000000E+00 0.  1.
<mgrwt>
<rscale>  0 0.82316654E+02</rscale>
<asrwt>0</asrwt>
<pdfrwt beam="1">  1        2 0.45896453E-01 0.82316654E+02</pdfrwt>
<pdfrwt beam="2">  1       -1 0.87359389E-03 0.82316654E+02</pdfrwt>
<totfact> 0.23605545E+05</totfact>
</mgrwt>
</event>
<event>
 8    1  0.2676873E-016  0.7869549E+02  0.7818608E-02  0.1332795E+00
         -1   -1    0    0    0  501 -0.00000000000E+00  0.00000000000E+00  0.20545884345E+02  0.20545884963E+02  0.50400000000E-02 0.  1.
          2   -1    0    0  501    0  0.00000000000E+00 -0.00000000000E+00 -0.75355481438E+02  0.75355481481E+02  0.25500000000E-02 0. -1.
         24    2    1    2    0    0  0.00000000000E+00 -0.17763568394E-14 -0.54809597093E+02  0.95901366444E+02  0.78695490039E+02 0.  0.
         66    2    3    3    0    0  0.32993370189E+02 -0.10406897517E+02 -0.50200697256E+02  0.60999803240E+02  0.19999995039E+01 0.  0.
        -13    1    3    3    0    0 -0.32993370189E+02  0.10406897517E+02 -0.46088998368E+01  0.34901563204E+02  0.10566000000E+00 0.  1.
         13    1    4    4    0    0  0.57247843104E+01 -0.25709141196E+01 -0.88126013299E+01  0.10819235696E+02  0.10566000000E+00 0. -1.
        -13    1    4    4    0    0  0.13946613943E+02 -0.38514719943E+01 -0.21243173562E+02  0.25702635351E+02  0.10566000000E+00 0.  1.
         14    1    4    4    0    0  0.13321971935E+02 -0.39845114027E+01 -0.20144922364E+02  0.24477932193E+02  0.00000000000E+00 0. -1.
<mgrwt>
<rscale>  0 0.78695490E+02</rscale>
<asrwt>0</asrwt>
<pdfrwt beam="1">  1        2 0.11593151E-01 0.78695490E+02</pdfrwt>
<pdfrwt beam="2">  1       -1 0.31609054E-02 0.78695490E+02</pdfrwt>
<totfact> 0.17189763E+05</totfact>
</mgrwt>
</event>
<event>
 8    1  0.2676873E-016  0.7261597E+02  0.7818608E-02  0.1351417E+00
          2   -1    0    0  501    0  0.00000000000E+00  0.00000000000E+00  0.14442273486E+02  0.14442273711E+02  0.25500000000E-02 0. -1.
         -1   -1    0    0    0  501 -0.00000000000E+00 -0.00000000000E+00 -0.91278558094E+02  0.91278558233E+02  0.50400000000E-02 0.  1.
         24    2    1    2    0    0  0.17763568394E-14 -0.17763568394E-14 -0.76836284608E+02  0.10572083194E+03  0.72615973964E+02 0.  0.
         66    2    3    3    0    0  0.93826257195E+01  0.12279107836E+02  0.93417984373E+01  0.18168086037E+02  0.19999993906E+01 0.  0.
        -13    1    3    3    0    0 -0.93826257195E+01 -0.12279107836E+02 -0.86178083045E+02  0.87552745908E+02  0.10566000000E+00 0.  1.
         13    1    4    4    0    0  0.28465295911E+00  0.36097457061E+00  0.53364771054E-01  0.47470178233E+00  0.10566000000E+00 0. -1.
        -13    1    4    4    0    0  0.30206587559E+00  0.29665354995E+00  0.54089519486E+00  0.69496673972E+00  0.10566000000E+00 0.  1.
         14    1    4    4    0    0  0.87959068848E+01  0.11621479715E+02  0.87475384713E+01  0.16998417515E+02  0.00000000000E+00 0. -1.
<mgrwt>
<rscale>  0 0.72615974E+02</rscale>
<asrwt>0</asrwt>
<pdfrwt beam="1">  1        2 0.22218883E-02 0.72615974E+02</pdfrwt>
<pdfrwt beam="2">  1       -1 0.14042855E-01 0.72615974E+02</pdfrwt>
<totfact> 0.15366127E+05</totfact>
</mgrwt>
</event>
<event>
 8    1  0.2676873E-016  0.8222111E+02  0.7818608E-02  0.1322864E+00
         -1   -1    0    0    0  501 -0.00000000000E+00  0.00000000000E+00  0.59548995632E+01  0.59549016961E+01  0.50400000000E-02 0.  1.
          2   -1    0    0  501    0  0.00000000000E+00 -0.00000000000E+00 -0.28381294567E+03  0.28381294569E+03  0.25500000000E-02 0. -1.
         24    2    1    2    0    0  0.00000000000E+00  0.00000000000E+00 -0.27785804611E+03  0.28976784738E+03  0.82221114001E+02 0.  0.
         66    2    3    3    0    0  0.50307688606E+01  0.36654680103E+02 -0.20197573338E+03  0.20534622244E+03  0.19999965091E+01 0.  0.
        -13    1    3    3    0    0 -0.50307688606E+01 -0.36654680103E+02 -0.75882312728E+02  0.84421624942E+02  0.10566000000E+00 0.  1.
         13    1    4    4    0    0  0.24627840456E+00  0.48050398278E+01 -0.25383982145E+02  0.25836152468E+02  0.10566000000E+00 0. -1.
        -13    1    4    4    0    0  0.22193814406E+01  0.13241446094E+02 -0.70066847254E+02  0.71341683445E+02  0.10566000000E+00 0.  1.
        -14    1    4    4    0    0  0.25651090155E+01  0.18608194182E+02 -0.10652490398E+03  0.10816838653E+03  0.00000000000E+00 0.  1.
<mgrwt>
<rscale>  0 0.82221114E+02</rscale>
<asrwt>0</asrwt>
<pdfrwt beam="1">  1        2 0.43663520E-01 0.82221114E+02</pdfrwt>
<pdfrwt beam="2">  1       -1 0.91613878E-03 0.82221114E+02</pdfrwt>
<totfact> 0.23252577E+05</totfact>
</mgrwt>
</event>
<event>
 8    1  0.2676873E-016  0.7738161E+02  0.7818608E-02  0.1336651E+00
         -1   -1    0    0    0  501 -0.00000000000E+00  0.00000000000E+00  0.30899458954E+01  0.30899500058E+01  0.50400000000E-02 0.  1.
          2   -1    0    0  501    0  0.00000000000E+00 -0.00000000000E+00 -0.48446721542E+03  0.48446721543E+03  0.25500000000E-02 0. -1.
         24    2    1    2    0    0  0.00000000000E+00  0.35527136788E-14 -0.48137726953E+03  0.48755716543E+03  0.77381612478E+02 0.  0.
         66    2    3    3    0    0  0.12372314566E+02  0.20523752161E+02 -0.43202830252E+03  0.43269706811E+03  0.19999991271E+01 0.  0.
        -13    1    3    3    0    0 -0.12372314566E+02 -0.20523752161E+02 -0.49348967003E+02  0.54860097327E+02  0.10566000000E+00 0.  1.
         13    1    4    4    0    0  0.82663601702E+01  0.12512879454E+02 -0.28020235659E+03  0.28060341528E+03  0.10566000000E+00 0. -1.
        -13    1    4    4    0    0  0.11653835006E+01  0.19189597873E+01 -0.35166595442E+02  0.35238347356E+02  0.10566000000E+00 0.  1.
         14    1    4    4    0    0  0.29405708956E+01  0.60919129194E+01 -0.11665935049E+03  0.11685530547E+03  0.00000000000E+00 0. -1.
<mgrwt>
<rscale>  0 0.77381612E+02</rscale>
<asrwt>0</asrwt>
<pdfrwt beam="1">  1        2 0.74533357E-01 0.77381612E+02</pdfrwt>
<pdfrwt beam="2">  1       -1 0.47537699E-03 0.77381612E+02</pdfrwt>
<totfact> 0.32871202E+05</totfact>
</mgrwt>
</event>
<event>
 8    1  0.2676873E-016  0.7969174E+02  0.7818608E-02  0.1329929E+00
          2   -1    0    0  501    0  0.00000000000E+00  0.00000000000E+00  0.14688201557E+03  0.14688201560E+03  0.25500000000E-02 0. -1.
         -1   -1    0    0    0  501 -0.00000000000E+00 -0.00000000000E+00 -0.10809309847E+02  0.10809311022E+02  0.50400000000E-02 0.  1.
         24    2    1    2    0    0 -0.35527136788E-14  0.00000000000E+00  0.13607270573E+03  0.15769132662E+03  0.79691738887E+02 0.  0.
         66    2    3    3    0    0 -0.19500563661E+02 -0.13572344573E+02  0.13131321925E+03  0.13346026399E+03  0.19999985882E+01 0.  0.
        -13    1    3    3    0    0  0.19500563661E+02  0.13572344573E+02  0.47594864719E+01  0.24231062623E+02  0.10566000000E+00 0.  1.
         13    1    4    4    0    0 -0.13991041134E+01 -0.93352708713E+00  0.72831442008E+01  0.74755814910E+01  0.10566000000E+00 0. -1.
        -13    1    4    4    0    0 -0.22193043628E+01 -0.19947423789E+01  0.17200669633E+02  0.17457906773E+02  0.10566000000E+00 0.  1.
         14    1    4    4    0    0 -0.15882155185E+02 -0.10644075107E+02  0.10682940542E+03  0.10852677573E+03  0.00000000000E+00 0. -1.
<mgrwt>
<rscale>  0 0.79691739E+02</rscale>
<asrwt>0</asrwt>
<pdfrwt beam="1">  1        2 0.22597234E-01 0.79691739E+02</pdfrwt>
<pdfrwt beam="2">  1       -1 0.16629708E-02 0.79691739E+02</pdfrwt>
<totfact> 0.20100227E+05</totfact>
</mgrwt>
</event>
<event>
 8    1  0.2676873E-016  0.7930221E+02  0.7818608E-02  0.1331043E+00
         -1   -1    0    0    0  501 -0.00000000000E+00  0.00000000000E+00  0.18063526052E+03  0.18063526059E+03  0.50400000000E-02 0.  1.
          2   -1    0    0  501    0  0.00000000000E+00 -0.00000000000E+00 -0.87037824937E+01  0.87037828673E+01  0.25500000000E-02 0. -1.
         24    2    1    2    0    0  0.88817841970E-15  0.00000000000E+00  0.17193147803E+03  0.18933904346E+03  0.79302208299E+02 0.  0.
         66    2    3    3    0    0 -0.57316013303E+01  0.38601482762E+02  0.69603377665E+02  0.79822026456E+02  0.19999999969E+01 0.  0.
        -13    1    3    3    0    0  0.57316013303E+01 -0.38601482762E+02  0.10232810036E+03  0.10951701700E+03  0.10566000000E+00 0.  1.
         13    1    4    4    0    0 -0.11088707635E+01  0.70590591027E+01  0.11370715842E+02  0.13429975897E+02  0.10566000000E+00 0. -1.
        -13    1    4    4    0    0 -0.11737582809E+01  0.66971918649E+01  0.11958076944E+02  0.13756338743E+02  0.10566000000E+00 0. -1.
         14    1    4    4    0    0 -0.34489722859E+01  0.24845231795E+02  0.46274584879E+02  0.52635711817E+02  0.00000000000E+00 0. -1.
<mgrwt>
<rscale>  0 0.79302208E+02</rscale>
<asrwt>0</asrwt>
<pdfrwt beam="1">  1        2 0.13390435E-02 0.79302208E+02</pdfrwt>
<pdfrwt beam="2">  1       -1 0.27790039E-01 0.79302208E+02</pdfrwt>
<totfact> 0.10492961E+05</totfact>
</mgrwt>
</event>
<event>
 8    1  0.2676873E-016  0.7963261E+02  0.7818608E-02  0.1330097E+00
          2   -1    0    0  501    0  0.00000000000E+00  0.00000000000E+00  0.44654565314E+02  0.44654565387E+02  0.25500000000E-02 0. -1.
         -1   -1    0    0    0  501 -0.00000000000E+00 -0.00000000000E+00 -0.35502259027E+02  0.35502259385E+02  0.50400000000E-02 0.  1.
         24    2    1    2    0    0  0.00000000000E+00  0.17763568394E-14  0.91523062868E+01  0.80156824772E+02  0.79632605427E+02 0.  0.
         66    2    3    3    0    0  0.49272505257E+01 -0.10242588066E+02  0.42963309775E+02  0.44486339367E+02  0.19999988557E+01 0.  0.
        -13    1    3    3    0    0 -0.49272505257E+01  0.10242588066E+02 -0.33811003488E+02  0.35670485404E+02  0.10566000000E+00 0.  1.
         13    1    4    4    0    0  0.86177833934E+00 -0.97477797219E+00  0.57516160531E+01  0.58978898989E+01  0.10566000000E+00 0. -1.
        -13    1    4    4    0    0  0.22968211524E+01 -0.38304121065E+01  0.17808382095E+02  0.18360203735E+02  0.10566000000E+00 0.  1.
         14    1    4    4    0    0  0.17686510339E+01 -0.54373979875E+01  0.19403311627E+02  0.20228245733E+02  0.00000000000E+00 0. -1.
<mgrwt>
<rscale>  0 0.79632605E+02</rscale>
<asrwt>0</asrwt>
<pdfrwt beam="1">  1        2 0.68699331E-02 0.79632605E+02</pdfrwt>
<pdfrwt beam="2">  1       -1 0.54618861E-02 0.79632605E+02</pdfrwt>
<totfact> 0.14771330E+05</totfact>
</mgrwt>
</event>
<event>
 8    1  0.2676873E-016  0.7855697E+02  0.7818608E-02  0.1333197E+00
         -1   -1    0    0    0  501 -0.00000000000E+00  0.00000000000E+00  0.40723663951E+01  0.40723695139E+01  0.50400000000E-02 0.  1.
          2   -1    0    0  501    0  0.00000000000E+00 -0.00000000000E+00 -0.37884581774E+03  0.37884581775E+03  0.25500000000E-02 0. -1.
         24    2    1    2    0    0  0.00000000000E+00 -0.35527136788E-14 -0.37477345135E+03  0.38291818727E+03  0.78556974887E+02 0.  0.
         66    2    3    3    0    0  0.26215060956E+02 -0.22736253445E+02 -0.27694054852E+03  0.27911329970E+03  0.20000040405E+01 0.  0.
        -13    1    3    3    0    0 -0.26215060956E+02  0.22736253445E+02 -0.97832902830E+02  0.10380488756E+03  0.10566000000E+00 0.  1.
         13    1    4    4    0    0  0.17618973217E+01 -0.16763127502E+01 -0.20415631636E+02  0.20560240410E+02  0.10566000000E+00 0. -1.
        -13    1    4    4    0    0  0.17990985398E+02 -0.15328462751E+02 -0.18147761397E+03  0.18301030807E+03  0.10566000000E+00 0.  1.
        -14    1    4    4    0    0  0.64621782366E+01 -0.57314779441E+01 -0.75047302915E+02  0.75542751220E+02  0.00000000000E+00 0.  1.
<mgrwt>
<rscale>  0 0.78556975E+02</rscale>
<asrwt>0</asrwt>
<pdfrwt beam="1">  1        2 0.58283944E-01 0.78556975E+02</pdfrwt>
<pdfrwt beam="2">  1       -1 0.62651845E-03 0.78556975E+02</pdfrwt>
<totfact> 0.29067871E+05</totfact>
</mgrwt>
</event>
<event>
 8    1  0.2676873E-016  0.7879043E+02  0.7818608E-02  0.1332519E+00
          2   -1    0    0  501    0  0.00000000000E+00  0.00000000000E+00  0.89154669380E+02  0.89154669416E+02  0.25500000000E-02 0. -1.
         -1   -1    0    0    0  501 -0.00000000000E+00 -0.00000000000E+00 -0.17407759337E+02  0.17407760066E+02  0.50400000000E-02 0.  1.
         24    2    1    2    0    0 -0.35527136788E-14 -0.44408920985E-15  0.71746910043E+02  0.10656242948E+03  0.78790432646E+02 0.  0.
         66    2    3    3    0    0  0.30921363120E+02  0.24710654566E+01  0.68685169405E+02  0.75391573199E+02  0.19999878759E+01 0.  0.
        -13    1    3    3    0    0 -0.30921363120E+02 -0.24710654566E+01  0.30617406382E+01  0.31170856284E+02  0.10566000000E+00 0.  1.
         13    1    4    4    0    0  0.15080599600E+02  0.17025505029E+01  0.32367107557E+02  0.35748622046E+02  0.10566000000E+00 0. -1.
        -13    1    4    4    0    0  0.22434907921E+01 -0.22702304131E+00  0.49976196944E+01  0.54838086255E+01  0.10566000000E+00 0.  1.
         14    1    4    4    0    0  0.13597272728E+02  0.99553799494E+00  0.31320442153E+02  0.34159142527E+02  0.00000000000E+00 0. -1.
<mgrwt>
<rscale>  0 0.78790433E+02</rscale>
<asrwt>0</asrwt>
<pdfrwt beam="1">  1        2 0.13716103E-01 0.78790433E+02</pdfrwt>
<pdfrwt beam="2">  1       -1 0.26781169E-02 0.78790433E+02</pdfrwt>
<totfact> 0.17894248E+05</totfact>
</mgrwt>
</event>
<event>
 8    1  0.2676873E-016  0.7921144E+02  0.7818608E-02  0.1331304E+00
         -1   -1    0    0    0  501 -0.00000000000E+00  0.00000000000E+00  0.10390592952E+03  0.10390592964E+03  0.50400000000E-02 0.  1.
          2   -1    0    0  501    0  0.00000000000E+00 -0.00000000000E+00 -0.15096472068E+02  0.15096472284E+02  0.25500000000E-02 0. -1.
         24    2    1    2    0    0  0.00000000000E+00  0.00000000000E+00  0.88809457453E+02  0.11900240193E+03  0.79211438135E+02 0.  0.
         66    2    3    3    0    0  0.12127174062E+02  0.21132067933E+02 -0.24288195029E+01  0.24566884288E+02  0.19999983953E+01 0.  0.
        -13    1    3    3    0    0 -0.12127174062E+02 -0.21132067933E+02  0.91238276956E+02  0.94435517639E+02  0.10566000000E+00 0.  1.
         13    1    4    4    0    0  0.10451304263E+01  0.21582102824E+01 -0.27030006679E+00  0.24154493149E+01  0.10566000000E+00 0. -1.
        -13    1    4    4    0    0  0.79103639412E+01  0.14620654473E+02 -0.10826907115E+01  0.16658954892E+02  0.10566000000E+00 0.  1.
        -14    1    4    4    0    0  0.31716796943E+01  0.43532031785E+01 -0.10758287246E+01  0.54924800811E+01  0.00000000000E+00 0.  1.
<mgrwt>
<rscale>  0 0.79211438E+02</rscale>
<asrwt>0</asrwt>
<pdfrwt beam="1">  1        2 0.23225342E-02 0.79211438E+02</pdfrwt>
<pdfrwt beam="2">  1       -1 0.15985528E-01 0.79211438E+02</pdfrwt>
<totfact> 0.12049825E+05</totfact>
</mgrwt>
</event>
<event>
 8    1  0.2676873E-016  0.7993999E+02  0.7818608E-02  0.1329222E+00
         -1   -1    0    0    0  501 -0.00000000000E+00  0.00000000000E+00  0.11612138548E+01  0.11612247923E+01  0.50400000000E-02 0.  1.
          2   -1    0    0  501    0  0.00000000000E+00 -0.00000000000E+00 -0.13757957539E+04  0.13757957539E+04  0.25500000000E-02 0. -1.
         24    2    1    2    0    0  0.00000000000E+00 -0.17763568394E-14 -0.13746345401E+04  0.13769569787E+04  0.79939993062E+02 0.  0.
         66    2    3    3    0    0  0.19521049182E+02  0.85236662293E+01 -0.12698024160E+04  0.12699826376E+04  0.19999991645E+01 0.  0.
        -13    1    3    3    0    0 -0.19521049182E+02 -0.85236662293E+01 -0.10483212411E+03  0.10697434111E+03  0.10566000000E+00 0.  1.
         13    1    4    4    0    0  0.11543058748E+02  0.56533700638E+01 -0.78193384381E+03  0.78203948114E+03  0.10566000000E+00 0. -1.
        -13    1    4    4    0    0  0.42578222195E+01  0.12165572857E+01 -0.27472996245E+03  0.27476566833E+03  0.10566000000E+00 0.  1.
         14    1    4    4    0    0  0.37201682144E+01  0.16537388798E+01 -0.21313860970E+03  0.21317748814E+03  0.00000000000E+00 0. -1.
<mgrwt>
<rscale>  0 0.79939993E+02</rscale>
<asrwt>0</asrwt>
<pdfrwt beam="1">  1        2 0.21165958E+00 0.79939993E+02</pdfrwt>
<pdfrwt beam="2">  1       -1 0.17865023E-03 0.79939993E+02</pdfrwt>
<totfact> 0.34241917E+05</totfact>
</mgrwt>
</event>
<event>
 8    1  0.2676873E-016  0.8602680E+02  0.7818608E-02  0.1312769E+00
          2   -1    0    0  501    0  0.00000000000E+00  0.00000000000E+00  0.65698342980E+03  0.65698342980E+03  0.25500000000E-02 0. -1.
         -1   -1    0    0    0  501 -0.00000000000E+00 -0.00000000000E+00 -0.28161305453E+01  0.28161350554E+01  0.50400000000E-02 0.  1.
         24    2    1    2    0    0  0.00000000000E+00  0.00000000000E+00  0.65416729925E+03  0.65979956486E+03  0.86026800334E+02 0.  0.
         66    2    3    3    0    0 -0.30212302108E+02  0.23525482803E+02  0.47714632957E+03  0.47868450085E+03  0.19999976781E+01 0.  0.
        -13    1    3    3    0    0  0.30212302108E+02 -0.23525482803E+02  0.17702096968E+03  0.18111506401E+03  0.10566000000E+00 0.  1.
         13    1    4    4    0    0 -0.17339075364E+02  0.12712874530E+02  0.26798196718E+03  0.26884308920E+03  0.10566000000E+00 0. -1.
        -13    1    4    4    0    0 -0.11850080907E+01  0.13469383495E+01  0.24037119414E+02  0.24104206289E+02  0.10566000000E+00 0.  1.
        -14    1    4    4    0    0 -0.11688218654E+02  0.94656699234E+01  0.18512724298E+03  0.18573720536E+03  0.00000000000E+00 0.  1.
<mgrwt>
<rscale>  0 0.86026800E+02</rscale>
<asrwt>0</asrwt>
<pdfrwt beam="1">  1        2 0.10107436E+00 0.86026800E+02</pdfrwt>
<pdfrwt beam="2">  1       -1 0.43325124E-03 0.86026800E+02</pdfrwt>
<totfact> 0.27257186E+05</totfact>
</mgrwt>
</event>
<event>
 8    1  0.2676873E-016  0.8006278E+02  0.7818608E-02  0.1328873E+00
          2   -1    0    0  501    0  0.00000000000E+00  0.00000000000E+00  0.40842156405E+02  0.40842156485E+02  0.25500000000E-02 0. -1.
         -1   -1    0    0    0  501 -0.00000000000E+00 -0.00000000000E+00 -0.39236720517E+02  0.39236720841E+02  0.50400000000E-02 0.  1.
         24    2    1    2    0    0  0.00000000000E+00 -0.35527136788E-14  0.16054358879E+01  0.80078877326E+02  0.80062782673E+02 0.  0.
         66    2    3    3    0    0 -0.82043755100E+01 -0.25237467151E+02  0.30746934524E+02  0.40664671352E+02  0.19999969704E+01 0.  0.
        -13    1    3    3    0    0  0.82043755100E+01  0.25237467151E+02 -0.29141498636E+02  0.39414205973E+02  0.10566000000E+00 0.  1.
         13    1    4    4    0    0 -0.29276951437E+01 -0.91933145289E+01  0.11552159065E+02  0.15051643564E+02  0.10566000000E+00 0. -1.
        -13    1    4    4    0    0 -0.45223419828E+01 -0.11618846523E+02  0.14229439584E+02  0.18919230599E+02  0.10566000000E+00 0.  1.
         14    1    4    4    0    0 -0.75433838353E+00 -0.44253060986E+01  0.49653358759E+01  0.66937971902E+01  0.00000000000E+00 0. -1.
<mgrwt>
<rscale>  0 0.80062783E+02</rscale>
<asrwt>0</asrwt>
<pdfrwt beam="1">  1        2 0.62834087E-02 0.80062783E+02</pdfrwt>
<pdfrwt beam="2">  1       -1 0.60364186E-02 0.80062783E+02</pdfrwt>
<totfact> 0.14285559E+05</totfact>
</mgrwt>
</event>
<event>
 8    1  0.2676873E-016  0.8098014E+02  0.7818608E-02  0.1326293E+00
          2   -1    0    0  501    0  0.00000000000E+00  0.00000000000E+00  0.12915292738E+04  0.12915292738E+04  0.25500000000E-02 0. -1.
         -1   -1    0    0    0  501 -0.00000000000E+00 -0.00000000000E+00 -0.12693784091E+01  0.12693884146E+01  0.50400000000E-02 0.  1.
         24    2    1    2    0    0 -0.35527136788E-14  0.00000000000E+00  0.12902598954E+04  0.12927986622E+04  0.80980141863E+02 0.  0.
         66    2    3    3    0    0  0.21582374923E+02  0.49562212357E+01  0.11862129355E+04  0.11864212960E+04  0.19999997140E+01 0.  0.
        -13    1    3    3    0    0 -0.21582374923E+02 -0.49562212357E+01  0.10404695986E+03  0.10637736628E+03  0.10566000000E+00 0.  1.
         13    1    4    4    0    0  0.77308851001E+01  0.22831141646E+01  0.45603204826E+03  0.45610329905E+03  0.10566000000E+00 0. -1.
        -13    1    4    4    0    0  0.36348325704E+01  0.49069139624E+00  0.16830002937E+03  0.16834002446E+03  0.10566000000E+00 0.  1.
        -14    1    4    4    0    0  0.10216657253E+02  0.21824156749E+01  0.56188085791E+03  0.56197797244E+03  0.00000000000E+00 0.  1.
<mgrwt>
<rscale>  0 0.80980142E+02</rscale>
<asrwt>0</asrwt>
<pdfrwt beam="1">  1        2 0.19869725E+00 0.80980142E+02</pdfrwt>
<pdfrwt beam="2">  1       -1 0.19528932E-03 0.80980142E+02</pdfrwt>
<totfact> 0.33580417E+05</totfact>
</mgrwt>
</event>
<event>
 8    1  0.2676873E-016  0.7775561E+02  0.7818608E-02  0.1335544E+00
          2   -1    0    0  501    0  0.00000000000E+00  0.00000000000E+00  0.12972078810E+03  0.12972078812E+03  0.25500000000E-02 0. -1.
         -1   -1    0    0    0  501 -0.00000000000E+00 -0.00000000000E+00 -0.11651822114E+02  0.11651823204E+02  0.50400000000E-02 0.  1.
         24    2    1    2    0    0  0.88817841970E-15  0.00000000000E+00  0.11806896598E+03  0.14137261133E+03  0.77755607546E+02 0.  0.
         66    2    3    3    0    0 -0.65868837381E+01 -0.19747310407E+02  0.11871746654E+03  0.12054534500E+03  0.20000084208E+01 0.  0.
        -13    1    3    3    0    0  0.65868837381E+01  0.19747310407E+02 -0.64850055512E+00  0.20827266328E+02  0.10566000000E+00 0.  1.
         13    1    4    4    0    0 -0.34496177167E+01 -0.10908313691E+02  0.63732053693E+02  0.64750884179E+02  0.10566000000E+00 0. -1.
        -13    1    4    4    0    0 -0.26991131766E+01 -0.65973698762E+01  0.38922477316E+02  0.39569949528E+02  0.10566000000E+00 0.  1.
        -14    1    4    4    0    0 -0.43815284490E+00 -0.22416268401E+01  0.16062935530E+02  0.16224511292E+02  0.00000000000E+00 0.  1.
<mgrwt>
<rscale>  0 0.77755608E+02</rscale>
<asrwt>0</asrwt>
<pdfrwt beam="1">  1        2 0.19957044E-01 0.77755608E+02</pdfrwt>
<pdfrwt beam="2">  1       -1 0.17925881E-02 0.77755608E+02</pdfrwt>
<totfact> 0.20636932E+05</totfact>
</mgrwt>
</event>
<event>
 8    1  0.2676873E-016  0.8026913E+02  0.7818608E-02  0.1328289E+00
          2   -1    0    0  501    0  0.00000000000E+00  0.00000000000E+00  0.16271950215E+02  0.16271950414E+02  0.25500000000E-02 0. -1.
         -1   -1    0    0    0  501 -0.00000000000E+00 -0.00000000000E+00 -0.98991414764E+02  0.98991414892E+02  0.50400000000E-02 0.  1.
         24    2    1    2    0    0  0.35527136788E-14 -0.71054273576E-14 -0.82719464549E+02  0.11526336531E+03  0.80269132090E+02 0.  0.
         66    2    3    3    0    0  0.20672008737E+02 -0.33891035123E+02 -0.33155860952E+02  0.51761426970E+02  0.19999999056E+01 0.  0.
        -13    1    3    3    0    0 -0.20672008737E+02  0.33891035123E+02 -0.49563603597E+02  0.63501938336E+02  0.10566000000E+00 0.  1.
         13    1    4    4    0    0  0.87766784623E+01 -0.15216196167E+02 -0.14606578088E+02  0.22845699773E+02  0.10566000000E+00 0. -1.
        -13    1    4    4    0    0  0.43684467303E+01 -0.70151604137E+01 -0.61012974844E+01  0.10272915725E+02  0.10566000000E+00 0.  1.
        -14    1    4    4    0    0  0.75268835440E+01 -0.11659678542E+02 -0.12447985380E+02  0.18642811472E+02  0.00000000000E+00 0.  1.
<mgrwt>
<rscale>  0 0.80269132E+02</rscale>
<asrwt>0</asrwt>
<pdfrwt beam="1">  1        2 0.25033770E-02 0.80269132E+02</pdfrwt>
<pdfrwt beam="2">  1       -1 0.15229448E-01 0.80269132E+02</pdfrwt>
<totfact> 0.11779752E+05</totfact>
</mgrwt>
</event>
<event>
 8    1  0.2676873E-016  0.7923486E+02  0.7818608E-02  0.1331237E+00
         -1   -1    0    0    0  501 -0.00000000000E+00  0.00000000000E+00  0.11039116199E+02  0.11039117350E+02  0.50400000000E-02 0.  1.
          2   -1    0    0  501    0  0.00000000000E+00 -0.00000000000E+00 -0.14217992425E+03  0.14217992427E+03  0.25500000000E-02 0. -1.
         24    2    1    2    0    0  0.17763568394E-14  0.71054273576E-14 -0.13114080805E+03  0.15321904162E+03  0.79234860886E+02 0.  0.
         66    2    3    3    0    0  0.68067860504E+01  0.18752787160E+02 -0.13174279606E+03  0.13325976017E+03  0.20000008080E+01 0.  0.
        -13    1    3    3    0    0 -0.68067860504E+01 -0.18752787160E+02  0.60198801058E+00  0.19959281455E+02  0.10566000000E+00 0.  1.
         13    1    4    4    0    0  0.50609323247E+01  0.13541621703E+02 -0.97867454647E+02  0.98929461726E+02  0.10566000000E+00 0. -1.
        -13    1    4    4    0    0  0.55387252850E-02  0.11109464444E+01 -0.69242220675E+01  0.70135759748E+01  0.10566000000E+00 0.  1.
        -14    1    4    4    0    0  0.17403150005E+01  0.41002190125E+01 -0.26951119346E+02  0.27316722465E+02  0.00000000000E+00 0.  1.
<mgrwt>
<rscale>  0 0.79234861E+02</rscale>
<asrwt>0</asrwt>
<pdfrwt beam="1">  1        2 0.21873833E-01 0.79234861E+02</pdfrwt>
<pdfrwt beam="2">  1       -1 0.16983258E-02 0.79234861E+02</pdfrwt>
<totfact> 0.20198998E+05</totfact>
</mgrwt>
</event>
<event>
 8    1  0.2676873E-016  0.7834568E+02  0.7818608E-02  0.1333813E+00
         -1   -1    0    0    0  501 -0.00000000000E+00  0.00000000000E+00  0.52283421806E+01  0.52283446098E+01  0.50400000000E-02 0.  1.
          2   -1    0    0  501    0  0.00000000000E+00 -0.00000000000E+00 -0.29349858629E+03  0.29349858630E+03  0.25500000000E-02 0. -1.
         24    2    1    2    0    0 -0.35527136788E-14  0.00000000000E+00 -0.28827024411E+03  0.29872693091E+03  0.78345680242E+02 0.  0.
         66    2    3    3    0    0 -0.23859630706E+02 -0.14858537385E+02 -0.24812326242E+03  0.24971826420E+03  0.20000017384E+01 0.  0.
        -13    1    3    3    0    0  0.23859630706E+02  0.14858537385E+02 -0.40146981689E+02  0.49008666718E+02  0.10566000000E+00 0.  1.
         13    1    4    4    0    0 -0.10665501194E+02 -0.64310236299E+01 -0.11369438584E+03  0.11437454051E+03  0.10566000000E+00 0. -1.
        -13    1    4    4    0    0 -0.75638598742E+01 -0.54912081651E+01 -0.77390207459E+02  0.77952682557E+02  0.10566000000E+00 0.  1.
        -14    1    4    4    0    0 -0.56302696381E+01 -0.29363055901E+01 -0.57038669120E+02  0.57391041127E+02  0.00000000000E+00 0.  1.
<mgrwt>
<rscale>  0 0.78345680E+02</rscale>
<asrwt>0</asrwt>
<pdfrwt beam="1">  1        2 0.45153616E-01 0.78345680E+02</pdfrwt>
<pdfrwt beam="2">  1       -1 0.80436076E-03 0.78345680E+02</pdfrwt>
<totfact> 0.26716234E+05</totfact>
</mgrwt>
</event>
<event>
 8    1  0.2676873E-016  0.8128401E+02  0.7818608E-02  0.1325447E+00
         -1   -1    0    0    0  501 -0.00000000000E+00  0.00000000000E+00  0.31175637736E+01  0.31175678475E+01  0.50400000000E-02 0.  1.
          2   -1    0    0  501    0  0.00000000000E+00 -0.00000000000E+00 -0.52982765454E+03  0.52982765455E+03  0.25500000000E-02 0. -1.
         24    2    1    2    0    0  0.00000000000E+00  0.00000000000E+00 -0.52671009077E+03  0.53294522239E+03  0.81284010464E+02 0.  0.
         66    2    3    3    0    0 -0.12339074725E+02 -0.37831818870E+02 -0.31688812392E+03  0.31938312787E+03  0.19999998342E+01 0.  0.
        -13    1    3    3    0    0  0.12339074725E+02  0.37831818870E+02 -0.20982196685E+03  0.21356209453E+03  0.10566000000E+00 0.  1.
         13    1    4    4    0    0 -0.59205963402E+01 -0.16409429339E+02 -0.14312878686E+03  0.14418801484E+03  0.10566000000E+00 0. -1.
        -13    1    4    4    0    0 -0.62639198905E+01 -0.21183496500E+02 -0.17203010587E+03  0.17344262944E+03  0.10566000000E+00 0.  1.
         14    1    4    4    0    0 -0.15455849423E+00 -0.23889303123E+00 -0.17292311890E+01  0.17524835844E+01  0.00000000000E+00 0. -1.
<mgrwt>
<rscale>  0 0.81284010E+02</rscale>
<asrwt>0</asrwt>
<pdfrwt beam="1">  1        2 0.81511875E-01 0.81284010E+02</pdfrwt>
<pdfrwt beam="2">  1       -1 0.47962593E-03 0.81284010E+02</pdfrwt>
<totfact> 0.29748094E+05</totfact>
</mgrwt>
</event>
<event>
 8    1  0.2676873E-016  0.7928645E+02  0.7818608E-02  0.1331089E+00
          2   -1    0    0  501    0  0.00000000000E+00  0.00000000000E+00  0.35343488713E+03  0.35343488714E+03  0.25500000000E-02 0. -1.
         -1   -1    0    0    0  501 -0.00000000000E+00 -0.00000000000E+00 -0.44466035800E+01  0.44466064363E+01  0.50400000000E-02 0.  1.
         24    2    1    2    0    0 -0.35527136788E-14  0.00000000000E+00  0.34898828355E+03  0.35788149358E+03  0.79286451482E+02 0.  0.
         66    2    3    3    0    0 -0.19141740695E+02 -0.24027040211E+01  0.33079733496E+03  0.33136544187E+03  0.20000064107E+01 0.  0.
        -13    1    3    3    0    0  0.19141740695E+02  0.24027040211E+01  0.18190948593E+02  0.26516051708E+02  0.10566000000E+00 0.  1.
         13    1    4    4    0    0 -0.83315839803E+01 -0.17277853760E+01  0.15787289859E+03  0.15810206769E+03  0.10566000000E+00 0. -1.
        -13    1    4    4    0    0 -0.83254332081E+01 -0.49869819427E+00  0.13272358219E+03  0.13298542015E+03  0.10566000000E+00 0. -1.
         14    1    4    4    0    0 -0.24847235067E+01 -0.17622045084E+00  0.40200854179E+02  0.40277954035E+02  0.00000000000E+00 0. -1.
<mgrwt>
<rscale>  0 0.79286451E+02</rscale>
<asrwt>0</asrwt>
<pdfrwt beam="1">  1        2 0.54374621E-01 0.79286451E+02</pdfrwt>
<pdfrwt beam="2">  1       -1 0.68409280E-03 0.79286451E+02</pdfrwt>
<totfact> 0.27684747E+05</totfact>
</mgrwt>
</event>
<event>
 8    1  0.2676873E-016  0.8043449E+02  0.7818608E-02  0.1327823E+00
          2   -1    0    0  501    0  0.00000000000E+00  0.00000000000E+00  0.56838710269E+02  0.56838710326E+02  0.25500000000E-02 0. -1.
         -1   -1    0    0    0  501 -0.00000000000E+00 -0.00000000000E+00 -0.28456427103E+02  0.28456427549E+02  0.50400000000E-02 0.  1.
         24    2    1    2    0    0  0.00000000000E+00 -0.17763568394E-14  0.28382283166E+02  0.85295137875E+02  0.80434486058E+02 0.  0.
         66    2    3    3    0    0 -0.20723975779E+01  0.13087905168E+02  0.54438052962E+02  0.56063264909E+02  0.19999921251E+01 0.  0.
        -13    1    3    3    0    0  0.20723975779E+01 -0.13087905168E+02 -0.26055769796E+02  0.29231872966E+02  0.10566000000E+00 0.  1.
         13    1    4    4    0    0 -0.17807519337E+01  0.94354090297E+01  0.36523676237E+02  0.37764905811E+02  0.10566000000E+00 0. -1.
        -13    1    4    4    0    0 -0.40241172690E+00  0.13631280174E+01  0.61773381868E+01  0.63396154693E+01  0.10566000000E+00 0.  1.
        -14    1    4    4    0    0  0.11076608273E+00  0.22893681211E+01  0.11737038539E+02  0.11958743629E+02  0.00000000000E+00 0.  1.
<mgrwt>
<rscale>  0 0.80434486E+02</rscale>
<asrwt>0</asrwt>
<pdfrwt beam="1">  1        2 0.87444169E-02 0.80434486E+02</pdfrwt>
<pdfrwt beam="2">  1       -1 0.43779120E-02 0.80434486E+02</pdfrwt>
<totfact> 0.15149121E+05</totfact>
</mgrwt>
</event>
<event>
 8    1  0.2676873E-016  0.7999560E+02  0.7818608E-02  0.1329064E+00
         -1   -1    0    0    0  501 -0.00000000000E+00  0.00000000000E+00  0.35225281429E+03  0.35225281433E+03  0.50400000000E-02 0.  1.
          2   -1    0    0  501    0  0.00000000000E+00 -0.00000000000E+00 -0.45416926798E+01  0.45416933956E+01  0.25500000000E-02 0. -1.
         24    2    1    2    0    0  0.00000000000E+00  0.35527136788E-14  0.34771112161E+03  0.35679450773E+03  0.79995603935E+02 0.  0.
         66    2    3    3    0    0  0.56394519245E+01  0.30803584316E+02  0.28476632647E+03  0.28649000841E+03  0.20000002393E+01 0.  0.
        -13    1    3    3    0    0 -0.56394519245E+01 -0.30803584316E+02  0.62944795145E+02  0.70304499320E+02  0.10566000000E+00 0.  1.
         13    1    4    4    0    0  0.28288731894E+01  0.15336359005E+02  0.14085641332E+03  0.14171713647E+03  0.10566000000E+00 0. -1.
        -13    1    4    4    0    0  0.19655043610E+01  0.12224468214E+02  0.10824375676E+03  0.10894963457E+03  0.10566000000E+00 0.  1.
        -14    1    4    4    0    0  0.84507437411E+00  0.32427570973E+01  0.35666156385E+02  0.35823237369E+02  0.00000000000E+00 0.  1.
<mgrwt>
<rscale>  0 0.79995604E+02</rscale>
<asrwt>0</asrwt>
<pdfrwt beam="1">  1        2 0.69872209E-03 0.79995604E+02</pdfrwt>
<pdfrwt beam="2">  1       -1 0.54192734E-01 0.79995604E+02</pdfrwt>
<totfact> 0.80649370E+04</totfact>
</mgrwt>
</event>
<event>
 8    1  0.2676873E-016  0.8045077E+02  0.7818608E-02  0.1327777E+00
         -1   -1    0    0    0  501 -0.00000000000E+00  0.00000000000E+00  0.35828326015E+01  0.35828361464E+01  0.50400000000E-02 0.  1.
          2   -1    0    0  501    0  0.00000000000E+00 -0.00000000000E+00 -0.45162052332E+03  0.45162052333E+03  0.25500000000E-02 0. -1.
         24    2    1    2    0    0  0.00000000000E+00  0.00000000000E+00 -0.44803769072E+03  0.45520335948E+03  0.80450768622E+02 0.  0.
         66    2    3    3    0    0 -0.95857771027E+01 -0.21296032279E+02 -0.40929797467E+03  0.40996858439E+03  0.20000008693E+01 0.  0.
        -13    1    3    3    0    0  0.95857771027E+01  0.21296032279E+02 -0.38739716054E+02  0.45234775090E+02  0.10566000000E+00 0.  1.
         13    1    4    4    0    0 -0.27310759243E+01 -0.49073345695E+01 -0.90786477380E+02  0.90960081065E+02  0.10566000000E+00 0. -1.
        -13    1    4    4    0    0 -0.23239419572E+01 -0.42764665199E+01 -0.86522861926E+02  0.86659711931E+02  0.10566000000E+00 0.  1.
         14    1    4    4    0    0 -0.45307592212E+01 -0.12112231189E+02 -0.23198863536E+03  0.23234879139E+03  0.00000000000E+00 0. -1.
<mgrwt>
<rscale>  0 0.80450769E+02</rscale>
<asrwt>0</asrwt>
<pdfrwt beam="1">  1        2 0.69480036E-01 0.80450769E+02</pdfrwt>
<pdfrwt beam="2">  1       -1 0.55120565E-03 0.80450769E+02</pdfrwt>
<totfact> 0.29025264E+05</totfact>
</mgrwt>
</event>
<event>
 8    1  0.2676873E-016  0.8051451E+02  0.7818608E-02  0.1327598E+00
          2   -1    0    0  501    0  0.00000000000E+00  0.00000000000E+00  0.15897805452E+03  0.15897805454E+03  0.25500000000E-02 0. -1.
         -1   -1    0    0    0  501 -0.00000000000E+00 -0.00000000000E+00 -0.10194153096E+02  0.10194154341E+02  0.50400000000E-02 0.  1.
         24    2    1    2    0    0  0.00000000000E+00  0.00000000000E+00  0.14878390142E+03  0.16917220888E+03  0.80514513814E+02 0.  0.
         66    2    3    3    0    0 -0.27189909650E+02  0.27555893070E+02  0.97456790738E+02  0.10488300384E+03  0.20000008704E+01 0.  0.
        -13    1    3    3    0    0  0.27189909650E+02 -0.27555893070E+02  0.51327110683E+02  0.64289205041E+02  0.10566000000E+00 0.  1.
         13    1    4    4    0    0 -0.63496696579E+01  0.59030074073E+01  0.20571134867E+02  0.22323677003E+02  0.10566000000E+00 0. -1.
        -13    1    4    4    0    0 -0.31070893948E+00  0.51197454791E+00  0.14918678032E+01  0.16110529354E+01  0.10566000000E+00 0.  1.
         14    1    4    4    0    0 -0.20529531053E+02  0.21140911114E+02  0.75393788068E+02  0.80948273899E+02  0.00000000000E+00 0. -1.
<mgrwt>
<rscale>  0 0.80514514E+02</rscale>
<asrwt>0</asrwt>
<pdfrwt beam="1">  1        2 0.24458161E-01 0.80514514E+02</pdfrwt>
<pdfrwt beam="2">  1       -1 0.15683314E-02 0.80514514E+02</pdfrwt>
<totfact> 0.20067933E+05</totfact>
</mgrwt>
</event>
<event>
 8    1  0.2676873E-016  0.7838214E+02  0.7818608E-02  0.1333706E+00
          2   -1    0    0  501    0  0.00000000000E+00  0.00000000000E+00  0.17581848098E+03  0.17581848100E+03  0.25500000000E-02 0. -1.
         -1   -1    0    0    0  501 -0.00000000000E+00 -0.00000000000E+00 -0.87359406686E+01  0.87359421225E+01  0.50400000000E-02 0.  1.
         24    2    1    2    0    0 -0.44408920985E-15  0.00000000000E+00  0.16708254032E+03  0.18455442313E+03  0.78382139654E+02 0.  0.
         66    2    3    3    0    0  0.36164874867E+01  0.37294032211E+02  0.11044263089E+03  0.11664261028E+03  0.19999986223E+01 0.  0.
        -13    1    3    3    0    0 -0.36164874867E+01 -0.37294032211E+02  0.56639909425E+02  0.67911812846E+02  0.10566000000E+00 0.  1.
         13    1    4    4    0    0  0.13826001727E+01  0.72821728124E+01  0.21476726574E+02  0.22720091823E+02  0.10566000000E+00 0. -1.
        -13    1    4    4    0    0  0.10463776384E+00  0.59712621797E+01  0.17853562886E+02  0.18826252756E+02  0.10566000000E+00 0.  1.
         14    1    4    4    0    0  0.21292495501E+01  0.24040597219E+02  0.71112341431E+02  0.75096265700E+02  0.00000000000E+00 0. -1.
<mgrwt>
<rscale>  0 0.78382140E+02</rscale>
<asrwt>0</asrwt>
<pdfrwt beam="1">  1        2 0.27048997E-01 0.78382140E+02</pdfrwt>
<pdfrwt beam="2">  1       -1 0.13439910E-02 0.78382140E+02</pdfrwt>
<totfact> 0.22276506E+05</totfact>
</mgrwt>
</event>
<event>
 8    1  0.2676873E-016  0.8071822E+02  0.7818608E-02  0.1327026E+00
         -1   -1    0    0    0  501 -0.00000000000E+00  0.00000000000E+00  0.10777908985E+02  0.10777910164E+02  0.50400000000E-02 0.  1.
          2   -1    0    0  501    0  0.00000000000E+00 -0.00000000000E+00 -0.15112926487E+03  0.15112926489E+03  0.25500000000E-02 0. -1.
         24    2    1    2    0    0  0.71054273576E-14  0.00000000000E+00 -0.14035135588E+03  0.16190717505E+03  0.80718215018E+02 0.  0.
         66    2    3    3    0    0 -0.37026967076E+02  0.68261531876E+01 -0.99234643164E+02  0.10615605052E+03  0.19999998659E+01 0.  0.
        -13    1    3    3    0    0  0.37026967076E+02 -0.68261531876E+01 -0.41116712719E+02  0.55751124536E+02  0.10566000000E+00 0.  1.
         13    1    4    4    0    0 -0.12583778121E+02  0.25365446717E+01 -0.33190487180E+02  0.35586586433E+02  0.10566000000E+00 0. -1.
        -13    1    4    4    0    0 -0.80277501577E+01  0.86979861654E+00 -0.22835896940E+02  0.24221698440E+02  0.10566000000E+00 0.  1.
        -14    1    4    4    0    0 -0.16415438797E+02  0.34198098994E+01 -0.43208259044E+02  0.46347765645E+02  0.00000000000E+00 0.  1.
<mgrwt>
<rscale>  0 0.80718215E+02</rscale>
<asrwt>0</asrwt>
<pdfrwt beam="1">  1        2 0.23250655E-01 0.80718215E+02</pdfrwt>
<pdfrwt beam="2">  1       -1 0.16581401E-02 0.80718215E+02</pdfrwt>
<totfact> 0.19607800E+05</totfact>
</mgrwt>
</event>
<event>
 8    1  0.2676873E-016  0.7881408E+02  0.7818608E-02  0.1332451E+00
         -1   -1    0    0    0  501 -0.00000000000E+00  0.00000000000E+00  0.30720964141E+03  0.30720964145E+03  0.50400000000E-02 0.  1.
          2   -1    0    0  501    0  0.00000000000E+00 -0.00000000000E+00 -0.50549019116E+01  0.50549025547E+01  0.25500000000E-02 0. -1.
         24    2    1    2    0    0  0.35527136788E-14  0.35527136788E-14  0.30215473950E+03  0.31226454401E+03  0.78814077689E+02 0.  0.
         66    2    3    3    0    0  0.24558378691E+02  0.30680154041E+02  0.16129424509E+03  0.16602475508E+03  0.19999961286E+01 0.  0.
        -13    1    3    3    0    0 -0.24558378691E+02 -0.30680154041E+02  0.14086049441E+03  0.14623978893E+03  0.10566000000E+00 0.  1.
         13    1    4    4    0    0  0.54067008169E+00  0.36548930418E+00  0.23976073333E+01  0.24870849461E+01  0.10566000000E+00 0. -1.
        -13    1    4    4    0    0  0.23895118410E+01  0.29872781018E+01  0.16619179176E+02  0.17054086836E+02  0.10566000000E+00 0.  1.
         14    1    4    4    0    0  0.21628196769E+02  0.27327386635E+02  0.14227745858E+03  0.14648358330E+03  0.00000000000E+00 0. -1.
<mgrwt>
<rscale>  0 0.78814078E+02</rscale>
<asrwt>0</asrwt>
<pdfrwt beam="1">  1        2 0.77767711E-03 0.78814078E+02</pdfrwt>
<pdfrwt beam="2">  1       -1 0.47263031E-01 0.78814078E+02</pdfrwt>
<totfact> 0.88937589E+04</totfact>
</mgrwt>
</event>
<event>
 8    1  0.2676873E-016  0.8002902E+02  0.7818608E-02  0.1328969E+00
          2   -1    0    0  501    0  0.00000000000E+00  0.00000000000E+00  0.46181524601E+03  0.46181524602E+03  0.25500000000E-02 0. -1.
         -1   -1    0    0    0  501 -0.00000000000E+00 -0.00000000000E+00 -0.34671011448E+01  0.34671048080E+01  0.50400000000E-02 0.  1.
         24    2    1    2    0    0 -0.35527136788E-14  0.00000000000E+00  0.45834814487E+03  0.46528235083E+03  0.80029020286E+02 0.  0.
         66    2    3    3    0    0 -0.21646714241E+02 -0.22168787185E+02  0.37629757370E+03  0.37757634901E+03  0.19999981685E+01 0.  0.
        -13    1    3    3    0    0  0.21646714241E+02  0.22168787185E+02  0.82050571166E+02  0.87706001821E+02  0.10566000000E+00 0.  1.
         13    1    4    4    0    0 -0.10178990299E+02 -0.10545419593E+02  0.17631232775E+03  0.17692050701E+03  0.10566000000E+00 0. -1.
        -13    1    4    4    0    0 -0.71889731607E+01 -0.82086673560E+01  0.13089577188E+03  0.13134982990E+03  0.10566000000E+00 0.  1.
        -14    1    4    4    0    0 -0.42787507814E+01 -0.34147002362E+01  0.69089474067E+02  0.69306012097E+02  0.00000000000E+00 0.  1.
<mgrwt>
<rscale>  0 0.80029020E+02</rscale>
<asrwt>0</asrwt>
<pdfrwt beam="1">  1        2 0.71048468E-01 0.80029020E+02</pdfrwt>
<pdfrwt beam="2">  1       -1 0.53340070E-03 0.80029020E+02</pdfrwt>
<totfact> 0.29646022E+05</totfact>
</mgrwt>
</event>
<event>
 8    1  0.2676873E-016  0.7618153E+02  0.7818608E-02  0.1340251E+00
         -1   -1    0    0    0  501 -0.00000000000E+00  0.00000000000E+00  0.23907602328E+01  0.23907655452E+01  0.50400000000E-02 0.  1.
          2   -1    0    0  501    0  0.00000000000E+00 -0.00000000000E+00 -0.60688008931E+03  0.60688008932E+03  0.25500000000E-02 0. -1.
         24    2    1    2    0    0 -0.71054273576E-14  0.22204460493E-15 -0.60448932908E+03  0.60927085486E+03  0.76181530664E+02 0.  0.
         66    2    3    3    0    0 -0.36153915749E+02  0.11759565383E+01 -0.39722098426E+03  0.39886965138E+03  0.19999898965E+01 0.  0.
        -13    1    3    3    0    0  0.36153915749E+02 -0.11759565383E+01 -0.20726834482E+03  0.21040120348E+03  0.10566000000E+00 0.  1.
         13    1    4    4    0    0 -0.10207838970E+02  0.66018669495E+00 -0.11970526427E+03  0.12014157182E+03  0.10566000000E+00 0. -1.
        -13    1    4    4    0    0 -0.20186100298E+02  0.30039818404E+00 -0.21984942938E+03  0.22077443613E+03  0.10566000000E+00 0.  1.
        -14    1    4    4    0    0 -0.57599764816E+01  0.21537165929E+00 -0.57666290612E+02  0.57953643431E+02  0.00000000000E+00 0.  1.
<mgrwt>
<rscale>  0 0.76181531E+02</rscale>
<asrwt>0</asrwt>
<pdfrwt beam="1">  1        2 0.93366045E-01 0.76181531E+02</pdfrwt>
<pdfrwt beam="2">  1       -1 0.36781016E-03 0.76181531E+02</pdfrwt>
<totfact> 0.36632371E+05</totfact>
</mgrwt>
</event>
<event>
 8    1  0.2676873E-016  0.8109054E+02  0.7818608E-02  0.1325985E+00
         -1   -1    0    0    0  501 -0.00000000000E+00  0.00000000000E+00  0.14805735966E+02  0.14805736824E+02  0.50400000000E-02 0.  1.
          2   -1    0    0  501    0  0.00000000000E+00 -0.00000000000E+00 -0.11103257371E+03  0.11103257374E+03  0.25500000000E-02 0. -1.
         24    2    1    2    0    0  0.00000000000E+00  0.00000000000E+00 -0.96226837747E+02  0.12583831057E+03  0.81090542625E+02 0.  0.
         66    2    3    3    0    0 -0.33321320047E+02 -0.18757133673E+02 -0.68949421636E+02  0.78868011152E+02  0.20000014554E+01 0.  0.
        -13    1    3    3    0    0  0.33321320047E+02  0.18757133673E+02 -0.27277416111E+02  0.46970299414E+02  0.10566000000E+00 0.  1.
         13    1    4    4    0    0 -0.34313573276E+01 -0.15357008114E+01 -0.69932643593E+01  0.79403715610E+01  0.10566000000E+00 0. -1.
        -13    1    4    4    0    0 -0.10637619957E+02 -0.69443105626E+01 -0.22813656195E+02  0.26112381748E+02  0.10566000000E+00 0.  1.
         14    1    4    4    0    0 -0.19252342763E+02 -0.10277122299E+02 -0.39142501081E+02  0.44815257842E+02  0.00000000000E+00 0. -1.
<mgrwt>
<rscale>  0 0.81090543E+02</rscale>
<asrwt>0</asrwt>
<pdfrwt beam="1">  1        2 0.17081934E-01 0.81090543E+02</pdfrwt>
<pdfrwt beam="2">  1       -1 0.22778057E-02 0.81090543E+02</pdfrwt>
<totfact> 0.17613886E+05</totfact>
</mgrwt>
</event>
<event>
 8    1  0.2676873E-016  0.8039919E+02  0.7818608E-02  0.1327922E+00
         -1   -1    0    0    0  501 -0.00000000000E+00  0.00000000000E+00  0.10062377193E+02  0.10062378455E+02  0.50400000000E-02 0.  1.
          2   -1    0    0  501    0  0.00000000000E+00 -0.00000000000E+00 -0.16059895985E+03  0.16059895987E+03  0.25500000000E-02 0. -1.
         24    2    1    2    0    0  0.00000000000E+00 -0.17763568394E-14 -0.15053658265E+03  0.17066133832E+03  0.80399189554E+02 0.  0.
         66    2    3    3    0    0  0.38537923551E+02 -0.10302701321E+02 -0.65204643372E+02  0.76465434845E+02  0.20000006979E+01 0.  0.
        -13    1    3    3    0    0 -0.38537923551E+02  0.10302701321E+02 -0.85331939281E+02  0.94195903475E+02  0.10566000000E+00 0.  1.
         13    1    4    4    0    0  0.20876629295E+02 -0.52170184638E+01 -0.33533917158E+02  0.39844519025E+02  0.10566000000E+00 0. -1.
        -13    1    4    4    0    0  0.56095413843E+01 -0.14782035263E+01 -0.10363901939E+02  0.11877443649E+02  0.10566000000E+00 0.  1.
         14    1    4    4    0    0  0.12051752872E+02 -0.36074793309E+01 -0.21306824275E+02  0.24743472171E+02  0.00000000000E+00 0. -1.
<mgrwt>
<rscale>  0 0.80399190E+02</rscale>
<asrwt>0</asrwt>
<pdfrwt beam="1">  1        2 0.24707530E-01 0.80399190E+02</pdfrwt>
<pdfrwt beam="2">  1       -1 0.15480583E-02 0.80399190E+02</pdfrwt>
<totfact> 0.20211566E+05</totfact>
</mgrwt>
</event>
<event>
 8    1  0.2676873E-016  0.7986486E+02  0.7818608E-02  0.1329435E+00
         -1   -1    0    0    0  501 -0.00000000000E+00  0.00000000000E+00  0.51217508743E+01  0.51217533540E+01  0.50400000000E-02 0.  1.
          2   -1    0    0  501    0  0.00000000000E+00 -0.00000000000E+00 -0.31133853367E+03  0.31133853368E+03  0.25500000000E-02 0. -1.
         24    2    1    2    0    0 -0.35527136788E-14  0.00000000000E+00 -0.30621678279E+03  0.31646028703E+03  0.79864855876E+02 0.  0.
         66    2    3    3    0    0  0.23397586106E+02 -0.26985454684E+02 -0.22374594667E+03  0.22658753379E+03  0.20000046061E+01 0.  0.
        -13    1    3    3    0    0 -0.23397586106E+02  0.26985454684E+02 -0.82470836124E+02  0.89872753241E+02  0.10566000000E+00 0.  1.
         13    1    4    4    0    0  0.36874401629E+01 -0.41891715337E+01 -0.32311655738E+02  0.32790252114E+02  0.10566000000E+00 0. -1.
        -13    1    4    4    0    0  0.14368112617E+01 -0.22788005112E+01 -0.17174018954E+02  0.17384344953E+02  0.10566000000E+00 0.  1.
         14    1    4    4    0    0  0.18273334682E+02 -0.20517482639E+02 -0.17426027198E+03  0.17641293673E+03  0.00000000000E+00 0. -1.
<mgrwt>
<rscale>  0 0.79864856E+02</rscale>
<asrwt>0</asrwt>
<pdfrwt beam="1">  1        2 0.47898221E-01 0.79864856E+02</pdfrwt>
<pdfrwt beam="2">  1       -1 0.78796211E-03 0.79864856E+02</pdfrwt>
<totfact> 0.25953673E+05</totfact>
</mgrwt>
</event>
<event>
 8    1  0.2676873E-016  0.7917753E+02  0.7818608E-02  0.1331402E+00
          2   -1    0    0  501    0  0.00000000000E+00  0.00000000000E+00  0.93079952334E+02  0.93079952369E+02  0.25500000000E-02 0. -1.
         -1   -1    0    0    0  501 -0.00000000000E+00 -0.00000000000E+00 -0.16837891587E+02  0.16837892341E+02  0.50400000000E-02 0.  1.
         24    2    1    2    0    0  0.00000000000E+00  0.00000000000E+00  0.76242060747E+02  0.10991784471E+03  0.79177526855E+02 0.  0.
         66    2    3    3    0    0 -0.32547113008E+02  0.18116804230E+02  0.56652846513E+02  0.67831247806E+02  0.20000000497E+01 0.  0.
        -13    1    3    3    0    0  0.32547113008E+02 -0.18116804230E+02  0.19589214234E+02  0.42086596904E+02  0.10566000000E+00 0.  1.
         13    1    4    4    0    0 -0.13752037836E+02  0.80836304884E+01  0.24462534981E+02  0.29204287498E+02  0.10566000000E+00 0. -1.
        -13    1    4    4    0    0 -0.29749457386E+00  0.32228938636E+00  0.83637704595E+00  0.95029683185E+00  0.10566000000E+00 0. -1.
        -14    1    4    4    0    0 -0.18497580598E+02  0.97108843549E+01  0.31353934486E+02  0.37676663476E+02  0.00000000000E+00 0.  1.
<mgrwt>
<rscale>  0 0.79177527E+02</rscale>
<asrwt>0</asrwt>
<pdfrwt beam="1">  1        2 0.14319993E-01 0.79177527E+02</pdfrwt>
<pdfrwt beam="2">  1       -1 0.25904450E-02 0.79177527E+02</pdfrwt>
<totfact> 0.17866721E+05</totfact>
</mgrwt>
</event>
<event>
 8    1  0.2676873E-016  0.8009706E+02  0.7818608E-02  0.1328776E+00
         -1   -1    0    0    0  501 -0.00000000000E+00  0.00000000000E+00  0.12456462740E+02  0.12456463759E+02  0.50400000000E-02 0.  1.
          2   -1    0    0  501    0  0.00000000000E+00 -0.00000000000E+00 -0.12875923566E+03  0.12875923569E+03  0.25500000000E-02 0. -1.
         24    2    1    2    0    0 -0.17763568394E-14 -0.17763568394E-14 -0.11630277292E+03  0.14121569945E+03  0.80097058503E+02 0.  0.
         66    2    3    3    0    0 -0.13805380234E+02 -0.12161169405E+02 -0.12085417517E+03  0.12226288986E+03  0.20000040663E+01 0.  0.
        -13    1    3    3    0    0  0.13805380234E+02  0.12161169405E+02  0.45514022488E+01  0.18952809585E+02  0.10566000000E+00 0.  1.
         13    1    4    4    0    0 -0.39022387390E+01 -0.34798685641E+01 -0.38170488006E+02  0.38527058946E+02  0.10566000000E+00 0.  1.
        -13    1    4    4    0    0 -0.54469787268E+01 -0.49354160203E+01 -0.42147696975E+02  0.42783962333E+02  0.10566000000E+00 0. -1.
         14    1    4    4    0    0 -0.44561627687E+01 -0.37458848202E+01 -0.40535990193E+02  0.40951868585E+02  0.00000000000E+00 0. -1.
<mgrwt>
<rscale>  0 0.80097059E+02</rscale>
<asrwt>0</asrwt>
<pdfrwt beam="1">  1        2 0.19809112E-01 0.80097059E+02</pdfrwt>
<pdfrwt beam="2">  1       -1 0.19163790E-02 0.80097059E+02</pdfrwt>
<totfact> 0.19028617E+05</totfact>
</mgrwt>
</event>
<event>
 8    1  0.2676873E-016  0.7869711E+02  0.7818608E-02  0.1332790E+00
          2   -1    0    0  501    0  0.00000000000E+00  0.00000000000E+00  0.88246254741E+02  0.88246254778E+02  0.25500000000E-02 0. -1.
         -1   -1    0    0    0  501 -0.00000000000E+00 -0.00000000000E+00 -0.17545320393E+02  0.17545321117E+02  0.50400000000E-02 0.  1.
         24    2    1    2    0    0  0.00000000000E+00 -0.35527136788E-14  0.70700934348E+02  0.10579157590E+03  0.78697111845E+02 0.  0.
         66    2    3    3    0    0 -0.24079621559E+02  0.19237453176E+02  0.68202390788E+02  0.74869712060E+02  0.19999738932E+01 0.  0.
        -13    1    3    3    0    0  0.24079621559E+02 -0.19237453176E+02  0.24985435600E+01  0.30921863836E+02  0.10566000000E+00 0.  1.
         13    1    4    4    0    0 -0.89917448612E+00  0.78988705734E+00  0.21615653836E+01  0.24730477680E+01  0.10566000000E+00 0. -1.
        -13    1    4    4    0    0 -0.11378090045E+02  0.82646532364E+01  0.30316290861E+02  0.33419366866E+02  0.10566000000E+00 0.  1.
        -14    1    4    4    0    0 -0.11802357028E+02  0.10182912882E+02  0.35724534544E+02  0.38977297425E+02  0.00000000000E+00 0.  1.
<mgrwt>
<rscale>  0 0.78697112E+02</rscale>
<asrwt>0</asrwt>
<pdfrwt beam="1">  1        2 0.13576347E-01 0.78697112E+02</pdfrwt>
<pdfrwt beam="2">  1       -1 0.26992801E-02 0.78697112E+02</pdfrwt>
<totfact> 0.17902333E+05</totfact>
</mgrwt>
</event>
<event>
 8    1  0.2676873E-016  0.8023528E+02  0.7818608E-02  0.1328385E+00
          2   -1    0    0  501    0  0.00000000000E+00  0.00000000000E+00  0.10301584026E+03  0.10301584029E+03  0.25500000000E-02 0. -1.
         -1   -1    0    0    0  501 -0.00000000000E+00 -0.00000000000E+00 -0.15623083315E+02  0.15623084128E+02  0.50400000000E-02 0.  1.
         24    2    1    2    0    0 -0.35527136788E-14  0.00000000000E+00  0.87392756940E+02  0.11863892442E+03  0.80235281646E+02 0.  0.
         66    2    3    3    0    0 -0.20979273815E+02 -0.10044153815E+02  0.92009643352E+02  0.94925178194E+02  0.20000074461E+01 0.  0.
        -13    1    3    3    0    0  0.20979273815E+02  0.10044153815E+02 -0.46168864117E+01  0.23713746221E+02  0.10566000000E+00 0.  1.
         13    1    4    4    0    0 -0.61609192755E+01 -0.33550469648E+01  0.29119554821E+02  0.29952844663E+02  0.10566000000E+00 0. -1.
        -13    1    4    4    0    0 -0.34863144344E+01 -0.20287018191E+01  0.13964717604E+02  0.14535973349E+02  0.10566000000E+00 0.  1.
        -14    1    4    4    0    0 -0.11332040105E+02 -0.46604050315E+01  0.48925370927E+02  0.50436360181E+02  0.00000000000E+00 0.  1.
<mgrwt>
<rscale>  0 0.80235282E+02</rscale>
<asrwt>0</asrwt>
<pdfrwt beam="1">  1        2 0.15848591E-01 0.80235282E+02</pdfrwt>
<pdfrwt beam="2">  1       -1 0.24035513E-02 0.80235282E+02</pdfrwt>
<totfact> 0.17734722E+05</totfact>
</mgrwt>
</event>
<event>
 8    1  0.2676873E-016  0.7885723E+02  0.7818608E-02  0.1332326E+00
         -1   -1    0    0    0  501 -0.00000000000E+00  0.00000000000E+00  0.13089800241E+02  0.13089801211E+02  0.50400000000E-02 0.  1.
          2   -1    0    0  501    0  0.00000000000E+00 -0.00000000000E+00 -0.11876541395E+03  0.11876541398E+03  0.25500000000E-02 0. -1.
         24    2    1    2    0    0  0.00000000000E+00  0.35527136788E-14 -0.10567561371E+03  0.13185521519E+03  0.78857228203E+02 0.  0.
         66    2    3    3    0    0 -0.14512714327E+02 -0.25105331374E+02 -0.97479272963E+02  0.10172072156E+03  0.19999993538E+01 0.  0.
        -13    1    3    3    0    0  0.14512714327E+02  0.25105331374E+02 -0.81963407491E+01  0.30134493629E+02  0.10566000000E+00 0.  1.
         13    1    4    4    0    0 -0.44086039795E+01 -0.75544381719E+01 -0.28160116314E+02  0.29487431899E+02  0.10566000000E+00 0.  1.
        -13    1    4    4    0    0 -0.58867972646E+01 -0.97418154591E+01 -0.36359010617E+02  0.38099162295E+02  0.10566000000E+00 0. -1.
        -14    1    4    4    0    0 -0.42173130831E+01 -0.78090777433E+01 -0.32960146031E+02  0.34134127369E+02  0.00000000000E+00 0.  1.
<mgrwt>
<rscale>  0 0.78857228E+02</rscale>
<asrwt>0</asrwt>
<pdfrwt beam="1">  1        2 0.18271601E-01 0.78857228E+02</pdfrwt>
<pdfrwt beam="2">  1       -1 0.20138156E-02 0.78857228E+02</pdfrwt>
<totfact> 0.19357200E+05</totfact>
</mgrwt>
</event>
<event>
 8    1  0.2676873E-016  0.8149450E+02  0.7818608E-02  0.1324863E+00
          2   -1    0    0  501    0  0.00000000000E+00  0.00000000000E+00  0.86113968481E+02  0.86113968519E+02  0.25500000000E-02 0. -1.
         -1   -1    0    0    0  501 -0.00000000000E+00 -0.00000000000E+00 -0.19280707792E+02  0.19280708450E+02  0.50400000000E-02 0.  1.
         24    2    1    2    0    0 -0.35527136788E-14 -0.35527136788E-14  0.66833260690E+02  0.10539467697E+03  0.81494497968E+02 0.  0.
         66    2    3    3    0    0  0.26538540532E+02  0.23170262109E+02  0.59851733641E+02  0.69479386859E+02  0.19999996749E+01 0.  0.
        -13    1    3    3    0    0 -0.26538540532E+02 -0.23170262109E+02  0.69815270484E+01  0.35915290110E+02  0.10566000000E+00 0.  1.
         13    1    4    4    0    0  0.83910248237E+01  0.64960404677E+01  0.18708186433E+02  0.21508492346E+02  0.10566000000E+00 0. -1.
        -13    1    4    4    0    0  0.34839127860E+01  0.26871348752E+01  0.74242488248E+01  0.86306996695E+01  0.10566000000E+00 0. -1.
         14    1    4    4    0    0  0.14663602922E+02  0.13987086766E+02  0.33719298383E+02  0.39340194843E+02  0.00000000000E+00 0. -1.
<mgrwt>
<rscale>  0 0.81494498E+02</rscale>
<asrwt>0</asrwt>
<pdfrwt beam="1">  1        2 0.13248303E-01 0.81494498E+02</pdfrwt>
<pdfrwt beam="2">  1       -1 0.29662628E-02 0.81494498E+02</pdfrwt>
<totfact> 0.16191686E+05</totfact>
</mgrwt>
</event>
<event>
 8    1  0.2676873E-016  0.8130889E+02  0.7818608E-02  0.1325378E+00
         -1   -1    0    0    0  501 -0.00000000000E+00  0.00000000000E+00  0.81194947688E+02  0.81194947844E+02  0.50400000000E-02 0.  1.
          2   -1    0    0  501    0  0.00000000000E+00 -0.00000000000E+00 -0.20355746516E+02  0.20355746676E+02  0.25500000000E-02 0. -1.
         24    2    1    2    0    0  0.00000000000E+00  0.35527136788E-14  0.60839201172E+02  0.10155069452E+03  0.81308887326E+02 0.  0.
         66    2    3    3    0    0  0.31121356930E+02 -0.26112561162E+02  0.29674048171E+02  0.50348325109E+02  0.19999997065E+01 0.  0.
        -13    1    3    3    0    0 -0.31121356930E+02  0.26112561162E+02  0.31165153001E+02  0.51202369410E+02  0.10566000000E+00 0.  1.
         13    1    4    4    0    0  0.16390268123E+02 -0.14815693343E+02  0.15739760083E+02  0.27127419153E+02  0.10566000000E+00 0. -1.
        -13    1    4    4    0    0  0.10174141476E+02 -0.78300153607E+01  0.92666955793E+01  0.15833670021E+02  0.10566000000E+00 0.  1.
        -14    1    4    4    0    0  0.45569473310E+01 -0.34668524582E+01  0.46675925085E+01  0.73872359357E+01  0.00000000000E+00 0.  1.
<mgrwt>
<rscale>  0 0.81308887E+02</rscale>
<asrwt>0</asrwt>
<pdfrwt beam="1">  1        2 0.31316533E-02 0.81308887E+02</pdfrwt>
<pdfrwt beam="2">  1       -1 0.12491531E-01 0.81308887E+02</pdfrwt>
<totfact> 0.11892317E+05</totfact>
</mgrwt>
</event>
<event>
 8    1  0.2676873E-016  0.8046038E+02  0.7818608E-02  0.1327750E+00
          2   -1    0    0  501    0  0.00000000000E+00  0.00000000000E+00  0.32332066088E+03  0.32332066089E+03  0.25500000000E-02 0. -1.
         -1   -1    0    0    0  501 -0.00000000000E+00 -0.00000000000E+00 -0.50057672230E+01  0.50057697602E+01  0.50400000000E-02 0.  1.
         24    2    1    2    0    0 -0.35527136788E-14  0.00000000000E+00  0.31831489366E+03  0.32832643065E+03  0.80460384909E+02 0.  0.
         66    2    3    3    0    0  0.24867574886E+02  0.19194240808E+02  0.26164909405E+03  0.26353569698E+03  0.20000007178E+01 0.  0.
        -13    1    3    3    0    0 -0.24867574886E+02 -0.19194240808E+02  0.56665799610E+02  0.64790733676E+02  0.10566000000E+00 0.  1.
         13    1    4    4    0    0  0.77688982072E+01  0.69376280213E+01  0.87647937983E+02  0.88264707888E+02  0.10566000000E+00 0. -1.
        -13    1    4    4    0    0  0.13950939955E+02  0.98011224538E+01  0.13808279637E+03  0.13913145059E+03  0.10566000000E+00 0.  1.
         14    1    4    4    0    0  0.31477367239E+01  0.24554903325E+01  0.35918359700E+02  0.36139538498E+02  0.00000000000E+00 0. -1.
<mgrwt>
<rscale>  0 0.80460385E+02</rscale>
<asrwt>0</asrwt>
<pdfrwt beam="1">  1        2 0.49741658E-01 0.80460385E+02</pdfrwt>
<pdfrwt beam="2">  1       -1 0.77011796E-03 0.80460385E+02</pdfrwt>
<totfact> 0.25802721E+05</totfact>
</mgrwt>
</event>
<event>
 8    1  0.2676873E-016  0.8047812E+02  0.7818608E-02  0.1327700E+00
          2   -1    0    0  501    0  0.00000000000E+00  0.00000000000E+00  0.43544496630E+02  0.43544496704E+02  0.25500000000E-02 0. -1.
         -1   -1    0    0    0  501 -0.00000000000E+00 -0.00000000000E+00 -0.37184536431E+02  0.37184536772E+02  0.50400000000E-02 0.  1.
         24    2    1    2    0    0  0.00000000000E+00  0.35527136788E-14  0.63599601990E+01  0.80729033477E+02  0.80478119712E+02 0.  0.
         66    2    3    3    0    0  0.31629657991E+02  0.19103297305E+02 -0.12735923821E+02  0.39135341850E+02  0.19999984063E+01 0.  0.
        -13    1    3    3    0    0 -0.31629657991E+02 -0.19103297305E+02  0.19095884020E+02  0.41593691626E+02  0.10566000000E+00 0.  1.
         13    1    4    4    0    0  0.30102346367E+02  0.18464482360E+02 -0.11946600008E+02  0.37280300179E+02  0.10566000000E+00 0. -1.
        -13    1    4    4    0    0  0.61241794456E+00  0.26156730305E+00 -0.44207273647E+00  0.80626641551E+00  0.10566000000E+00 0.  1.
         14    1    4    4    0    0  0.91489367922E+00  0.37724764172E+00 -0.34725107689E+00  0.10487752561E+01  0.00000000000E+00 0. -1.
<mgrwt>
<rscale>  0 0.80478120E+02</rscale>
<asrwt>0</asrwt>
<pdfrwt beam="1">  1        2 0.66991533E-02 0.80478120E+02</pdfrwt>
<pdfrwt beam="2">  1       -1 0.57206980E-02 0.80478120E+02</pdfrwt>
<totfact> 0.14272241E+05</totfact>
</mgrwt>
</event>
<event>
 8    1  0.2676873E-016  0.8394786E+02  0.7818608E-02  0.1318207E+00
         -1   -1    0    0    0  501 -0.00000000000E+00  0.00000000000E+00  0.32529863345E+02  0.32529863735E+02  0.50400000000E-02 0.  1.
          2   -1    0    0  501    0  0.00000000000E+00 -0.00000000000E+00 -0.54159792641E+02  0.54159792701E+02  0.25500000000E-02 0. -1.
         24    2    1    2    0    0 -0.17763568394E-14  0.00000000000E+00 -0.21629929296E+02  0.86689656436E+02  0.83947856981E+02 0.  0.
         66    2    3    3    0    0  0.15332130802E+02  0.15838138628E+02  0.26036148310E+02  0.34173116293E+02  0.19999970602E+01 0.  0.
        -13    1    3    3    0    0 -0.15332130802E+02 -0.15838138628E+02 -0.47666077606E+02  0.52516540143E+02  0.10566000000E+00 0.  1.
         13    1    4    4    0    0  0.42429063029E+01  0.49620056944E+01  0.71116389413E+01  0.96545495428E+01  0.10566000000E+00 0. -1.
        -13    1    4    4    0    0  0.82056511668E+01  0.84521874755E+01  0.15080441851E+02  0.19136433175E+02  0.10566000000E+00 0.  1.
        -14    1    4    4    0    0  0.28835733326E+01  0.24239454579E+01  0.38440675177E+01  0.53821335758E+01  0.00000000000E+00 0.  1.
<mgrwt>
<rscale>  0 0.83947857E+02</rscale>
<asrwt>0</asrwt>
<pdfrwt beam="1">  1        2 0.83322758E-02 0.83947857E+02</pdfrwt>
<pdfrwt beam="2">  1       -1 0.50045944E-02 0.83947857E+02</pdfrwt>
<totfact> 0.13327819E+05</totfact>
</mgrwt>
</event>
<event>
 8    1  0.2676873E-016  0.8105552E+02  0.7818608E-02  0.1326082E+00
         -1   -1    0    0    0  501 -0.00000000000E+00  0.00000000000E+00  0.41600231745E+01  0.41600262275E+01  0.50400000000E-02 0.  1.
          2   -1    0    0  501    0  0.00000000000E+00 -0.00000000000E+00 -0.39482918613E+03  0.39482918614E+03  0.25500000000E-02 0. -1.
         24    2    1    2    0    0  0.00000000000E+00  0.00000000000E+00 -0.39066916296E+03  0.39898921237E+03  0.81055516160E+02 0.  0.
         66    2    3    3    0    0  0.32379362406E+02  0.24320395854E+02 -0.19167397848E+03  0.19591533572E+03  0.19999956641E+01 0.  0.
        -13    1    3    3    0    0 -0.32379362406E+02 -0.24320395854E+02 -0.19899518448E+03  0.20307387664E+03  0.10566000000E+00 0.  1.
         13    1    4    4    0    0  0.44327199252E+01  0.31394830267E+01 -0.26673680442E+02  0.27221347358E+02  0.10566000000E+00 0. -1.
        -13    1    4    4    0    0  0.26357143954E+02  0.19606171601E+02 -0.15580718544E+03  0.15923250673E+03  0.10566000000E+00 0.  1.
        -14    1    4    4    0    0  0.15894985269E+01  0.15747412263E+01 -0.91931125994E+01  0.94614816367E+01  0.00000000000E+00 0.  1.
<mgrwt>
<rscale>  0 0.81055516E+02</rscale>
<asrwt>0</asrwt>
<pdfrwt beam="1">  1        2 0.60742922E-01 0.81055516E+02</pdfrwt>
<pdfrwt beam="2">  1       -1 0.64000411E-03 0.81055516E+02</pdfrwt>
<totfact> 0.27177743E+05</totfact>
</mgrwt>
</event>
<event>
 8    1  0.2676873E-016  0.7955780E+02  0.7818608E-02  0.1330311E+00
         -1   -1    0    0    0  501 -0.00000000000E+00  0.00000000000E+00  0.36149711717E+01  0.36149746851E+01  0.50400000000E-02 0.  1.
          2   -1    0    0  501    0  0.00000000000E+00 -0.00000000000E+00 -0.43772415172E+03  0.43772415172E+03  0.25500000000E-02 0. -1.
         24    2    1    2    0    0  0.88817841970E-15  0.00000000000E+00 -0.43410918055E+03  0.44133912641E+03  0.79557802045E+02 0.  0.
         66    2    3    3    0    0  0.32579008351E+01 -0.18961724937E+02 -0.41017362038E+03  0.41062946775E+03  0.20000000984E+01 0.  0.
        -13    1    3    3    0    0 -0.32579008351E+01  0.18961724937E+02 -0.23935560168E+02  0.30709658660E+02  0.10566000000E+00 0.  1.
         13    1    4    4    0    0  0.17608314770E+01 -0.98169233104E+01 -0.20168190954E+03  0.20192839402E+03  0.10566000000E+00 0. -1.
        -13    1    4    4    0    0  0.72908803713E+00 -0.16894721623E+01 -0.37832286940E+02  0.37877156502E+02  0.10566000000E+00 0.  1.
        -14    1    4    4    0    0  0.76798132090E+00 -0.74553294641E+01 -0.17065942390E+03  0.17082391723E+03  0.00000000000E+00 0.  1.
<mgrwt>
<rscale>  0 0.79557802E+02</rscale>
<asrwt>0</asrwt>
<pdfrwt beam="1">  1        2 0.67342135E-01 0.79557802E+02</pdfrwt>
<pdfrwt beam="2">  1       -1 0.55615003E-03 0.79557802E+02</pdfrwt>
<totfact> 0.29569656E+05</totfact>
</mgrwt>
</event>
<event>
 8    1  0.2676873E-016  0.8047757E+02  0.7818608E-02  0.1327702E+00
         -1   -1    0    0    0  501 -0.00000000000E+00  0.00000000000E+00  0.41279610000E+01  0.41279640768E+01  0.50400000000E-02 0.  1.
          2   -1    0    0  501    0  0.00000000000E+00 -0.00000000000E+00 -0.39224192880E+03  0.39224192881E+03  0.25500000000E-02 0. -1.
         24    2    1    2    0    0  0.00000000000E+00  0.00000000000E+00 -0.38811396780E+03  0.39636989288E+03  0.80477574418E+02 0.  0.
         66    2    3    3    0    0 -0.91896159881E+01  0.17257120369E+02 -0.36725426800E+03  0.36777976373E+03  0.19999994516E+01 0.  0.
        -13    1    3    3    0    0  0.91896159881E+01 -0.17257120369E+02 -0.20859699798E+02  0.28590129156E+02  0.10566000000E+00 0.  1.
         13    1    4    4    0    0 -0.15305935635E+01  0.29558610886E+01 -0.54721901923E+02  0.54823147899E+02  0.10566000000E+00 0. -1.
        -13    1    4    4    0    0 -0.56469105200E+01  0.90658850243E+01 -0.20471516364E+03  0.20499362736E+03  0.10566000000E+00 0.  1.
         14    1    4    4    0    0 -0.20121119046E+01  0.52353742562E+01 -0.10781720244E+03  0.10796298847E+03  0.00000000000E+00 0. -1.
<mgrwt>
<rscale>  0 0.80477574E+02</rscale>
<asrwt>0</asrwt>
<pdfrwt beam="1">  1        2 0.60344883E-01 0.80477574E+02</pdfrwt>
<pdfrwt beam="2">  1       -1 0.63507147E-03 0.80477574E+02</pdfrwt>
<totfact> 0.27627228E+05</totfact>
</mgrwt>
</event>
<event>
 8    1  0.2676873E-016  0.8080279E+02  0.7818608E-02  0.1326789E+00
          2   -1    0    0  501    0  0.00000000000E+00  0.00000000000E+00  0.87120168717E+03  0.87120168717E+03  0.25500000000E-02 0. -1.
         -1   -1    0    0    0  501 -0.00000000000E+00 -0.00000000000E+00 -0.18735843945E+01  0.18735911734E+01  0.50400000000E-02 0.  1.
         24    2    1    2    0    0  0.35527136788E-14  0.00000000000E+00  0.86932810278E+03  0.87307527835E+03  0.80802793179E+02 0.  0.
         66    2    3    3    0    0  0.24445209834E+02  0.21115836623E+02  0.69667445679E+03  0.69742579933E+03  0.19999995234E+01 0.  0.
        -13    1    3    3    0    0 -0.24445209834E+02 -0.21115836623E+02  0.17265364599E+03  0.17564947901E+03  0.10566000000E+00 0.  1.
         13    1    4    4    0    0  0.63460678785E+01  0.56964113097E+01  0.19812654339E+03  0.19831000993E+03  0.10566000000E+00 0. -1.
        -13    1    4    4    0    0  0.17223463959E+02  0.14954292445E+02  0.47689889138E+03  0.47744407247E+03  0.10566000000E+00 0.  1.
         14    1    4    4    0    0  0.87567799714E+00  0.46513286855E+00  0.21649022017E+02  0.21671716933E+02  0.00000000000E+00 0. -1.
<mgrwt>
<rscale>  0 0.80802793E+02</rscale>
<asrwt>0</asrwt>
<pdfrwt beam="1">  1        2 0.13403123E+00 0.80802793E+02</pdfrwt>
<pdfrwt beam="2">  1       -1 0.28824384E-03 0.80802793E+02</pdfrwt>
<totfact> 0.33919685E+05</totfact>
</mgrwt>
</event>
<event>
 8    1  0.2676873E-016  0.7890668E+02  0.7818608E-02  0.1332183E+00
         -1   -1    0    0    0  501 -0.00000000000E+00  0.00000000000E+00  0.91815933275E+01  0.91815947108E+01  0.50400000000E-02 0.  1.
          2   -1    0    0  501    0  0.00000000000E+00 -0.00000000000E+00 -0.16953115218E+03  0.16953115220E+03  0.25500000000E-02 0. -1.
         24    2    1    2    0    0  0.00000000000E+00  0.00000000000E+00 -0.16034955886E+03  0.17871274691E+03  0.78906684660E+02 0.  0.
         66    2    3    3    0    0 -0.18385858184E+02 -0.26559479010E+02 -0.13142983672E+03  0.13535600351E+03  0.19999995653E+01 0.  0.
        -13    1    3    3    0    0  0.18385858184E+02  0.26559479010E+02 -0.28919722133E+02  0.43356743406E+02  0.10566000000E+00 0.  1.
         13    1    4    4    0    0 -0.23131506332E+01 -0.36750109137E+01 -0.16222404902E+02  0.16793866616E+02  0.10566000000E+00 0. -1.
        -13    1    4    4    0    0 -0.42838585341E+01 -0.62382771333E+01 -0.28507244012E+02  0.29494773617E+02  0.10566000000E+00 0.  1.
        -14    1    4    4    0    0 -0.11788849016E+02 -0.16646190963E+02 -0.86700187809E+02  0.89067363275E+02  0.00000000000E+00 0.  1.
<mgrwt>
<rscale>  0 0.78906685E+02</rscale>
<asrwt>0</asrwt>
<pdfrwt beam="1">  1        2 0.26081713E-01 0.78906685E+02</pdfrwt>
<pdfrwt beam="2">  1       -1 0.14125531E-02 0.78906685E+02</pdfrwt>
<totfact> 0.21623000E+05</totfact>
</mgrwt>
</event>
<event>
 8    1  0.2676873E-016  0.7844820E+02  0.7818608E-02  0.1333514E+00
          2   -1    0    0  501    0  0.00000000000E+00  0.00000000000E+00  0.27942053162E+03  0.27942053163E+03  0.25500000000E-02 0. -1.
         -1   -1    0    0    0  501 -0.00000000000E+00 -0.00000000000E+00 -0.55061443380E+01  0.55061466446E+01  0.50400000000E-02 0.  1.
         24    2    1    2    0    0  0.00000000000E+00  0.00000000000E+00  0.27391438728E+03  0.28492667828E+03  0.78448202232E+02 0.  0.
         66    2    3    3    0    0 -0.34178010006E+02  0.18443544452E+02  0.15634177434E+03  0.16110571407E+03  0.20000002662E+01 0.  0.
        -13    1    3    3    0    0  0.34178010006E+02 -0.18443544452E+02  0.11757261294E+03  0.12382096421E+03  0.10566000000E+00 0.  1.
         13    1    4    4    0    0 -0.92362449734E+01  0.46519288553E+01  0.42985357064E+02  0.44211997798E+02  0.10566000000E+00 0. -1.
        -13    1    4    4    0    0 -0.24262996684E+02  0.13638924948E+02  0.11009798704E+03  0.11356183864E+03  0.10566000000E+00 0.  1.
        -14    1    4    4    0    0 -0.67876834790E+00  0.15269064838E+00  0.32584302445E+01  0.33318776331E+01  0.00000000000E+00 0.  1.
<mgrwt>
<rscale>  0 0.78448202E+02</rscale>
<asrwt>0</asrwt>
<pdfrwt beam="1">  1        2 0.42987783E-01 0.78448202E+02</pdfrwt>
<pdfrwt beam="2">  1       -1 0.84709913E-03 0.78448202E+02</pdfrwt>
<totfact> 0.26155901E+05</totfact>
</mgrwt>
</event>
<event>
 8    1  0.2676873E-016  0.7890915E+02  0.7818608E-02  0.1332176E+00
          2   -1    0    0  501    0  0.00000000000E+00  0.00000000000E+00  0.13634764277E+03  0.13634764279E+03  0.25500000000E-02 0. -1.
         -1   -1    0    0    0  501 -0.00000000000E+00 -0.00000000000E+00 -0.11416870257E+02  0.11416871370E+02  0.50400000000E-02 0.  1.
         24    2    1    2    0    0  0.00000000000E+00  0.00000000000E+00  0.12493077251E+03  0.14776451416E+03  0.78909148554E+02 0.  0.
         66    2    3    3    0    0 -0.21091953574E+02 -0.18766815401E+02  0.11404739810E+03  0.11750690572E+03  0.20000034938E+01 0.  0.
        -13    1    3    3    0    0  0.21091953574E+02  0.18766815401E+02  0.10883374416E+02  0.30257608441E+02  0.10566000000E+00 0.  1.
         13    1    4    4    0    0 -0.14084283562E+02 -0.12958786382E+02  0.74306791726E+02  0.76732050987E+02  0.10566000000E+00 0. -1.
        -13    1    4    4    0    0 -0.54629619616E+01 -0.41868150817E+01  0.29572871255E+02  0.30363452575E+02  0.10566000000E+00 0.  1.
        -14    1    4    4    0    0 -0.15447080500E+01 -0.16212139381E+01  0.10167735116E+02  0.10411402162E+02  0.00000000000E+00 0.  1.
<mgrwt>
<rscale>  0 0.78909149E+02</rscale>
<asrwt>0</asrwt>
<pdfrwt beam="1">  1        2 0.20976562E-01 0.78909149E+02</pdfrwt>
<pdfrwt beam="2">  1       -1 0.17564416E-02 0.78909149E+02</pdfrwt>
<totfact> 0.20153958E+05</totfact>
</mgrwt>
</event>
<event>
 8    1  0.2676873E-016  0.9004160E+02  0.7818608E-02  0.1302751E+00
         -1   -1    0    0    0  501 -0.00000000000E+00  0.00000000000E+00  0.10799266148E+02  0.10799267324E+02  0.50400000000E-02 0.  1.
          2   -1    0    0  501    0  0.00000000000E+00 -0.00000000000E+00 -0.18768610041E+03  0.18768610043E+03  0.25500000000E-02 0. -1.
         24    2    1    2    0    0 -0.71054273576E-14  0.00000000000E+00 -0.17688683426E+03  0.19848536775E+03  0.90041596368E+02 0.  0.
         66    2    3    3    0    0 -0.41808837959E+02  0.14254684506E+02 -0.10741019581E+03  0.11615560754E+03  0.20000093738E+01 0.  0.
        -13    1    3    3    0    0  0.41808837959E+02 -0.14254684506E+02 -0.69476638454E+02  0.82329760213E+02  0.10566000000E+00 0.  1.
         13    1    4    4    0    0 -0.29923127448E+02  0.99773467581E+01 -0.76008988424E+02  0.82294097539E+02  0.10566000000E+00 0. -1.
        -13    1    4    4    0    0 -0.10182811489E+02  0.32944915934E+01 -0.26756435038E+02  0.28817725528E+02  0.10566000000E+00 0.  1.
        -14    1    4    4    0    0 -0.17028990216E+01  0.98284615396E+00 -0.46447723472E+01  0.50437844718E+01  0.00000000000E+00 0.  1.
<mgrwt>
<rscale>  0 0.90041596E+02</rscale>
<asrwt>0</asrwt>
<pdfrwt beam="1">  1        2 0.28874782E-01 0.90041596E+02</pdfrwt>
<pdfrwt beam="2">  1       -1 0.16614258E-02 0.90041596E+02</pdfrwt>
<totfact> 0.15759392E+05</totfact>
</mgrwt>
</event>
<event>
 8    1  0.2676873E-016  0.7853688E+02  0.7818608E-02  0.1333256E+00
         -1   -1    0    0    0  501 -0.00000000000E+00  0.00000000000E+00  0.21704867261E+01  0.21704925776E+01  0.50400000000E-02 0.  1.
          2   -1    0    0  501    0  0.00000000000E+00 -0.00000000000E+00 -0.71044355444E+03  0.71044355444E+03  0.25500000000E-02 0. -1.
         24    2    1    2    0    0  0.00000000000E+00  0.00000000000E+00 -0.70827306771E+03  0.71261404702E+03  0.78536880282E+02 0.  0.
         66    2    3    3    0    0  0.27629375401E+02  0.16575203869E+01 -0.60678123569E+03  0.60741550668E+03  0.20000022699E+01 0.  0.
        -13    1    3    3    0    0 -0.27629375401E+02 -0.16575203869E+01 -0.10149183203E+03  0.10519854035E+03  0.10566000000E+00 0.  1.
         13    1    4    4    0    0  0.56921662540E+01  0.64530108997E+00 -0.11284694772E+03  0.11299230922E+03  0.10566000000E+00 0. -1.
        -13    1    4    4    0    0  0.35015703085E+01  0.16910145205E+00 -0.86926164196E+02  0.86996889460E+02  0.10566000000E+00 0.  1.
         14    1    4    4    0    0  0.18435638838E+02  0.84311784491E+00 -0.40700812377E+03  0.40742630799E+03  0.00000000000E+00 0. -1.
<mgrwt>
<rscale>  0 0.78536880E+02</rscale>
<asrwt>0</asrwt>
<pdfrwt beam="1">  1        2 0.10929882E+00 0.78536880E+02</pdfrwt>
<pdfrwt beam="2">  1       -1 0.33392205E-03 0.78536880E+02</pdfrwt>
<totfact> 0.35211910E+05</totfact>
</mgrwt>
</event>
<event>
 8    1  0.2676873E-016  0.7044708E+02  0.7818608E-02  0.1358579E+00
          2   -1    0    0  501    0  0.00000000000E+00  0.00000000000E+00  0.13008357908E+03  0.13008357910E+03  0.25500000000E-02 0. -1.
         -1   -1    0    0    0  501 -0.00000000000E+00 -0.00000000000E+00 -0.95376961901E+01  0.95376975218E+01  0.50400000000E-02 0.  1.
         24    2    1    2    0    0  0.00000000000E+00  0.00000000000E+00  0.12054588289E+03  0.13962127663E+03  0.70447079465E+02 0.  0.
         66    2    3    3    0    0  0.84708483344E+01 -0.90548488753E+01  0.12560331120E+03  0.12622970074E+03  0.20000008883E+01 0.  0.
        -13    1    3    3    0    0 -0.84708483344E+01  0.90548488753E+01 -0.50574283118E+01  0.13391575890E+02  0.10566000000E+00 0.  1.
         13    1    4    4    0    0  0.40183368666E+00 -0.80203677226E+00  0.74537498496E+01  0.75082810385E+01  0.10566000000E+00 0. -1.
        -13    1    4    4    0    0  0.45010930502E+01 -0.43417973021E+01  0.71250273309E+02  0.71524287155E+02  0.10566000000E+00 0.  1.
         14    1    4    4    0    0  0.35679215975E+01 -0.39110148010E+01  0.46899288043E+02  0.47197132543E+02  0.00000000000E+00 0. -1.
<mgrwt>
<rscale>  0 0.70447079E+02</rscale>
<asrwt>0</asrwt>
<pdfrwt beam="1">  1        2 0.20012859E-01 0.70447079E+02</pdfrwt>
<pdfrwt beam="2">  1       -1 0.14673380E-02 0.70447079E+02</pdfrwt>
<totfact> 0.26790813E+05</totfact>
</mgrwt>
</event>
<event>
 8    1  0.2676873E-016  0.8236412E+02  0.7818608E-02  0.1322473E+00
         -1   -1    0    0    0  501 -0.00000000000E+00  0.00000000000E+00  0.87075551498E+01  0.87075566083E+01  0.50400000000E-02 0.  1.
          2   -1    0    0  501    0  0.00000000000E+00 -0.00000000000E+00 -0.19476901958E+03  0.19476901960E+03  0.25500000000E-02 0. -1.
         24    2    1    2    0    0  0.44408920985E-15  0.00000000000E+00 -0.18606146443E+03  0.20347657621E+03  0.82364121548E+02 0.  0.
         66    2    3    3    0    0 -0.22731720392E+01  0.35514958100E+02 -0.42007534338E+02  0.55091854960E+02  0.19999954526E+01 0.  0.
        -13    1    3    3    0    0  0.22731720392E+01 -0.35514958100E+02 -0.14405393010E+03  0.14838472125E+03  0.10566000000E+00 0.  1.
         13    1    4    4    0    0 -0.63208635216E+00  0.57995080060E+01 -0.77748082040E+01  0.97207321182E+01  0.10566000000E+00 0. -1.
        -13    1    4    4    0    0 -0.10167594398E+01  0.24585289994E+02 -0.28076460986E+02  0.37333217239E+02  0.10566000000E+00 0.  1.
        -14    1    4    4    0    0 -0.62432624731E+00  0.51301600995E+01 -0.61562651484E+01  0.80379056033E+01  0.00000000000E+00 0.  1.
<mgrwt>
<rscale>  0 0.82364122E+02</rscale>
<asrwt>0</asrwt>
<pdfrwt beam="1">  1        2 0.29964461E-01 0.82364122E+02</pdfrwt>
<pdfrwt beam="2">  1       -1 0.13396241E-02 0.82364122E+02</pdfrwt>
<totfact> 0.20237177E+05</totfact>
</mgrwt>
</event>
<event>
 8    1  0.2676873E-016  0.8100082E+02  0.7818608E-02  0.1326235E+00
         -1   -1    0    0    0  501 -0.00000000000E+00  0.00000000000E+00  0.38863608187E+01  0.38863640867E+01  0.50400000000E-02 0.  1.
          2   -1    0    0  501    0  0.00000000000E+00 -0.00000000000E+00 -0.42206135509E+03  0.42206135510E+03  0.25500000000E-02 0. -1.
         24    2    1    2    0    0  0.00000000000E+00 -0.17763568394E-14 -0.41817499428E+03  0.42594771919E+03  0.81000824963E+02 0.  0.
         66    2    3    3    0    0 -0.35272427908E+02  0.11903349747E+02 -0.29276526237E+03  0.29512934920E+03  0.20000007992E+01 0.  0.
        -13    1    3    3    0    0  0.35272427908E+02 -0.11903349747E+02 -0.12540973190E+03  0.13081836998E+03  0.10566000000E+00 0.  1.
         13    1    4    4    0    0 -0.27310607339E+02  0.94368714308E+01 -0.22405050906E+03  0.22590609905E+03  0.10566000000E+00 0. -1.
        -13    1    4    4    0    0 -0.61679168858E+01  0.20989550049E+01 -0.51180537788E+02  0.51593676194E+02  0.10566000000E+00 0.  1.
        -14    1    4    4    0    0 -0.17939036832E+01  0.36752331129E+00 -0.17534215528E+02  0.17629573960E+02  0.00000000000E+00 0.  1.
<mgrwt>
<rscale>  0 0.81000825E+02</rscale>
<asrwt>0</asrwt>
<pdfrwt beam="1">  1        2 0.64932480E-01 0.81000825E+02</pdfrwt>
<pdfrwt beam="2">  1       -1 0.59790225E-03 0.81000825E+02</pdfrwt>
<totfact> 0.27864715E+05</totfact>
</mgrwt>
</event>
<event>
 8    1  0.2676873E-016  0.8056186E+02  0.7818608E-02  0.1327464E+00
         -1   -1    0    0    0  501 -0.00000000000E+00  0.00000000000E+00  0.57651155734E+00  0.57653358736E+00  0.50400000000E-02 0.  1.
          2   -1    0    0  501    0  0.00000000000E+00 -0.00000000000E+00 -0.28143796702E+04  0.28143796702E+04  0.25500000000E-02 0. -1.
         24    2    1    2    0    0  0.17763568394E-14 -0.22204460493E-15 -0.28138031587E+04  0.28149562038E+04  0.80561862318E+02 0.  0.
         66    2    3    3    0    0  0.10913355171E+02 -0.17091533983E+01 -0.27603814856E+04  0.27604043125E+04  0.20000011944E+01 0.  0.
        -13    1    3    3    0    0 -0.10913355171E+02  0.17091533983E+01 -0.53421673081E+02  0.54551891307E+02  0.10566000000E+00 0.  1.
         13    1    4    4    0    0  0.31384808542E+01 -0.12325074504E+01 -0.83772068051E+03  0.83772747290E+03  0.10566000000E+00 0. -1.
        -13    1    4    4    0    0  0.34891606448E+01  0.27266595747E+00 -0.86332675003E+03  0.86333385030E+03  0.10566000000E+00 0.  1.
        -14    1    4    4    0    0  0.42857136723E+01 -0.74931190541E+00 -0.10593340551E+04  0.10593429893E+04  0.00000000000E+00 0.  1.
<mgrwt>
<rscale>  0 0.80561862E+02</rscale>
<asrwt>0</asrwt>
<pdfrwt beam="1">  1        2 0.43297049E+00 0.80561862E+02</pdfrwt>
<pdfrwt beam="2">  1       -1 0.88698034E-04 0.80561862E+02</pdfrwt>
<totfact> 0.16465391E+05</totfact>
</mgrwt>
</event>
<event>
 8    1  0.2676873E-016  0.7847625E+02  0.7818608E-02  0.1333432E+00
          2   -1    0    0  501    0  0.00000000000E+00  0.00000000000E+00  0.20524375487E+02  0.20524375645E+02  0.25500000000E-02 0. -1.
         -1   -1    0    0    0  501 -0.00000000000E+00 -0.00000000000E+00 -0.75014728945E+02  0.75014729114E+02  0.50400000000E-02 0.  1.
         24    2    1    2    0    0  0.00000000000E+00  0.00000000000E+00 -0.54490353458E+02  0.95539104759E+02  0.78476250664E+02 0.  0.
         66    2    3    3    0    0 -0.95544187239E+01 -0.35098820378E+02 -0.94362900751E+01  0.37633199185E+02  0.20000003538E+01 0.  0.
        -13    1    3    3    0    0  0.95544187239E+01  0.35098820378E+02 -0.45054063383E+02  0.57905905574E+02  0.10566000000E+00 0.  1.
         13    1    4    4    0    0 -0.53717230980E+01 -0.18435852442E+02 -0.52525182813E+01  0.19908193706E+02  0.10566000000E+00 0. -1.
        -13    1    4    4    0    0 -0.15307005301E+01 -0.58055777288E+01 -0.20600329443E+01  0.63484389140E+01  0.10566000000E+00 0.  1.
         14    1    4    4    0    0 -0.26519950958E+01 -0.10857390207E+02 -0.21237388495E+01  0.11376566564E+02  0.00000000000E+00 0. -1.
<mgrwt>
<rscale>  0 0.78476251E+02</rscale>
<asrwt>0</asrwt>
<pdfrwt beam="1">  1        2 0.31575963E-02 0.78476251E+02</pdfrwt>
<pdfrwt beam="2">  1       -1 0.11540727E-01 0.78476251E+02</pdfrwt>
<totfact> 0.13186836E+05</totfact>
</mgrwt>
</event>
<event>
 8    1  0.2676873E-016  0.8086432E+02  0.7818608E-02  0.1326616E+00
          2   -1    0    0  501    0  0.00000000000E+00  0.00000000000E+00  0.25235961340E+03  0.25235961342E+03  0.25500000000E-02 0. -1.
         -1   -1    0    0    0  501 -0.00000000000E+00 -0.00000000000E+00 -0.64778960641E+01  0.64778980247E+01  0.50400000000E-02 0.  1.
         24    2    1    2    0    0  0.17763568394E-14  0.71054273576E-14  0.24588171734E+03  0.25883751144E+03  0.80864320978E+02 0.  0.
         66    2    3    3    0    0 -0.78214391062E+01 -0.32358764393E+02  0.19632175019E+03  0.19913436202E+03  0.19999993003E+01 0.  0.
        -13    1    3    3    0    0  0.78214391062E+01  0.32358764393E+02  0.49559967148E+02  0.59703149418E+02  0.10566000000E+00 0.  1.
         13    1    4    4    0    0 -0.58333038539E+01 -0.25954905830E+02  0.15874301906E+03  0.16095664582E+03  0.10566000000E+00 0. -1.
        -13    1    4    4    0    0 -0.22380033026E+00 -0.15918508905E+01  0.89611989210E+01  0.91048517825E+01  0.10566000000E+00 0. -1.
        -14    1    4    4    0    0 -0.17643349221E+01 -0.48120076725E+01  0.28617532215E+02  0.29072864421E+02  0.00000000000E+00 0.  1.
<mgrwt>
<rscale>  0 0.80864321E+02</rscale>
<asrwt>0</asrwt>
<pdfrwt beam="1">  1        2 0.38824551E-01 0.80864321E+02</pdfrwt>
<pdfrwt beam="2">  1       -1 0.99659968E-03 0.80864321E+02</pdfrwt>
<totfact> 0.23281472E+05</totfact>
</mgrwt>
</event>
<event>
 8    1  0.2676873E-016  0.8163952E+02  0.7818608E-02  0.1324462E+00
          2   -1    0    0  501    0  0.00000000000E+00  0.00000000000E+00  0.44306479773E+02  0.44306479846E+02  0.25500000000E-02 0. -1.
         -1   -1    0    0    0  501 -0.00000000000E+00 -0.00000000000E+00 -0.37607428231E+02  0.37607428569E+02  0.50400000000E-02 0.  1.
         24    2    1    2    0    0  0.00000000000E+00  0.00000000000E+00  0.66990515417E+01  0.81913908415E+02  0.81639519231E+02 0.  0.
         66    2    3    3    0    0  0.21151947596E+02 -0.34613949558E+02  0.76924343186E+01  0.41336471772E+02  0.19999904143E+01 0.  0.
        -13    1    3    3    0    0 -0.21151947596E+02  0.34613949558E+02 -0.99338277696E+00  0.40577436643E+02  0.10566000000E+00 0.  1.
         13    1    4    4    0    0  0.21563557220E+01 -0.34280276525E+01  0.25802856380E+00  0.40594317781E+01  0.10566000000E+00 0.  1.
        -13    1    4    4    0    0  0.92118490734E+01 -0.16027322840E+02  0.37207880441E+01  0.18857058850E+02  0.10566000000E+00 0.  1.
         14    1    4    4    0    0  0.97837428005E+01 -0.15158599066E+02  0.37136177107E+01  0.18419981143E+02  0.00000000000E+00 0. -1.
<mgrwt>
<rscale>  0 0.81639519E+02</rscale>
<asrwt>0</asrwt>
<pdfrwt beam="1">  1        2 0.68163815E-02 0.81639519E+02</pdfrwt>
<pdfrwt beam="2">  1       -1 0.57857583E-02 0.81639519E+02</pdfrwt>
<totfact> 0.13769515E+05</totfact>
</mgrwt>
</event>
<event>
 8    1  0.2676873E-016  0.7927779E+02  0.7818608E-02  0.1331114E+00
          2   -1    0    0  501    0  0.00000000000E+00  0.00000000000E+00  0.89838463882E+02  0.89838463918E+02  0.25500000000E-02 0. -1.
         -1   -1    0    0    0  501 -0.00000000000E+00 -0.00000000000E+00 -0.17489634965E+02  0.17489635692E+02  0.50400000000E-02 0.  1.
         24    2    1    2    0    0  0.00000000000E+00  0.00000000000E+00  0.72348828917E+02  0.10732809961E+03  0.79277789577E+02 0.  0.
         66    2    3    3    0    0  0.33303876402E+02  0.78076905492E+01  0.63244332318E+02  0.71930200838E+02  0.20000017847E+01 0.  0.
        -13    1    3    3    0    0 -0.33303876402E+02 -0.78076905492E+01  0.91044965984E+01  0.35397898772E+02  0.10566000000E+00 0.  1.
         13    1    4    4    0    0  0.92158611622E+00 -0.15732089595E-01  0.14346385280E+01  0.17084847702E+01  0.10566000000E+00 0.  1.
        -13    1    4    4    0    0  0.43865435153E+01  0.13186529450E+01  0.81647447387E+01  0.93624158359E+01  0.10566000000E+00 0. -1.
         14    1    4    4    0    0  0.27995746770E+02  0.65047696938E+01  0.53644949051E+02  0.60859300232E+02  0.00000000000E+00 0. -1.
<mgrwt>
<rscale>  0 0.79277790E+02</rscale>
<asrwt>0</asrwt>
<pdfrwt beam="1">  1        2 0.13821302E-01 0.79277790E+02</pdfrwt>
<pdfrwt beam="2">  1       -1 0.26907132E-02 0.79277790E+02</pdfrwt>
<totfact> 0.17636655E+05</totfact>
</mgrwt>
</event>
<event>
 8    1  0.2676873E-016  0.7674633E+02  0.7818608E-02  0.1338547E+00
          2   -1    0    0  501    0  0.00000000000E+00  0.00000000000E+00  0.35176988956E+03  0.35176988957E+03  0.25500000000E-02 0. -1.
         -1   -1    0    0    0  501 -0.00000000000E+00 -0.00000000000E+00 -0.41859725504E+01  0.41859755845E+01  0.50400000000E-02 0.  1.
         24    2    1    2    0    0  0.88817841970E-15  0.71054273576E-14  0.34758391701E+03  0.35595586516E+03  0.76746326125E+02 0.  0.
         66    2    3    3    0    0  0.45514783339E+01  0.37389644484E+02  0.20728879864E+03  0.21069254263E+03  0.20000016818E+01 0.  0.
        -13    1    3    3    0    0 -0.45514783339E+01 -0.37389644484E+02  0.14029511837E+03  0.14526332253E+03  0.10566000000E+00 0.  1.
         13    1    4    4    0    0  0.18570049918E+01  0.15940979853E+02  0.86809850374E+02  0.88280941274E+02  0.10566000000E+00 0. -1.
        -13    1    4    4    0    0  0.50433738759E-01  0.27558559945E+01  0.17592195288E+02  0.17807127362E+02  0.10566000000E+00 0.  1.
         14    1    4    4    0    0  0.26440396033E+01  0.18692808636E+02  0.10288675298E+03  0.10460447399E+03  0.00000000000E+00 0. -1.
<mgrwt>
<rscale>  0 0.76746326E+02</rscale>
<asrwt>0</asrwt>
<pdfrwt beam="1">  1        2 0.54118463E-01 0.76746326E+02</pdfrwt>
<pdfrwt beam="2">  1       -1 0.64399580E-03 0.76746326E+02</pdfrwt>
<totfact> 0.30089512E+05</totfact>
</mgrwt>
</event>
<event>
 8    1  0.2676873E-016  0.7964111E+02  0.7818608E-02  0.1330073E+00
         -1   -1    0    0    0  501 -0.00000000000E+00  0.00000000000E+00  0.88457694156E+02  0.88457694300E+02  0.50400000000E-02 0.  1.
          2   -1    0    0  501    0  0.00000000000E+00 -0.00000000000E+00 -0.17925816990E+02  0.17925817171E+02  0.25500000000E-02 0. -1.
         24    2    1    2    0    0  0.71054273576E-14  0.00000000000E+00  0.70531877167E+02  0.10638351147E+03  0.79641106322E+02 0.  0.
         66    2    3    3    0    0  0.33300933278E+02  0.20440328063E+02  0.25210908921E+02  0.46544055463E+02  0.20000004605E+01 0.  0.
        -13    1    3    3    0    0 -0.33300933278E+02 -0.20440328063E+02  0.45320968246E+02  0.59839456008E+02  0.10566000000E+00 0.  1.
         13    1    4    4    0    0  0.43445264361E+01  0.23765347435E+01  0.37339164253E+01  0.62029124811E+01  0.10566000000E+00 0. -1.
        -13    1    4    4    0    0  0.26321240665E+02  0.16499991246E+02  0.19924933047E+02  0.36906253430E+02  0.10566000000E+00 0.  1.
        -14    1    4    4    0    0  0.26351661771E+01  0.15638020738E+01  0.15520594484E+01  0.34348895526E+01  0.00000000000E+00 0.  1.
<mgrwt>
<rscale>  0 0.79641106E+02</rscale>
<asrwt>0</asrwt>
<pdfrwt beam="1">  1        2 0.27578181E-02 0.79641106E+02</pdfrwt>
<pdfrwt beam="2">  1       -1 0.13608876E-01 0.79641106E+02</pdfrwt>
<totfact> 0.12299383E+05</totfact>
</mgrwt>
</event>
<event>
 8    1  0.2676873E-016  0.7729394E+02  0.7818608E-02  0.1336911E+00
          2   -1    0    0  501    0  0.00000000000E+00  0.00000000000E+00  0.14030002407E+03  0.14030002409E+03  0.25500000000E-02 0. -1.
         -1   -1    0    0    0  501 -0.00000000000E+00 -0.00000000000E+00 -0.10645672813E+02  0.10645674006E+02  0.50400000000E-02 0.  1.
         24    2    1    2    0    0  0.71054273576E-14 -0.88817841970E-15  0.12965435126E+03  0.15094569810E+03  0.77293938796E+02 0.  0.
         66    2    3    3    0    0  0.37888152189E+02 -0.67177303310E+01  0.71330724731E+02  0.81072265720E+02  0.20000003210E+01 0.  0.
        -13    1    3    3    0    0 -0.37888152189E+02  0.67177303310E+01  0.58323626525E+02  0.69873432377E+02  0.10566000000E+00 0.  1.
         13    1    4    4    0    0  0.55095007225E+01 -0.97501145924E+00  0.11774885645E+02  0.13037037299E+02  0.10566000000E+00 0. -1.
        -13    1    4    4    0    0  0.18961137308E+02 -0.34010832731E+01  0.35616261195E+02  0.40492237786E+02  0.10566000000E+00 0. -1.
        -14    1    4    4    0    0  0.13417514159E+02 -0.23416355987E+01  0.23939577892E+02  0.27542990635E+02  0.00000000000E+00 0.  1.
<mgrwt>
<rscale>  0 0.77293939E+02</rscale>
<asrwt>0</asrwt>
<pdfrwt beam="1">  1        2 0.21584620E-01 0.77293939E+02</pdfrwt>
<pdfrwt beam="2">  1       -1 0.16377959E-02 0.77293939E+02</pdfrwt>
<totfact> 0.21481039E+05</totfact>
</mgrwt>
</event>
<event>
 8    1  0.2676873E-016  0.7980752E+02  0.7818608E-02  0.1329599E+00
          2   -1    0    0  501    0  0.00000000000E+00  0.00000000000E+00  0.22834068593E+03  0.22834068594E+03  0.25500000000E-02 0. -1.
         -1   -1    0    0    0  501 -0.00000000000E+00 -0.00000000000E+00 -0.69733948774E+01  0.69733966987E+01  0.50400000000E-02 0.  1.
         24    2    1    2    0    0  0.00000000000E+00  0.00000000000E+00  0.22136729105E+03  0.23531408264E+03  0.79807518080E+02 0.  0.
         66    2    3    3    0    0 -0.13290170740E+02 -0.34980019274E+02  0.70102433593E+02  0.79489506106E+02  0.19999996330E+01 0.  0.
        -13    1    3    3    0    0  0.13290170740E+02  0.34980019274E+02  0.15126485746E+03  0.15582457654E+03  0.10566000000E+00 0.  1.
         13    1    4    4    0    0 -0.79174170340E+01 -0.21145789801E+02  0.41853576905E+02  0.47555893248E+02  0.10566000000E+00 0. -1.
        -13    1    4    4    0    0 -0.21760776915E+01 -0.64909764308E+01  0.11921598877E+02  0.13747864306E+02  0.10566000000E+00 0.  1.
         14    1    4    4    0    0 -0.31966760144E+01 -0.73432530422E+01  0.16327257810E+02  0.18185748552E+02  0.00000000000E+00 0. -1.
<mgrwt>
<rscale>  0 0.79807518E+02</rscale>
<asrwt>0</asrwt>
<pdfrwt beam="1">  1        2 0.35129335E-01 0.79807518E+02</pdfrwt>
<pdfrwt beam="2">  1       -1 0.10728302E-02 0.79807518E+02</pdfrwt>
<totfact> 0.23256484E+05</totfact>
</mgrwt>
</event>
<event>
 8    1  0.2676873E-016  0.7929254E+02  0.7818608E-02  0.1331071E+00
         -1   -1    0    0    0  501 -0.00000000000E+00  0.00000000000E+00  0.96150981814E+02  0.96150981947E+02  0.50400000000E-02 0.  1.
          2   -1    0    0  501    0  0.00000000000E+00 -0.00000000000E+00 -0.16347484285E+02  0.16347484484E+02  0.25500000000E-02 0. -1.
         24    2    1    2    0    0  0.00000000000E+00 -0.88817841970E-15  0.79803497529E+02  0.11249846643E+03  0.79292538938E+02 0.  0.
         66    2    3    3    0    0 -0.19991371876E+02  0.69508828895E+01 -0.75935527203E+01  0.22575025222E+02  0.19999996012E+01 0.  0.
        -13    1    3    3    0    0  0.19991371876E+02 -0.69508828895E+01  0.87397050250E+02  0.89923441209E+02  0.10566000000E+00 0.  1.
         13    1    4    4    0    0 -0.76680023020E+01  0.27132468581E+01 -0.36284935806E+01  0.89071374480E+01  0.10566000000E+00 0. -1.
        -13    1    4    4    0    0 -0.25919760318E+00  0.15659281571E+00 -0.23350732105E+00  0.39672964599E+00  0.10566000000E+00 0.  1.
         14    1    4    4    0    0 -0.12064171971E+02  0.40810432157E+01 -0.37315518186E+01  0.13271158128E+02  0.00000000000E+00 0. -1.
<mgrwt>
<rscale>  0 0.79292539E+02</rscale>
<asrwt>0</asrwt>
<pdfrwt beam="1">  1        2 0.25149976E-02 0.79292539E+02</pdfrwt>
<pdfrwt beam="2">  1       -1 0.14792459E-01 0.79292539E+02</pdfrwt>
<totfact> 0.12219660E+05</totfact>
</mgrwt>
</event>
<event>
 8    1  0.2676873E-016  0.8039799E+02  0.7818608E-02  0.1327926E+00
          2   -1    0    0  501    0  0.00000000000E+00  0.00000000000E+00  0.66099842306E+02  0.66099842355E+02  0.25500000000E-02 0. -1.
         -1   -1    0    0    0  501 -0.00000000000E+00 -0.00000000000E+00 -0.24447245540E+02  0.24447246060E+02  0.50400000000E-02 0.  1.
         24    2    1    2    0    0  0.00000000000E+00  0.00000000000E+00  0.41652596765E+02  0.90547088415E+02  0.80397987556E+02 0.  0.
         66    2    3    3    0    0  0.24792227910E+02  0.17909081393E+02 -0.84984670256E+01  0.31805875247E+02  0.19999993397E+01 0.  0.
        -13    1    3    3    0    0 -0.24792227910E+02 -0.17909081393E+02  0.50151063791E+02  0.58741213168E+02  0.10566000000E+00 0.  1.
         13    1    4    4    0    0  0.40176981933E+01  0.27953076722E+01 -0.20617432476E+01  0.53120234383E+01  0.10566000000E+00 0. -1.
        -13    1    4    4    0    0  0.13992577495E+02  0.10571896884E+02 -0.44272794156E+01  0.18087818988E+02  0.10566000000E+00 0.  1.
         14    1    4    4    0    0  0.67819522219E+01  0.45418768367E+01 -0.20094443625E+01  0.84060328209E+01  0.00000000000E+00 0. -1.
<mgrwt>
<rscale>  0 0.80397988E+02</rscale>
<asrwt>0</asrwt>
<pdfrwt beam="1">  1        2 0.10169206E-01 0.80397988E+02</pdfrwt>
<pdfrwt beam="2">  1       -1 0.37611149E-02 0.80397988E+02</pdfrwt>
<totfact> 0.15711439E+05</totfact>
</mgrwt>
</event>
<event>
 8    1  0.2676873E-016  0.7714904E+02  0.7818608E-02  0.1337342E+00
         -1   -1    0    0    0  501 -0.00000000000E+00  0.00000000000E+00  0.24523656007E+02  0.24523656525E+02  0.50400000000E-02 0.  1.
          2   -1    0    0  501    0  0.00000000000E+00 -0.00000000000E+00 -0.60675851953E+02  0.60675852007E+02  0.25500000000E-02 0. -1.
         24    2    1    2    0    0 -0.17763568394E-14  0.00000000000E+00 -0.36152195946E+02  0.85199508532E+02  0.77149043950E+02 0.  0.
         66    2    3    3    0    0  0.12377271189E+02 -0.28800136043E+02 -0.42864660769E+02  0.53141544993E+02  0.19999958105E+01 0.  0.
        -13    1    3    3    0    0 -0.12377271189E+02  0.28800136043E+02  0.67124648233E+01  0.32057963538E+02  0.10566000000E+00 0.  1.
         13    1    4    4    0    0  0.74033817965E+01 -0.18971841924E+02 -0.27279974132E+02  0.34043340034E+02  0.10566000000E+00 0. -1.
        -13    1    4    4    0    0  0.45926308213E+01 -0.87383064622E+01 -0.14212126331E+02  0.17304506828E+02  0.10566000000E+00 0.  1.
         14    1    4    4    0    0  0.38125857100E+00 -0.10899876567E+01 -0.13725603071E+01  0.17936981313E+01  0.00000000000E+00 0. -1.
<mgrwt>
<rscale>  0 0.77149044E+02</rscale>
<asrwt>0</asrwt>
<pdfrwt beam="1">  1        2 0.93347464E-02 0.77149044E+02</pdfrwt>
<pdfrwt beam="2">  1       -1 0.37728702E-02 0.77149044E+02</pdfrwt>
<totfact> 0.17221207E+05</totfact>
</mgrwt>
</event>
<event>
 8    1  0.2676873E-016  0.7851427E+02  0.7818608E-02  0.1333321E+00
          2   -1    0    0  501    0  0.00000000000E+00  0.00000000000E+00  0.60796419192E+01  0.60796424540E+01  0.25500000000E-02 0. -1.
         -1   -1    0    0    0  501 -0.00000000000E+00 -0.00000000000E+00 -0.25348902902E+03  0.25348902907E+03  0.50400000000E-02 0.  1.
         24    2    1    2    0    0  0.00000000000E+00  0.71054273576E-14 -0.24740938710E+03  0.25956867152E+03  0.78514268838E+02 0.  0.
         66    2    3    3    0    0  0.31770716740E+01 -0.38006083097E+02 -0.93383581905E+02  0.10089127563E+03  0.19999981127E+01 0.  0.
        -13    1    3    3    0    0 -0.31770716740E+01  0.38006083097E+02 -0.15402580519E+03  0.15867739589E+03  0.10566000000E+00 0.  1.
         13    1    4    4    0    0  0.11929065790E+01 -0.18562840748E+02 -0.46061394611E+02  0.49675600855E+02  0.10566000000E+00 0. -1.
        -13    1    4    4    0    0  0.13259736974E+01 -0.16861533898E+02 -0.41397104057E+02  0.44719133712E+02  0.10566000000E+00 0.  1.
        -14    1    4    4    0    0  0.65819139765E+00 -0.25817084514E+01 -0.59250832362E+01  0.64965410643E+01  0.00000000000E+00 0.  1.
<mgrwt>
<rscale>  0 0.78514269E+02</rscale>
<asrwt>0</asrwt>
<pdfrwt beam="1">  1        2 0.93532976E-03 0.78514269E+02</pdfrwt>
<pdfrwt beam="2">  1       -1 0.38998304E-01 0.78514269E+02</pdfrwt>
<totfact> 0.96676850E+04</totfact>
</mgrwt>
</event>
<event>
 8    1  0.2676873E-016  0.7833551E+02  0.7818608E-02  0.1333842E+00
         -1   -1    0    0    0  501 -0.00000000000E+00  0.00000000000E+00  0.71617118413E+02  0.71617118590E+02  0.50400000000E-02 0.  1.
          2   -1    0    0  501    0  0.00000000000E+00 -0.00000000000E+00 -0.21421040084E+02  0.21421040236E+02  0.25500000000E-02 0. -1.
         24    2    1    2    0    0  0.00000000000E+00  0.00000000000E+00  0.50196078329E+02  0.93038158826E+02  0.78335513773E+02 0.  0.
         66    2    3    3    0    0  0.29269646620E+02 -0.13124383872E+02 -0.15265945132E+01  0.32175956144E+02  0.19999994349E+01 0.  0.
        -13    1    3    3    0    0 -0.29269646620E+02  0.13124383872E+02  0.51722672842E+02  0.60862202682E+02  0.10566000000E+00 0.  1.
         13    1    4    4    0    0  0.15766962519E+02 -0.74956550893E+01 -0.12869389093E+01  0.17505694162E+02  0.10566000000E+00 0. -1.
        -13    1    4    4    0    0  0.83058326097E+00 -0.17342755912E+00 -0.17939109319E+00  0.87366519421E+00  0.10566000000E+00 0.  1.
        -14    1    4    4    0    0  0.12672100840E+02 -0.54553012234E+01 -0.60264510710E-01  0.13796596788E+02  0.00000000000E+00 0.  1.
<mgrwt>
<rscale>  0 0.78335514E+02</rscale>
<asrwt>0</asrwt>
<pdfrwt beam="1">  1        2 0.32955447E-02 0.78335514E+02</pdfrwt>
<pdfrwt beam="2">  1       -1 0.11018018E-01 0.78335514E+02</pdfrwt>
<totfact> 0.13366618E+05</totfact>
</mgrwt>
</event>
<event>
 8    1  0.2676873E-016  0.8315145E+02  0.7818608E-02  0.1320339E+00
          2   -1    0    0  501    0  0.00000000000E+00  0.00000000000E+00  0.25988496107E+03  0.25988496108E+03  0.25500000000E-02 0. -1.
         -1   -1    0    0    0  501 -0.00000000000E+00 -0.00000000000E+00 -0.66511767532E+01  0.66511786628E+01  0.50400000000E-02 0.  1.
         24    2    1    2    0    0  0.00000000000E+00  0.00000000000E+00  0.25323378432E+03  0.26653613974E+03  0.83151453811E+02 0.  0.
         66    2    3    3    0    0 -0.85167561339E+01  0.19422867129E+02  0.24122533588E+03  0.24216408812E+03  0.20000001114E+01 0.  0.
        -13    1    3    3    0    0  0.85167561339E+01 -0.19422867129E+02  0.12008448431E+02  0.24372051623E+02  0.10566000000E+00 0.  1.
         13    1    4    4    0    0 -0.66336091255E+01  0.14997154934E+02  0.17830727480E+03  0.17905980798E+03  0.10566000000E+00 0. -1.
        -13    1    4    4    0    0 -0.17144901768E+00  0.90518753220E+00  0.11280651440E+02  0.11318702231E+02  0.10566000000E+00 0.  1.
         14    1    4    4    0    0 -0.17116979907E+01  0.35205246631E+01  0.51637409647E+02  0.51785577905E+02  0.00000000000E+00 0. -1.
<mgrwt>
<rscale>  0 0.83151454E+02</rscale>
<asrwt>0</asrwt>
<pdfrwt beam="1">  1        2 0.39982301E-01 0.83151454E+02</pdfrwt>
<pdfrwt beam="2">  1       -1 0.10232581E-02 0.83151454E+02</pdfrwt>
<totfact> 0.21862652E+05</totfact>
</mgrwt>
</event>
<event>
 8    1  0.2676873E-016  0.7911159E+02  0.7818608E-02  0.1331592E+00
          2   -1    0    0  501    0  0.00000000000E+00  0.00000000000E+00  0.31148623057E+02  0.31148623161E+02  0.25500000000E-02 0. -1.
         -1   -1    0    0    0  501 -0.00000000000E+00 -0.00000000000E+00 -0.50232106073E+02  0.50232106326E+02  0.50400000000E-02 0.  1.
         24    2    1    2    0    0  0.00000000000E+00  0.00000000000E+00 -0.19083483016E+02  0.81380729487E+02  0.79111590857E+02 0.  0.
         66    2    3    3    0    0  0.31790529609E+02 -0.17345457497E+02  0.67545544783E+01  0.36893450247E+02  0.19999990663E+01 0.  0.
        -13    1    3    3    0    0 -0.31790529609E+02  0.17345457497E+02 -0.25838037494E+02  0.44487279241E+02  0.10566000000E+00 0.  1.
         13    1    4    4    0    0  0.13898859140E+02 -0.70492777962E+01  0.20692576039E+01  0.15721437400E+02  0.10566000000E+00 0. -1.
        -13    1    4    4    0    0  0.11808017883E+02 -0.65814903067E+01  0.30187385615E+01  0.13851687533E+02  0.10566000000E+00 0.  1.
        -14    1    4    4    0    0  0.60836525863E+01 -0.37146893943E+01  0.16665583129E+01  0.73203253136E+01  0.00000000000E+00 0.  1.
<mgrwt>
<rscale>  0 0.79111591E+02</rscale>
<asrwt>0</asrwt>
<pdfrwt beam="1">  1        2 0.47920959E-02 0.79111591E+02</pdfrwt>
<pdfrwt beam="2">  1       -1 0.77280164E-02 0.79111591E+02</pdfrwt>
<totfact> 0.13985267E+05</totfact>
</mgrwt>
</event>
<event>
 8    1  0.2676873E-016  0.7894500E+02  0.7818608E-02  0.1332072E+00
          2   -1    0    0  501    0  0.00000000000E+00  0.00000000000E+00  0.10298302737E+02  0.10298303052E+02  0.25500000000E-02 0. -1.
         -1   -1    0    0    0  501 -0.00000000000E+00 -0.00000000000E+00 -0.15129466076E+03  0.15129466084E+03  0.50400000000E-02 0.  1.
         24    2    1    2    0    0  0.00000000000E+00  0.00000000000E+00 -0.14099635802E+03  0.16159296389E+03  0.78944999872E+02 0.  0.
         66    2    3    3    0    0 -0.23511511737E+02  0.96294955937E+01 -0.87770976666E+01  0.26954699117E+02  0.19999978629E+01 0.  0.
        -13    1    3    3    0    0  0.23511511737E+02 -0.96294955937E+01 -0.13221926035E+03  0.13463826478E+03  0.10566000000E+00 0.  1.
         13    1    4    4    0    0 -0.19035876344E+02  0.78469735363E+01 -0.71850844809E+01  0.21807709300E+02  0.10566000000E+00 0. -1.
        -13    1    4    4    0    0 -0.36422051409E+01  0.14944137967E+01 -0.16348355454E+01  0.42641273645E+01  0.10566000000E+00 0.  1.
        -14    1    4    4    0    0 -0.83343025208E+00  0.28810826065E+00  0.42822359731E-01  0.88286245216E+00  0.00000000000E+00 0.  1.
<mgrwt>
<rscale>  0 0.78945000E+02</rscale>
<asrwt>0</asrwt>
<pdfrwt beam="1">  1        2 0.15843544E-02 0.78945000E+02</pdfrwt>
<pdfrwt beam="2">  1       -1 0.23276100E-01 0.78945000E+02</pdfrwt>
<totfact> 0.11130909E+05</totfact>
</mgrwt>
</event>
<event>
 8    1  0.2676873E-016  0.8867834E+02  0.7818608E-02  0.1306084E+00
          2   -1    0    0  501    0  0.00000000000E+00  0.00000000000E+00  0.32142574391E+02  0.32142574492E+02  0.25500000000E-02 0. -1.
         -1   -1    0    0    0  501 -0.00000000000E+00 -0.00000000000E+00 -0.61163802023E+02  0.61163802231E+02  0.50400000000E-02 0.  1.
         24    2    1    2    0    0  0.00000000000E+00  0.00000000000E+00 -0.29021227633E+02  0.93306376723E+02  0.88678341684E+02 0.  0.
         66    2    3    3    0    0 -0.84776307766E+01  0.18731601599E+02  0.26789174444E+02  0.33829025857E+02  0.20000002405E+01 0.  0.
        -13    1    3    3    0    0  0.84776307766E+01 -0.18731601599E+02 -0.55810402077E+02  0.59477350866E+02  0.10566000000E+00 0.  1.
         13    1    4    4    0    0 -0.26741950131E+01  0.49839828355E+01  0.73134288496E+01  0.92460158688E+01  0.10566000000E+00 0.  1.
        -13    1    4    4    0    0 -0.49093512965E+00  0.21078072362E+01  0.22312705100E+01  0.31102412721E+01  0.10566000000E+00 0. -1.
         14    1    4    4    0    0 -0.53125006339E+01  0.11639811527E+02  0.17244475084E+02  0.21472768716E+02  0.00000000000E+00 0. -1.
<mgrwt>
<rscale>  0 0.88678342E+02</rscale>
<asrwt>0</asrwt>
<pdfrwt beam="1">  1        2 0.49450114E-02 0.88678342E+02</pdfrwt>
<pdfrwt beam="2">  1       -1 0.94098158E-02 0.88678342E+02</pdfrwt>
<totfact> 0.10204502E+05</totfact>
</mgrwt>
</event>
<event>
 8    1  0.2676873E-016  0.7729195E+02  0.7818608E-02  0.1336917E+00
         -1   -1    0    0    0  501 -0.00000000000E+00  0.00000000000E+00  0.50427801323E+02  0.50427801574E+02  0.50400000000E-02 0.  1.
          2   -1    0    0  501    0  0.00000000000E+00 -0.00000000000E+00 -0.29616822322E+02  0.29616822432E+02  0.25500000000E-02 0. -1.
         24    2    1    2    0    0 -0.45102810375E-16 -0.35527136788E-14  0.20810979001E+02  0.80044624006E+02  0.77291946445E+02 0.  0.
         66    2    3    3    0    0 -0.11540216468E-01  0.19578112300E+02 -0.24062836696E+02  0.31085731927E+02  0.20000012774E+01 0.  0.
        -13    1    3    3    0    0  0.11540216468E-01 -0.19578112300E+02  0.44873815697E+02  0.48958892080E+02  0.10566000000E+00 0.  1.
         13    1    4    4    0    0 -0.39726188368E+00  0.10904365200E+02 -0.13027918791E+02  0.16994141034E+02  0.10566000000E+00 0. -1.
        -13    1    4    4    0    0  0.59076356699E+00  0.31496577799E+01 -0.35033685352E+01  0.47491157968E+01  0.10566000000E+00 0.  1.
        -14    1    4    4    0    0 -0.20504189977E+00  0.55240893208E+01 -0.75315493701E+01  0.93424750960E+01  0.00000000000E+00 0.  1.
<mgrwt>
<rscale>  0 0.77291946E+02</rscale>
<asrwt>0</asrwt>
<pdfrwt beam="1">  1        2 0.45564342E-02 0.77291946E+02</pdfrwt>
<pdfrwt beam="2">  1       -1 0.77581233E-02 0.77291946E+02</pdfrwt>
<totfact> 0.14777923E+05</totfact>
</mgrwt>
</event>
<event>
 8    1  0.2676873E-016  0.7916286E+02  0.7818608E-02  0.1331444E+00
         -1   -1    0    0    0  501 -0.00000000000E+00  0.00000000000E+00  0.53126887853E+01  0.53126911759E+01  0.50400000000E-02 0.  1.
          2   -1    0    0  501    0  0.00000000000E+00 -0.00000000000E+00 -0.29489571631E+03  0.29489571632E+03  0.25500000000E-02 0. -1.
         24    2    1    2    0    0  0.00000000000E+00  0.00000000000E+00 -0.28958302753E+03  0.30020840750E+03  0.79162858093E+02 0.  0.
         66    2    3    3    0    0 -0.25346611000E+02 -0.40038808815E+01 -0.25904370911E+03  0.26031927509E+03  0.19999999988E+01 0.  0.
        -13    1    3    3    0    0  0.25346611000E+02  0.40038808815E+01 -0.30539318414E+02  0.39889132411E+02  0.10566000000E+00 0.  1.
         13    1    4    4    0    0 -0.18377795369E+02 -0.33712760018E+01 -0.19071614102E+03  0.19162924222E+03  0.10566000000E+00 0. -1.
        -13    1    4    4    0    0 -0.68977488128E+01 -0.61878683750E+00 -0.66223606386E+02  0.66584825918E+02  0.10566000000E+00 0.  1.
         14    1    4    4    0    0 -0.71066818203E-01 -0.13818042144E-01 -0.21039617096E+01  0.21052069510E+01  0.00000000000E+00 0. -1.
<mgrwt>
<rscale>  0 0.79162858E+02</rscale>
<asrwt>0</asrwt>
<pdfrwt beam="1">  1        2 0.45368559E-01 0.79162858E+02</pdfrwt>
<pdfrwt beam="2">  1       -1 0.81733715E-03 0.79162858E+02</pdfrwt>
<totfact> 0.26044834E+05</totfact>
</mgrwt>
</event>
<event>
 8    1  0.2676873E-016  0.7845558E+02  0.7818608E-02  0.1333492E+00
         -1   -1    0    0    0  501 -0.00000000000E+00  0.00000000000E+00  0.27931182262E+01  0.27931227734E+01  0.50400000000E-02 0.  1.
          2   -1    0    0  501    0  0.00000000000E+00 -0.00000000000E+00 -0.55093201258E+03  0.55093201258E+03  0.25500000000E-02 0. -1.
         24    2    1    2    0    0  0.00000000000E+00  0.00000000000E+00 -0.54813889435E+03  0.55372513536E+03  0.78455579950E+02 0.  0.
         66    2    3    3    0    0  0.89475712557E+01 -0.13591248008E+02 -0.52596818700E+03  0.52622363572E+03  0.19999998426E+01 0.  0.
        -13    1    3    3    0    0 -0.89475712557E+01  0.13591248008E+02 -0.22170707346E+02  0.27501499633E+02  0.10566000000E+00 0.  1.
         13    1    4    4    0    0  0.40147995873E+01 -0.65707199372E+01 -0.26899074023E+03  0.26910095219E+03  0.10566000000E+00 0. -1.
        -13    1    4    4    0    0  0.23758520518E+01 -0.32872718848E+01 -0.10664644504E+03  0.10672359735E+03  0.10566000000E+00 0.  1.
        -14    1    4    4    0    0  0.25569196166E+01 -0.37332561858E+01 -0.15033100174E+03  0.15039908618E+03  0.00000000000E+00 0.  1.
<mgrwt>
<rscale>  0 0.78455580E+02</rscale>
<asrwt>0</asrwt>
<pdfrwt beam="1">  1        2 0.84758685E-01 0.78455580E+02</pdfrwt>
<pdfrwt beam="2">  1       -1 0.42971129E-03 0.78455580E+02</pdfrwt>
<totfact> 0.33011322E+05</totfact>
</mgrwt>
</event>
<event>
 8    1  0.2676873E-016  0.7335865E+02  0.7818608E-02  0.1349030E+00
          2   -1    0    0  501    0  0.00000000000E+00  0.00000000000E+00  0.74591592906E+03  0.74591592906E+03  0.25500000000E-02 0. -1.
         -1   -1    0    0    0  501 -0.00000000000E+00 -0.00000000000E+00 -0.18036485300E+01  0.18036555717E+01  0.50400000000E-02 0.  1.
         24    2    1    2    0    0  0.17763568394E-14  0.00000000000E+00  0.74411228053E+03  0.74771958463E+03  0.73358647839E+02 0.  0.
         66    2    3    3    0    0  0.14634908935E+02 -0.11744964112E+02  0.69323770329E+03  0.69349451188E+03  0.20000023407E+01 0.  0.
        -13    1    3    3    0    0 -0.14634908935E+02  0.11744964112E+02  0.50874577239E+02  0.54225072751E+02  0.10566000000E+00 0.  1.
         13    1    4    4    0    0  0.13471155259E+02 -0.10977771576E+02  0.62567420902E+03  0.62591549789E+03  0.10566000000E+00 0. -1.
        -13    1    4    4    0    0  0.10090572299E+01 -0.79762141017E+00  0.60264278231E+02  0.60278095450E+02  0.10566000000E+00 0.  1.
         14    1    4    4    0    0  0.15469644672E+00  0.30428874372E-01  0.72992160334E+01  0.73009185456E+01  0.00000000000E+00 0. -1.
<mgrwt>
<rscale>  0 0.73358648E+02</rscale>
<asrwt>0</asrwt>
<pdfrwt beam="1">  1        2 0.11475646E+00 0.73358648E+02</pdfrwt>
<pdfrwt beam="2">  1       -1 0.27748453E-03 0.73358648E+02</pdfrwt>
<totfact> 0.42438716E+05</totfact>
</mgrwt>
</event>
<event>
 8    1  0.2676873E-016  0.7916124E+02  0.7818608E-02  0.1331449E+00
         -1   -1    0    0    0  501 -0.00000000000E+00  0.00000000000E+00  0.37561550095E+01  0.37561583908E+01  0.50400000000E-02 0.  1.
          2   -1    0    0  501    0  0.00000000000E+00 -0.00000000000E+00 -0.41708206585E+03  0.41708206586E+03  0.25500000000E-02 0. -1.
         24    2    1    2    0    0 -0.17763568394E-14 -0.35527136788E-14 -0.41332591084E+03  0.42083822425E+03  0.79161243147E+02 0.  0.
         66    2    3    3    0    0 -0.72905786523E+01 -0.25080160354E+02 -0.36471864738E+03  0.36565811728E+03  0.20000004098E+01 0.  0.
        -13    1    3    3    0    0  0.72905786523E+01  0.25080160354E+02 -0.48607263457E+02  0.55180106970E+02  0.10566000000E+00 0.  1.
         13    1    4    4    0    0 -0.10856327760E+01 -0.23863132635E+01 -0.37398446787E+02  0.37490373106E+02  0.10566000000E+00 0. -1.
        -13    1    4    4    0    0 -0.23705493412E+01 -0.11308999707E+02 -0.16246555963E+03  0.16287597185E+03  0.10566000000E+00 0.  1.
        -14    1    4    4    0    0 -0.38343965351E+01 -0.11384847383E+02 -0.16485464097E+03  0.16529177232E+03  0.00000000000E+00 0.  1.
<mgrwt>
<rscale>  0 0.79161243E+02</rscale>
<asrwt>0</asrwt>
<pdfrwt beam="1">  1        2 0.64166435E-01 0.79161243E+02</pdfrwt>
<pdfrwt beam="2">  1       -1 0.57787059E-03 0.79161243E+02</pdfrwt>
<totfact> 0.29466528E+05</totfact>
</mgrwt>
</event>
<event>
 8    1  0.2676873E-016  0.6992289E+02  0.7818608E-02  0.1360355E+00
          2   -1    0    0  501    0  0.00000000000E+00  0.00000000000E+00  0.10303568205E+04  0.10303568205E+04  0.25500000000E-02 0. -1.
         -1   -1    0    0    0  501 -0.00000000000E+00 -0.00000000000E+00 -0.11862851071E+01  0.11862958135E+01  0.50400000000E-02 0.  1.
         24    2    1    2    0    0 -0.35527136788E-14 -0.22204460493E-15  0.10291705354E+04  0.10315431163E+04  0.69922885377E+02 0.  0.
         66    2    3    3    0    0  0.22118868614E+02  0.18660216740E+01  0.91293430963E+03  0.91320631845E+03  0.19999931733E+01 0.  0.
        -13    1    3    3    0    0 -0.22118868614E+02 -0.18660216740E+01  0.11623622579E+03  0.11833679789E+03  0.10566000000E+00 0.  1.
         13    1    4    4    0    0  0.13510944290E+02  0.10353144351E+01  0.52350774847E+03  0.52368310204E+03  0.10566000000E+00 0. -1.
        -13    1    4    4    0    0  0.49825490535E+00 -0.55231367090E-01  0.19653429669E+02  0.19660106059E+02  0.10566000000E+00 0.  1.
         14    1    4    4    0    0  0.81096694188E+01  0.88593860596E+00  0.36977313149E+03  0.36986311035E+03  0.00000000000E+00 0. -1.
<mgrwt>
<rscale>  0 0.69922885E+02</rscale>
<asrwt>0</asrwt>
<pdfrwt beam="1">  1        2 0.15851624E+00 0.69922885E+02</pdfrwt>
<pdfrwt beam="2">  1       -1 0.18250644E-03 0.69922885E+02</pdfrwt>
<totfact> 0.49897848E+05</totfact>
</mgrwt>
</event>
<event>
 8    1  0.2676873E-016  0.7656638E+02  0.7818608E-02  0.1339088E+00
          2   -1    0    0  501    0  0.00000000000E+00  0.00000000000E+00  0.50467232752E+02  0.50467232816E+02  0.25500000000E-02 0. -1.
         -1   -1    0    0    0  501 -0.00000000000E+00 -0.00000000000E+00 -0.29040678390E+02  0.29040678828E+02  0.50400000000E-02 0.  1.
         24    2    1    2    0    0 -0.71054273576E-14  0.00000000000E+00  0.21426554362E+02  0.79507911644E+02  0.76566381540E+02 0.  0.
         66    2    3    3    0    0  0.36013282825E+02 -0.54200500465E+01  0.22886657093E+02  0.43059639444E+02  0.19999984456E+01 0.  0.
        -13    1    3    3    0    0 -0.36013282825E+02  0.54200500465E+01 -0.14601027312E+01  0.36448272200E+02  0.10566000000E+00 0.  1.
         13    1    4    4    0    0  0.35633978952E+01 -0.48390199763E+00  0.24195339283E+01  0.43355823333E+01  0.10566000000E+00 0. -1.
        -13    1    4    4    0    0  0.17747075456E+00  0.58940726869E-01  0.16708568645E+00  0.27212412650E+00  0.10566000000E+00 0. -1.
        -14    1    4    4    0    0  0.32272414176E+02 -0.49950887757E+01  0.20300037478E+02  0.38451932984E+02  0.00000000000E+00 0.  1.
<mgrwt>
<rscale>  0 0.76566382E+02</rscale>
<asrwt>0</asrwt>
<pdfrwt beam="1">  1        2 0.77641897E-02 0.76566382E+02</pdfrwt>
<pdfrwt beam="2">  1       -1 0.44677967E-02 0.76566382E+02</pdfrwt>
<totfact> 0.16878195E+05</totfact>
</mgrwt>
</event>
<event>
 8    1  0.2676873E-016  0.7876612E+02  0.7818608E-02  0.1332590E+00
          2   -1    0    0  501    0  0.00000000000E+00  0.00000000000E+00  0.58200741618E+02  0.58200741674E+02  0.25500000000E-02 0. -1.
         -1   -1    0    0    0  501 -0.00000000000E+00 -0.00000000000E+00 -0.26649582603E+02  0.26649583080E+02  0.50400000000E-02 0.  1.
         24    2    1    2    0    0  0.71054273576E-14  0.00000000000E+00  0.31551159014E+02  0.84850324753E+02  0.78766122004E+02 0.  0.
         66    2    3    3    0    0 -0.38102222910E+02  0.12383280646E+01  0.26324433260E+02  0.46371204789E+02  0.20000000016E+01 0.  0.
        -13    1    3    3    0    0  0.38102222910E+02 -0.12383280646E+01  0.52267257549E+01  0.38479119965E+02  0.10566000000E+00 0.  1.
         13    1    4    4    0    0 -0.14171326878E+02  0.81064408207E+00  0.96069946641E+01  0.17140278872E+02  0.10566000000E+00 0. -1.
        -13    1    4    4    0    0 -0.18831282525E+02  0.92723135380E+00  0.13095267640E+02  0.22955917715E+02  0.10566000000E+00 0.  1.
         14    1    4    4    0    0 -0.50996135071E+01 -0.49954737131E+00  0.36221709555E+01  0.62750082015E+01  0.00000000000E+00 0. -1.
<mgrwt>
<rscale>  0 0.78766122E+02</rscale>
<asrwt>0</asrwt>
<pdfrwt beam="1">  1        2 0.89539602E-02 0.78766122E+02</pdfrwt>
<pdfrwt beam="2">  1       -1 0.40999359E-02 0.78766122E+02</pdfrwt>
<totfact> 0.16125410E+05</totfact>
</mgrwt>
</event>
<event>
 8    1  0.2676873E-016  0.7916474E+02  0.7818608E-02  0.1331439E+00
         -1   -1    0    0    0  501 -0.00000000000E+00  0.00000000000E+00  0.54321084947E+01  0.54321108328E+01  0.50400000000E-02 0.  1.
          2   -1    0    0  501    0  0.00000000000E+00 -0.00000000000E+00 -0.28842642643E+03  0.28842642644E+03  0.25500000000E-02 0. -1.
         24    2    1    2    0    0  0.35527136788E-14  0.00000000000E+00 -0.28299431793E+03  0.29385853727E+03  0.79164739279E+02 0.  0.
         66    2    3    3    0    0  0.30375241868E+02 -0.66350637162E+01 -0.23236635346E+03  0.23444573277E+03  0.20000001155E+01 0.  0.
        -13    1    3    3    0    0 -0.30375241868E+02  0.66350637162E+01 -0.50627964468E+02  0.59412804506E+02  0.10566000000E+00 0.  1.
         13    1    4    4    0    0  0.91440540675E+01 -0.22819643988E+01 -0.64226528503E+02  0.64914399126E+02  0.10566000000E+00 0. -1.
        -13    1    4    4    0    0  0.10896078136E+02 -0.20671477716E+01 -0.85347230807E+02  0.86064851066E+02  0.10566000000E+00 0.  1.
         14    1    4    4    0    0  0.10335109664E+02 -0.22859515458E+01 -0.82792594155E+02  0.83466482574E+02  0.00000000000E+00 0. -1.
<mgrwt>
<rscale>  0 0.79164739E+02</rscale>
<asrwt>0</asrwt>
<pdfrwt beam="1">  1        2 0.44373284E-01 0.79164739E+02</pdfrwt>
<pdfrwt beam="2">  1       -1 0.83570941E-03 0.79164739E+02</pdfrwt>
<totfact> 0.25834984E+05</totfact>
</mgrwt>
</event>
<event>
 8    1  0.2676873E-016  0.7926510E+02  0.7818608E-02  0.1331150E+00
          2   -1    0    0  501    0  0.00000000000E+00  0.00000000000E+00  0.14352015370E+03  0.14352015373E+03  0.25500000000E-02 0. -1.
         -1   -1    0    0    0  501 -0.00000000000E+00 -0.00000000000E+00 -0.10944379632E+02  0.10944380792E+02  0.50400000000E-02 0.  1.
         24    2    1    2    0    0  0.35527136788E-14  0.00000000000E+00  0.13257577407E+03  0.15446453452E+03  0.79265102997E+02 0.  0.
         66    2    3    3    0    0  0.24353304951E+02  0.28018763252E+02  0.93233408985E+02  0.10037232241E+03  0.19999996297E+01 0.  0.
        -13    1    3    3    0    0 -0.24353304951E+02 -0.28018763252E+02  0.39342365086E+02  0.54092212109E+02  0.10566000000E+00 0.  1.
         13    1    4    4    0    0  0.15914451059E+02  0.19215573339E+02  0.63063949710E+02  0.67820210323E+02  0.10566000000E+00 0. -1.
        -13    1    4    4    0    0  0.32465110106E+01  0.30017223663E+01  0.10135800647E+02  0.11058742681E+02  0.10566000000E+00 0.  1.
         14    1    4    4    0    0  0.51923428807E+01  0.58014675468E+01  0.20033658628E+02  0.21493369404E+02  0.00000000000E+00 0. -1.
<mgrwt>
<rscale>  0 0.79265103E+02</rscale>
<asrwt>0</asrwt>
<pdfrwt beam="1">  1        2 0.22080023E-01 0.79265103E+02</pdfrwt>
<pdfrwt beam="2">  1       -1 0.16837509E-02 0.79265103E+02</pdfrwt>
<totfact> 0.20238655E+05</totfact>
</mgrwt>
</event>
<event>
 8    1  0.2676873E-016  0.7882867E+02  0.7818608E-02  0.1332409E+00
          2   -1    0    0  501    0  0.00000000000E+00  0.00000000000E+00  0.98909801492E+02  0.98909801525E+02  0.25500000000E-02 0. -1.
         -1   -1    0    0    0  501 -0.00000000000E+00 -0.00000000000E+00 -0.15706127332E+02  0.15706128140E+02  0.50400000000E-02 0.  1.
         24    2    1    2    0    0 -0.44408920985E-15  0.00000000000E+00  0.83203674160E+02  0.11461592966E+03  0.78828674600E+02 0.  0.
         66    2    3    3    0    0 -0.35421429739E+01  0.36832789206E+02  0.61259202608E+02  0.71595328398E+02  0.20000016838E+01 0.  0.
        -13    1    3    3    0    0  0.35421429739E+01 -0.36832789206E+02  0.21944471552E+02  0.43020601266E+02  0.10566000000E+00 0.  1.
         13    1    4    4    0    0 -0.11769353943E+01  0.16381985395E+02  0.26958164399E+02  0.31567521508E+02  0.10566000000E+00 0. -1.
        -13    1    4    4    0    0 -0.13323307224E+01  0.12718105184E+02  0.22527659428E+02  0.25904283583E+02  0.10566000000E+00 0.  1.
        -14    1    4    4    0    0 -0.10328768572E+01  0.77326986275E+01  0.11773378781E+02  0.14123523307E+02  0.00000000000E+00 0.  1.
<mgrwt>
<rscale>  0 0.78828675E+02</rscale>
<asrwt>0</asrwt>
<pdfrwt beam="1">  1        2 0.15216893E-01 0.78828675E+02</pdfrwt>
<pdfrwt beam="2">  1       -1 0.24163273E-02 0.78828675E+02</pdfrwt>
<totfact> 0.18383466E+05</totfact>
</mgrwt>
</event>
<event>
 8    1  0.2676873E-016  0.8268842E+02  0.7818608E-02  0.1321591E+00
          2   -1    0    0  501    0  0.00000000000E+00  0.00000000000E+00  0.42759332910E+03  0.42759332911E+03  0.25500000000E-02 0. -1.
         -1   -1    0    0    0  501 -0.00000000000E+00 -0.00000000000E+00 -0.39975903826E+01  0.39975935597E+01  0.50400000000E-02 0.  1.
         24    2    1    2    0    0  0.00000000000E+00  0.00000000000E+00  0.42359573872E+03  0.43159092267E+03  0.82688419197E+02 0.  0.
         66    2    3    3    0    0  0.37517772319E+02 -0.43798806970E+01  0.29934928632E+03  0.30172961707E+03  0.20000001983E+01 0.  0.
        -13    1    3    3    0    0 -0.37517772319E+02  0.43798806970E+01  0.12424645240E+03  0.12986130560E+03  0.10566000000E+00 0.  1.
         13    1    4    4    0    0  0.61645103036E+01 -0.99085161136E+00  0.46107760651E+02  0.46528697924E+02  0.10566000000E+00 0. -1.
        -13    1    4    4    0    0  0.12933167114E+02 -0.10397419845E+01  0.99879654611E+02  0.10071893786E+03  0.10566000000E+00 0.  1.
         14    1    4    4    0    0  0.18420094902E+02 -0.23492871012E+01  0.15336187106E+03  0.15448198128E+03  0.00000000000E+00 0. -1.
<mgrwt>
<rscale>  0 0.82688419E+02</rscale>
<asrwt>0</asrwt>
<pdfrwt beam="1">  1        2 0.65783563E-01 0.82688419E+02</pdfrwt>
<pdfrwt beam="2">  1       -1 0.61501439E-03 0.82688419E+02</pdfrwt>
<totfact> 0.26519719E+05</totfact>
</mgrwt>
</event>
<event>
 8    1  0.2676873E-016  0.7900577E+02  0.7818608E-02  0.1331897E+00
         -1   -1    0    0    0  501 -0.00000000000E+00  0.00000000000E+00  0.15998431334E+02  0.15998432128E+02  0.50400000000E-02 0.  1.
          2   -1    0    0  501    0  0.00000000000E+00 -0.00000000000E+00 -0.97539431173E+02  0.97539431206E+02  0.25500000000E-02 0. -1.
         24    2    1    2    0    0  0.00000000000E+00 -0.35527136788E-14 -0.81540999839E+02  0.11353786333E+03  0.79005770395E+02 0.  0.
         66    2    3    3    0    0 -0.31526608960E+02 -0.23671732896E+02 -0.43739938698E+02  0.58919099175E+02  0.19999998716E+01 0.  0.
        -13    1    3    3    0    0  0.31526608960E+02  0.23671732896E+02 -0.37801061141E+02  0.54618764159E+02  0.10566000000E+00 0.  1.
         13    1    4    4    0    0 -0.75155347933E+01 -0.57601775449E+01 -0.10553572952E+02  0.14179279766E+02  0.10566000000E+00 0. -1.
        -13    1    4    4    0    0 -0.46039465739E+01 -0.26512552814E+01 -0.61269478754E+01  0.81102486353E+01  0.10566000000E+00 0.  1.
        -14    1    4    4    0    0 -0.19407127593E+02 -0.15260300070E+02 -0.27059417870E+02  0.36629570774E+02  0.00000000000E+00 0.  1.
<mgrwt>
<rscale>  0 0.79005770E+02</rscale>
<asrwt>0</asrwt>
<pdfrwt beam="1">  1        2 0.15006066E-01 0.79005770E+02</pdfrwt>
<pdfrwt beam="2">  1       -1 0.24612973E-02 0.79005770E+02</pdfrwt>
<totfact> 0.18202909E+05</totfact>
</mgrwt>
</event>
<event>
 8    1  0.2676873E-016  0.7820147E+02  0.7818608E-02  0.1334234E+00
          2   -1    0    0  501    0  0.00000000000E+00  0.00000000000E+00  0.10601748209E+02  0.10601748515E+02  0.25500000000E-02 0. -1.
         -1   -1    0    0    0  501 -0.00000000000E+00 -0.00000000000E+00 -0.14420899044E+03  0.14420899053E+03  0.50400000000E-02 0.  1.
         24    2    1    2    0    0  0.35527136788E-14  0.00000000000E+00 -0.13360724223E+03  0.15481073904E+03  0.78201468953E+02 0.  0.
         66    2    3    3    0    0  0.31697237313E+02  0.22162981933E+02 -0.55833939304E+02  0.67951022064E+02  0.19999999732E+01 0.  0.
        -13    1    3    3    0    0 -0.31697237313E+02 -0.22162981933E+02 -0.77773302927E+02  0.86859716979E+02  0.10566000000E+00 0.  1.
         13    1    4    4    0    0  0.21468490436E+02  0.14025514291E+02 -0.36807358092E+02  0.44859825083E+02  0.10566000000E+00 0. -1.
        -13    1    4    4    0    0  0.44197638015E+01  0.35918996275E+01 -0.87778988012E+01  0.10464163913E+02  0.10566000000E+00 0.  1.
         14    1    4    4    0    0  0.58089830757E+01  0.45455680147E+01 -0.10248682412E+02  0.12627033069E+02  0.00000000000E+00 0. -1.
<mgrwt>
<rscale>  0 0.78201469E+02</rscale>
<asrwt>0</asrwt>
<pdfrwt beam="1">  1        2 0.16310383E-02 0.78201469E+02</pdfrwt>
<pdfrwt beam="2">  1       -1 0.22185997E-01 0.78201469E+02</pdfrwt>
<totfact> 0.11538526E+05</totfact>
</mgrwt>
</event>
<event>
 8    1  0.2676873E-016  0.8039376E+02  0.7818608E-02  0.1327938E+00
         -1   -1    0    0    0  501 -0.00000000000E+00  0.00000000000E+00  0.18998201978E+01  0.18998268830E+01  0.50400000000E-02 0.  1.
          2   -1    0    0  501    0  0.00000000000E+00 -0.00000000000E+00 -0.85049439759E+03  0.85049439759E+03  0.25500000000E-02 0. -1.
         24    2    1    2    0    0  0.17763568394E-14  0.17763568394E-14 -0.84859457739E+03  0.85239422447E+03  0.80393763079E+02 0.  0.
         66    2    3    3    0    0  0.89724685985E+01  0.15135235040E+02 -0.80746400187E+03  0.80765815469E+03  0.20000003065E+01 0.  0.
        -13    1    3    3    0    0 -0.89724685985E+01 -0.15135235040E+02 -0.41130575522E+02  0.44736069779E+02  0.10566000000E+00 0.  1.
         13    1    4    4    0    0  0.71304140035E+01  0.12429685845E+02 -0.63200205150E+03  0.63216449138E+03  0.10566000000E+00 0. -1.
        -13    1    4    4    0    0  0.11983142533E+01  0.20822953600E+01 -0.13834562166E+03  0.13836652090E+03  0.10566000000E+00 0.  1.
         14    1    4    4    0    0  0.64374034165E+00  0.62325383483E+00 -0.37116328707E+02  0.37127142412E+02  0.00000000000E+00 0. -1.
<mgrwt>
<rscale>  0 0.80393763E+02</rscale>
<asrwt>0</asrwt>
<pdfrwt beam="1">  1        2 0.13084499E+00 0.80393763E+02</pdfrwt>
<pdfrwt beam="2">  1       -1 0.29228123E-03 0.80393763E+02</pdfrwt>
<totfact> 0.34258394E+05</totfact>
</mgrwt>
</event>
<event>
 8    1  0.2676873E-016  0.8000340E+02  0.7818608E-02  0.1329042E+00
         -1   -1    0    0    0  501 -0.00000000000E+00  0.00000000000E+00  0.62354090109E+02  0.62354090312E+02  0.50400000000E-02 0.  1.
          2   -1    0    0  501    0  0.00000000000E+00 -0.00000000000E+00 -0.25662086414E+02  0.25662086541E+02  0.25500000000E-02 0. -1.
         24    2    1    2    0    0  0.00000000000E+00 -0.35527136788E-14  0.36692003695E+02  0.88016176853E+02  0.80003401507E+02 0.  0.
         66    2    3    3    0    0 -0.22282965309E+02  0.16701491263E+02 -0.13197292521E+02  0.30881044104E+02  0.20000004227E+01 0.  0.
        -13    1    3    3    0    0  0.22282965309E+02 -0.16701491263E+02  0.49889296216E+02  0.57135132749E+02  0.10566000000E+00 0.  1.
         13    1    4    4    0    0 -0.29240224616E+00  0.44674654846E+00 -0.19204619377E+00  0.57717183599E+00  0.10566000000E+00 0.  1.
        -13    1    4    4    0    0 -0.49612300377E+01  0.39503706502E+01 -0.34989985338E+01  0.72438516368E+01  0.10566000000E+00 0.  1.
         14    1    4    4    0    0 -0.17029333025E+02  0.12304374064E+02 -0.95062477936E+01  0.23060020631E+02  0.00000000000E+00 0. -1.
<mgrwt>
<rscale>  0 0.80003402E+02</rscale>
<asrwt>0</asrwt>
<pdfrwt beam="1">  1        2 0.39480133E-02 0.80003402E+02</pdfrwt>
<pdfrwt beam="2">  1       -1 0.95929369E-02 0.80003402E+02</pdfrwt>
<totfact> 0.13045911E+05</totfact>
</mgrwt>
</event>
<event>
 8    1  0.2676873E-016  0.8158670E+02  0.7818608E-02  0.1324608E+00
         -1   -1    0    0    0  501 -0.00000000000E+00  0.00000000000E+00  0.10252560640E+02  0.10252561878E+02  0.50400000000E-02 0.  1.
          2   -1    0    0  501    0  0.00000000000E+00 -0.00000000000E+00 -0.16231040356E+03  0.16231040358E+03  0.25500000000E-02 0. -1.
         24    2    1    2    0    0  0.00000000000E+00  0.00000000000E+00 -0.15205784292E+03  0.17256296546E+03  0.81586699003E+02 0.  0.
         66    2    3    3    0    0  0.38096146258E+02 -0.78087115103E+01 -0.10196162965E+03  0.10914424517E+03  0.19999992802E+01 0.  0.
        -13    1    3    3    0    0 -0.38096146258E+02  0.78087115103E+01 -0.50096213266E+02  0.63418720287E+02  0.10566000000E+00 0.  1.
         13    1    4    4    0    0  0.16949344990E+02 -0.40115692841E+01 -0.44623445415E+02  0.47902359320E+02  0.10566000000E+00 0. -1.
        -13    1    4    4    0    0  0.20391119428E+02 -0.37340970129E+01 -0.54686029879E+02  0.58483452873E+02  0.10566000000E+00 0.  1.
        -14    1    4    4    0    0  0.75568184084E+00 -0.63045213268E-01 -0.26521543607E+01  0.27584329784E+01  0.00000000000E+00 0.  1.
<mgrwt>
<rscale>  0 0.81586699E+02</rscale>
<asrwt>0</asrwt>
<pdfrwt beam="1">  1        2 0.24970829E-01 0.81586699E+02</pdfrwt>
<pdfrwt beam="2">  1       -1 0.15773172E-02 0.81586699E+02</pdfrwt>
<totfact> 0.19508499E+05</totfact>
</mgrwt>
</event>
<event>
 8    1  0.2676873E-016  0.8262624E+02  0.7818608E-02  0.1321760E+00
         -1   -1    0    0    0  501 -0.00000000000E+00  0.00000000000E+00  0.20224536322E+03  0.20224536329E+03  0.50400000000E-02 0.  1.
          2   -1    0    0  501    0  0.00000000000E+00 -0.00000000000E+00 -0.84391244909E+01  0.84391248762E+01  0.25500000000E-02 0. -1.
         24    2    1    2    0    0  0.44408920985E-15  0.35527136788E-14  0.19380623873E+03  0.21068448816E+03  0.82626239056E+02 0.  0.
         66    2    3    3    0    0 -0.38098732182E+01 -0.30337072632E+02  0.16771132157E+03  0.17048736171E+03  0.20000018940E+01 0.  0.
        -13    1    3    3    0    0  0.38098732182E+01  0.30337072632E+02  0.26094917159E+02  0.40197126457E+02  0.10566000000E+00 0.  1.
         13    1    4    4    0    0 -0.34976741095E+01 -0.26202483333E+02  0.14135819864E+03  0.14380874572E+03  0.10566000000E+00 0. -1.
        -13    1    4    4    0    0 -0.72961897588E-01 -0.18384864492E+01  0.11181485899E+02  0.11332349572E+02  0.10566000000E+00 0.  1.
         14    1    4    4    0    0 -0.23923721118E+00 -0.22961028495E+01  0.15171637031E+02  0.15346266416E+02  0.00000000000E+00 0. -1.
<mgrwt>
<rscale>  0 0.82626239E+02</rscale>
<asrwt>0</asrwt>
<pdfrwt beam="1">  1        2 0.12983269E-02 0.82626239E+02</pdfrwt>
<pdfrwt beam="2">  1       -1 0.31114672E-01 0.82626239E+02</pdfrwt>
<totfact> 0.91425653E+04</totfact>
</mgrwt>
</event>
<event>
 8    1  0.2676873E-016  0.7806816E+02  0.7818608E-02  0.1334625E+00
         -1   -1    0    0    0  501 -0.00000000000E+00  0.00000000000E+00  0.44036371343E+02  0.44036371631E+02  0.50400000000E-02 0.  1.
          2   -1    0    0  501    0  0.00000000000E+00 -0.00000000000E+00 -0.34600018315E+02  0.34600018409E+02  0.25500000000E-02 0. -1.
         24    2    1    2    0    0  0.00000000000E+00  0.00000000000E+00  0.94363530278E+01  0.78636390041E+02  0.78068156633E+02 0.  0.
         66    2    3    3    0    0 -0.35227349692E+02  0.16629392073E+02  0.26689124243E+01  0.39097646214E+02  0.19999997328E+01 0.  0.
        -13    1    3    3    0    0  0.35227349692E+02 -0.16629392073E+02  0.67674406035E+01  0.39538743827E+02  0.10566000000E+00 0.  1.
         13    1    4    4    0    0 -0.22054552287E+02  0.10431022025E+02  0.80483463690E+00  0.24410416217E+02  0.10566000000E+00 0. -1.
        -13    1    4    4    0    0 -0.89045968365E+01  0.39700642490E+01  0.10963009914E+01  0.98115388631E+01  0.10566000000E+00 0.  1.
         14    1    4    4    0    0 -0.42682005683E+01  0.22283057988E+01  0.76777679605E+00  0.48756911339E+01  0.00000000000E+00 0. -1.
<mgrwt>
<rscale>  0 0.78068157E+02</rscale>
<asrwt>0</asrwt>
<pdfrwt beam="1">  1        2 0.53230798E-02 0.78068157E+02</pdfrwt>
<pdfrwt beam="2">  1       -1 0.67748264E-02 0.78068157E+02</pdfrwt>
<totfact> 0.14814519E+05</totfact>
</mgrwt>
</event>
<event>
 8    1  0.2676873E-016  0.7974484E+02  0.7818608E-02  0.1329777E+00
         -1   -1    0    0    0  501 -0.00000000000E+00  0.00000000000E+00  0.27439973800E+02  0.27439974263E+02  0.50400000000E-02 0.  1.
          2   -1    0    0  501    0  0.00000000000E+00 -0.00000000000E+00 -0.57937733934E+02  0.57937733990E+02  0.25500000000E-02 0. -1.
         24    2    1    2    0    0  0.00000000000E+00  0.00000000000E+00 -0.30497760134E+02  0.85377708253E+02  0.79744841171E+02 0.  0.
         66    2    3    3    0    0  0.91862616592E+01 -0.32764786586E+02 -0.37456693487E+02  0.50645064231E+02  0.20000001777E+01 0.  0.
        -13    1    3    3    0    0 -0.91862616592E+01  0.32764786586E+02  0.69589333531E+01  0.34732644022E+02  0.10566000000E+00 0.  1.
         13    1    4    4    0    0  0.60544501019E+00 -0.16282350732E+01 -0.16504120264E+01  0.23984863990E+01  0.10566000000E+00 0. -1.
        -13    1    4    4    0    0  0.90664190081E+00 -0.18774728748E+01 -0.23326969182E+01  0.31304221568E+01  0.10566000000E+00 0.  1.
         14    1    4    4    0    0  0.76741747482E+01 -0.29259078638E+02 -0.33473584542E+02  0.45116155675E+02  0.00000000000E+00 0. -1.
<mgrwt>
<rscale>  0 0.79744841E+02</rscale>
<asrwt>0</asrwt>
<pdfrwt beam="1">  1        2 0.89134975E-02 0.79744841E+02</pdfrwt>
<pdfrwt beam="2">  1       -1 0.42215345E-02 0.79744841E+02</pdfrwt>
<totfact> 0.15576649E+05</totfact>
</mgrwt>
</event>
<event>
 8    1  0.2676873E-016  0.7982798E+02  0.7818608E-02  0.1329540E+00
         -1   -1    0    0    0  501 -0.00000000000E+00  0.00000000000E+00  0.28553213086E+01  0.28553257567E+01  0.50400000000E-02 0.  1.
          2   -1    0    0  501    0  0.00000000000E+00 -0.00000000000E+00 -0.55794962731E+03  0.55794962732E+03  0.25500000000E-02 0. -1.
         24    2    1    2    0    0  0.88817841970E-15  0.00000000000E+00 -0.55509430601E+03  0.56080495308E+03  0.79827982786E+02 0.  0.
         66    2    3    3    0    0 -0.49887253254E+01 -0.35712395312E+02 -0.39753226494E+03  0.39916934281E+03  0.20000018454E+01 0.  0.
        -13    1    3    3    0    0  0.49887253254E+01  0.35712395312E+02 -0.15756204106E+03  0.16163561027E+03  0.10566000000E+00 0.  1.
         13    1    4    4    0    0 -0.29464316588E+01 -0.22934250137E+02 -0.25118790574E+03  0.25224994835E+03  0.10566000000E+00 0. -1.
        -13    1    4    4    0    0 -0.53149020904E-01 -0.31634595768E+01 -0.36818608976E+02  0.36954450778E+02  0.10566000000E+00 0.  1.
        -14    1    4    4    0    0 -0.19891446458E+01 -0.96146855983E+01 -0.10952575023E+03  0.10996494368E+03  0.00000000000E+00 0.  1.
<mgrwt>
<rscale>  0 0.79827983E+02</rscale>
<asrwt>0</asrwt>
<pdfrwt beam="1">  1        2 0.85838318E-01 0.79827983E+02</pdfrwt>
<pdfrwt beam="2">  1       -1 0.43928099E-03 0.79827983E+02</pdfrwt>
<totfact> 0.31674763E+05</totfact>
</mgrwt>
</event>
<event>
 8    1  0.2676873E-016  0.7980512E+02  0.7818608E-02  0.1329605E+00
          2   -1    0    0  501    0  0.00000000000E+00  0.00000000000E+00  0.19367737309E+02  0.19367737477E+02  0.25500000000E-02 0. -1.
         -1   -1    0    0    0  501 -0.00000000000E+00 -0.00000000000E+00 -0.82209625172E+02  0.82209625326E+02  0.50400000000E-02 0.  1.
         24    2    1    2    0    0  0.35527136788E-14  0.17763568394E-14 -0.62841887863E+02  0.10157736280E+03  0.79805123669E+02 0.  0.
         66    2    3    3    0    0 -0.28336691568E+02 -0.85171179443E+01  0.25867231513E+01  0.29769120307E+02  0.20000000150E+01 0.  0.
        -13    1    3    3    0    0  0.28336691568E+02  0.85171179443E+01 -0.65428611014E+02  0.71808242496E+02  0.10566000000E+00 0.  1.
         13    1    4    4    0    0 -0.20239561356E+02 -0.60673426822E+01  0.24851563971E+01  0.21275329785E+02  0.10566000000E+00 0. -1.
        -13    1    4    4    0    0 -0.50300964194E+01 -0.11811744702E+01 -0.95782043644E-01  0.51688858909E+01  0.10566000000E+00 0.  1.
         14    1    4    4    0    0 -0.30670337924E+01 -0.12686007919E+01  0.19734879780E+00  0.33249046303E+01  0.00000000000E+00 0. -1.
<mgrwt>
<rscale>  0 0.79805124E+02</rscale>
<asrwt>0</asrwt>
<pdfrwt beam="1">  1        2 0.29796519E-02 0.79805124E+02</pdfrwt>
<pdfrwt beam="2">  1       -1 0.12647635E-01 0.79805124E+02</pdfrwt>
<totfact> 0.12421936E+05</totfact>
</mgrwt>
</event>
<event>
 8    1  0.2676873E-016  0.7957310E+02  0.7818608E-02  0.1330267E+00
         -1   -1    0    0    0  501 -0.00000000000E+00  0.00000000000E+00  0.16502430454E+01  0.16502507417E+01  0.50400000000E-02 0.  1.
          2   -1    0    0  501    0  0.00000000000E+00 -0.00000000000E+00 -0.95923184669E+03  0.95923184669E+03  0.25500000000E-02 0. -1.
         24    2    1    2    0    0  0.00000000000E+00 -0.35527136788E-14 -0.95758160364E+03  0.96088209743E+03  0.79573095532E+02 0.  0.
         66    2    3    3    0    0 -0.53859908539E+01 -0.17819231423E+02 -0.90335739095E+03  0.90355138741E+03  0.19999984043E+01 0.  0.
        -13    1    3    3    0    0  0.53859908539E+01  0.17819231423E+02 -0.54224212689E+02  0.57330710023E+02  0.10566000000E+00 0.  1.
         13    1    4    4    0    0 -0.48958301777E+01 -0.16335642305E+02 -0.84233571395E+03  0.84250833143E+03  0.10566000000E+00 0. -1.
        -13    1    4    4    0    0 -0.48983082842E+00 -0.11798118770E+01 -0.43994711678E+02  0.44013381033E+02  0.10566000000E+00 0. -1.
         14    1    4    4    0    0 -0.32984772573E-03 -0.30377724115E+00 -0.17026965324E+02  0.17029674949E+02  0.00000000000E+00 0. -1.
<mgrwt>
<rscale>  0 0.79573096E+02</rscale>
<asrwt>0</asrwt>
<pdfrwt beam="1">  1        2 0.14757368E+00 0.79573096E+02</pdfrwt>
<pdfrwt beam="2">  1       -1 0.25388491E-03 0.79573096E+02</pdfrwt>
<totfact> 0.35640337E+05</totfact>
</mgrwt>
</event>
<event>
 8    1  0.2676873E-016  0.8000649E+02  0.7818608E-02  0.1329033E+00
          2   -1    0    0  501    0  0.00000000000E+00  0.00000000000E+00  0.35167962663E+02  0.35167962755E+02  0.25500000000E-02 0. -1.
         -1   -1    0    0    0  501 -0.00000000000E+00 -0.00000000000E+00 -0.45503338308E+02  0.45503338588E+02  0.50400000000E-02 0.  1.
         24    2    1    2    0    0  0.00000000000E+00  0.00000000000E+00 -0.10335375645E+02  0.80671301343E+02  0.80006492678E+02 0.  0.
         66    2    3    3    0    0  0.35989553860E+02 -0.10822761372E+02 -0.18917779091E+02  0.42121995724E+02  0.20000018074E+01 0.  0.
        -13    1    3    3    0    0 -0.35989553860E+02  0.10822761372E+02  0.85824034461E+01  0.38549305619E+02  0.10566000000E+00 0.  1.
         13    1    4    4    0    0  0.15932204274E+02 -0.49712156537E+01 -0.77186365631E+01  0.18388491851E+02  0.10566000000E+00 0. -1.
        -13    1    4    4    0    0  0.16652756501E+02 -0.45959393232E+01 -0.88481566138E+01  0.19409739742E+02  0.10566000000E+00 0.  1.
        -14    1    4    4    0    0  0.34045930848E+01 -0.12556063953E+01 -0.23509859145E+01  0.43237641313E+01  0.00000000000E+00 0.  1.
<mgrwt>
<rscale>  0 0.80006493E+02</rscale>
<asrwt>0</asrwt>
<pdfrwt beam="1">  1        2 0.54104558E-02 0.80006493E+02</pdfrwt>
<pdfrwt beam="2">  1       -1 0.70005137E-02 0.80006493E+02</pdfrwt>
<totfact> 0.13884214E+05</totfact>
</mgrwt>
</event>
<event>
 8    1  0.2676873E-016  0.7955890E+02  0.7818608E-02  0.1330308E+00
         -1   -1    0    0    0  501 -0.00000000000E+00  0.00000000000E+00  0.87158774049E+02  0.87158774194E+02  0.50400000000E-02 0.  1.
          2   -1    0    0  501    0  0.00000000000E+00 -0.00000000000E+00 -0.18155423548E+02  0.18155423727E+02  0.25500000000E-02 0. -1.
         24    2    1    2    0    0  0.00000000000E+00  0.00000000000E+00  0.69003350501E+02  0.10531419792E+03  0.79558895817E+02 0.  0.
         66    2    3    3    0    0 -0.73301714179E+00  0.24042635259E+02 -0.73744291565E+01  0.25238221414E+02  0.19999976032E+01 0.  0.
        -13    1    3    3    0    0  0.73301714179E+00 -0.24042635259E+02  0.76377779657E+02  0.80075976508E+02  0.10566000000E+00 0.  1.
         13    1    4    4    0    0 -0.25869940574E+00  0.15955799674E+02 -0.52580998429E+01  0.16802179817E+02  0.10566000000E+00 0. -1.
        -13    1    4    4    0    0 -0.78169961996E+00  0.65225914595E+01 -0.16288683934E+01  0.67690198642E+01  0.10566000000E+00 0.  1.
         14    1    4    4    0    0  0.30738188392E+00  0.15642441258E+01 -0.48746092032E+00  0.16670217324E+01  0.00000000000E+00 0. -1.
<mgrwt>
<rscale>  0 0.79558896E+02</rscale>
<asrwt>0</asrwt>
<pdfrwt beam="1">  1        2 0.27931421E-02 0.79558896E+02</pdfrwt>
<pdfrwt beam="2">  1       -1 0.13409042E-01 0.79558896E+02</pdfrwt>
<totfact> 0.12368573E+05</totfact>
</mgrwt>
</event>
<event>
 8    1  0.2676873E-016  0.8036383E+02  0.7818608E-02  0.1328022E+00
         -1   -1    0    0    0  501 -0.00000000000E+00  0.00000000000E+00  0.19011787137E+03  0.19011787143E+03  0.50400000000E-02 0.  1.
          2   -1    0    0  501    0  0.00000000000E+00 -0.00000000000E+00 -0.84925544957E+01  0.84925548785E+01  0.25500000000E-02 0. -1.
         24    2    1    2    0    0  0.00000000000E+00  0.00000000000E+00  0.18162531687E+03  0.19861042631E+03  0.80363833354E+02 0.  0.
         66    2    3    3    0    0  0.22570141371E+02 -0.24112111068E+02  0.34416192044E+02  0.47741798764E+02  0.19999732020E+01 0.  0.
        -13    1    3    3    0    0 -0.22570141371E+02  0.24112111068E+02  0.14720912483E+03  0.15086862755E+03  0.10566000000E+00 0.  1.
         13    1    4    4    0    0  0.38911424493E+01 -0.41656729692E+01  0.63616794598E+01  0.85425962349E+01  0.10566000000E+00 0. -1.
        -13    1    4    4    0    0  0.82082144978E+01 -0.87025236472E+01  0.13460130074E+02  0.18008191711E+02  0.10566000000E+00 0.  1.
         14    1    4    4    0    0  0.10470784424E+02 -0.11243914452E+02  0.14594382510E+02  0.21191010818E+02  0.00000000000E+00 0. -1.
<mgrwt>
<rscale>  0 0.80363833E+02</rscale>
<asrwt>0</asrwt>
<pdfrwt beam="1">  1        2 0.13065468E-02 0.80363833E+02</pdfrwt>
<pdfrwt beam="2">  1       -1 0.29248904E-01 0.80363833E+02</pdfrwt>
<totfact> 0.99958107E+04</totfact>
</mgrwt>
</event>
<event>
 8    1  0.2676873E-016  0.8016926E+02  0.7818608E-02  0.1328572E+00
          2   -1    0    0  501    0  0.00000000000E+00  0.00000000000E+00  0.28069867635E+03  0.28069867636E+03  0.25500000000E-02 0. -1.
         -1   -1    0    0    0  501 -0.00000000000E+00 -0.00000000000E+00 -0.57242069223E+01  0.57242091411E+01  0.50400000000E-02 0.  1.
         24    2    1    2    0    0  0.00000000000E+00  0.00000000000E+00  0.27497446942E+03  0.28642288550E+03  0.80169261582E+02 0.  0.
         66    2    3    3    0    0  0.29778858265E+02 -0.88830894643E+01  0.22789142546E+03  0.23000911173E+03  0.20000005807E+01 0.  0.
        -13    1    3    3    0    0 -0.29778858265E+02  0.88830894643E+01  0.47083043964E+02  0.56413773770E+02  0.10566000000E+00 0.  1.
         13    1    4    4    0    0  0.57277783566E+01 -0.18268709707E+01  0.40095529098E+02  0.40543896213E+02  0.10566000000E+00 0. -1.
        -13    1    4    4    0    0  0.19374120648E+02 -0.58505325615E+01  0.14803259505E+03  0.14940965713E+03  0.10566000000E+00 0.  1.
        -14    1    4    4    0    0  0.46769592602E+01 -0.12056859321E+01  0.39763301311E+02  0.40055558387E+02  0.00000000000E+00 0.  1.
<mgrwt>
<rscale>  0 0.80169262E+02</rscale>
<asrwt>0</asrwt>
<pdfrwt beam="1">  1        2 0.43184421E-01 0.80169262E+02</pdfrwt>
<pdfrwt beam="2">  1       -1 0.88064721E-03 0.80169262E+02</pdfrwt>
<totfact> 0.24749974E+05</totfact>
</mgrwt>
</event>
<event>
 8    1  0.2676873E-016  0.7967009E+02  0.7818608E-02  0.1329990E+00
          2   -1    0    0  501    0  0.00000000000E+00  0.00000000000E+00  0.71656952717E+02  0.71656952762E+02  0.25500000000E-02 0. -1.
         -1   -1    0    0    0  501 -0.00000000000E+00 -0.00000000000E+00 -0.22144825337E+02  0.22144825910E+02  0.50400000000E-02 0.  1.
         24    2    1    2    0    0  0.00000000000E+00  0.00000000000E+00  0.49512127380E+02  0.93801778673E+02  0.79670088016E+02 0.  0.
         66    2    3    3    0    0  0.16014019483E+02 -0.12847895750E+01  0.67656722494E+02  0.69566742050E+02  0.19999991429E+01 0.  0.
        -13    1    3    3    0    0 -0.16014019483E+02  0.12847895750E+01 -0.18144595114E+02  0.24235036623E+02  0.10566000000E+00 0.  1.
         13    1    4    4    0    0  0.96660298639E+01 -0.66473456036E+00  0.40531064441E+02  0.41673161077E+02  0.10566000000E+00 0. -1.
        -13    1    4    4    0    0  0.12673154988E+01 -0.56737675710E+00  0.48611610600E+01  0.50566842738E+01  0.10566000000E+00 0.  1.
         14    1    4    4    0    0  0.50806741199E+01 -0.52678257543E-01  0.22264496993E+02  0.22836896699E+02  0.00000000000E+00 0. -1.
<mgrwt>
<rscale>  0 0.79670088E+02</rscale>
<asrwt>0</asrwt>
<pdfrwt beam="1">  1        2 0.11024147E-01 0.79670088E+02</pdfrwt>
<pdfrwt beam="2">  1       -1 0.34068962E-02 0.79670088E+02</pdfrwt>
<totfact> 0.16421915E+05</totfact>
</mgrwt>
</event>
<event>
 8    1  0.2676873E-016  0.8111102E+02  0.7818608E-02  0.1325928E+00
          2   -1    0    0  501    0  0.00000000000E+00  0.00000000000E+00  0.23123080552E+03  0.23123080554E+03  0.25500000000E-02 0. -1.
         -1   -1    0    0    0  501 -0.00000000000E+00 -0.00000000000E+00 -0.71130200041E+01  0.71130217896E+01  0.50400000000E-02 0.  1.
         24    2    1    2    0    0  0.35527136788E-14  0.35527136788E-14  0.22411778552E+03  0.23834382732E+03  0.81111024151E+02 0.  0.
         66    2    3    3    0    0 -0.30142403621E+02 -0.18015214590E+02  0.17159999612E+03  0.17516755156E+03  0.19999991760E+01 0.  0.
        -13    1    3    3    0    0  0.30142403621E+02  0.18015214590E+02  0.52517789393E+02  0.63176275765E+02  0.10566000000E+00 0.  1.
         13    1    4    4    0    0 -0.26514432950E+01 -0.12209763092E+01  0.15230521351E+02  0.15508090771E+02  0.10566000000E+00 0. -1.
        -13    1    4    4    0    0 -0.14256872640E+02 -0.82512063714E+01  0.77112125063E+02  0.78851961420E+02  0.10566000000E+00 0.  1.
         14    1    4    4    0    0 -0.13234087687E+02 -0.85430319097E+01  0.79257349711E+02  0.80807499369E+02  0.00000000000E+00 0. -1.
<mgrwt>
<rscale>  0 0.81111024E+02</rscale>
<asrwt>0</asrwt>
<pdfrwt beam="1">  1        2 0.35573964E-01 0.81111024E+02</pdfrwt>
<pdfrwt beam="2">  1       -1 0.10943111E-02 0.81111024E+02</pdfrwt>
<totfact> 0.22384690E+05</totfact>
</mgrwt>
</event>
<event>
 8    1  0.2676873E-016  0.7868180E+02  0.7818608E-02  0.1332834E+00
          2   -1    0    0  501    0  0.00000000000E+00  0.00000000000E+00  0.63969930442E+02  0.63969930493E+02  0.25500000000E-02 0. -1.
         -1   -1    0    0    0  501 -0.00000000000E+00 -0.00000000000E+00 -0.24194278862E+02  0.24194279387E+02  0.50400000000E-02 0.  1.
         24    2    1    2    0    0  0.00000000000E+00  0.00000000000E+00  0.39775651580E+02  0.88164209880E+02  0.78681798691E+02 0.  0.
         66    2    3    3    0    0 -0.12612997140E+02 -0.72926644777E+01  0.60817592049E+02  0.62570361503E+02  0.19999959675E+01 0.  0.
        -13    1    3    3    0    0  0.12612997140E+02  0.72926644777E+01 -0.21041940469E+02  0.25593848378E+02  0.10566000000E+00 0.  1.
         13    1    4    4    0    0 -0.95318011452E+00 -0.59878903006E+00  0.32204760581E+01  0.34131701847E+01  0.10566000000E+00 0. -1.
        -13    1    4    4    0    0 -0.39758406662E+01 -0.27496578741E+01  0.19015811985E+02  0.19620912235E+02  0.10566000000E+00 0.  1.
         14    1    4    4    0    0 -0.76839763592E+01 -0.39442175735E+01  0.38581304006E+02  0.39536279083E+02  0.00000000000E+00 0. -1.
<mgrwt>
<rscale>  0 0.78681799E+02</rscale>
<asrwt>0</asrwt>
<pdfrwt beam="1">  1        2 0.98415278E-02 0.78681799E+02</pdfrwt>
<pdfrwt beam="2">  1       -1 0.37221968E-02 0.78681799E+02</pdfrwt>
<totfact> 0.16529100E+05</totfact>
</mgrwt>
</event>
<event>
 8    1  0.2676873E-016  0.8044078E+02  0.7818608E-02  0.1327805E+00
          2   -1    0    0  501    0  0.00000000000E+00  0.00000000000E+00  0.17235805445E+04  0.17235805445E+04  0.25500000000E-02 0. -1.
         -1   -1    0    0    0  501 -0.00000000000E+00 -0.00000000000E+00 -0.93855091347E+00  0.93856444572E+00  0.50400000000E-02 0.  1.
         24    2    1    2    0    0  0.00000000000E+00  0.00000000000E+00  0.17226419936E+04  0.17245191090E+04  0.80440779818E+02 0.  0.
         66    2    3    3    0    0  0.14331069059E+00  0.20739773406E+02  0.16000033727E+04  0.16001390413E+04  0.19999999744E+01 0.  0.
        -13    1    3    3    0    0 -0.14331069059E+00 -0.20739773406E+02  0.12263862086E+03  0.12438006766E+03  0.10566000000E+00 0.  1.
         13    1    4    4    0    0 -0.17359649599E+00  0.10058441429E+02  0.76649410692E+03  0.76656012777E+03  0.10566000000E+00 0. -1.
        -13    1    4    4    0    0 -0.39469290928E+00  0.70899497338E+01  0.56866260230E+03  0.56870694526E+03  0.10566000000E+00 0. -1.
         14    1    4    4    0    0  0.71160009587E+00  0.35913822437E+01  0.26484666351E+03  0.26487196826E+03  0.00000000000E+00 0. -1.
<mgrwt>
<rscale>  0 0.80440780E+02</rscale>
<asrwt>0</asrwt>
<pdfrwt beam="1">  1        2 0.26516842E+00 0.80440780E+02</pdfrwt>
<pdfrwt beam="2">  1       -1 0.14439230E-03 0.80440780E+02</pdfrwt>
<totfact> 0.30638120E+05</totfact>
</mgrwt>
</event>
<event>
 8    1  0.2676873E-016  0.7987583E+02  0.7818608E-02  0.1329404E+00
          2   -1    0    0  501    0  0.00000000000E+00  0.00000000000E+00  0.20722949514E+02  0.20722949671E+02  0.25500000000E-02 0. -1.
         -1   -1    0    0    0  501 -0.00000000000E+00 -0.00000000000E+00 -0.76969603639E+02  0.76969603804E+02  0.50400000000E-02 0.  1.
         24    2    1    2    0    0  0.00000000000E+00  0.22204460493E-15 -0.56246654125E+02  0.97692553475E+02  0.79875834295E+02 0.  0.
         66    2    3    3    0    0 -0.35843638432E+02  0.10617801816E+01 -0.67064190941E+01  0.36535870732E+02  0.19999999811E+01 0.  0.
        -13    1    3    3    0    0  0.35843638432E+02 -0.10617801816E+01 -0.49540235031E+02  0.61156682743E+02  0.10566000000E+00 0.  1.
         13    1    4    4    0    0 -0.16800515319E+02  0.13517797562E+00 -0.34437575623E+01  0.17150691480E+02  0.10566000000E+00 0. -1.
        -13    1    4    4    0    0 -0.63347713198E+00 -0.14541083341E+00 -0.22480721462E+00  0.69580162874E+00  0.10566000000E+00 0.  1.
         14    1    4    4    0    0 -0.18409645981E+02  0.10720130394E+01 -0.30378543172E+01  0.18689377623E+02  0.00000000000E+00 0. -1.
<mgrwt>
<rscale>  0 0.79875834E+02</rscale>
<asrwt>0</asrwt>
<pdfrwt beam="1">  1        2 0.31881461E-02 0.79875834E+02</pdfrwt>
<pdfrwt beam="2">  1       -1 0.11841477E-01 0.79875834E+02</pdfrwt>
<totfact> 0.12560740E+05</totfact>
</mgrwt>
</event>
<event>
 8    1  0.2676873E-016  0.8833333E+02  0.7818608E-02  0.1306939E+00
         -1   -1    0    0    0  501 -0.00000000000E+00  0.00000000000E+00  0.83448883320E+01  0.83448898540E+01  0.50400000000E-02 0.  1.
          2   -1    0    0  501    0  0.00000000000E+00 -0.00000000000E+00 -0.23375917291E+03  0.23375917292E+03  0.25500000000E-02 0. -1.
         24    2    1    2    0    0  0.00000000000E+00  0.00000000000E+00 -0.22541428458E+03  0.24210406278E+03  0.88333331884E+02 0.  0.
         66    2    3    3    0    0  0.27812231771E+02 -0.17521420901E+02 -0.19352164636E+03  0.19630371384E+03  0.20000075828E+01 0.  0.
        -13    1    3    3    0    0 -0.27812231771E+02  0.17521420901E+02 -0.31892638218E+02  0.45800348940E+02  0.10566000000E+00 0.  1.
         13    1    4    4    0    0  0.19725271190E+02 -0.12255437130E+02 -0.13889308187E+03  0.14082109721E+03  0.10566000000E+00 0. -1.
        -13    1    4    4    0    0  0.66906581723E+01 -0.39272486311E+01 -0.44368420177E+02  0.45041714684E+02  0.10566000000E+00 0. -1.
         14    1    4    4    0    0  0.13963024078E+01 -0.13387351401E+01 -0.10260144311E+02  0.10440901948E+02  0.00000000000E+00 0. -1.
<mgrwt>
<rscale>  0 0.88333332E+02</rscale>
<asrwt>0</asrwt>
<pdfrwt beam="1">  1        2 0.35962945E-01 0.88333332E+02</pdfrwt>
<pdfrwt beam="2">  1       -1 0.12838293E-02 0.88333332E+02</pdfrwt>
<totfact> 0.17929943E+05</totfact>
</mgrwt>
</event>
<event>
 8    1  0.2676873E-016  0.7974856E+02  0.7818608E-02  0.1329767E+00
          2   -1    0    0  501    0  0.00000000000E+00  0.00000000000E+00  0.22220801805E+03  0.22220801806E+03  0.25500000000E-02 0. -1.
         -1   -1    0    0    0  501 -0.00000000000E+00 -0.00000000000E+00 -0.71552678676E+01  0.71552696427E+01  0.50400000000E-02 0.  1.
         24    2    1    2    0    0 -0.88817841970E-15  0.00000000000E+00  0.21505275018E+03  0.22936328771E+03  0.79748557271E+02 0.  0.
         66    2    3    3    0    0 -0.74669525639E+01 -0.20302719186E+02  0.20384577176E+03  0.20500013281E+03  0.20000005288E+01 0.  0.
        -13    1    3    3    0    0  0.74669525639E+01  0.20302719186E+02  0.11206978419E+02  0.24363154891E+02  0.10566000000E+00 0.  1.
         13    1    4    4    0    0 -0.16114970408E+01 -0.70614424555E+01  0.67523197659E+02  0.67910634502E+02  0.10566000000E+00 0. -1.
        -13    1    4    4    0    0 -0.32069095453E+01 -0.70095969919E+01  0.72127851491E+02  0.72538657580E+02  0.10566000000E+00 0.  1.
         14    1    4    4    0    0 -0.26485459778E+01 -0.62316797381E+01  0.64194722611E+02  0.64550840732E+02  0.00000000000E+00 0. -1.
<mgrwt>
<rscale>  0 0.79748557E+02</rscale>
<asrwt>0</asrwt>
<pdfrwt beam="1">  1        2 0.34185848E-01 0.79748557E+02</pdfrwt>
<pdfrwt beam="2">  1       -1 0.11008106E-02 0.79748557E+02</pdfrwt>
<totfact> 0.23078328E+05</totfact>
</mgrwt>
</event>
<event>
 8    1  0.2676873E-016  0.8368550E+02  0.7818608E-02  0.1318906E+00
          2   -1    0    0  501    0  0.00000000000E+00  0.00000000000E+00  0.47383726015E+02  0.47383726084E+02  0.25500000000E-02 0. -1.
         -1   -1    0    0    0  501 -0.00000000000E+00 -0.00000000000E+00 -0.36949723202E+02  0.36949723546E+02  0.50400000000E-02 0.  1.
         24    2    1    2    0    0  0.00000000000E+00  0.35527136788E-14  0.10434002813E+02  0.84333449630E+02  0.83685496424E+02 0.  0.
         66    2    3    3    0    0 -0.15362875285E+02 -0.27557060579E+02  0.32880648100E+02  0.45613008344E+02  0.19999964845E+01 0.  0.
        -13    1    3    3    0    0  0.15362875285E+02  0.27557060579E+02 -0.22446645287E+02  0.38720441286E+02  0.10566000000E+00 0.  1.
         13    1    4    4    0    0 -0.93519117714E+01 -0.15963419501E+02  0.20078910852E+02  0.27303165402E+02  0.10566000000E+00 0. -1.
        -13    1    4    4    0    0 -0.43323527337E+01 -0.74802035538E+01  0.82681074531E+01  0.11962252727E+02  0.10566000000E+00 0.  1.
         14    1    4    4    0    0 -0.16786107795E+01 -0.41134375237E+01  0.45336297950E+01  0.63475902143E+01  0.00000000000E+00 0. -1.
<mgrwt>
<rscale>  0 0.83685496E+02</rscale>
<asrwt>0</asrwt>
<pdfrwt beam="1">  1        2 0.72898039E-02 0.83685496E+02</pdfrwt>
<pdfrwt beam="2">  1       -1 0.56845729E-02 0.83685496E+02</pdfrwt>
<totfact> 0.13047503E+05</totfact>
</mgrwt>
</event>
<event>
 8    1  0.2802100E-016  0.7922758E+02  0.7818608E-02  0.1331258E+00
          2   -1    0    0  501    0  0.00000000000E+00  0.00000000000E+00  0.41933003254E+03  0.41933003254E+03  0.25500000000E-02 0. -1.
         -1   -1    0    0    0  501 -0.00000000000E+00 -0.00000000000E+00 -0.37422832504E+01  0.37422866442E+01  0.50400000000E-02 0.  1.
         24    2    1    2    0    0  0.17763568394E-14 -0.88817841970E-15  0.41558774929E+03  0.42307231919E+03  0.79227582992E+02 0.  0.
         66    2    3    3    0    0  0.11730882832E+02 -0.47780864618E+01  0.40821394019E+03  0.40841530903E+03  0.19999899802E+01 0.  0.
        -13    1    3    3    0    0 -0.11730882832E+02  0.47780864618E+01  0.73738090961E+01  0.14657010161E+02  0.10566000000E+00 0.  1.
         13    1    4    4    0    0  0.63458296344E+01 -0.25610924635E+01  0.20566912738E+03  0.20578296788E+03  0.10566000000E+00 0. -1.
        -13    1    4    4    0    0  0.26005695077E+01 -0.13494912153E+01  0.82412398912E+02  0.82464530235E+02  0.10566000000E+00 0.  1.
        -14    1    4    4    0    0  0.27844836897E+01 -0.86750278298E+00  0.12013241389E+03  0.12016781091E+03  0.00000000000E+00 0.  1.
<mgrwt>
<rscale>  0 0.79227583E+02</rscale>
<asrwt>0</asrwt>
<pdfrwt beam="1">  1        2 0.64512268E-01 0.79227583E+02</pdfrwt>
<pdfrwt beam="2">  1       -1 0.57573655E-03 0.79227583E+02</pdfrwt>
<totfact> 0.29456729E+05</totfact>
</mgrwt>
</event>
<event>
 8    1  0.2676873E-016  0.7761564E+02  0.7818608E-02  0.1335957E+00
         -1   -1    0    0    0  501 -0.00000000000E+00  0.00000000000E+00  0.37218098825E+01  0.37218132950E+01  0.50400000000E-02 0.  1.
          2   -1    0    0  501    0  0.00000000000E+00 -0.00000000000E+00 -0.40465428062E+03  0.40465428062E+03  0.25500000000E-02 0. -1.
         24    2    1    2    0    0 -0.35527136788E-14  0.17763568394E-14 -0.40093247073E+03  0.40837609392E+03  0.77615642728E+02 0.  0.
         66    2    3    3    0    0 -0.23866522659E+02  0.13985352288E+02 -0.34361561271E+03  0.34473307105E+03  0.19999984169E+01 0.  0.
        -13    1    3    3    0    0  0.23866522659E+02 -0.13985352288E+02 -0.57316858025E+02  0.63643022872E+02  0.10566000000E+00 0.  1.
         13    1    4    4    0    0 -0.11111123535E+02  0.66478080580E+01 -0.17176584984E+03  0.17225321116E+03  0.10566000000E+00 0. -1.
        -13    1    4    4    0    0 -0.97941357271E+01  0.53190278065E+01 -0.13021280041E+03  0.13068895020E+03  0.10566000000E+00 0.  1.
         14    1    4    4    0    0 -0.29612633969E+01  0.20185164237E+01 -0.41636962459E+02  0.41790909685E+02  0.00000000000E+00 0. -1.
<mgrwt>
<rscale>  0 0.77615643E+02</rscale>
<asrwt>0</asrwt>
<pdfrwt beam="1">  1        2 0.62254470E-01 0.77615643E+02</pdfrwt>
<pdfrwt beam="2">  1       -1 0.57258672E-03 0.77615643E+02</pdfrwt>
<totfact> 0.30697139E+05</totfact>
</mgrwt>
</event>
<event>
 8    1  0.2676873E-016  0.8149755E+02  0.7818608E-02  0.1324855E+00
         -1   -1    0    0    0  501 -0.00000000000E+00  0.00000000000E+00  0.37917325435E+02  0.37917325770E+02  0.50400000000E-02 0.  1.
          2   -1    0    0  501    0  0.00000000000E+00 -0.00000000000E+00 -0.43791659089E+02  0.43791659164E+02  0.25500000000E-02 0. -1.
         24    2    1    2    0    0 -0.88817841970E-15  0.17763568394E-14 -0.58743336540E+01  0.81708984934E+02  0.81497548571E+02 0.  0.
         66    2    3    3    0    0  0.59024810559E+01 -0.82756717979E+01 -0.42476398347E+02  0.43721508970E+02  0.19999759382E+01 0.  0.
        -13    1    3    3    0    0 -0.59024810559E+01  0.82756717979E+01  0.36602064693E+02  0.37987475964E+02  0.10566000000E+00 0.  1.
         13    1    4    4    0    0  0.20764015911E+01 -0.24173172135E+01 -0.12623607993E+02  0.13020042583E+02  0.10566000000E+00 0. -1.
        -13    1    4    4    0    0  0.77569177660E+00 -0.11436962170E+01 -0.36630617084E+01  0.39164938253E+01  0.10566000000E+00 0.  1.
        -14    1    4    4    0    0  0.30503876881E+01 -0.47146583674E+01 -0.26189728645E+02  0.26784972561E+02  0.00000000000E+00 0.  1.
<mgrwt>
<rscale>  0 0.81497549E+02</rscale>
<asrwt>0</asrwt>
<pdfrwt beam="1">  1        2 0.67371783E-02 0.81497549E+02</pdfrwt>
<pdfrwt beam="2">  1       -1 0.58334347E-02 0.81497549E+02</pdfrwt>
<totfact> 0.13801549E+05</totfact>
</mgrwt>
</event>
<event>
 8    1  0.2676873E-016  0.7912051E+02  0.7818608E-02  0.1331566E+00
         -1   -1    0    0    0  501 -0.00000000000E+00  0.00000000000E+00  0.11231441403E+02  0.11231442534E+02  0.50400000000E-02 0.  1.
          2   -1    0    0  501    0  0.00000000000E+00 -0.00000000000E+00 -0.13934220369E+03  0.13934220371E+03  0.25500000000E-02 0. -1.
         24    2    1    2    0    0 -0.35527136788E-14 -0.71054273576E-14 -0.12811076228E+03  0.15057364624E+03  0.79120512703E+02 0.  0.
         66    2    3    3    0    0 -0.20631071512E+02 -0.33710723952E+02 -0.62236494135E+02  0.73752526822E+02  0.19999973337E+01 0.  0.
        -13    1    3    3    0    0  0.20631071512E+02  0.33710723952E+02 -0.65874268148E+02  0.76821119422E+02  0.10566000000E+00 0.  1.
         13    1    4    4    0    0 -0.11129132583E+02 -0.18659577421E+02 -0.33338147359E+02  0.39792972432E+02  0.10566000000E+00 0. -1.
        -13    1    4    4    0    0 -0.70314152774E+01 -0.10550725451E+02 -0.21334276386E+02  0.24817758184E+02  0.10566000000E+00 0.  1.
        -14    1    4    4    0    0 -0.24705236519E+01 -0.45004210801E+01 -0.75640703904E+01  0.91417962066E+01  0.00000000000E+00 0.  1.
<mgrwt>
<rscale>  0 0.79120513E+02</rscale>
<asrwt>0</asrwt>
<pdfrwt beam="1">  1        2 0.21437261E-01 0.79120513E+02</pdfrwt>
<pdfrwt beam="2">  1       -1 0.17279143E-02 0.79120513E+02</pdfrwt>
<totfact> 0.20148013E+05</totfact>
</mgrwt>
</event>
<event>
 8    1  0.2676873E-016  0.7983657E+02  0.7818608E-02  0.1329516E+00
          2   -1    0    0  501    0  0.00000000000E+00  0.00000000000E+00  0.57659957270E+03  0.57659957271E+03  0.25500000000E-02 0. -1.
         -1   -1    0    0    0  501 -0.00000000000E+00 -0.00000000000E+00 -0.27635609006E+01  0.27635654964E+01  0.50400000000E-02 0.  1.
         24    2    1    2    0    0  0.00000000000E+00  0.00000000000E+00  0.57383601180E+03  0.57936313821E+03  0.79836567245E+02 0.  0.
         66    2    3    3    0    0 -0.17576799467E+02  0.33968328508E+02  0.36941522563E+03  0.37139520749E+03  0.20000001626E+01 0.  0.
        -13    1    3    3    0    0  0.17576799467E+02 -0.33968328508E+02  0.20442078617E+03  0.20796793071E+03  0.10566000000E+00 0.  1.
         13    1    4    4    0    0 -0.15099720245E+01  0.37058727932E+01  0.35105300587E+02  0.35332800653E+02  0.10566000000E+00 0. -1.
        -13    1    4    4    0    0 -0.23540397443E+01  0.48192283656E+01  0.49774881123E+02  0.50063124353E+02  0.10566000000E+00 0.  1.
         14    1    4    4    0    0 -0.13712787698E+02  0.25443227349E+02  0.28453504392E+03  0.28599928249E+03  0.00000000000E+00 0. -1.
<mgrwt>
<rscale>  0 0.79836567E+02</rscale>
<asrwt>0</asrwt>
<pdfrwt beam="1">  1        2 0.88707745E-01 0.79836567E+02</pdfrwt>
<pdfrwt beam="2">  1       -1 0.42516300E-03 0.79836567E+02</pdfrwt>
<totfact> 0.31972358E+05</totfact>
</mgrwt>
</event>
<event>
 8    1  0.2676873E-016  0.7234935E+02  0.7818608E-02  0.1352281E+00
         -1   -1    0    0    0  501 -0.00000000000E+00  0.00000000000E+00  0.23176364536E+03  0.23176364542E+03  0.50400000000E-02 0.  1.
          2   -1    0    0  501    0  0.00000000000E+00 -0.00000000000E+00 -0.56463005323E+01  0.56463011081E+01  0.25500000000E-02 0. -1.
         24    2    1    2    0    0  0.00000000000E+00  0.00000000000E+00  0.22611734483E+03  0.23740994652E+03  0.72349354358E+02 0.  0.
         66    2    3    3    0    0  0.27825329600E+02  0.22508882597E+02  0.96508327561E+02  0.10295026006E+03  0.19999986166E+01 0.  0.
        -13    1    3    3    0    0 -0.27825329600E+02 -0.22508882597E+02  0.12960901727E+03  0.13445968646E+03  0.10566000000E+00 0.  1.
         13    1    4    4    0    0  0.11494883668E+02  0.86665417709E+01  0.36987990316E+02  0.39690853965E+02  0.10566000000E+00 0. -1.
        -13    1    4    4    0    0  0.53735359125E+01  0.45115542099E+01  0.18326143336E+02  0.19623651627E+02  0.10566000000E+00 0.  1.
        -14    1    4    4    0    0  0.10956910020E+02  0.93307866163E+01  0.41194193909E+02  0.43635754467E+02  0.00000000000E+00 0.  1.
<mgrwt>
<rscale>  0 0.72349354E+02</rscale>
<asrwt>0</asrwt>
<pdfrwt beam="1">  1        2 0.86866167E-03 0.72349354E+02</pdfrwt>
<pdfrwt beam="2">  1       -1 0.35655946E-01 0.72349354E+02</pdfrwt>
<totfact> 0.12275533E+05</totfact>
</mgrwt>
</event>
<event>
 8    1  0.2676873E-016  0.7341115E+02  0.7818608E-02  0.1348863E+00
         -1   -1    0    0    0  501 -0.00000000000E+00  0.00000000000E+00  0.18704884231E+02  0.18704884910E+02  0.50400000000E-02 0.  1.
          2   -1    0    0  501    0  0.00000000000E+00 -0.00000000000E+00 -0.72029272420E+02  0.72029272465E+02  0.25500000000E-02 0. -1.
         24    2    1    2    0    0 -0.35527136788E-14  0.17763568394E-14 -0.53324388189E+02  0.90734157375E+02  0.73411149963E+02 0.  0.
         66    2    3    3    0    0  0.11835909991E+02 -0.63664797119E+01 -0.68862347400E+02  0.70190054335E+02  0.20000022215E+01 0.  0.
        -13    1    3    3    0    0 -0.11835909991E+02  0.63664797119E+01  0.15537959211E+02  0.20544103040E+02  0.10566000000E+00 0.  1.
         13    1    4    4    0    0  0.22764825481E+01 -0.11603447491E+01 -0.13543470407E+02  0.13782798244E+02  0.10566000000E+00 0. -1.
        -13    1    4    4    0    0  0.96356962090E+01 -0.51428490071E+01 -0.54963562013E+02  0.56038378372E+02  0.10566000000E+00 0.  1.
        -14    1    4    4    0    0 -0.76268766424E-01 -0.63285955677E-01 -0.35531498032E+00  0.36887771979E+00  0.00000000000E+00 0.  1.
<mgrwt>
<rscale>  0 0.73411150E+02</rscale>
<asrwt>0</asrwt>
<pdfrwt beam="1">  1        2 0.11081426E-01 0.73411150E+02</pdfrwt>
<pdfrwt beam="2">  1       -1 0.28776746E-02 0.73411150E+02</pdfrwt>
<totfact> 0.20485920E+05</totfact>
</mgrwt>
</event>
<event>
 8    1  0.2676873E-016  0.7800012E+02  0.7818608E-02  0.1334825E+00
         -1   -1    0    0    0  501 -0.00000000000E+00  0.00000000000E+00  0.71654061768E+02  0.71654061945E+02  0.50400000000E-02 0.  1.
          2   -1    0    0  501    0  0.00000000000E+00 -0.00000000000E+00 -0.21227055761E+02  0.21227055914E+02  0.25500000000E-02 0. -1.
         24    2    1    2    0    0  0.00000000000E+00 -0.17763568394E-14  0.50427006007E+02  0.92881117859E+02  0.78000122563E+02 0.  0.
         66    2    3    3    0    0  0.34277041971E+02  0.14066188451E+02  0.10830603364E+02  0.38653269569E+02  0.20000038253E+01 0.  0.
        -13    1    3    3    0    0 -0.34277041971E+02 -0.14066188451E+02  0.39596402643E+02  0.54227848290E+02  0.10566000000E+00 0.  1.
         13    1    4    4    0    0  0.20064717581E+02  0.76149133605E+01  0.62074997936E+01  0.22341083564E+02  0.10566000000E+00 0. -1.
        -13    1    4    4    0    0  0.74456461233E+01  0.36132927526E+01  0.19556173613E+01  0.85046536678E+01  0.10566000000E+00 0.  1.
        -14    1    4    4    0    0  0.67666782674E+01  0.28379823382E+01  0.26674862095E+01  0.78075323377E+01  0.00000000000E+00 0.  1.
<mgrwt>
<rscale>  0 0.78000123E+02</rscale>
<asrwt>0</asrwt>
<pdfrwt beam="1">  1        2 0.32657009E-02 0.78000123E+02</pdfrwt>
<pdfrwt beam="2">  1       -1 0.11023702E-01 0.78000123E+02</pdfrwt>
<totfact> 0.13506793E+05</totfact>
</mgrwt>
</event>
<event>
 8    1  0.2676873E-016  0.7916973E+02  0.7818608E-02  0.1331424E+00
         -1   -1    0    0    0  501 -0.00000000000E+00  0.00000000000E+00  0.40678735057E+01  0.40678766279E+01  0.50400000000E-02 0.  1.
          2   -1    0    0  501    0  0.00000000000E+00 -0.00000000000E+00 -0.38520394303E+03  0.38520394304E+03  0.25500000000E-02 0. -1.
         24    2    1    2    0    0  0.00000000000E+00 -0.44408920985E-15 -0.38113606953E+03  0.38927181967E+03  0.79169729657E+02 0.  0.
         66    2    3    3    0    0 -0.19928595649E+02  0.33381176952E+01 -0.35791289665E+03  0.35848840081E+03  0.19999924928E+01 0.  0.
        -13    1    3    3    0    0  0.19928595649E+02 -0.33381176952E+01 -0.23223172873E+02  0.30783418859E+02  0.10566000000E+00 0.  1.
         13    1    4    4    0    0 -0.78174023027E+01  0.13951139544E+01 -0.13804046574E+03  0.13826872194E+03  0.10566000000E+00 0. -1.
        -13    1    4    4    0    0 -0.37390685547E+00  0.22687520809E+00 -0.12664450089E+02  0.12672440128E+02  0.10566000000E+00 0.  1.
        -14    1    4    4    0    0 -0.11737286491E+02  0.17161285327E+01 -0.20720798082E+03  0.20754723874E+03  0.00000000000E+00 0.  1.
<mgrwt>
<rscale>  0 0.79169730E+02</rscale>
<asrwt>0</asrwt>
<pdfrwt beam="1">  1        2 0.59262116E-01 0.79169730E+02</pdfrwt>
<pdfrwt beam="2">  1       -1 0.62582724E-03 0.79169730E+02</pdfrwt>
<totfact> 0.28652248E+05</totfact>
</mgrwt>
</event>
<event>
 8    1  0.2676873E-016  0.8228553E+02  0.7818608E-02  0.1322688E+00
          2   -1    0    0  501    0  0.00000000000E+00  0.00000000000E+00  0.98836714494E+03  0.98836714495E+03  0.25500000000E-02 0. -1.
         -1   -1    0    0    0  501 -0.00000000000E+00 -0.00000000000E+00 -0.17126464989E+01  0.17126539148E+01  0.50400000000E-02 0.  1.
         24    2    1    2    0    0  0.00000000000E+00  0.00000000000E+00  0.98665449845E+03  0.99007979886E+03  0.82285532220E+02 0.  0.
         66    2    3    3    0    0  0.13603619503E+02  0.19229141374E+02  0.89914275654E+03  0.89945345348E+03  0.20000003775E+01 0.  0.
        -13    1    3    3    0    0 -0.13603619503E+02 -0.19229141374E+02  0.87511741908E+02  0.90626345383E+02  0.10566000000E+00 0.  1.
         13    1    4    4    0    0  0.10005698623E+02  0.13903150034E+02  0.64914061360E+03  0.64936658289E+03  0.10566000000E+00 0. -1.
        -13    1    4    4    0    0  0.29138845699E+01  0.39995337439E+01  0.20590124908E+03  0.20596073055E+03  0.10566000000E+00 0.  1.
         14    1    4    4    0    0  0.68403631085E+00  0.13264575969E+01  0.44100893856E+02  0.44126140035E+02  0.00000000000E+00 0. -1.
<mgrwt>
<rscale>  0 0.82285532E+02</rscale>
<asrwt>0</asrwt>
<pdfrwt beam="1">  1        2 0.15205695E+00 0.82285532E+02</pdfrwt>
<pdfrwt beam="2">  1       -1 0.26348384E-03 0.82285532E+02</pdfrwt>
<totfact> 0.32725575E+05</totfact>
</mgrwt>
</event>
<event>
 8    1  0.2676873E-016  0.7824195E+02  0.7818608E-02  0.1334116E+00
         -1   -1    0    0    0  501 -0.00000000000E+00  0.00000000000E+00  0.63917117667E+01  0.63917137538E+01  0.50400000000E-02 0.  1.
          2   -1    0    0  501    0  0.00000000000E+00 -0.00000000000E+00 -0.23944297525E+03  0.23944297526E+03  0.25500000000E-02 0. -1.
         24    2    1    2    0    0  0.00000000000E+00  0.00000000000E+00 -0.23305126348E+03  0.24583468902E+03  0.78241951107E+02 0.  0.
         66    2    3    3    0    0  0.32507633784E+02  0.33341530453E+01 -0.18403222021E+03  0.18692169726E+03  0.19999997153E+01 0.  0.
        -13    1    3    3    0    0 -0.32507633784E+02 -0.33341530453E+01 -0.49019043270E+02  0.58912991758E+02  0.10566000000E+00 0.  1.
         13    1    4    4    0    0  0.16019570551E+02  0.98817329783E+00 -0.92893544101E+02  0.94269957180E+02  0.10566000000E+00 0. -1.
        -13    1    4    4    0    0  0.32025918841E+01  0.21468688115E+00 -0.16386209345E+02  0.16697955143E+02  0.10566000000E+00 0.  1.
         14    1    4    4    0    0  0.13285471348E+02  0.21312928663E+01 -0.74752466768E+02  0.75953784937E+02  0.00000000000E+00 0. -1.
<mgrwt>
<rscale>  0 0.78241951E+02</rscale>
<asrwt>0</asrwt>
<pdfrwt beam="1">  1        2 0.36837374E-01 0.78241951E+02</pdfrwt>
<pdfrwt beam="2">  1       -1 0.98334061E-03 0.78241951E+02</pdfrwt>
<totfact> 0.24916304E+05</totfact>
</mgrwt>
</event>
<event>
 8    1  0.2676873E-016  0.7860071E+02  0.7818608E-02  0.1333070E+00
          2   -1    0    0  501    0  0.00000000000E+00  0.00000000000E+00  0.21235383000E+03  0.21235383002E+03  0.25500000000E-02 0. -1.
         -1   -1    0    0    0  501 -0.00000000000E+00 -0.00000000000E+00 -0.72733217297E+01  0.72733234759E+01  0.50400000000E-02 0.  1.
         24    2    1    2    0    0  0.00000000000E+00 -0.35527136788E-14  0.20508050827E+03  0.21962715349E+03  0.78600710418E+02 0.  0.
         66    2    3    3    0    0  0.33086293008E+02  0.16887652936E+02  0.13823869380E+03  0.14315666943E+03  0.19999830964E+01 0.  0.
        -13    1    3    3    0    0 -0.33086293008E+02 -0.16887652936E+02  0.66841814470E+02  0.76470484060E+02  0.10566000000E+00 0.  1.
         13    1    4    4    0    0  0.19631485353E+02  0.10376332929E+02  0.80378875866E+02  0.83389677729E+02  0.10566000000E+00 0. -1.
        -13    1    4    4    0    0  0.19805270053E+01  0.12666780880E+01  0.98476669584E+01  0.10124952798E+02  0.10566000000E+00 0.  1.
         14    1    4    4    0    0  0.11474280649E+02  0.52446419186E+01  0.48012150976E+02  0.49642038904E+02  0.00000000000E+00 0. -1.
<mgrwt>
<rscale>  0 0.78600710E+02</rscale>
<asrwt>0</asrwt>
<pdfrwt beam="1">  1        2 0.32669819E-01 0.78600710E+02</pdfrwt>
<pdfrwt beam="2">  1       -1 0.11189728E-02 0.78600710E+02</pdfrwt>
<totfact> 0.23596527E+05</totfact>
</mgrwt>
</event>
<event>
 8    1  0.2676873E-016  0.7923019E+02  0.7818608E-02  0.1331250E+00
         -1   -1    0    0    0  501 -0.00000000000E+00  0.00000000000E+00  0.62816683008E+01  0.62816703227E+01  0.50400000000E-02 0.  1.
          2   -1    0    0  501    0  0.00000000000E+00 -0.00000000000E+00 -0.24983100225E+03  0.24983100226E+03  0.25500000000E-02 0. -1.
         24    2    1    2    0    0 -0.71054273576E-14  0.00000000000E+00 -0.24354933395E+03  0.25611267259E+03  0.79230189902E+02 0.  0.
         66    2    3    3    0    0  0.33687309479E+02  0.15207487602E+02 -0.75994957368E+02  0.84530089628E+02  0.20000019857E+01 0.  0.
        -13    1    3    3    0    0 -0.33687309479E+02 -0.15207487602E+02 -0.16755437658E+03  0.17158258296E+03  0.10566000000E+00 0.  1.
         13    1    4    4    0    0  0.15846258017E+02  0.77671248398E+01 -0.36055436240E+02  0.40142717495E+02  0.10566000000E+00 0.  1.
        -13    1    4    4    0    0  0.16144254715E+02  0.69810872026E+01 -0.35701785394E+02  0.39799512348E+02  0.10566000000E+00 0. -1.
        -14    1    4    4    0    0  0.16967967469E+01  0.45927555933E+00 -0.42377357348E+01  0.45878597840E+01  0.00000000000E+00 0.  1.
<mgrwt>
<rscale>  0 0.79230190E+02</rscale>
<asrwt>0</asrwt>
<pdfrwt beam="1">  1        2 0.38435531E-01 0.79230190E+02</pdfrwt>
<pdfrwt beam="2">  1       -1 0.96641086E-03 0.79230190E+02</pdfrwt>
<totfact> 0.24476656E+05</totfact>
</mgrwt>
</event>
<event>
 8    1  0.2676873E-016  0.7258174E+02  0.7818608E-02  0.1351527E+00
          2   -1    0    0  501    0  0.00000000000E+00  0.00000000000E+00  0.10614787856E+03  0.10614787859E+03  0.25500000000E-02 0. -1.
         -1   -1    0    0    0  501 -0.00000000000E+00 -0.00000000000E+00 -0.12407476810E+02  0.12407477834E+02  0.50400000000E-02 0.  1.
         24    2    1    2    0    0  0.71054273576E-14 -0.17763568394E-14  0.93740401746E+02  0.11855535642E+03  0.72581744375E+02 0.  0.
         66    2    3    3    0    0 -0.33793376355E+02  0.13036651294E+02  0.49770446890E+02  0.61587693167E+02  0.20000008995E+01 0.  0.
        -13    1    3    3    0    0  0.33793376355E+02 -0.13036651294E+02  0.43969954857E+02  0.56967663254E+02  0.10566000000E+00 0.  1.
         13    1    4    4    0    0 -0.20123656244E+02  0.76787710548E+01  0.30331548849E+02  0.37201331766E+02  0.10566000000E+00 0.  1.
        -13    1    4    4    0    0 -0.81324349678E+01  0.26070824289E+01  0.11433687098E+02  0.14271430972E+02  0.10566000000E+00 0. -1.
        -14    1    4    4    0    0 -0.55372851434E+01  0.27507978101E+01  0.80052109427E+01  0.10114930429E+02  0.00000000000E+00 0.  1.
<mgrwt>
<rscale>  0 0.72581744E+02</rscale>
<asrwt>0</asrwt>
<pdfrwt beam="1">  1        2 0.16330443E-01 0.72581744E+02</pdfrwt>
<pdfrwt beam="2">  1       -1 0.19088427E-02 0.72581744E+02</pdfrwt>
<totfact> 0.23348314E+05</totfact>
</mgrwt>
</event>
<event>
 8    1  0.2676873E-016  0.7849955E+02  0.7818608E-02  0.1333364E+00
          2   -1    0    0  501    0  0.00000000000E+00  0.00000000000E+00  0.60872548004E+03  0.60872548004E+03  0.25500000000E-02 0. -1.
         -1   -1    0    0    0  501 -0.00000000000E+00 -0.00000000000E+00 -0.25307687200E+01  0.25307737385E+01  0.50400000000E-02 0.  1.
         24    2    1    2    0    0  0.00000000000E+00 -0.44408920985E-15  0.60619471132E+03  0.61125625378E+03  0.78499552594E+02 0.  0.
         66    2    3    3    0    0  0.36215028793E+02  0.19196843275E+01  0.41965959693E+03  0.42122843066E+03  0.19999996136E+01 0.  0.
        -13    1    3    3    0    0 -0.36215028793E+02 -0.19196843275E+01  0.18653511439E+03  0.19002782313E+03  0.10566000000E+00 0.  1.
         13    1    4    4    0    0  0.21745344944E+02  0.18786739884E+01  0.25205453774E+03  0.25299780751E+03  0.10566000000E+00 0. -1.
        -13    1    4    4    0    0  0.38262133939E+00 -0.30019116295E-02  0.57463075201E+01  0.57600019316E+01  0.10566000000E+00 0. -1.
        -14    1    4    4    0    0  0.14087062510E+02  0.44012250746E-01  0.16185875167E+03  0.16247062122E+03  0.00000000000E+00 0.  1.
<mgrwt>
<rscale>  0 0.78499553E+02</rscale>
<asrwt>0</asrwt>
<pdfrwt beam="1">  1        2 0.93650043E-01 0.78499553E+02</pdfrwt>
<pdfrwt beam="2">  1       -1 0.38934955E-03 0.78499553E+02</pdfrwt>
<totfact> 0.33921158E+05</totfact>
</mgrwt>
</event>
<event>
 8    1  0.2676873E-016  0.8056224E+02  0.7818608E-02  0.1327463E+00
         -1   -1    0    0    0  501 -0.00000000000E+00  0.00000000000E+00  0.15362189365E+01  0.15362272041E+01  0.50400000000E-02 0.  1.
          2   -1    0    0  501    0  0.00000000000E+00 -0.00000000000E+00 -0.10562063019E+04  0.10562063019E+04  0.25500000000E-02 0. -1.
         24    2    1    2    0    0 -0.35527136788E-14  0.00000000000E+00 -0.10546700830E+04  0.10577425291E+04  0.80562236712E+02 0.  0.
         66    2    3    3    0    0 -0.24223974312E+02 -0.72226338405E+01 -0.93901233041E+03  0.93935463167E+03  0.19999996746E+01 0.  0.
        -13    1    3    3    0    0  0.24223974312E+02  0.72226338405E+01 -0.11565775259E+03  0.11838789748E+03  0.10566000000E+00 0.  1.
         13    1    4    4    0    0 -0.17633672501E+02 -0.51768957612E+01 -0.67945883049E+03  0.67970733419E+03  0.10566000000E+00 0. -1.
        -13    1    4    4    0    0 -0.46304961642E+01 -0.18740424488E+01 -0.17839184549E+03  0.17846180328E+03  0.10566000000E+00 0.  1.
         14    1    4    4    0    0 -0.19598056462E+01 -0.17169563050E+00 -0.81161654437E+02  0.81185494200E+02  0.00000000000E+00 0. -1.
<mgrwt>
<rscale>  0 0.80562237E+02</rscale>
<asrwt>0</asrwt>
<pdfrwt beam="1">  1        2 0.16249270E+00 0.80562237E+02</pdfrwt>
<pdfrwt beam="2">  1       -1 0.23634286E-03 0.80562237E+02</pdfrwt>
<totfact> 0.34637620E+05</totfact>
</mgrwt>
</event>
<event>
 8    1  0.2676873E-016  0.8065354E+02  0.7818608E-02  0.1327207E+00
          2   -1    0    0  501    0  0.00000000000E+00  0.00000000000E+00  0.16882097268E+02  0.16882097461E+02  0.25500000000E-02 0. -1.
         -1   -1    0    0    0  501 -0.00000000000E+00 -0.00000000000E+00 -0.96329765171E+02  0.96329765302E+02  0.50400000000E-02 0.  1.
         24    2    1    2    0    0  0.00000000000E+00  0.00000000000E+00 -0.79447667902E+02  0.11321186276E+03  0.80653542608E+02 0.  0.
         66    2    3    3    0    0  0.98946650390E+01 -0.35767120870E+02 -0.17685280344E+02  0.41157751066E+02  0.20000001153E+01 0.  0.
        -13    1    3    3    0    0 -0.98946650390E+01  0.35767120870E+02 -0.61762387558E+02  0.72054111697E+02  0.10566000000E+00 0.  1.
         13    1    4    4    0    0  0.81051167222E+01 -0.26522355161E+02 -0.12746057088E+02  0.30522145660E+02  0.10566000000E+00 0. -1.
        -13    1    4    4    0    0  0.75761114790E+00 -0.35539568077E+01 -0.18746227577E+01  0.40902271529E+01  0.10566000000E+00 0. -1.
         14    1    4    4    0    0  0.10319371689E+01 -0.56908089014E+01 -0.30646004986E+01  0.65453782540E+01  0.00000000000E+00 0. -1.
<mgrwt>
<rscale>  0 0.80653543E+02</rscale>
<asrwt>0</asrwt>
<pdfrwt beam="1">  1        2 0.25972458E-02 0.80653543E+02</pdfrwt>
<pdfrwt beam="2">  1       -1 0.14819964E-01 0.80653543E+02</pdfrwt>
<totfact> 0.11708336E+05</totfact>
</mgrwt>
</event>
<event>
 8    1  0.2676873E-016  0.7980685E+02  0.7818608E-02  0.1329600E+00
          2   -1    0    0  501    0  0.00000000000E+00  0.00000000000E+00  0.26251389238E+03  0.26251389239E+03  0.25500000000E-02 0. -1.
         -1   -1    0    0    0  501 -0.00000000000E+00 -0.00000000000E+00 -0.60655194959E+01  0.60655215898E+01  0.50400000000E-02 0.  1.
         24    2    1    2    0    0 -0.71054273576E-14  0.88817841970E-15  0.25644837288E+03  0.26857941398E+03  0.79806852213E+02 0.  0.
         66    2    3    3    0    0 -0.39540915555E+02  0.49007698395E+01  0.12269641927E+03  0.12901904064E+03  0.19999994648E+01 0.  0.
        -13    1    3    3    0    0  0.39540915555E+02 -0.49007698395E+01  0.13375195361E+03  0.13956037334E+03  0.10566000000E+00 0.  1.
         13    1    4    4    0    0 -0.46212011946E+01  0.39128398197E+00  0.15903707742E+02  0.16566462737E+02  0.10566000000E+00 0. -1.
        -13    1    4    4    0    0 -0.35006221295E+01  0.46371393856E+00  0.11741446493E+02  0.12261407573E+02  0.10566000000E+00 0.  1.
         14    1    4    4    0    0 -0.31419092231E+02  0.40457719190E+01  0.95051265041E+02  0.10019117033E+03  0.00000000000E+00 0. -1.
<mgrwt>
<rscale>  0 0.79806852E+02</rscale>
<asrwt>0</asrwt>
<pdfrwt beam="1">  1        2 0.40386761E-01 0.79806852E+02</pdfrwt>
<pdfrwt beam="2">  1       -1 0.93315681E-03 0.79806852E+02</pdfrwt>
<totfact> 0.24446279E+05</totfact>
</mgrwt>
</event>
<event>
 8    1  0.2676873E-016  0.8218576E+02  0.7818608E-02  0.1322961E+00
          2   -1    0    0  501    0  0.00000000000E+00  0.00000000000E+00  0.94914675154E+02  0.94914675188E+02  0.25500000000E-02 0. -1.
         -1   -1    0    0    0  501 -0.00000000000E+00 -0.00000000000E+00 -0.17790978538E+02  0.17790979252E+02  0.50400000000E-02 0.  1.
         24    2    1    2    0    0  0.00000000000E+00  0.17763568394E-14  0.77123696616E+02  0.11270565444E+03  0.82185764967E+02 0.  0.
         66    2    3    3    0    0 -0.36870179393E+02 -0.47904546257E+01  0.62505247152E+02  0.72754824502E+02  0.19999957169E+01 0.  0.
        -13    1    3    3    0    0  0.36870179393E+02  0.47904546257E+01  0.14618449464E+02  0.39950829938E+02  0.10566000000E+00 0.  1.
         13    1    4    4    0    0 -0.85131234088E+01 -0.11979116411E+01  0.15332932304E+02  0.17578914629E+02  0.10566000000E+00 0. -1.
        -13    1    4    4    0    0 -0.48684813005E+01 -0.11480660266E+01  0.85147846380E+01  0.98758739989E+01  0.10566000000E+00 0.  1.
         14    1    4    4    0    0 -0.23488574683E+02 -0.24444769579E+01  0.38657530210E+02  0.45300035874E+02  0.00000000000E+00 0. -1.
<mgrwt>
<rscale>  0 0.82185765E+02</rscale>
<asrwt>0</asrwt>
<pdfrwt beam="1">  1        2 0.14602258E-01 0.82185765E+02</pdfrwt>
<pdfrwt beam="2">  1       -1 0.27370736E-02 0.82185765E+02</pdfrwt>
<totfact> 0.16250639E+05</totfact>
</mgrwt>
</event>
<event>
 8    1  0.2676873E-016  0.7946992E+02  0.7818608E-02  0.1330562E+00
          2   -1    0    0  501    0  0.00000000000E+00  0.00000000000E+00  0.45326555061E+02  0.45326555133E+02  0.25500000000E-02 0. -1.
         -1   -1    0    0    0  501 -0.00000000000E+00 -0.00000000000E+00 -0.34833159554E+02  0.34833159919E+02  0.50400000000E-02 0.  1.
         24    2    1    2    0    0 -0.35527136788E-14  0.00000000000E+00  0.10493395507E+02  0.80159715052E+02  0.79469922410E+02 0.  0.
         66    2    3    3    0    0 -0.23634700269E+02  0.61036862436E+01  0.36842925269E+02  0.44240877024E+02  0.20000037334E+01 0.  0.
        -13    1    3    3    0    0  0.23634700269E+02 -0.61036862436E+01 -0.26349529762E+02  0.35918838028E+02  0.10566000000E+00 0.  1.
         13    1    4    4    0    0 -0.10391834022E+02  0.26614989490E+01  0.17042211148E+02  0.20137574726E+02  0.10566000000E+00 0. -1.
        -13    1    4    4    0    0 -0.19239042684E+01  0.66502172229E-01  0.29989110826E+01  0.35651734726E+01  0.10566000000E+00 0.  1.
        -14    1    4    4    0    0 -0.11318961978E+02  0.33756851224E+01  0.16801803038E+02  0.20538128825E+02  0.00000000000E+00 0.  1.
<mgrwt>
<rscale>  0 0.79469922E+02</rscale>
<asrwt>0</asrwt>
<pdfrwt beam="1">  1        2 0.69733162E-02 0.79469922E+02</pdfrwt>
<pdfrwt beam="2">  1       -1 0.53589477E-02 0.79469922E+02</pdfrwt>
<totfact> 0.14901399E+05</totfact>
</mgrwt>
</event>
<event>
 8    1  0.2676873E-016  0.7998277E+02  0.7818608E-02  0.1329100E+00
          2   -1    0    0  501    0  0.00000000000E+00  0.00000000000E+00  0.16578845562E+03  0.16578845564E+03  0.25500000000E-02 0. -1.
         -1   -1    0    0    0  501 -0.00000000000E+00 -0.00000000000E+00 -0.96466946698E+01  0.96466959864E+01  0.50400000000E-02 0.  1.
         24    2    1    2    0    0 -0.71054273576E-14  0.17763568394E-14  0.15614176095E+03  0.17543515162E+03  0.79982766352E+02 0.  0.
         66    2    3    3    0    0 -0.35585851183E+02  0.10002201488E+02  0.11144996196E+03  0.11743717838E+03  0.20000017882E+01 0.  0.
        -13    1    3    3    0    0  0.35585851183E+02 -0.10002201488E+02  0.44691798989E+02  0.57997973240E+02  0.10566000000E+00 0.  1.
         13    1    4    4    0    0 -0.20947354218E+02  0.55430249304E+01  0.62799958355E+02  0.66433144646E+02  0.10566000000E+00 0. -1.
        -13    1    4    4    0    0 -0.76444262566E+01  0.22295643411E+01  0.24313305926E+02  0.25584296336E+02  0.10566000000E+00 0.  1.
        -14    1    4    4    0    0 -0.69940707078E+01  0.22296122167E+01  0.24336697677E+02  0.25419737401E+02  0.00000000000E+00 0.  1.
<mgrwt>
<rscale>  0 0.79982766E+02</rscale>
<asrwt>0</asrwt>
<pdfrwt beam="1">  1        2 0.25505916E-01 0.79982766E+02</pdfrwt>
<pdfrwt beam="2">  1       -1 0.14841070E-02 0.79982766E+02</pdfrwt>
<totfact> 0.20707820E+05</totfact>
</mgrwt>
</event>
<event>
 8    1  0.2676873E-016  0.7701389E+02  0.7818608E-02  0.1337746E+00
          2   -1    0    0  501    0  0.00000000000E+00  0.00000000000E+00  0.10921376989E+03  0.10921376992E+03  0.25500000000E-02 0. -1.
         -1   -1    0    0    0  501 -0.00000000000E+00 -0.00000000000E+00 -0.13576903505E+02  0.13576904441E+02  0.50400000000E-02 0.  1.
         24    2    1    2    0    0 -0.35527136788E-14  0.00000000000E+00  0.95636866387E+02  0.12279067436E+03  0.77013891592E+02 0.  0.
         66    2    3    3    0    0  0.22526393165E+02 -0.11182886221E+02  0.94287908723E+02  0.97604841360E+02  0.19999980630E+01 0.  0.
        -13    1    3    3    0    0 -0.22526393165E+02  0.11182886221E+02  0.13489576645E+01  0.25185833003E+02  0.10566000000E+00 0.  1.
         13    1    4    4    0    0  0.58187001539E+01 -0.31200662908E+01  0.22962577311E+02  0.23893162326E+02  0.10566000000E+00 0. -1.
        -13    1    4    4    0    0  0.21751605198E+01 -0.61111673944E+00  0.95175575110E+01  0.97826301150E+01  0.10566000000E+00 0.  1.
         14    1    4    4    0    0  0.14532532492E+02 -0.74517031903E+01  0.61807773900E+02  0.63929048918E+02  0.00000000000E+00 0. -1.
<mgrwt>
<rscale>  0 0.77013892E+02</rscale>
<asrwt>0</asrwt>
<pdfrwt beam="1">  1        2 0.16802119E-01 0.77013892E+02</pdfrwt>
<pdfrwt beam="2">  1       -1 0.20887544E-02 0.77013892E+02</pdfrwt>
<totfact> 0.20116855E+05</totfact>
</mgrwt>
</event>
<event>
 8    1  0.2676873E-016  0.8014934E+02  0.7818608E-02  0.1328628E+00
          2   -1    0    0  501    0  0.00000000000E+00  0.00000000000E+00  0.40441200294E+03  0.40441200295E+03  0.25500000000E-02 0. -1.
         -1   -1    0    0    0  501 -0.00000000000E+00 -0.00000000000E+00 -0.39711444653E+01  0.39711476636E+01  0.50400000000E-02 0.  1.
         24    2    1    2    0    0  0.00000000000E+00  0.00000000000E+00  0.40044085848E+03  0.40838315062E+03  0.80149339159E+02 0.  0.
         66    2    3    3    0    0  0.57638023985E+00 -0.21669100216E+02  0.37193477297E+03  0.37257127837E+03  0.20000017996E+01 0.  0.
        -13    1    3    3    0    0 -0.57638023985E+00  0.21669100216E+02  0.28506085510E+02  0.35811872243E+02  0.10566000000E+00 0.  1.
         13    1    4    4    0    0  0.57791415961E+00 -0.18728885334E+02  0.33013698808E+03  0.33066833412E+03  0.10566000000E+00 0. -1.
        -13    1    4    4    0    0  0.14856322575E+00 -0.23601446423E+01  0.33057504841E+02  0.33142150566E+02  0.10566000000E+00 0.  1.
        -14    1    4    4    0    0 -0.15009714550E+00 -0.58007023994E+00  0.87402800506E+01  0.87607936854E+01  0.00000000000E+00 0.  1.
<mgrwt>
<rscale>  0 0.80149339E+02</rscale>
<asrwt>0</asrwt>
<pdfrwt beam="1">  1        2 0.62217203E-01 0.80149339E+02</pdfrwt>
<pdfrwt beam="2">  1       -1 0.61094583E-03 0.80149339E+02</pdfrwt>
<totfact> 0.28224151E+05</totfact>
</mgrwt>
</event>
<event>
 8    1  0.2676873E-016  0.7983492E+02  0.7818608E-02  0.1329521E+00
          2   -1    0    0  501    0  0.00000000000E+00  0.00000000000E+00  0.58586613574E+02  0.58586613630E+02  0.25500000000E-02 0. -1.
         -1   -1    0    0    0  501 -0.00000000000E+00 -0.00000000000E+00 -0.27197397548E+02  0.27197398015E+02  0.50400000000E-02 0.  1.
         24    2    1    2    0    0  0.00000000000E+00  0.00000000000E+00  0.31389216026E+02  0.85784011645E+02  0.79834915739E+02 0.  0.
         66    2    3    3    0    0  0.15559009485E+01  0.31050678705E+02 -0.11154917560E+02  0.33090748864E+02  0.19999997005E+01 0.  0.
        -13    1    3    3    0    0 -0.15559009485E+01 -0.31050678705E+02  0.42544133587E+02  0.52693262781E+02  0.10566000000E+00 0.  1.
         13    1    4    4    0    0  0.23396932229E+00  0.20640737044E+02 -0.74354268423E+01  0.21940635901E+02  0.10566000000E+00 0. -1.
        -13    1    4    4    0    0  0.43027007799E+00  0.40188343496E+01 -0.17262180639E+01  0.43962659962E+01  0.10566000000E+00 0.  1.
         14    1    4    4    0    0  0.89166154820E+00  0.63911073108E+01 -0.19932726543E+01  0.67538469667E+01  0.00000000000E+00 0. -1.
<mgrwt>
<rscale>  0 0.79834916E+02</rscale>
<asrwt>0</asrwt>
<pdfrwt beam="1">  1        2 0.90133252E-02 0.79834916E+02</pdfrwt>
<pdfrwt beam="2">  1       -1 0.41842150E-02 0.79834916E+02</pdfrwt>
<totfact> 0.15568394E+05</totfact>
</mgrwt>
</event>
<event>
 8    1  0.2676873E-016  0.8407363E+02  0.7818608E-02  0.1317873E+00
          2   -1    0    0  501    0  0.00000000000E+00  0.00000000000E+00  0.29794133964E+03  0.29794133965E+03  0.25500000000E-02 0. -1.
         -1   -1    0    0    0  501 -0.00000000000E+00 -0.00000000000E+00 -0.59310120661E+01  0.59310142076E+01  0.50400000000E-02 0.  1.
         24    2    1    2    0    0  0.00000000000E+00  0.00000000000E+00  0.29201032757E+03  0.30387235385E+03  0.84073634569E+02 0.  0.
         66    2    3    3    0    0 -0.32097830819E+02  0.21558028754E+01  0.24375359913E+03  0.24587544675E+03  0.19999998160E+01 0.  0.
        -13    1    3    3    0    0  0.32097830819E+02 -0.21558028754E+01  0.48256728444E+02  0.57996907103E+02  0.10566000000E+00 0.  1.
         13    1    4    4    0    0 -0.98174434441E+01  0.50260570653E+00  0.70653950512E+02  0.71334610781E+02  0.10566000000E+00 0. -1.
        -13    1    4    4    0    0 -0.10269481927E+02  0.12521040108E+00  0.81262636697E+02  0.81909127841E+02  0.10566000000E+00 0.  1.
         14    1    4    4    0    0 -0.12010905448E+02  0.15279867678E+01  0.91837011917E+02  0.92631708130E+02  0.00000000000E+00 0. -1.
<mgrwt>
<rscale>  0 0.84073635E+02</rscale>
<asrwt>0</asrwt>
<pdfrwt beam="1">  1        2 0.45837129E-01 0.84073635E+02</pdfrwt>
<pdfrwt beam="2">  1       -1 0.91246356E-03 0.84073635E+02</pdfrwt>
<totfact> 0.22318599E+05</totfact>
</mgrwt>
</event>
<event>
 8    1  0.2676873E-016  0.8061574E+02  0.7818608E-02  0.1327313E+00
         -1   -1    0    0    0  501 -0.00000000000E+00  0.00000000000E+00  0.12162254917E+02  0.12162255962E+02  0.50400000000E-02 0.  1.
          2   -1    0    0  501    0  0.00000000000E+00 -0.00000000000E+00 -0.13358742759E+03  0.13358742761E+03  0.25500000000E-02 0. -1.
         24    2    1    2    0    0  0.00000000000E+00  0.00000000000E+00 -0.12142517267E+03  0.14574968357E+03  0.80615741042E+02 0.  0.
         66    2    3    3    0    0  0.19185665143E+02  0.16393211899E+02 -0.11751770835E+03  0.12021330590E+03  0.19999989038E+01 0.  0.
        -13    1    3    3    0    0 -0.19185665143E+02 -0.16393211899E+02 -0.39074643197E+01  0.25536377675E+02  0.10566000000E+00 0.  1.
         13    1    4    4    0    0  0.99381657417E+01  0.77372666946E+01 -0.59163729022E+02  0.60489589435E+02  0.10566000000E+00 0. -1.
        -13    1    4    4    0    0  0.55338264807E+01  0.48424890782E+01 -0.31475014454E+02  0.32322757229E+02  0.10566000000E+00 0.  1.
         14    1    4    4    0    0  0.37136729205E+01  0.38134561261E+01 -0.26878964874E+02  0.27400959233E+02  0.00000000000E+00 0. -1.
<mgrwt>
<rscale>  0 0.80615741E+02</rscale>
<asrwt>0</asrwt>
<pdfrwt beam="1">  1        2 0.20551911E-01 0.80615741E+02</pdfrwt>
<pdfrwt beam="2">  1       -1 0.18711163E-02 0.80615741E+02</pdfrwt>
<totfact> 0.18918531E+05</totfact>
</mgrwt>
</event>
<event>
 8    1  0.2676873E-016  0.8805111E+02  0.7818608E-02  0.1307641E+00
         -1   -1    0    0    0  501 -0.00000000000E+00  0.00000000000E+00  0.85824791627E+01  0.85824806426E+01  0.50400000000E-02 0.  1.
          2   -1    0    0  501    0  0.00000000000E+00 -0.00000000000E+00 -0.22583794120E+03  0.22583794121E+03  0.25500000000E-02 0. -1.
         24    2    1    2    0    0  0.00000000000E+00  0.00000000000E+00 -0.21725546203E+03  0.23442042185E+03  0.88051112420E+02 0.  0.
         66    2    3    3    0    0  0.19309467980E+02  0.14499401938E+02 -0.20661786420E+03  0.20803372327E+03  0.20000007051E+01 0.  0.
        -13    1    3    3    0    0 -0.19309467980E+02 -0.14499401938E+02 -0.10637597835E+02  0.26386698580E+02  0.10566000000E+00 0.  1.
         13    1    4    4    0    0  0.40115192272E+01  0.24349647781E+01 -0.40865464875E+02  0.41134155193E+02  0.10566000000E+00 0. -1.
        -13    1    4    4    0    0  0.78901091969E+01  0.63438365794E+01 -0.92108335674E+02  0.92663125084E+02  0.10566000000E+00 0.  1.
         14    1    4    4    0    0  0.74078395561E+01  0.57206005800E+01 -0.73644063650E+02  0.74236442997E+02  0.00000000000E+00 0. -1.
<mgrwt>
<rscale>  0 0.88051112E+02</rscale>
<asrwt>0</asrwt>
<pdfrwt beam="1">  1        2 0.34744294E-01 0.88051112E+02</pdfrwt>
<pdfrwt beam="2">  1       -1 0.13203817E-02 0.88051112E+02</pdfrwt>
<totfact> 0.17860539E+05</totfact>
</mgrwt>
</event>
<event>
 8    1  0.2676873E-016  0.7855205E+02  0.7818608E-02  0.1333211E+00
          2   -1    0    0  501    0  0.00000000000E+00  0.00000000000E+00  0.78615557540E+02  0.78615557582E+02  0.25500000000E-02 0. -1.
         -1   -1    0    0    0  501 -0.00000000000E+00 -0.00000000000E+00 -0.19622150191E+02  0.19622150838E+02  0.50400000000E-02 0.  1.
         24    2    1    2    0    0  0.71054273576E-14 -0.88817841970E-15  0.58993407350E+02  0.98237708420E+02  0.78552054364E+02 0.  0.
         66    2    3    3    0    0  0.38793335419E+02  0.59219487355E+01  0.30491745975E+02  0.49736695905E+02  0.19999993101E+01 0.  0.
        -13    1    3    3    0    0 -0.38793335419E+02 -0.59219487355E+01  0.28501661375E+02  0.48501012514E+02  0.10566000000E+00 0.  1.
         13    1    4    4    0    0  0.51546770751E+00 -0.47502084056E-02  0.41528500179E+00  0.67033960817E+00  0.10566000000E+00 0.  1.
        -13    1    4    4    0    0  0.95249010260E+01  0.17606776181E+01  0.83298297691E+01  0.12775795601E+02  0.10566000000E+00 0. -1.
         14    1    4    4    0    0  0.28752966685E+02  0.41660213258E+01  0.21746631204E+02  0.36290560696E+02  0.00000000000E+00 0. -1.
<mgrwt>
<rscale>  0 0.78552054E+02</rscale>
<asrwt>0</asrwt>
<pdfrwt beam="1">  1        2 0.12094701E-01 0.78552054E+02</pdfrwt>
<pdfrwt beam="2">  1       -1 0.30187924E-02 0.78552054E+02</pdfrwt>
<totfact> 0.17459577E+05</totfact>
</mgrwt>
</event>
<event>
 8    1  0.2676873E-016  0.7938951E+02  0.7818608E-02  0.1330793E+00
         -1   -1    0    0    0  501 -0.00000000000E+00  0.00000000000E+00  0.14210775209E+03  0.14210775218E+03  0.50400000000E-02 0.  1.
          2   -1    0    0  501    0  0.00000000000E+00 -0.00000000000E+00 -0.11087880116E+02  0.11087880409E+02  0.25500000000E-02 0. -1.
         24    2    1    2    0    0  0.71054273576E-14  0.00000000000E+00  0.13101987197E+03  0.15319563259E+03  0.79389514372E+02 0.  0.
         66    2    3    3    0    0  0.38400172990E+02  0.97091632167E+01  0.69791256873E+02  0.80272415386E+02  0.19999999920E+01 0.  0.
        -13    1    3    3    0    0 -0.38400172990E+02 -0.97091632167E+01  0.61228615102E+02  0.72923217203E+02  0.10566000000E+00 0.  1.
         13    1    4    4    0    0  0.23354689512E+02  0.61778443544E+01  0.41051432062E+02  0.47632326434E+02  0.10566000000E+00 0. -1.
        -13    1    4    4    0    0  0.41374117799E+01  0.11798509969E+01  0.85385397978E+01  0.95618016360E+01  0.10566000000E+00 0. -1.
         14    1    4    4    0    0  0.10908071697E+02  0.23514678654E+01  0.20201285013E+02  0.23078287316E+02  0.00000000000E+00 0. -1.
<mgrwt>
<rscale>  0 0.79389514E+02</rscale>
<asrwt>0</asrwt>
<pdfrwt beam="1">  1        2 0.17058279E-02 0.79389514E+02</pdfrwt>
<pdfrwt beam="2">  1       -1 0.21862730E-01 0.79389514E+02</pdfrwt>
<totfact> 0.11148258E+05</totfact>
</mgrwt>
</event>
<event>
 8    1  0.2676873E-016  0.7655868E+02  0.7818608E-02  0.1339111E+00
          2   -1    0    0  501    0  0.00000000000E+00  0.00000000000E+00  0.33411871793E+03  0.33411871794E+03  0.25500000000E-02 0. -1.
         -1   -1    0    0    0  501 -0.00000000000E+00 -0.00000000000E+00 -0.43855894126E+01  0.43855923086E+01  0.50400000000E-02 0.  1.
         24    2    1    2    0    0  0.00000000000E+00 -0.44408920985E-15  0.32973312852E+03  0.33850431025E+03  0.76558683472E+02 0.  0.
         66    2    3    3    0    0  0.30357504284E+02  0.21585108208E+01  0.26744564564E+03  0.26917914222E+03  0.19999994115E+01 0.  0.
        -13    1    3    3    0    0 -0.30357504284E+02 -0.21585108208E+01  0.62287482876E+02  0.69325168030E+02  0.10566000000E+00 0.  1.
         13    1    4    4    0    0  0.17070734382E+01  0.87572461375E-01  0.18260781827E+02  0.18340912890E+02  0.10566000000E+00 0.  1.
        -13    1    4    4    0    0  0.14496957206E+02  0.49545518575E+00  0.12831461339E+03  0.12913194190E+03  0.10566000000E+00 0. -1.
        -14    1    4    4    0    0  0.14153473639E+02  0.15754831737E+01  0.12087025042E+03  0.12170628743E+03  0.00000000000E+00 0.  1.
<mgrwt>
<rscale>  0 0.76558683E+02</rscale>
<asrwt>0</asrwt>
<pdfrwt beam="1">  1        2 0.51402891E-01 0.76558683E+02</pdfrwt>
<pdfrwt beam="2">  1       -1 0.67470615E-03 0.76558683E+02</pdfrwt>
<totfact> 0.29731195E+05</totfact>
</mgrwt>
</event>
<event>
 8    1  0.2676873E-016  0.7767717E+02  0.7818608E-02  0.1335776E+00
         -1   -1    0    0    0  501 -0.00000000000E+00  0.00000000000E+00  0.14759225736E+01  0.14759311789E+01  0.50400000000E-02 0.  1.
          2   -1    0    0  501    0  0.00000000000E+00 -0.00000000000E+00 -0.10220261100E+04  0.10220261100E+04  0.25500000000E-02 0. -1.
         24    2    1    2    0    0  0.00000000000E+00  0.00000000000E+00 -0.10205501874E+04  0.10235020412E+04  0.77677173274E+02 0.  0.
         66    2    3    3    0    0 -0.43689505398E+01  0.16389653204E+02 -0.97060170125E+03  0.97075196159E+03  0.20000027991E+01 0.  0.
        -13    1    3    3    0    0  0.43689505398E+01 -0.16389653204E+02 -0.49948486162E+02  0.52750079573E+02  0.10566000000E+00 0.  1.
         13    1    4    4    0    0 -0.24088648515E+01  0.10047677897E+02 -0.60633954488E+03  0.60642758290E+03  0.10566000000E+00 0. -1.
        -13    1    4    4    0    0 -0.10711553745E+01  0.34442253199E+01 -0.22768390386E+03  0.22771249703E+03  0.10566000000E+00 0.  1.
        -14    1    4    4    0    0 -0.88893031380E+00  0.28977499876E+01 -0.13657825251E+03  0.13661188166E+03  0.00000000000E+00 0.  1.
<mgrwt>
<rscale>  0 0.77677173E+02</rscale>
<asrwt>0</asrwt>
<pdfrwt beam="1">  1        2 0.15723422E+00 0.77677173E+02</pdfrwt>
<pdfrwt beam="2">  1       -1 0.22706649E-03 0.77677173E+02</pdfrwt>
<totfact> 0.38055793E+05</totfact>
</mgrwt>
</event>
<event>
 8    1  0.2676873E-016  0.7980525E+02  0.7818608E-02  0.1329605E+00
          2   -1    0    0  501    0  0.00000000000E+00  0.00000000000E+00  0.17661463731E+03  0.17661463733E+03  0.25500000000E-02 0. -1.
         -1   -1    0    0    0  501 -0.00000000000E+00 -0.00000000000E+00 -0.90152184406E+01  0.90152198494E+01  0.50400000000E-02 0.  1.
         24    2    1    2    0    0  0.35527136788E-14  0.00000000000E+00  0.16759941887E+03  0.18562985718E+03  0.79805254655E+02 0.  0.
         66    2    3    3    0    0 -0.27192950055E+02  0.26277448756E+01  0.15142154881E+03  0.15387932617E+03  0.20000005573E+01 0.  0.
        -13    1    3    3    0    0  0.27192950055E+02 -0.26277448756E+01  0.16177870064E+02  0.31750531014E+02  0.10566000000E+00 0.  1.
         13    1    4    4    0    0 -0.19322989455E+01  0.54725153428E+00  0.12324758864E+02  0.12487758347E+02  0.10566000000E+00 0.  1.
        -13    1    4    4    0    0 -0.29072722550E+00  0.82327729682E-01  0.18648078378E+01  0.18920815210E+01  0.10566000000E+00 0.  1.
         14    1    4    4    0    0 -0.24969923884E+02  0.19981656117E+01  0.13723198211E+03  0.13949948630E+03  0.00000000000E+00 0. -1.
<mgrwt>
<rscale>  0 0.79805255E+02</rscale>
<asrwt>0</asrwt>
<pdfrwt beam="1">  1        2 0.27171480E-01 0.79805255E+02</pdfrwt>
<pdfrwt beam="2">  1       -1 0.13869569E-02 0.79805255E+02</pdfrwt>
<totfact> 0.21274720E+05</totfact>
</mgrwt>
</event>
<event>
 8    1  0.2676873E-016  0.7861065E+02  0.7818608E-02  0.1333041E+00
         -1   -1    0    0    0  501 -0.00000000000E+00  0.00000000000E+00  0.11315478467E+01  0.11315590709E+01  0.50400000000E-02 0.  1.
          2   -1    0    0  501    0  0.00000000000E+00 -0.00000000000E+00 -0.13652986321E+04  0.13652986321E+04  0.25500000000E-02 0. -1.
         24    2    1    2    0    0  0.17763568394E-14  0.00000000000E+00 -0.13641670843E+04  0.13664301912E+04  0.78610645523E+02 0.  0.
         66    2    3    3    0    0 -0.13092221974E+02 -0.10967206533E+02 -0.12973785218E+04  0.12974924719E+04  0.20000010197E+01 0.  0.
        -13    1    3    3    0    0  0.13092221974E+02  0.10967206533E+02 -0.66788562495E+02  0.68937719280E+02  0.10566000000E+00 0.  1.
         13    1    4    4    0    0 -0.64337516113E+01 -0.58173044911E+01 -0.66271437122E+03  0.66277113937E+03  0.10566000000E+00 0. -1.
        -13    1    4    4    0    0 -0.39303487667E+00 -0.30593248122E+00 -0.67093817746E+02  0.67095749603E+02  0.10566000000E+00 0.  1.
        -14    1    4    4    0    0 -0.62654354862E+01 -0.48439695611E+01 -0.56757033279E+03  0.56762558292E+03  0.00000000000E+00 0.  1.
<mgrwt>
<rscale>  0 0.78610646E+02</rscale>
<asrwt>0</asrwt>
<pdfrwt beam="1">  1        2 0.21004463E+00 0.78610646E+02</pdfrwt>
<pdfrwt beam="2">  1       -1 0.17408624E-03 0.78610646E+02</pdfrwt>
<totfact> 0.35835110E+05</totfact>
</mgrwt>
</event>
<event>
 8    1  0.2676873E-016  0.7831178E+02  0.7818608E-02  0.1333912E+00
         -1   -1    0    0    0  501 -0.00000000000E+00  0.00000000000E+00  0.27185693530E+02  0.27185693997E+02  0.50400000000E-02 0.  1.
          2   -1    0    0  501    0  0.00000000000E+00 -0.00000000000E+00 -0.56396704885E+02  0.56396704943E+02  0.25500000000E-02 0. -1.
         24    2    1    2    0    0  0.00000000000E+00  0.00000000000E+00 -0.29211011355E+02  0.83582398940E+02  0.78311775794E+02 0.  0.
         66    2    3    3    0    0  0.25230969745E+02 -0.12018391479E+02 -0.43846935354E+02  0.52034578043E+02  0.20000010345E+01 0.  0.
        -13    1    3    3    0    0 -0.25230969745E+02  0.12018391479E+02  0.14635923998E+02  0.31547820897E+02  0.10566000000E+00 0.  1.
         13    1    4    4    0    0  0.13846907142E+01 -0.78576970875E+00 -0.30646782619E+01  0.34551728312E+01  0.10566000000E+00 0. -1.
        -13    1    4    4    0    0  0.14734089380E+02 -0.66541884552E+01 -0.26148016102E+02  0.30742503541E+02  0.10566000000E+00 0.  1.
        -14    1    4    4    0    0  0.91121896510E+01 -0.45784333154E+01 -0.14634240990E+02  0.17836901671E+02  0.00000000000E+00 0.  1.
<mgrwt>
<rscale>  0 0.78311776E+02</rscale>
<asrwt>0</asrwt>
<pdfrwt beam="1">  1        2 0.86764161E-02 0.78311776E+02</pdfrwt>
<pdfrwt beam="2">  1       -1 0.41824145E-02 0.78311776E+02</pdfrwt>
<totfact> 0.16265133E+05</totfact>
</mgrwt>
</event>
<event>
 8    1  0.2676873E-016  0.8180727E+02  0.7818608E-02  0.1324000E+00
         -1   -1    0    0    0  501 -0.00000000000E+00  0.00000000000E+00  0.26765079792E+02  0.26765080266E+02  0.50400000000E-02 0.  1.
          2   -1    0    0  501    0  0.00000000000E+00 -0.00000000000E+00 -0.62510830444E+02  0.62510830496E+02  0.25500000000E-02 0. -1.
         24    2    1    2    0    0 -0.22204460493E-15  0.35527136788E-14 -0.35745750652E+02  0.89275910762E+02  0.81807270782E+02 0.  0.
         66    2    3    3    0    0 -0.98475298768E+00  0.28767113591E+02 -0.49560923129E+02  0.57348074673E+02  0.20000011294E+01 0.  0.
        -13    1    3    3    0    0  0.98475298768E+00 -0.28767113591E+02  0.13815172476E+02  0.31927836090E+02  0.10566000000E+00 0.  1.
         13    1    4    4    0    0  0.52921338393E-01  0.64440319831E+01 -0.11241797158E+02  0.12958299126E+02  0.10566000000E+00 0. -1.
        -13    1    4    4    0    0 -0.12367378577E+00  0.23534539371E+01 -0.51068840162E+01  0.56254305639E+01  0.10566000000E+00 0.  1.
         14    1    4    4    0    0 -0.91400054030E+00  0.19969627671E+02 -0.33212241955E+02  0.38764344983E+02  0.00000000000E+00 0. -1.
<mgrwt>
<rscale>  0 0.81807271E+02</rscale>
<asrwt>0</asrwt>
<pdfrwt beam="1">  1        2 0.96170508E-02 0.81807271E+02</pdfrwt>
<pdfrwt beam="2">  1       -1 0.41177046E-02 0.81807271E+02</pdfrwt>
<totfact> 0.14788549E+05</totfact>
</mgrwt>
</event>
<event>
 8    1  0.2676873E-016  0.8053827E+02  0.7818608E-02  0.1327531E+00
          2   -1    0    0  501    0  0.00000000000E+00  0.00000000000E+00  0.25570875662E+03  0.25570875663E+03  0.25500000000E-02 0. -1.
         -1   -1    0    0    0  501 -0.00000000000E+00 -0.00000000000E+00 -0.63416014669E+01  0.63416034697E+01  0.50400000000E-02 0.  1.
         24    2    1    2    0    0  0.00000000000E+00  0.00000000000E+00  0.24936715515E+03  0.26205036010E+03  0.80538271403E+02 0.  0.
         66    2    3    3    0    0 -0.17606140578E+02 -0.35933894701E+02  0.13870863461E+03  0.14437903689E+03  0.20000006553E+01 0.  0.
        -13    1    3    3    0    0  0.17606140578E+02  0.35933894701E+02  0.11065852054E+03  0.11767132322E+03  0.10566000000E+00 0.  1.
         13    1    4    4    0    0 -0.13886249434E+02 -0.27690251735E+02  0.10595538284E+03  0.11039081611E+03  0.10566000000E+00 0. -1.
        -13    1    4    4    0    0 -0.42609543537E-01 -0.32034097408E+00  0.14241219938E+01  0.14641452802E+01  0.10566000000E+00 0.  1.
         14    1    4    4    0    0 -0.36772816001E+01 -0.79233019917E+01  0.31329129780E+02  0.32524075501E+02  0.00000000000E+00 0. -1.
<mgrwt>
<rscale>  0 0.80538271E+02</rscale>
<asrwt>0</asrwt>
<pdfrwt beam="1">  1        2 0.39339797E-01 0.80538271E+02</pdfrwt>
<pdfrwt beam="2">  1       -1 0.97563144E-03 0.80538271E+02</pdfrwt>
<totfact> 0.23641877E+05</totfact>
</mgrwt>
</event>
<event>
 8    1  0.2676873E-016  0.8150985E+02  0.7818608E-02  0.1324820E+00
         -1   -1    0    0    0  501 -0.00000000000E+00  0.00000000000E+00  0.25429818180E+01  0.25429868124E+01  0.50400000000E-02 0.  1.
          2   -1    0    0  501    0  0.00000000000E+00 -0.00000000000E+00 -0.65315545099E+03  0.65315545100E+03  0.25500000000E-02 0. -1.
         24    2    1    2    0    0  0.00000000000E+00  0.00000000000E+00 -0.65061246918E+03  0.65569843781E+03  0.81509854011E+02 0.  0.
         66    2    3    3    0    0 -0.40724344825E+01  0.26670530316E+02 -0.57096237890E+03  0.57160295663E+03  0.19999999975E+01 0.  0.
        -13    1    3    3    0    0  0.40724344825E+01 -0.26670530316E+02 -0.79650090273E+02  0.84095481178E+02  0.10566000000E+00 0.  1.
         13    1    4    4    0    0 -0.55275899495E+00  0.54776185157E+01 -0.10387608214E+03  0.10402192774E+03  0.10566000000E+00 0. -1.
        -13    1    4    4    0    0 -0.14190696551E+01  0.81228492418E+01 -0.18903632805E+03  0.18921611698E+03  0.10566000000E+00 0.  1.
        -14    1    4    4    0    0 -0.21006058324E+01  0.13070062558E+02 -0.27804996872E+03  0.27836491191E+03  0.00000000000E+00 0.  1.
<mgrwt>
<rscale>  0 0.81509854E+02</rscale>
<asrwt>0</asrwt>
<pdfrwt beam="1">  1        2 0.10048532E+00 0.81509854E+02</pdfrwt>
<pdfrwt beam="2">  1       -1 0.39122888E-03 0.81509854E+02</pdfrwt>
<totfact> 0.31334922E+05</totfact>
</mgrwt>
</event>
<event>
 8    1  0.2676873E-016  0.8221954E+02  0.7818608E-02  0.1322868E+00
          2   -1    0    0  501    0  0.00000000000E+00  0.00000000000E+00  0.85614678857E+01  0.85614682655E+01  0.25500000000E-02 0. -1.
         -1   -1    0    0    0  501 -0.00000000000E+00 -0.00000000000E+00 -0.19739760892E+03  0.19739760898E+03  0.50400000000E-02 0.  1.
         24    2    1    2    0    0  0.88817841970E-15  0.00000000000E+00 -0.18883614103E+03  0.20595907725E+03  0.82219543545E+02 0.  0.
         66    2    3    3    0    0 -0.73548070514E+01  0.38721288563E+02 -0.12353349071E+03  0.12968405724E+03  0.19999997542E+01 0.  0.
        -13    1    3    3    0    0  0.73548070514E+01 -0.38721288563E+02 -0.65302650316E+02  0.76275020007E+02  0.10566000000E+00 0.  1.
         13    1    4    4    0    0 -0.75410288187E+00  0.71460523268E+01 -0.23859401475E+02  0.24918204947E+02  0.10566000000E+00 0. -1.
        -13    1    4    4    0    0 -0.40415407505E+01  0.18511956698E+02 -0.57728617413E+02  0.60758793807E+02  0.10566000000E+00 0.  1.
         14    1    4    4    0    0 -0.25591634190E+01  0.13063279539E+02 -0.41945471826E+02  0.44007058484E+02  0.00000000000E+00 0. -1.
<mgrwt>
<rscale>  0 0.82219544E+02</rscale>
<asrwt>0</asrwt>
<pdfrwt beam="1">  1        2 0.13171491E-02 0.82219544E+02</pdfrwt>
<pdfrwt beam="2">  1       -1 0.30368859E-01 0.82219544E+02</pdfrwt>
<totfact> 0.93267966E+04</totfact>
</mgrwt>
</event>
<event>
 8    1  0.2676873E-016  0.8197088E+02  0.7818608E-02  0.1323550E+00
          2   -1    0    0  501    0  0.00000000000E+00  0.00000000000E+00  0.93737821890E+02  0.93737821925E+02  0.25500000000E-02 0. -1.
         -1   -1    0    0    0  501 -0.00000000000E+00 -0.00000000000E+00 -0.17920262941E+02  0.17920263650E+02  0.50400000000E-02 0.  1.
         24    2    1    2    0    0 -0.33306690739E-15 -0.71054273576E-14  0.75817558949E+02  0.11165808557E+03  0.81970884033E+02 0.  0.
         66    2    3    3    0    0 -0.72282573680E+00 -0.32599388003E+02  0.71699826050E+02  0.78791545393E+02  0.19999986506E+01 0.  0.
        -13    1    3    3    0    0  0.72282573680E+00  0.32599388003E+02  0.41177328989E+01  0.32866540181E+02  0.10566000000E+00 0.  1.
         13    1    4    4    0    0  0.48930098726E+00 -0.12644961066E+02  0.27083034004E+02  0.29893751031E+02  0.10566000000E+00 0. -1.
        -13    1    4    4    0    0 -0.17822786541E+00 -0.26397399298E+01  0.65760878213E+01  0.70891527800E+01  0.10566000000E+00 0.  1.
         14    1    4    4    0    0 -0.10338988586E+01 -0.17314687007E+02  0.38040704225E+02  0.41808641582E+02  0.00000000000E+00 0. -1.
<mgrwt>
<rscale>  0 0.81970884E+02</rscale>
<asrwt>0</asrwt>
<pdfrwt beam="1">  1        2 0.14421203E-01 0.81970884E+02</pdfrwt>
<pdfrwt beam="2">  1       -1 0.27569636E-02 0.81970884E+02</pdfrwt>
<totfact> 0.16309351E+05</totfact>
</mgrwt>
</event>
<event>
 8    1  0.2676873E-016  0.7891168E+02  0.7818608E-02  0.1332169E+00
         -1   -1    0    0    0  501 -0.00000000000E+00  0.00000000000E+00  0.28729801210E+01  0.28729845418E+01  0.50400000000E-02 0.  1.
          2   -1    0    0  501    0  0.00000000000E+00 -0.00000000000E+00 -0.54186317728E+03  0.54186317729E+03  0.25500000000E-02 0. -1.
         24    2    1    2    0    0  0.00000000000E+00  0.00000000000E+00 -0.53899019716E+03  0.54473616183E+03  0.78911680817E+02 0.  0.
         66    2    3    3    0    0  0.23448107885E+02 -0.30445620402E+02 -0.33063781337E+03  0.33286951377E+03  0.20000004246E+01 0.  0.
        -13    1    3    3    0    0 -0.23448107885E+02  0.30445620402E+02 -0.20835238379E+03  0.21186664806E+03  0.10566000000E+00 0.  1.
         13    1    4    4    0    0  0.96826527782E+01 -0.12018440831E+02 -0.13713497153E+03  0.13800075459E+03  0.10566000000E+00 0. -1.
        -13    1    4    4    0    0  0.13346778936E+02 -0.18151047957E+02 -0.18909204280E+03  0.19042953779E+03  0.10566000000E+00 0.  1.
         14    1    4    4    0    0  0.41867617016E+00 -0.27613161459E+00 -0.44107990329E+01  0.44392213859E+01  0.00000000000E+00 0. -1.
<mgrwt>
<rscale>  0 0.78911681E+02</rscale>
<asrwt>0</asrwt>
<pdfrwt beam="1">  1        2 0.83363485E-01 0.78911681E+02</pdfrwt>
<pdfrwt beam="2">  1       -1 0.44199771E-03 0.78911681E+02</pdfrwt>
<totfact> 0.32355283E+05</totfact>
</mgrwt>
</event>
<event>
 8    1  0.2676873E-016  0.7881091E+02  0.7818608E-02  0.1332460E+00
          2   -1    0    0  501    0  0.00000000000E+00  0.00000000000E+00  0.76325299071E+03  0.76325299072E+03  0.25500000000E-02 0. -1.
         -1   -1    0    0    0  501 -0.00000000000E+00 -0.00000000000E+00 -0.20344336101E+01  0.20344398530E+01  0.50400000000E-02 0.  1.
         24    2    1    2    0    0  0.00000000000E+00 -0.88817841970E-15  0.76121855710E+03  0.76528743057E+03  0.78810911116E+02 0.  0.
         66    2    3    3    0    0 -0.25401604810E+02 -0.77269929080E+01  0.66326469015E+03  0.66379891318E+03  0.19999993725E+01 0.  0.
        -13    1    3    3    0    0  0.25401604810E+02  0.77269929080E+01  0.97953866955E+02  0.10148851739E+03  0.10566000000E+00 0.  1.
         13    1    4    4    0    0 -0.53650243515E+01 -0.10851107245E+01  0.13161293916E+03  0.13172675457E+03  0.10566000000E+00 0. -1.
        -13    1    4    4    0    0 -0.56946945122E+01 -0.13560950337E+01  0.15355170358E+03  0.15366328571E+03  0.10566000000E+00 0.  1.
         14    1    4    4    0    0 -0.14341885946E+02 -0.52857871498E+01  0.37810004741E+03  0.37840887290E+03  0.00000000000E+00 0. -1.
<mgrwt>
<rscale>  0 0.78810911E+02</rscale>
<asrwt>0</asrwt>
<pdfrwt beam="1">  1        2 0.11742376E+00 0.78810911E+02</pdfrwt>
<pdfrwt beam="2">  1       -1 0.31298967E-03 0.78810911E+02</pdfrwt>
<totfact> 0.35421418E+05</totfact>
</mgrwt>
</event>
<event>
 8    1  0.2676873E-016  0.8071726E+02  0.7818608E-02  0.1327028E+00
          2   -1    0    0  501    0  0.00000000000E+00  0.00000000000E+00  0.12076236928E+02  0.12076237197E+02  0.25500000000E-02 0. -1.
         -1   -1    0    0    0  501 -0.00000000000E+00 -0.00000000000E+00 -0.13487803435E+03  0.13487803445E+03  0.50400000000E-02 0.  1.
         24    2    1    2    0    0 -0.17763568394E-14  0.00000000000E+00 -0.12280179742E+03  0.14695427164E+03  0.80717262737E+02 0.  0.
         66    2    3    3    0    0 -0.82259823467E+01 -0.39375124542E+02 -0.66822969370E+02  0.78021640962E+02  0.20000011770E+01 0.  0.
        -13    1    3    3    0    0  0.82259823467E+01  0.39375124542E+02 -0.55978828054E+02  0.68932630681E+02  0.10566000000E+00 0.  1.
         13    1    4    4    0    0 -0.63062979177E+01 -0.27793395410E+02 -0.47389807719E+02  0.55299613575E+02  0.10566000000E+00 0. -1.
        -13    1    4    4    0    0 -0.32831414352E-01 -0.65163282218E+00 -0.14466435873E+01  0.15904857563E+01  0.10566000000E+00 0.  1.
         14    1    4    4    0    0 -0.18868530146E+01 -0.10930096310E+02 -0.17986518063E+02  0.21131541631E+02  0.00000000000E+00 0. -1.
<mgrwt>
<rscale>  0 0.80717263E+02</rscale>
<asrwt>0</asrwt>
<pdfrwt beam="1">  1        2 0.18578827E-02 0.80717263E+02</pdfrwt>
<pdfrwt beam="2">  1       -1 0.20750466E-01 0.80717263E+02</pdfrwt>
<totfact> 0.10829231E+05</totfact>
</mgrwt>
</event>
<event>
 8    1  0.2676873E-016  0.7990159E+02  0.7818608E-02  0.1329331E+00
          2   -1    0    0  501    0  0.00000000000E+00  0.00000000000E+00  0.68720565179E+03  0.68720565180E+03  0.25500000000E-02 0. -1.
         -1   -1    0    0    0  501 -0.00000000000E+00 -0.00000000000E+00 -0.23225420519E+01  0.23225475204E+01  0.50400000000E-02 0.  1.
         24    2    1    2    0    0  0.00000000000E+00  0.17763568394E-14  0.68488310974E+03  0.68952819932E+03  0.79901587258E+02 0.  0.
         66    2    3    3    0    0  0.10129735290E+02 -0.12490567063E+02  0.65801654062E+03  0.65821606903E+03  0.20000005782E+01 0.  0.
        -13    1    3    3    0    0 -0.10129735290E+02  0.12490567063E+02  0.26866569123E+02  0.31312130287E+02  0.10566000000E+00 0.  1.
         13    1    4    4    0    0  0.53767233929E+01 -0.56718006956E+01  0.33086898749E+03  0.33096129158E+03  0.10566000000E+00 0. -1.
        -13    1    4    4    0    0  0.17871250065E+01 -0.19491102456E+01  0.91588655817E+02  0.91626884073E+02  0.10566000000E+00 0. -1.
         14    1    4    4    0    0  0.29658868901E+01 -0.48696561215E+01  0.23555889731E+03  0.23562789338E+03  0.00000000000E+00 0. -1.
<mgrwt>
<rscale>  0 0.79901587E+02</rscale>
<asrwt>0</asrwt>
<pdfrwt beam="1">  1        2 0.10572394E+00 0.79901587E+02</pdfrwt>
<pdfrwt beam="2">  1       -1 0.35731462E-03 0.79901587E+02</pdfrwt>
<totfact> 0.33415480E+05</totfact>
</mgrwt>
</event>
<event>
 8    1  0.2676873E-016  0.7734624E+02  0.7818608E-02  0.1336756E+00
         -1   -1    0    0    0  501 -0.00000000000E+00  0.00000000000E+00  0.32617680128E+01  0.32617719066E+01  0.50400000000E-02 0.  1.
          2   -1    0    0  501    0  0.00000000000E+00 -0.00000000000E+00 -0.45852718008E+03  0.45852718009E+03  0.25500000000E-02 0. -1.
         24    2    1    2    0    0  0.71054273576E-14  0.17763568394E-14 -0.45526541207E+03  0.46178895200E+03  0.77346239461E+02 0.  0.
         66    2    3    3    0    0 -0.34641586347E+02 -0.13883755007E+02 -0.28772906324E+03  0.29014619072E+03  0.19999986066E+01 0.  0.
        -13    1    3    3    0    0  0.34641586347E+02  0.13883755007E+02 -0.16753634883E+03  0.17164276128E+03  0.10566000000E+00 0.  1.
         13    1    4    4    0    0 -0.70451756426E+01 -0.21863334894E+01 -0.60720332222E+02  0.61166857555E+02  0.10566000000E+00 0.  1.
        -13    1    4    4    0    0 -0.20506606238E+02 -0.88437574897E+01 -0.16995534444E+03  0.17141634465E+03  0.10566000000E+00 0. -1.
        -14    1    4    4    0    0 -0.70898044665E+01 -0.28536640281E+01 -0.57053386586E+02  0.57562988514E+02  0.00000000000E+00 0.  1.
<mgrwt>
<rscale>  0 0.77346239E+02</rscale>
<asrwt>0</asrwt>
<pdfrwt beam="1">  1        2 0.70542592E-01 0.77346239E+02</pdfrwt>
<pdfrwt beam="2">  1       -1 0.50181113E-03 0.77346239E+02</pdfrwt>
<totfact> 0.32321942E+05</totfact>
</mgrwt>
</event>
<event>
 8    1  0.2676873E-016  0.7968238E+02  0.7818608E-02  0.1329955E+00
          2   -1    0    0  501    0  0.00000000000E+00  0.00000000000E+00  0.31320981442E+03  0.31320981443E+03  0.25500000000E-02 0. -1.
         -1   -1    0    0    0  501 -0.00000000000E+00 -0.00000000000E+00 -0.50679126500E+01  0.50679151561E+01  0.50400000000E-02 0.  1.
         24    2    1    2    0    0  0.00000000000E+00  0.44408920985E-15  0.30814190177E+03  0.31827772959E+03  0.79682379008E+02 0.  0.
         66    2    3    3    0    0  0.14184928631E+02 -0.20415006263E+01  0.30254705557E+03  0.30289288662E+03  0.20000018108E+01 0.  0.
        -13    1    3    3    0    0 -0.14184928631E+02  0.20415006263E+01  0.55948462033E+01  0.15384842967E+02  0.10566000000E+00 0.  1.
         13    1    4    4    0    0  0.11179160769E+01  0.43428556858E-01  0.29733025731E+02  0.29754253571E+02  0.10566000000E+00 0. -1.
        -13    1    4    4    0    0  0.16628942251E+01  0.60991764334E-01  0.27797213040E+02  0.27847174974E+02  0.10566000000E+00 0.  1.
         14    1    4    4    0    0  0.11404118329E+02 -0.21459209475E+01  0.24501681680E+03  0.24529145808E+03  0.00000000000E+00 0. -1.
<mgrwt>
<rscale>  0 0.79682379E+02</rscale>
<asrwt>0</asrwt>
<pdfrwt beam="1">  1        2 0.48186125E-01 0.79682379E+02</pdfrwt>
<pdfrwt beam="2">  1       -1 0.77967908E-03 0.79682379E+02</pdfrwt>
<totfact> 0.26166246E+05</totfact>
</mgrwt>
</event>
<event>
 8    1  0.2676873E-016  0.8322003E+02  0.7818608E-02  0.1320154E+00
          2   -1    0    0  501    0  0.00000000000E+00  0.00000000000E+00  0.42677836500E+03  0.42677836500E+03  0.25500000000E-02 0. -1.
         -1   -1    0    0    0  501 -0.00000000000E+00 -0.00000000000E+00 -0.40568896039E+01  0.40568927346E+01  0.50400000000E-02 0.  1.
         24    2    1    2    0    0  0.00000000000E+00 -0.22204460493E-15  0.42272147539E+03  0.43083525774E+03  0.83220030958E+02 0.  0.
         66    2    3    3    0    0 -0.12795823649E+02  0.10367249438E+01  0.41626001062E+03  0.41646272865E+03  0.20000021988E+01 0.  0.
        -13    1    3    3    0    0  0.12795823649E+02 -0.10367249438E+01  0.64614647733E+01  0.14372529093E+02  0.10566000000E+00 0.  1.
         13    1    4    4    0    0 -0.57276218379E+01  0.77285244949E+00  0.20743264080E+03  0.20751316726E+03  0.10566000000E+00 0. -1.
        -13    1    4    4    0    0 -0.82443709781E+00  0.66168866052E-02  0.16817109065E+02  0.16837638244E+02  0.10566000000E+00 0.  1.
        -14    1    4    4    0    0 -0.62437647137E+01  0.25725560768E+00  0.19201026075E+03  0.19211192314E+03  0.00000000000E+00 0.  1.
<mgrwt>
<rscale>  0 0.83220031E+02</rscale>
<asrwt>0</asrwt>
<pdfrwt beam="1">  1        2 0.65658224E-01 0.83220031E+02</pdfrwt>
<pdfrwt beam="2">  1       -1 0.62413697E-03 0.83220031E+02</pdfrwt>
<totfact> 0.26061155E+05</totfact>
</mgrwt>
</event>
<event>
 8    1  0.2676873E-016  0.8078553E+02  0.7818608E-02  0.1326837E+00
          2   -1    0    0  501    0  0.00000000000E+00  0.00000000000E+00  0.66824661943E+02  0.66824661992E+02  0.25500000000E-02 0. -1.
         -1   -1    0    0    0  501 -0.00000000000E+00 -0.00000000000E+00 -0.24415770915E+02  0.24415771435E+02  0.50400000000E-02 0.  1.
         24    2    1    2    0    0  0.00000000000E+00  0.00000000000E+00  0.42408891028E+02  0.91240433427E+02  0.80785534929E+02 0.  0.
         66    2    3    3    0    0  0.35508717195E+01  0.36685223425E+02  0.39815294467E+02  0.54292467112E+02  0.20000009711E+01 0.  0.
        -13    1    3    3    0    0 -0.35508717195E+01 -0.36685223425E+02  0.25935965608E+01  0.36947966315E+02  0.10566000000E+00 0.  1.
         13    1    4    4    0    0  0.76297606363E+00  0.91529860941E+01  0.95916214336E+01  0.13280423663E+02  0.10566000000E+00 0. -1.
        -13    1    4    4    0    0  0.21776739336E+01  0.23553498741E+02  0.24992117179E+02  0.34411141391E+02  0.10566000000E+00 0. -1.
         14    1    4    4    0    0  0.61022172235E+00  0.39787385897E+01  0.52315558548E+01  0.66009020579E+01  0.00000000000E+00 0. -1.
<mgrwt>
<rscale>  0 0.80785535E+02</rscale>
<asrwt>0</asrwt>
<pdfrwt beam="1">  1        2 0.10280717E-01 0.80785535E+02</pdfrwt>
<pdfrwt beam="2">  1       -1 0.37562725E-02 0.80785535E+02</pdfrwt>
<totfact> 0.15548401E+05</totfact>
</mgrwt>
</event>
<event>
 8    1  0.2676873E-016  0.8391179E+02  0.7818608E-02  0.1318303E+00
         -1   -1    0    0    0  501 -0.00000000000E+00  0.00000000000E+00  0.74259468714E+01  0.74259485817E+01  0.50400000000E-02 0.  1.
          2   -1    0    0  501    0  0.00000000000E+00 -0.00000000000E+00 -0.23704677418E+03  0.23704677419E+03  0.25500000000E-02 0. -1.
         24    2    1    2    0    0  0.35527136788E-14  0.88817841970E-15 -0.22962082731E+03  0.24447272278E+03  0.83911786105E+02 0.  0.
         66    2    3    3    0    0 -0.19541973245E+02 -0.26716351870E+01 -0.22268352884E+03  0.22356426451E+03  0.19999996542E+01 0.  0.
        -13    1    3    3    0    0  0.19541973245E+02  0.26716351870E+01 -0.69372984737E+01  0.20908458266E+02  0.10566000000E+00 0.  1.
         13    1    4    4    0    0 -0.16206194845E+02 -0.17932801584E+01 -0.18740568339E+03  0.18811368355E+03  0.10566000000E+00 0. -1.
        -13    1    4    4    0    0 -0.42077575631E+00  0.22381138482E-01 -0.53566699648E+01  0.53742562555E+01  0.10566000000E+00 0.  1.
         14    1    4    4    0    0 -0.29150026437E+01 -0.90073616713E+00 -0.29921175477E+02  0.30076324709E+02  0.00000000000E+00 0. -1.
<mgrwt>
<rscale>  0 0.83911786E+02</rscale>
<asrwt>0</asrwt>
<pdfrwt beam="1">  1        2 0.36468729E-01 0.83911786E+02</pdfrwt>
<pdfrwt beam="2">  1       -1 0.11424537E-02 0.83911786E+02</pdfrwt>
<totfact> 0.20648219E+05</totfact>
</mgrwt>
</event>
<event>
 8    1  0.2676873E-016  0.7954647E+02  0.7818608E-02  0.1330343E+00
         -1   -1    0    0    0  501 -0.00000000000E+00  0.00000000000E+00  0.73049064120E+01  0.73049081507E+01  0.50400000000E-02 0.  1.
          2   -1    0    0  501    0  0.00000000000E+00 -0.00000000000E+00 -0.21655444057E+03  0.21655444059E+03  0.25500000000E-02 0. -1.
         24    2    1    2    0    0  0.00000000000E+00  0.00000000000E+00 -0.20924953416E+03  0.22385934874E+03  0.79546467370E+02 0.  0.
         66    2    3    3    0    0 -0.12633605405E+02  0.34034901188E+02 -0.59145701263E+02  0.69427634706E+02  0.19999996344E+01 0.  0.
        -13    1    3    3    0    0  0.12633605405E+02 -0.34034901188E+02 -0.15010383290E+03  0.15443171403E+03  0.10566000000E+00 0.  1.
         13    1    4    4    0    0 -0.34261772512E+01  0.10088387695E+02 -0.16314309736E+02  0.19485433611E+02  0.10566000000E+00 0. -1.
        -13    1    4    4    0    0 -0.33365547770E+01  0.72822826265E+01 -0.13840749112E+02  0.15991927278E+02  0.10566000000E+00 0.  1.
         14    1    4    4    0    0 -0.58708733772E+01  0.16664230866E+02 -0.28990642415E+02  0.33950273817E+02  0.00000000000E+00 0. -1.
<mgrwt>
<rscale>  0 0.79546467E+02</rscale>
<asrwt>0</asrwt>
<pdfrwt beam="1">  1        2 0.33316063E-01 0.79546467E+02</pdfrwt>
<pdfrwt beam="2">  1       -1 0.11238321E-02 0.79546467E+02</pdfrwt>
<totfact> 0.23022917E+05</totfact>
</mgrwt>
</event>
<event>
 8    1  0.2676873E-016  0.7905733E+02  0.7818608E-02  0.1331748E+00
         -1   -1    0    0    0  501 -0.00000000000E+00  0.00000000000E+00  0.49060508619E+02  0.49060508878E+02  0.50400000000E-02 0.  1.
          2   -1    0    0  501    0  0.00000000000E+00 -0.00000000000E+00 -0.31848741481E+02  0.31848741583E+02  0.25500000000E-02 0. -1.
         24    2    1    2    0    0  0.00000000000E+00  0.00000000000E+00  0.17211767138E+02  0.80909250461E+02  0.79057332880E+02 0.  0.
         66    2    3    3    0    0  0.19687836522E+02  0.20443101428E+02 -0.19509155193E+02  0.34498383159E+02  0.20000003381E+01 0.  0.
        -13    1    3    3    0    0 -0.19687836522E+02 -0.20443101428E+02  0.36720922331E+02  0.46410867302E+02  0.10566000000E+00 0.  1.
         13    1    4    4    0    0  0.27351448701E+01  0.24359677846E+01 -0.26970926282E+01  0.45497724326E+01  0.10566000000E+00 0. -1.
        -13    1    4    4    0    0  0.32718982305E+00  0.32545492935E+00 -0.10826917999E+00  0.48565455035E+00  0.10566000000E+00 0.  1.
        -14    1    4    4    0    0  0.16625501828E+02  0.17681678714E+02 -0.16703793385E+02  0.29462956176E+02  0.00000000000E+00 0.  1.
<mgrwt>
<rscale>  0 0.79057333E+02</rscale>
<asrwt>0</asrwt>
<pdfrwt beam="1">  1        2 0.48998064E-02 0.79057333E+02</pdfrwt>
<pdfrwt beam="2">  1       -1 0.75477706E-02 0.79057333E+02</pdfrwt>
<totfact> 0.14073417E+05</totfact>
</mgrwt>
</event>
<event>
 8    1  0.2676873E-016  0.7887379E+02  0.7818608E-02  0.1332278E+00
          2   -1    0    0  501    0  0.00000000000E+00  0.00000000000E+00  0.20958387551E+03  0.20958387552E+03  0.25500000000E-02 0. -1.
         -1   -1    0    0    0  501 -0.00000000000E+00 -0.00000000000E+00 -0.74207447683E+01  0.74207464798E+01  0.50400000000E-02 0.  1.
         24    2    1    2    0    0 -0.17763568394E-14 -0.35527136788E-14  0.20216313074E+03  0.21700462200E+03  0.78873788677E+02 0.  0.
         66    2    3    3    0    0 -0.15442874458E+02 -0.27503849921E+02  0.16615600849E+03  0.16913534011E+03  0.19999963464E+01 0.  0.
        -13    1    3    3    0    0  0.15442874458E+02  0.27503849921E+02  0.36007122247E+02  0.47869281889E+02  0.10566000000E+00 0.  1.
         13    1    4    4    0    0 -0.11662719105E+01 -0.17437949821E+01  0.12946142108E+02  0.13115440162E+02  0.10566000000E+00 0.  1.
        -13    1    4    4    0    0 -0.65696663640E+01 -0.10841169371E+02  0.67830634011E+02  0.69005054480E+02  0.10566000000E+00 0. -1.
         14    1    4    4    0    0 -0.77069361833E+01 -0.14918885568E+02  0.85379232373E+02  0.87014845472E+02  0.00000000000E+00 0. -1.
<mgrwt>
<rscale>  0 0.78873789E+02</rscale>
<asrwt>0</asrwt>
<pdfrwt beam="1">  1        2 0.32243667E-01 0.78873789E+02</pdfrwt>
<pdfrwt beam="2">  1       -1 0.11416534E-02 0.78873789E+02</pdfrwt>
<totfact> 0.23274948E+05</totfact>
</mgrwt>
</event>
<event>
 8    1  0.2676873E-016  0.8113413E+02  0.7818608E-02  0.1325863E+00
         -1   -1    0    0    0  501 -0.00000000000E+00  0.00000000000E+00  0.42884032694E+02  0.42884032990E+02  0.50400000000E-02 0.  1.
          2   -1    0    0  501    0  0.00000000000E+00 -0.00000000000E+00 -0.38375278689E+02  0.38375278773E+02  0.25500000000E-02 0. -1.
         24    2    1    2    0    0 -0.71054273576E-14  0.00000000000E+00  0.45087540057E+01  0.81259311764E+02  0.81134128982E+02 0.  0.
         66    2    3    3    0    0 -0.33334290220E+02  0.18812958866E+02  0.15639722559E+02  0.41396899008E+02  0.19999999949E+01 0.  0.
        -13    1    3    3    0    0  0.33334290220E+02 -0.18812958866E+02 -0.11130968553E+02  0.39862412756E+02  0.10566000000E+00 0.  1.
         13    1    4    4    0    0 -0.26426895546E+02  0.14856014781E+02  0.12240010727E+02  0.32694204532E+02  0.10566000000E+00 0. -1.
        -13    1    4    4    0    0 -0.10658364730E+01  0.68676751725E+00  0.21955938196E+00  0.12911341401E+01  0.10566000000E+00 0.  1.
         14    1    4    4    0    0 -0.58415582012E+01  0.32701765681E+01  0.31801524496E+01  0.74115603355E+01  0.00000000000E+00 0. -1.
<mgrwt>
<rscale>  0 0.81134129E+02</rscale>
<asrwt>0</asrwt>
<pdfrwt beam="1">  1        2 0.59038890E-02 0.81134129E+02</pdfrwt>
<pdfrwt beam="2">  1       -1 0.65975436E-02 0.81134129E+02</pdfrwt>
<totfact> 0.13593644E+05</totfact>
</mgrwt>
</event>
<event>
 8    1  0.2676873E-016  0.7937431E+02  0.7818608E-02  0.1330836E+00
          2   -1    0    0  501    0  0.00000000000E+00  0.00000000000E+00  0.35024083083E+03  0.35024083084E+03  0.25500000000E-02 0. -1.
         -1   -1    0    0    0  501 -0.00000000000E+00 -0.00000000000E+00 -0.44971052583E+01  0.44971080825E+01  0.50400000000E-02 0.  1.
         24    2    1    2    0    0  0.00000000000E+00  0.00000000000E+00  0.34574372557E+03  0.35473793892E+03  0.79374312836E+02 0.  0.
         66    2    3    3    0    0  0.22080645771E+02 -0.31976018224E+02  0.20846691410E+03  0.21206714727E+03  0.20000042425E+01 0.  0.
        -13    1    3    3    0    0 -0.22080645771E+02  0.31976018224E+02  0.13727681147E+03  0.14267079165E+03  0.10566000000E+00 0.  1.
         13    1    4    4    0    0  0.13292036888E+02 -0.19823494683E+02  0.12934168245E+03  0.13152540123E+03  0.10566000000E+00 0. -1.
        -13    1    4    4    0    0  0.21842986407E+01 -0.23476943243E+01  0.18052021792E+02  0.18334925252E+02  0.10566000000E+00 0.  1.
        -14    1    4    4    0    0  0.66043102419E+01 -0.98048292171E+01  0.61073209863E+02  0.62206820790E+02  0.00000000000E+00 0.  1.
<mgrwt>
<rscale>  0 0.79374313E+02</rscale>
<asrwt>0</asrwt>
<pdfrwt beam="1">  1        2 0.53883228E-01 0.79374313E+02</pdfrwt>
<pdfrwt beam="2">  1       -1 0.69186227E-03 0.79374313E+02</pdfrwt>
<totfact> 0.27515511E+05</totfact>
</mgrwt>
</event>
<event>
 8    1  0.2676873E-016  0.7820711E+02  0.7818608E-02  0.1334218E+00
          2   -1    0    0  501    0  0.00000000000E+00  0.00000000000E+00  0.10627195556E+03  0.10627195559E+03  0.25500000000E-02 0. -1.
         -1   -1    0    0    0  501 -0.00000000000E+00 -0.00000000000E+00 -0.14388441293E+02  0.14388442176E+02  0.50400000000E-02 0.  1.
         24    2    1    2    0    0 -0.35527136788E-14  0.00000000000E+00  0.91883514263E+02  0.12066039776E+03  0.78207105783E+02 0.  0.
         66    2    3    3    0    0  0.30535547256E+02 -0.11287212683E+02  0.79321947178E+02  0.85765914702E+02  0.20000010525E+01 0.  0.
        -13    1    3    3    0    0 -0.30535547256E+02  0.11287212683E+02  0.12561567085E+02  0.34894483060E+02  0.10566000000E+00 0.  1.
         13    1    4    4    0    0  0.73730576525E+01 -0.26608426113E+01  0.17319189103E+02  0.19010721653E+02  0.10566000000E+00 0. -1.
        -13    1    4    4    0    0  0.10614474055E+02 -0.35501264028E+01  0.27218329482E+02  0.29429901134E+02  0.10566000000E+00 0. -1.
        -14    1    4    4    0    0  0.12548015548E+02 -0.50762436693E+01  0.34784428593E+02  0.37325291915E+02  0.00000000000E+00 0.  1.
<mgrwt>
<rscale>  0 0.78207106E+02</rscale>
<asrwt>0</asrwt>
<pdfrwt beam="1">  1        2 0.16349532E-01 0.78207106E+02</pdfrwt>
<pdfrwt beam="2">  1       -1 0.22136063E-02 0.78207106E+02</pdfrwt>
<totfact> 0.19159346E+05</totfact>
</mgrwt>
</event>
<event>
 8    1  0.2676873E-016  0.7939135E+02  0.7818608E-02  0.1330788E+00
          2   -1    0    0  501    0  0.00000000000E+00  0.00000000000E+00  0.53551100377E+03  0.53551100377E+03  0.25500000000E-02 0. -1.
         -1   -1    0    0    0  501 -0.00000000000E+00 -0.00000000000E+00 -0.29425078197E+01  0.29425121360E+01  0.50400000000E-02 0.  1.
         24    2    1    2    0    0 -0.88817841970E-15  0.00000000000E+00  0.53256849595E+03  0.53845351591E+03  0.79391346627E+02 0.  0.
         66    2    3    3    0    0  0.76310968756E+01  0.28986840764E+02  0.44269666031E+03  0.44371477736E+03  0.20000052329E+01 0.  0.
        -13    1    3    3    0    0 -0.76310968756E+01 -0.28986840764E+02  0.89871835635E+02  0.94738738547E+02  0.10566000000E+00 0.  1.
         13    1    4    4    0    0  0.22700828624E+01  0.10591438751E+02  0.16661908184E+03  0.16697084012E+03  0.10566000000E+00 0. -1.
        -13    1    4    4    0    0  0.99039651244E+00  0.51304307349E+01  0.74298381022E+02  0.74481962858E+02  0.10566000000E+00 0.  1.
        -14    1    4    4    0    0  0.43706175008E+01  0.13264971278E+02  0.20177919745E+03  0.20226197438E+03  0.00000000000E+00 0.  1.
<mgrwt>
<rscale>  0 0.79391347E+02</rscale>
<asrwt>0</asrwt>
<pdfrwt beam="1">  1        2 0.82386371E-01 0.79391347E+02</pdfrwt>
<pdfrwt beam="2">  1       -1 0.45269350E-03 0.79391347E+02</pdfrwt>
<totfact> 0.31735210E+05</totfact>
</mgrwt>
</event>
<event>
 8    1  0.2676873E-016  0.7971841E+02  0.7818608E-02  0.1329852E+00
         -1   -1    0    0    0  501 -0.00000000000E+00  0.00000000000E+00  0.33485945903E+01  0.33485983832E+01  0.50400000000E-02 0.  1.
          2   -1    0    0  501    0  0.00000000000E+00 -0.00000000000E+00 -0.47445433930E+03  0.47445433931E+03  0.25500000000E-02 0. -1.
         24    2    1    2    0    0 -0.17763568394E-14  0.00000000000E+00 -0.47110574471E+03  0.47780293769E+03  0.79718407955E+02 0.  0.
         66    2    3    3    0    0  0.88498775160E+01 -0.38088256676E+02 -0.28123480974E+03  0.28394727299E+03  0.19999991307E+01 0.  0.
        -13    1    3    3    0    0 -0.88498775160E+01  0.38088256676E+02 -0.18987093497E+03  0.19385566471E+03  0.10566000000E+00 0.  1.
         13    1    4    4    0    0  0.26083890080E+01 -0.12078508421E+02 -0.89801526891E+02  0.90647776889E+02  0.10566000000E+00 0. -1.
        -13    1    4    4    0    0  0.26491298696E+01 -0.12041464621E+02 -0.82815359509E+02  0.83728189363E+02  0.10566000000E+00 0.  1.
        -14    1    4    4    0    0  0.35923586384E+01 -0.13968283633E+02 -0.10861792334E+03  0.10957130673E+03  0.00000000000E+00 0.  1.
<mgrwt>
<rscale>  0 0.79718408E+02</rscale>
<asrwt>0</asrwt>
<pdfrwt beam="1">  1        2 0.72992922E-01 0.79718408E+02</pdfrwt>
<pdfrwt beam="2">  1       -1 0.51516907E-03 0.79718408E+02</pdfrwt>
<totfact> 0.30215981E+05</totfact>
</mgrwt>
</event>
<event>
 8    1  0.2676873E-016  0.7783824E+02  0.7818608E-02  0.1335301E+00
         -1   -1    0    0    0  501 -0.00000000000E+00  0.00000000000E+00  0.15857710855E+03  0.15857710863E+03  0.50400000000E-02 0.  1.
          2   -1    0    0  501    0  0.00000000000E+00 -0.00000000000E+00 -0.95518068039E+01  0.95518071443E+01  0.25500000000E-02 0. -1.
         24    2    1    2    0    0 -0.35527136788E-14 -0.35527136788E-14  0.14902530174E+03  0.16812891577E+03  0.77838240980E+02 0.  0.
         66    2    3    3    0    0  0.29489982881E+02  0.19799720128E+02  0.40340872635E+02  0.53787303477E+02  0.20000007328E+01 0.  0.
        -13    1    3    3    0    0 -0.29489982881E+02 -0.19799720128E+02  0.10868442911E+03  0.11434161229E+03  0.10566000000E+00 0.  1.
         13    1    4    4    0    0  0.14954924068E+02  0.10948300766E+02  0.21644639703E+02  0.28495905591E+02  0.10566000000E+00 0. -1.
        -13    1    4    4    0    0  0.12218579169E+02  0.74446237910E+01  0.15332959373E+02  0.20972050626E+02  0.10566000000E+00 0.  1.
         14    1    4    4    0    0  0.23164796447E+01  0.14067955701E+01  0.33632735592E+01  0.43193472602E+01  0.00000000000E+00 0. -1.
<mgrwt>
<rscale>  0 0.77838241E+02</rscale>
<asrwt>0</asrwt>
<pdfrwt beam="1">  1        2 0.14695089E-02 0.77838241E+02</pdfrwt>
<pdfrwt beam="2">  1       -1 0.24396477E-01 0.77838241E+02</pdfrwt>
<totfact> 0.11396410E+05</totfact>
</mgrwt>
</event>
<event>
 8    1  0.2676873E-016  0.7433847E+02  0.7818608E-02  0.1345932E+00
          2   -1    0    0  501    0  0.00000000000E+00  0.00000000000E+00  0.44985932615E+03  0.44985932616E+03  0.25500000000E-02 0. -1.
         -1   -1    0    0    0  501 -0.00000000000E+00 -0.00000000000E+00 -0.30710731934E+01  0.30710773290E+01  0.50400000000E-02 0.  1.
         24    2    1    2    0    0  0.00000000000E+00  0.00000000000E+00  0.44678825296E+03  0.45293040349E+03  0.74338465294E+02 0.  0.
         66    2    3    3    0    0  0.13752575861E+01  0.35009487441E+02  0.29867051003E+03  0.30072517204E+03  0.19999989746E+01 0.  0.
        -13    1    3    3    0    0 -0.13752575861E+01 -0.35009487441E+02  0.14811774293E+03  0.15220523145E+03  0.10566000000E+00 0.  1.
         13    1    4    4    0    0  0.10891835013E+01  0.23693988763E+02  0.20585112648E+03  0.20721314838E+03  0.10566000000E+00 0. -1.
        -13    1    4    4    0    0 -0.27658221613E+00  0.34959209555E+01  0.26727309341E+02  0.26956598259E+02  0.10566000000E+00 0.  1.
        -14    1    4    4    0    0  0.56265630084E+00  0.78195777220E+01  0.66092074203E+02  0.66555425401E+02  0.00000000000E+00 0.  1.
<mgrwt>
<rscale>  0 0.74338465E+02</rscale>
<asrwt>0</asrwt>
<pdfrwt beam="1">  1        2 0.69209116E-01 0.74338465E+02</pdfrwt>
<pdfrwt beam="2">  1       -1 0.47247319E-03 0.74338465E+02</pdfrwt>
<totfact> 0.35597608E+05</totfact>
</mgrwt>
</event>
<event>
 8    1  0.2676873E-016  0.8215571E+02  0.7818608E-02  0.1323043E+00
          2   -1    0    0  501    0  0.00000000000E+00  0.00000000000E+00  0.34940276821E+03  0.34940276822E+03  0.25500000000E-02 0. -1.
         -1   -1    0    0    0  501 -0.00000000000E+00 -0.00000000000E+00 -0.48293539840E+01  0.48293566139E+01  0.50400000000E-02 0.  1.
         24    2    1    2    0    0 -0.35527136788E-14  0.00000000000E+00  0.34457341423E+03  0.35423212483E+03  0.82155708703E+02 0.  0.
         66    2    3    3    0    0  0.15070745427E+02 -0.17743768870E+01  0.33686281170E+03  0.33721036416E+03  0.20000024616E+01 0.  0.
        -13    1    3    3    0    0 -0.15070745427E+02  0.17743768870E+01  0.77106025271E+01  0.17021760674E+02  0.10566000000E+00 0.  1.
         13    1    4    4    0    0  0.14900087155E+01  0.90738008779E-01  0.43115601174E+02  0.43141564506E+02  0.10566000000E+00 0. -1.
        -13    1    4    4    0    0  0.24945254481E+01 -0.42482260666E+00  0.46374250462E+02  0.46443356914E+02  0.10566000000E+00 0.  1.
         14    1    4    4    0    0  0.11086211264E+02 -0.14402922891E+01  0.24737296006E+03  0.24762544274E+03  0.00000000000E+00 0. -1.
<mgrwt>
<rscale>  0 0.82155709E+02</rscale>
<asrwt>0</asrwt>
<pdfrwt beam="1">  1        2 0.53754286E-01 0.82155709E+02</pdfrwt>
<pdfrwt beam="2">  1       -1 0.74297755E-03 0.82155709E+02</pdfrwt>
<totfact> 0.25120736E+05</totfact>
</mgrwt>
</event>
<event>
 8    1  0.2676873E-016  0.8026652E+02  0.7818608E-02  0.1328297E+00
          2   -1    0    0  501    0  0.00000000000E+00  0.00000000000E+00  0.58453407973E+03  0.58453407973E+03  0.25500000000E-02 0. -1.
         -1   -1    0    0    0  501 -0.00000000000E+00 -0.00000000000E+00 -0.27554891199E+01  0.27554937292E+01  0.50400000000E-02 0.  1.
         24    2    1    2    0    0  0.35527136788E-14  0.00000000000E+00  0.58177859061E+03  0.58728957346E+03  0.80266522337E+02 0.  0.
         66    2    3    3    0    0 -0.21769192429E+02 -0.17326702499E+02  0.50244115576E+03  0.50321489184E+03  0.20000010483E+01 0.  0.
        -13    1    3    3    0    0  0.21769192429E+02  0.17326702499E+02  0.79337434844E+02  0.84074681624E+02  0.10566000000E+00 0.  1.
         13    1    4    4    0    0 -0.26808837030E+01 -0.27572458236E+01  0.76827432865E+02  0.76923696912E+02  0.10566000000E+00 0. -1.
        -13    1    4    4    0    0 -0.49558312628E+00 -0.35306485167E+00  0.11623424287E+02  0.11639820171E+02  0.10566000000E+00 0. -1.
        -14    1    4    4    0    0 -0.18592725600E+02 -0.14216391824E+02  0.41399029861E+03  0.41465137475E+03  0.00000000000E+00 0.  1.
<mgrwt>
<rscale>  0 0.80266522E+02</rscale>
<asrwt>0</asrwt>
<pdfrwt beam="1">  1        2 0.89928349E-01 0.80266522E+02</pdfrwt>
<pdfrwt beam="2">  1       -1 0.42392162E-03 0.80266522E+02</pdfrwt>
<totfact> 0.31652431E+05</totfact>
</mgrwt>
</event>
<event>
 8    1  0.2676873E-016  0.8718251E+02  0.7818608E-02  0.1309822E+00
          2   -1    0    0  501    0  0.00000000000E+00  0.00000000000E+00  0.38460239938E+03  0.38460239939E+03  0.25500000000E-02 0. -1.
         -1   -1    0    0    0  501 -0.00000000000E+00 -0.00000000000E+00 -0.49406792359E+01  0.49406818066E+01  0.50400000000E-02 0.  1.
         24    2    1    2    0    0  0.00000000000E+00  0.35527136788E-14  0.37966172014E+03  0.38954308119E+03  0.87182511802E+02 0.  0.
         66    2    3    3    0    0  0.23172801307E+02  0.30650996885E+02  0.28168838307E+03  0.28430407573E+03  0.19999969487E+01 0.  0.
        -13    1    3    3    0    0 -0.23172801307E+02 -0.30650996885E+02  0.97973337071E+02  0.10523900547E+03  0.10566000000E+00 0.  1.
         13    1    4    4    0    0  0.20707902124E+01  0.36397975906E+01  0.31098993566E+02  0.31379848047E+02  0.10566000000E+00 0. -1.
        -13    1    4    4    0    0  0.19279155231E+01  0.21447479042E+01  0.20532045583E+02  0.20733857859E+02  0.10566000000E+00 0.  1.
         14    1    4    4    0    0  0.19174095572E+02  0.24866451390E+02  0.23005734392E+03  0.23219036982E+03  0.00000000000E+00 0. -1.
<mgrwt>
<rscale>  0 0.87182512E+02</rscale>
<asrwt>0</asrwt>
<pdfrwt beam="1">  1        2 0.59169614E-01 0.87182512E+02</pdfrwt>
<pdfrwt beam="2">  1       -1 0.76010451E-03 0.87182512E+02</pdfrwt>
<totfact> 0.22237561E+05</totfact>
</mgrwt>
</event>
<event>
 8    1  0.2676873E-016  0.7866186E+02  0.7818608E-02  0.1332892E+00
         -1   -1    0    0    0  501 -0.00000000000E+00  0.00000000000E+00  0.12438060130E+01  0.12438162242E+01  0.50400000000E-02 0.  1.
          2   -1    0    0  501    0  0.00000000000E+00 -0.00000000000E+00 -0.12436954198E+04  0.12436954198E+04  0.25500000000E-02 0. -1.
         24    2    1    2    0    0 -0.22204460493E-15 -0.17763568394E-14 -0.12424516138E+04  0.12449392360E+04  0.78661863676E+02 0.  0.
         66    2    3    3    0    0 -0.19891434669E+01 -0.11036578544E+02 -0.12178355970E+04  0.12178888718E+04  0.19999989220E+01 0.  0.
        -13    1    3    3    0    0  0.19891434669E+01  0.11036578544E+02 -0.24616016748E+02  0.27050364180E+02  0.10566000000E+00 0.  1.
         13    1    4    4    0    0 -0.11541633750E+01 -0.48249991141E+01 -0.51825437464E+03  0.51827813065E+03  0.10566000000E+00 0. -1.
        -13    1    4    4    0    0 -0.10448141430E+01 -0.58758076555E+01 -0.62608569469E+03  0.62611414696E+03  0.10566000000E+00 0.  1.
        -14    1    4    4    0    0  0.20983405107E+00 -0.33577177434E+00 -0.73495527699E+02  0.73496594239E+02  0.00000000000E+00 0.  1.
<mgrwt>
<rscale>  0 0.78661864E+02</rscale>
<asrwt>0</asrwt>
<pdfrwt beam="1">  1        2 0.19133676E+00 0.78661864E+02</pdfrwt>
<pdfrwt beam="2">  1       -1 0.19135655E-03 0.78661864E+02</pdfrwt>
<totfact> 0.36438149E+05</totfact>
</mgrwt>
</event>
<event>
 8    1  0.2676873E-016  0.8071526E+02  0.7818608E-02  0.1327034E+00
          2   -1    0    0  501    0  0.00000000000E+00  0.00000000000E+00  0.36329461327E+02  0.36329461417E+02  0.25500000000E-02 0. -1.
         -1   -1    0    0    0  501 -0.00000000000E+00 -0.00000000000E+00 -0.44832442389E+02  0.44832442673E+02  0.50400000000E-02 0.  1.
         24    2    1    2    0    0  0.00000000000E+00  0.88817841970E-15 -0.85029810620E+01  0.81161904090E+02  0.80715264904E+02 0.  0.
         66    2    3    3    0    0  0.10140977303E+02  0.34100330884E+01  0.34848954666E+02  0.36509141110E+02  0.19999992523E+01 0.  0.
        -13    1    3    3    0    0 -0.10140977303E+02 -0.34100330884E+01 -0.43351935728E+02  0.44652762979E+02  0.10566000000E+00 0.  1.
         13    1    4    4    0    0  0.14365501765E+01  0.12330810181E+00  0.39493082222E+01  0.42056011184E+01  0.10566000000E+00 0. -1.
        -13    1    4    4    0    0  0.61002810535E+00 -0.12732930718E+00  0.22748185731E+01  0.23609978014E+01  0.10566000000E+00 0. -1.
         14    1    4    4    0    0  0.80943990208E+01  0.34140542937E+01  0.28624827870E+02  0.29942542191E+02  0.00000000000E+00 0. -1.
<mgrwt>
<rscale>  0 0.80715265E+02</rscale>
<asrwt>0</asrwt>
<pdfrwt beam="1">  1        2 0.55891479E-02 0.80715265E+02</pdfrwt>
<pdfrwt beam="2">  1       -1 0.68972988E-02 0.80715265E+02</pdfrwt>
<totfact> 0.13637022E+05</totfact>
</mgrwt>
</event>
<event>
 8    1  0.2676873E-016  0.7885445E+02  0.7818608E-02  0.1332334E+00
         -1   -1    0    0    0  501 -0.00000000000E+00  0.00000000000E+00  0.34492068001E+02  0.34492068369E+02  0.50400000000E-02 0.  1.
          2   -1    0    0  501    0  0.00000000000E+00 -0.00000000000E+00 -0.45068505475E+02  0.45068505547E+02  0.25500000000E-02 0. -1.
         24    2    1    2    0    0  0.00000000000E+00  0.00000000000E+00 -0.10576437474E+02  0.79560573917E+02  0.78854447511E+02 0.  0.
         66    2    3    3    0    0  0.13939970454E+02 -0.31551059691E+02 -0.24507072392E+02  0.42360225838E+02  0.19999979933E+01 0.  0.
        -13    1    3    3    0    0 -0.13939970454E+02  0.31551059691E+02  0.13930634918E+02  0.37200348078E+02  0.10566000000E+00 0.  1.
         13    1    4    4    0    0  0.14422921440E+01 -0.34067654927E+01 -0.29757848127E+01  0.47489701029E+01  0.10566000000E+00 0. -1.
        -13    1    4    4    0    0  0.59921026772E+01 -0.15267968913E+02 -0.11931974929E+02  0.20282982004E+02  0.10566000000E+00 0.  1.
         14    1    4    4    0    0  0.65055756326E+01 -0.12876325285E+02 -0.95993126505E+01  0.17328273732E+02  0.00000000000E+00 0. -1.
<mgrwt>
<rscale>  0 0.78854448E+02</rscale>
<asrwt>0</asrwt>
<pdfrwt beam="1">  1        2 0.69336163E-02 0.78854448E+02</pdfrwt>
<pdfrwt beam="2">  1       -1 0.53064720E-02 0.78854448E+02</pdfrwt>
<totfact> 0.15204678E+05</totfact>
</mgrwt>
</event>
<event>
 8    1  0.2676873E-016  0.7871734E+02  0.7818608E-02  0.1332731E+00
          2   -1    0    0  501    0  0.00000000000E+00  0.00000000000E+00  0.60454935556E+02  0.60454935609E+02  0.25500000000E-02 0. -1.
         -1   -1    0    0    0  501 -0.00000000000E+00 -0.00000000000E+00 -0.25624127972E+02  0.25624128468E+02  0.50400000000E-02 0.  1.
         24    2    1    2    0    0  0.35527136788E-14 -0.71054273576E-14  0.34830807583E+02  0.86079064077E+02  0.78717343169E+02 0.  0.
         66    2    3    3    0    0 -0.22056479302E+02  0.32537075549E+02  0.15899391377E+02  0.42449266369E+02  0.20000011516E+01 0.  0.
        -13    1    3    3    0    0  0.22056479302E+02 -0.32537075549E+02  0.18931416206E+02  0.43629797709E+02  0.10566000000E+00 0.  1.
         13    1    4    4    0    0 -0.11367026396E+02  0.16249604917E+02  0.74622581982E+01  0.21188567920E+02  0.10566000000E+00 0. -1.
        -13    1    4    4    0    0 -0.10197766829E+02  0.15254349677E+02  0.81683987979E+01  0.20085406028E+02  0.10566000000E+00 0.  1.
         14    1    4    4    0    0 -0.49168607769E+00  0.10331209558E+01  0.26873438063E+00  0.11752924213E+01  0.00000000000E+00 0. -1.
<mgrwt>
<rscale>  0 0.78717343E+02</rscale>
<asrwt>0</asrwt>
<pdfrwt beam="1">  1        2 0.93007591E-02 0.78717343E+02</pdfrwt>
<pdfrwt beam="2">  1       -1 0.39421737E-02 0.78717343E+02</pdfrwt>
<totfact> 0.16293457E+05</totfact>
</mgrwt>
</event>
<event>
 8    1  0.2676873E-016  0.7924735E+02  0.7818608E-02  0.1331201E+00
          2   -1    0    0  501    0  0.00000000000E+00  0.00000000000E+00  0.10367293822E+03  0.10367293826E+03  0.25500000000E-02 0. -1.
         -1   -1    0    0    0  501 -0.00000000000E+00 -0.00000000000E+00 -0.15144123234E+02  0.15144124073E+02  0.50400000000E-02 0.  1.
         24    2    1    2    0    0 -0.35527136788E-14  0.71054273576E-14  0.88528814990E+02  0.11881706233E+03  0.79247354636E+02 0.  0.
         66    2    3    3    0    0  0.22872643773E+02 -0.26648540329E+02  0.71723435322E+02  0.79884627461E+02  0.19999988372E+01 0.  0.
        -13    1    3    3    0    0 -0.22872643773E+02  0.26648540329E+02  0.16805379668E+02  0.38932434867E+02  0.10566000000E+00 0.  1.
         13    1    4    4    0    0  0.39313738092E+01 -0.37294112930E+01  0.10505069627E+02  0.11820823175E+02  0.10566000000E+00 0. -1.
        -13    1    4    4    0    0  0.40010961702E+01 -0.51120692032E+01  0.14176141024E+02  0.15592182672E+02  0.10566000000E+00 0.  1.
         14    1    4    4    0    0  0.14940173794E+02 -0.17807059833E+02  0.47042224671E+02  0.52471621615E+02  0.00000000000E+00 0. -1.
<mgrwt>
<rscale>  0 0.79247355E+02</rscale>
<asrwt>0</asrwt>
<pdfrwt beam="1">  1        2 0.15949682E-01 0.79247355E+02</pdfrwt>
<pdfrwt beam="2">  1       -1 0.23298652E-02 0.79247355E+02</pdfrwt>
<totfact> 0.18365490E+05</totfact>
</mgrwt>
</event>
<event>
 8    1  0.2676873E-016  0.7729507E+02  0.7818608E-02  0.1336908E+00
          2   -1    0    0  501    0  0.00000000000E+00  0.00000000000E+00  0.11245656344E+04  0.11245656344E+04  0.25500000000E-02 0. -1.
         -1   -1    0    0    0  501 -0.00000000000E+00 -0.00000000000E+00 -0.13281809296E+01  0.13281904921E+01  0.50400000000E-02 0.  1.
         24    2    1    2    0    0  0.17763568394E-14  0.00000000000E+00  0.11232374535E+04  0.11258938249E+04  0.77295071370E+02 0.  0.
         66    2    3    3    0    0  0.15410963430E+02  0.17597764146E+02  0.10096396377E+04  0.10099125591E+04  0.19999945354E+01 0.  0.
        -13    1    3    3    0    0 -0.15410963430E+02 -0.17597764146E+02  0.11359781584E+03  0.11598126583E+03  0.10566000000E+00 0.  1.
         13    1    4    4    0    0  0.59724124408E+01  0.69587234481E+01  0.35839247004E+03  0.35850978688E+03  0.10566000000E+00 0. -1.
        -13    1    4    4    0    0  0.88859698115E+01  0.99929797084E+01  0.60480319787E+03  0.60495102233E+03  0.10566000000E+00 0.  1.
         14    1    4    4    0    0  0.55258117754E+00  0.64606098945E+00  0.46443969736E+02  0.46451749866E+02  0.00000000000E+00 0. -1.
<mgrwt>
<rscale>  0 0.77295071E+02</rscale>
<asrwt>0</asrwt>
<pdfrwt beam="1">  1        2 0.17300965E+00 0.77295071E+02</pdfrwt>
<pdfrwt beam="2">  1       -1 0.20433680E-03 0.77295071E+02</pdfrwt>
<totfact> 0.38503468E+05</totfact>
</mgrwt>
</event>
<event>
 8    1  0.2676873E-016  0.7010240E+02  0.7818608E-02  0.1359745E+00
         -1   -1    0    0    0  501 -0.00000000000E+00  0.00000000000E+00  0.26813163848E+02  0.26813164322E+02  0.50400000000E-02 0.  1.
          2   -1    0    0  501    0  0.00000000000E+00 -0.00000000000E+00 -0.45820279310E+02  0.45820279381E+02  0.25500000000E-02 0. -1.
         24    2    1    2    0    0  0.00000000000E+00  0.00000000000E+00 -0.19007115462E+02  0.72633443702E+02  0.70102401570E+02 0.  0.
         66    2    3    3    0    0  0.24496839514E+02 -0.16755566239E+02 -0.28776632201E+02  0.41387663707E+02  0.20000000439E+01 0.  0.
        -13    1    3    3    0    0 -0.24496839514E+02  0.16755566239E+02  0.97695167387E+01  0.31245779995E+02  0.10566000000E+00 0.  1.
         13    1    4    4    0    0  0.30043506085E+01 -0.20804244533E+01 -0.40863389319E+01  0.54830300370E+01  0.10566000000E+00 0. -1.
        -13    1    4    4    0    0  0.14510578666E+02 -0.10400331036E+02 -0.17691264342E+02  0.25133956651E+02  0.10566000000E+00 0.  1.
        -14    1    4    4    0    0  0.69819102391E+01 -0.42748107501E+01 -0.69990289271E+01  0.10770677020E+02  0.00000000000E+00 0.  1.
<mgrwt>
<rscale>  0 0.70102402E+02</rscale>
<asrwt>0</asrwt>
<pdfrwt beam="1">  1        2 0.70492738E-02 0.70102402E+02</pdfrwt>
<pdfrwt beam="2">  1       -1 0.41251022E-02 0.70102402E+02</pdfrwt>
<totfact> 0.21001595E+05</totfact>
</mgrwt>
</event>
<event>
 8    1  0.2676873E-016  0.8100040E+02  0.7818608E-02  0.1326236E+00
          2   -1    0    0  501    0  0.00000000000E+00  0.00000000000E+00  0.26339695648E+02  0.26339695771E+02  0.25500000000E-02 0. -1.
         -1   -1    0    0    0  501 -0.00000000000E+00 -0.00000000000E+00 -0.62273544145E+02  0.62273544349E+02  0.50400000000E-02 0.  1.
         24    2    1    2    0    0  0.17763568394E-14  0.00000000000E+00 -0.35933848497E+02  0.88613240120E+02  0.81000400350E+02 0.  0.
         66    2    3    3    0    0 -0.10237539201E+02  0.30994877766E+02  0.82041143421E+01  0.33716422505E+02  0.19999994567E+01 0.  0.
        -13    1    3    3    0    0  0.10237539201E+02 -0.30994877766E+02 -0.44137962839E+02  0.54896817615E+02  0.10566000000E+00 0.  1.
         13    1    4    4    0    0 -0.54045466275E+01  0.15443163101E+02  0.44961955233E+01  0.16968422113E+02  0.10566000000E+00 0.  1.
        -13    1    4    4    0    0 -0.10888486908E+01  0.33133694330E+01  0.13095710325E+01  0.37269489929E+01  0.10566000000E+00 0. -1.
        -14    1    4    4    0    0 -0.37441438825E+01  0.12238345232E+02  0.23983477863E+01  0.13021051399E+02  0.00000000000E+00 0.  1.
<mgrwt>
<rscale>  0 0.81000400E+02</rscale>
<asrwt>0</asrwt>
<pdfrwt beam="1">  1        2 0.40522609E-02 0.81000400E+02</pdfrwt>
<pdfrwt beam="2">  1       -1 0.95805453E-02 0.81000400E+02</pdfrwt>
<totfact> 0.12662033E+05</totfact>
</mgrwt>
</event>
<event>
 8    1  0.2676873E-016  0.7748158E+02  0.7818608E-02  0.1336354E+00
          2   -1    0    0  501    0  0.00000000000E+00  0.00000000000E+00  0.25946195252E+02  0.25946195377E+02  0.25500000000E-02 0. -1.
         -1   -1    0    0    0  501 -0.00000000000E+00 -0.00000000000E+00 -0.57844661659E+02  0.57844661879E+02  0.50400000000E-02 0.  1.
         24    2    1    2    0    0 -0.35527136788E-14  0.00000000000E+00 -0.31898466407E+02  0.83790857256E+02  0.77481582331E+02 0.  0.
         66    2    3    3    0    0  0.18168888292E+02 -0.24996692719E+02  0.92609205032E+01  0.32321940000E+02  0.20000020248E+01 0.  0.
        -13    1    3    3    0    0 -0.18168888292E+02  0.24996692719E+02 -0.41159386911E+02  0.51468917256E+02  0.10566000000E+00 0.  1.
         13    1    4    4    0    0  0.10955423703E+01 -0.18349064898E+01  0.31188177131E+00  0.21622972012E+01  0.10566000000E+00 0. -1.
        -13    1    4    4    0    0  0.52737174578E+01 -0.74654541922E+01  0.34136051228E+01  0.97575081907E+01  0.10566000000E+00 0.  1.
         14    1    4    4    0    0  0.11799628464E+02 -0.15696332037E+02  0.55354336091E+01  0.20402134608E+02  0.00000000000E+00 0. -1.
<mgrwt>
<rscale>  0 0.77481582E+02</rscale>
<asrwt>0</asrwt>
<pdfrwt beam="1">  1        2 0.39917224E-02 0.77481582E+02</pdfrwt>
<pdfrwt beam="2">  1       -1 0.88991787E-02 0.77481582E+02</pdfrwt>
<totfact> 0.14308950E+05</totfact>
</mgrwt>
</event>
<event>
 8    1  0.2676873E-016  0.8142825E+02  0.7818608E-02  0.1325046E+00
         -1   -1    0    0    0  501 -0.00000000000E+00  0.00000000000E+00  0.27661145920E+02  0.27661146379E+02  0.50400000000E-02 0.  1.
          2   -1    0    0  501    0  0.00000000000E+00 -0.00000000000E+00 -0.59926659901E+02  0.59926659956E+02  0.25500000000E-02 0. -1.
         24    2    1    2    0    0  0.35527136788E-14 -0.44408920985E-15 -0.32265513982E+02  0.87587806334E+02  0.81428253241E+02 0.  0.
         66    2    3    3    0    0 -0.12504925407E+02  0.27989408292E+01 -0.57682765343E+02  0.59122826798E+02  0.20000004715E+01 0.  0.
        -13    1    3    3    0    0  0.12504925407E+02 -0.27989408292E+01  0.25417251361E+02  0.28464979536E+02  0.10566000000E+00 0.  1.
         13    1    4    4    0    0 -0.44253342605E+01  0.83832272915E+00 -0.16968919379E+02  0.17556815122E+02  0.10566000000E+00 0. -1.
        -13    1    4    4    0    0 -0.69076474247E+00  0.33050201748E+00 -0.28143203531E+01  0.29185528261E+01  0.10566000000E+00 0. -1.
         14    1    4    4    0    0 -0.73888264039E+01  0.16301160826E+01 -0.37899525611E+02  0.38647458850E+02  0.00000000000E+00 0. -1.
<mgrwt>
<rscale>  0 0.81428253E+02</rscale>
<asrwt>0</asrwt>
<pdfrwt beam="1">  1        2 0.92194861E-02 0.81428253E+02</pdfrwt>
<pdfrwt beam="2">  1       -1 0.42555610E-02 0.81428253E+02</pdfrwt>
<totfact> 0.14829427E+05</totfact>
</mgrwt>
</event>
<event>
 8    1  0.2676873E-016  0.8002553E+02  0.7818608E-02  0.1328979E+00
          2   -1    0    0  501    0  0.00000000000E+00  0.00000000000E+00  0.18284648183E+03  0.18284648185E+03  0.25500000000E-02 0. -1.
         -1   -1    0    0    0  501 -0.00000000000E+00 -0.00000000000E+00 -0.87560959425E+01  0.87560973930E+01  0.50400000000E-02 0.  1.
         24    2    1    2    0    0  0.35527136788E-14  0.44408920985E-15  0.17409038589E+03  0.19160257924E+03  0.80025532883E+02 0.  0.
         66    2    3    3    0    0 -0.17652729548E+02 -0.24213894838E+01  0.17281068040E+03  0.17373834688E+03  0.19999822873E+01 0.  0.
        -13    1    3    3    0    0  0.17652729548E+02  0.24213894838E+01  0.12797054839E+01  0.17864232356E+02  0.10566000000E+00 0.  1.
         13    1    4    4    0    0 -0.18064387753E+01 -0.58707068430E+00  0.15165934778E+02  0.15284783765E+02  0.10566000000E+00 0. -1.
        -13    1    4    4    0    0 -0.45741976354E+01 -0.40182049273E+00  0.50183384349E+02  0.50393134180E+02  0.10566000000E+00 0.  1.
         14    1    4    4    0    0 -0.11272093137E+02 -0.14324983067E+01  0.10746136128E+03  0.10806042894E+03  0.00000000000E+00 0. -1.
<mgrwt>
<rscale>  0 0.80025533E+02</rscale>
<asrwt>0</asrwt>
<pdfrwt beam="1">  1        2 0.28130228E-01 0.80025533E+02</pdfrwt>
<pdfrwt beam="2">  1       -1 0.13470918E-02 0.80025533E+02</pdfrwt>
<totfact> 0.21370250E+05</totfact>
</mgrwt>
</event>
<event>
 8    1  0.2676873E-016  0.7202364E+02  0.7818608E-02  0.1353344E+00
         -1   -1    0    0    0  501 -0.00000000000E+00  0.00000000000E+00  0.30804206433E+01  0.30804247663E+01  0.50400000000E-02 0.  1.
          2   -1    0    0  501    0  0.00000000000E+00 -0.00000000000E+00 -0.42099774891E+03  0.42099774892E+03  0.25500000000E-02 0. -1.
         24    2    1    2    0    0 -0.71054273576E-14  0.44408920985E-15 -0.41791732827E+03  0.42407817368E+03  0.72023635909E+02 0.  0.
         66    2    3    3    0    0  0.26653699281E+02 -0.16837930569E+01 -0.35111656718E+03  0.35213647722E+03  0.19999990076E+01 0.  0.
        -13    1    3    3    0    0 -0.26653699281E+02  0.16837930569E+01 -0.66800761091E+02  0.71941696468E+02  0.10566000000E+00 0.  1.
         13    1    4    4    0    0  0.11325697738E+02 -0.10429697376E+01 -0.14713284343E+03  0.14757182656E+03  0.10566000000E+00 0. -1.
        -13    1    4    4    0    0  0.48033280488E+01 -0.28561106203E+00 -0.72810308990E+02  0.72969211270E+02  0.10566000000E+00 0.  1.
        -14    1    4    4    0    0  0.10524673493E+02 -0.35521225726E+00 -0.13117341476E+03  0.13159543938E+03  0.00000000000E+00 0.  1.
<mgrwt>
<rscale>  0 0.72023636E+02</rscale>
<asrwt>0</asrwt>
<pdfrwt beam="1">  1        2 0.64768839E-01 0.72023636E+02</pdfrwt>
<pdfrwt beam="2">  1       -1 0.47391152E-03 0.72023636E+02</pdfrwt>
<totfact> 0.37774703E+05</totfact>
</mgrwt>
</event>
<event>
 8    1  0.2676873E-016  0.7898405E+02  0.7818608E-02  0.1331960E+00
         -1   -1    0    0    0  501 -0.00000000000E+00  0.00000000000E+00  0.44520603941E+02  0.44520604226E+02  0.50400000000E-02 0.  1.
          2   -1    0    0  501    0  0.00000000000E+00 -0.00000000000E+00 -0.35031418541E+02  0.35031418634E+02  0.25500000000E-02 0. -1.
         24    2    1    2    0    0  0.17763568394E-14  0.35527136788E-14  0.94891853999E+01  0.79552022860E+02  0.78984047134E+02 0.  0.
         66    2    3    3    0    0  0.94533892083E+01  0.26354836858E+02 -0.23267333241E+02  0.36459741988E+02  0.19999990885E+01 0.  0.
        -13    1    3    3    0    0 -0.94533892083E+01 -0.26354836858E+02  0.32756518641E+02  0.43092280873E+02  0.10566000000E+00 0.  1.
         13    1    4    4    0    0  0.12900887831E+01  0.30267908562E+01 -0.29122594786E+01  0.43952487144E+01  0.10566000000E+00 0. -1.
        -13    1    4    4    0    0  0.81844706124E+01  0.23330375663E+02 -0.20254425013E+02  0.31961615798E+02  0.10566000000E+00 0.  1.
        -14    1    4    4    0    0 -0.21170187273E-01 -0.23296616928E-02 -0.10064874925E+00  0.10287747507E+00  0.00000000000E+00 0.  1.
<mgrwt>
<rscale>  0 0.78984047E+02</rscale>
<asrwt>0</asrwt>
<pdfrwt beam="1">  1        2 0.53894490E-02 0.78984047E+02</pdfrwt>
<pdfrwt beam="2">  1       -1 0.68493237E-02 0.78984047E+02</pdfrwt>
<totfact> 0.14378138E+05</totfact>
</mgrwt>
</event>
<event>
 8    1  0.2676873E-016  0.7995949E+02  0.7818608E-02  0.1329166E+00
         -1   -1    0    0    0  501 -0.00000000000E+00  0.00000000000E+00  0.48098026711E+01  0.48098053117E+01  0.50400000000E-02 0.  1.
          2   -1    0    0  501    0  0.00000000000E+00 -0.00000000000E+00 -0.33231704285E+03  0.33231704286E+03  0.25500000000E-02 0. -1.
         24    2    1    2    0    0 -0.17763568394E-14  0.71054273576E-14 -0.32750724018E+03  0.33712684817E+03  0.79959485919E+02 0.  0.
         66    2    3    3    0    0  0.12454993853E+02 -0.36161497262E+02 -0.21258809384E+03  0.21601036657E+03  0.20000168320E+01 0.  0.
        -13    1    3    3    0    0 -0.12454993853E+02  0.36161497262E+02 -0.11491914634E+03  0.12111648161E+03  0.10566000000E+00 0.  1.
         13    1    4    4    0    0  0.55472564249E+00 -0.23059430901E+01 -0.11661698911E+02  0.11900902470E+02  0.10566000000E+00 0. -1.
        -13    1    4    4    0    0  0.20427066990E+01 -0.71634006009E+01 -0.42635004757E+02  0.43280962945E+02  0.10566000000E+00 0.  1.
         14    1    4    4    0    0  0.98575615115E+01 -0.26692153571E+02 -0.15829139017E+03  0.16082850115E+03  0.00000000000E+00 0. -1.
<mgrwt>
<rscale>  0 0.79959486E+02</rscale>
<asrwt>0</asrwt>
<pdfrwt beam="1">  1        2 0.51125681E-01 0.79959486E+02</pdfrwt>
<pdfrwt beam="2">  1       -1 0.73997011E-03 0.79959486E+02</pdfrwt>
<totfact> 0.26488699E+05</totfact>
</mgrwt>
</event>
<event>
 8    1  0.2676873E-016  0.7899971E+02  0.7818608E-02  0.1331914E+00
          2   -1    0    0  501    0  0.00000000000E+00  0.00000000000E+00  0.10873061354E+04  0.10873061354E+04  0.25500000000E-02 0. -1.
         -1   -1    0    0    0  501 -0.00000000000E+00 -0.00000000000E+00 -0.14349533796E+01  0.14349622306E+01  0.50400000000E-02 0.  1.
         24    2    1    2    0    0 -0.17763568394E-14  0.00000000000E+00  0.10858711820E+04  0.10887410976E+04  0.78999707178E+02 0.  0.
         66    2    3    3    0    0  0.13328248059E+02 -0.10329109268E+02  0.10351714086E+04  0.10353106674E+04  0.19999966296E+01 0.  0.
        -13    1    3    3    0    0 -0.13328248059E+02  0.10329109268E+02  0.50699773397E+02  0.53430430292E+02  0.10566000000E+00 0.  1.
         13    1    4    4    0    0  0.91120661097E+01 -0.65729946586E+01  0.64901538161E+03  0.64911263333E+03  0.10566000000E+00 0. -1.
        -13    1    4    4    0    0  0.15585388898E+00 -0.32763685756E+00  0.29429610225E+02  0.29432036259E+02  0.10566000000E+00 0. -1.
         14    1    4    4    0    0  0.40603280599E+01 -0.34284777522E+01  0.35672641679E+03  0.35676599777E+03  0.00000000000E+00 0. -1.
<mgrwt>
<rscale>  0 0.78999707E+02</rscale>
<asrwt>0</asrwt>
<pdfrwt beam="1">  1        2 0.16727900E+00 0.78999707E+02</pdfrwt>
<pdfrwt beam="2">  1       -1 0.22076124E-03 0.78999707E+02</pdfrwt>
<totfact> 0.36433001E+05</totfact>
</mgrwt>
</event>
<event>
 8    1  0.2676873E-016  0.7880828E+02  0.7818608E-02  0.1332468E+00
          2   -1    0    0  501    0  0.00000000000E+00  0.00000000000E+00  0.30704635283E+03  0.30704635284E+03  0.25500000000E-02 0. -1.
         -1   -1    0    0    0  501 -0.00000000000E+00 -0.00000000000E+00 -0.50568448050E+01  0.50568473166E+01  0.50400000000E-02 0.  1.
         24    2    1    2    0    0  0.17763568394E-14 -0.17763568394E-14  0.30198950802E+03  0.31210320015E+03  0.78808277427E+02 0.  0.
         66    2    3    3    0    0  0.85033558976E+01 -0.58864379618E+01  0.30156815813E+03  0.30175206914E+03  0.20000049099E+01 0.  0.
        -13    1    3    3    0    0 -0.85033558976E+01  0.58864379618E+01  0.42134988784E+00  0.10351131009E+02  0.10566000000E+00 0.  1.
         13    1    4    4    0    0  0.13131083154E+01 -0.13023053234E+01  0.42875736044E+02  0.42915733221E+02  0.10566000000E+00 0. -1.
        -13    1    4    4    0    0  0.65394766720E+00 -0.92819109592E+00  0.33200370718E+02  0.33219948316E+02  0.10566000000E+00 0.  1.
        -14    1    4    4    0    0  0.65362999149E+01 -0.36559415425E+01  0.22549205137E+03  0.22561638761E+03  0.00000000000E+00 0.  1.
<mgrwt>
<rscale>  0 0.78808277E+02</rscale>
<asrwt>0</asrwt>
<pdfrwt beam="1">  1        2 0.47237896E-01 0.78808277E+02</pdfrwt>
<pdfrwt beam="2">  1       -1 0.77797639E-03 0.78808277E+02</pdfrwt>
<totfact> 0.26740292E+05</totfact>
</mgrwt>
</event>
<event>
 8    1  0.2676873E-016  0.7992146E+02  0.7818608E-02  0.1329274E+00
          2   -1    0    0  501    0  0.00000000000E+00  0.00000000000E+00  0.19419660683E+02  0.19419660850E+02  0.25500000000E-02 0. -1.
         -1   -1    0    0    0  501 -0.00000000000E+00 -0.00000000000E+00 -0.82229040848E+02  0.82229041002E+02  0.50400000000E-02 0.  1.
         24    2    1    2    0    0  0.35527136788E-14  0.00000000000E+00 -0.62809380165E+02  0.10164870185E+03  0.79921463647E+02 0.  0.
         66    2    3    3    0    0 -0.23763504739E+02 -0.65197257057E+00  0.93887647453E+01  0.25637436120E+02  0.20000004195E+01 0.  0.
        -13    1    3    3    0    0  0.23763504739E+02  0.65197257057E+00 -0.72198144910E+02  0.76011265732E+02  0.10566000000E+00 0.  1.
         13    1    4    4    0    0 -0.81361448542E+00  0.24015886016E+00  0.29727462081E+00  0.90508620848E+00  0.10566000000E+00 0. -1.
        -13    1    4    4    0    0 -0.83224069572E+01 -0.83303142179E+00  0.36313829373E+01  0.91189091993E+01  0.10566000000E+00 0.  1.
         14    1    4    4    0    0 -0.14627483296E+02 -0.59100008947E-01  0.54601071871E+01  0.15613440712E+02  0.00000000000E+00 0. -1.
<mgrwt>
<rscale>  0 0.79921464E+02</rscale>
<asrwt>0</asrwt>
<pdfrwt beam="1">  1        2 0.29876402E-02 0.79921464E+02</pdfrwt>
<pdfrwt beam="2">  1       -1 0.12650622E-01 0.79921464E+02</pdfrwt>
<totfact> 0.12376708E+05</totfact>
</mgrwt>
</event>
<event>
 8    1  0.2676873E-016  0.7685466E+02  0.7818608E-02  0.1338222E+00
         -1   -1    0    0    0  501 -0.00000000000E+00  0.00000000000E+00  0.13493364706E+01  0.13493458832E+01  0.50400000000E-02 0.  1.
          2   -1    0    0  501    0  0.00000000000E+00 -0.00000000000E+00 -0.10943560520E+04  0.10943560520E+04  0.25500000000E-02 0. -1.
         24    2    1    2    0    0  0.00000000000E+00  0.00000000000E+00 -0.10930067156E+04  0.10957053979E+04  0.76854660006E+02 0.  0.
         66    2    3    3    0    0  0.12267811726E+02  0.13205042401E+02 -0.10303000062E+04  0.10304595942E+04  0.20000000868E+01 0.  0.
        -13    1    3    3    0    0 -0.12267811726E+02 -0.13205042401E+02 -0.62706709319E+02  0.65245803751E+02  0.10566000000E+00 0.  1.
         13    1    4    4    0    0  0.70879695302E+01  0.67284757756E+01 -0.58863991026E+03  0.58872104329E+03  0.10566000000E+00 0. -1.
        -13    1    4    4    0    0  0.48968370382E+01  0.57987834477E+01 -0.40316791015E+03  0.40323935800E+03  0.10566000000E+00 0.  1.
        -14    1    4    4    0    0  0.28300515767E+00  0.67778317771E+00 -0.38492185829E+02  0.38499192873E+02  0.00000000000E+00 0.  1.
<mgrwt>
<rscale>  0 0.76854660E+02</rscale>
<asrwt>0</asrwt>
<pdfrwt beam="1">  1        2 0.16836176E+00 0.76854660E+02</pdfrwt>
<pdfrwt beam="2">  1       -1 0.20759183E-03 0.76854660E+02</pdfrwt>
<totfact> 0.39117977E+05</totfact>
</mgrwt>
</event>
<event>
 8    1  0.2676873E-016  0.7760457E+02  0.7818608E-02  0.1335990E+00
         -1   -1    0    0    0  501 -0.00000000000E+00  0.00000000000E+00  0.77890344257E+01  0.77890360563E+01  0.50400000000E-02 0.  1.
          2   -1    0    0  501    0  0.00000000000E+00 -0.00000000000E+00 -0.19329959653E+03  0.19329959655E+03  0.25500000000E-02 0. -1.
         24    2    1    2    0    0  0.71054273576E-14  0.35527136788E-14 -0.18551056211E+03  0.20108863261E+03  0.77604571451E+02 0.  0.
         66    2    3    3    0    0 -0.34800414606E+02 -0.12673193015E+02 -0.12257981825E+03  0.12806830417E+03  0.20000034724E+01 0.  0.
        -13    1    3    3    0    0  0.34800414606E+02  0.12673193015E+02 -0.62930743861E+02  0.73020328436E+02  0.10566000000E+00 0.  1.
         13    1    4    4    0    0 -0.18220182774E+02 -0.66854758770E+01 -0.63839740163E+02  0.66724764789E+02  0.10566000000E+00 0. -1.
        -13    1    4    4    0    0 -0.20109135574E+01 -0.10672620181E+01 -0.87294625439E+01  0.90220564114E+01  0.10566000000E+00 0.  1.
        -14    1    4    4    0    0 -0.14569318275E+02 -0.49204551197E+01 -0.50010615541E+02  0.52321482971E+02  0.00000000000E+00 0.  1.
<mgrwt>
<rscale>  0 0.77604571E+02</rscale>
<asrwt>0</asrwt>
<pdfrwt beam="1">  1        2 0.29738396E-01 0.77604571E+02</pdfrwt>
<pdfrwt beam="2">  1       -1 0.11983133E-02 0.77604571E+02</pdfrwt>
<totfact> 0.23618827E+05</totfact>
</mgrwt>
</event>
<event>
 8    1  0.2676873E-016  0.7869910E+02  0.7818608E-02  0.1332784E+00
          2   -1    0    0  501    0  0.00000000000E+00  0.00000000000E+00  0.76592057195E+03  0.76592057195E+03  0.25500000000E-02 0. -1.
         -1   -1    0    0    0  501 -0.00000000000E+00 -0.00000000000E+00 -0.20215996158E+01  0.20216058984E+01  0.50400000000E-02 0.  1.
         24    2    1    2    0    0 -0.35527136788E-14 -0.88817841970E-15  0.76389897233E+03  0.76794217785E+03  0.78699101594E+02 0.  0.
         66    2    3    3    0    0  0.17130564504E+02 -0.50540681050E+01  0.72405578624E+03  0.72427880090E+03  0.20000004297E+01 0.  0.
        -13    1    3    3    0    0 -0.17130564504E+02  0.50540681050E+01  0.39843186089E+02  0.43663376947E+02  0.10566000000E+00 0.  1.
         13    1    4    4    0    0  0.10439792057E+01 -0.67262893355E+00  0.51336189304E+02  0.51351317593E+02  0.10566000000E+00 0. -1.
        -13    1    4    4    0    0  0.24463671626E+01 -0.20960025497E+00  0.93807291024E+02  0.93839478142E+02  0.10566000000E+00 0.  1.
         14    1    4    4    0    0  0.13640218136E+02 -0.41718389165E+01  0.57891230592E+03  0.57908800517E+03  0.00000000000E+00 0. -1.
<mgrwt>
<rscale>  0 0.78699102E+02</rscale>
<asrwt>0</asrwt>
<pdfrwt beam="1">  1        2 0.11783381E+00 0.78699102E+02</pdfrwt>
<pdfrwt beam="2">  1       -1 0.31101615E-03 0.78699102E+02</pdfrwt>
<totfact> 0.35576043E+05</totfact>
</mgrwt>
</event>
<event>
 8    1  0.2676873E-016  0.7839702E+02  0.7818608E-02  0.1333663E+00
          2   -1    0    0  501    0  0.00000000000E+00  0.00000000000E+00  0.30166953685E+03  0.30166953686E+03  0.25500000000E-02 0. -1.
         -1   -1    0    0    0  501 -0.00000000000E+00 -0.00000000000E+00 -0.50933971178E+01  0.50933996113E+01  0.50400000000E-02 0.  1.
         24    2    1    2    0    0  0.00000000000E+00  0.35527136788E-14  0.29657613973E+03  0.30676293647E+03  0.78397018659E+02 0.  0.
         66    2    3    3    0    0  0.17903235545E+02 -0.22292292315E+02  0.25316394046E+03  0.25478118631E+03  0.20000029868E+01 0.  0.
        -13    1    3    3    0    0 -0.17903235545E+02  0.22292292315E+02  0.43412199276E+02  0.51981750160E+02  0.10566000000E+00 0.  1.
         13    1    4    4    0    0  0.67471358510E+01 -0.81379802130E+01  0.94829072607E+02  0.95416532843E+02  0.10566000000E+00 0. -1.
        -13    1    4    4    0    0  0.11498800589E+01 -0.12719899288E+01  0.11736255831E+02  0.11861325705E+02  0.10566000000E+00 0.  1.
        -14    1    4    4    0    0  0.10006219635E+02 -0.12882322173E+02  0.14659861202E+03  0.14750332777E+03  0.00000000000E+00 0.  1.
<mgrwt>
<rscale>  0 0.78397019E+02</rscale>
<asrwt>0</asrwt>
<pdfrwt beam="1">  1        2 0.46410709E-01 0.78397019E+02</pdfrwt>
<pdfrwt beam="2">  1       -1 0.78359956E-03 0.78397019E+02</pdfrwt>
<totfact> 0.26936467E+05</totfact>
</mgrwt>
</event>
<event>
 8    1  0.2676873E-016  0.7904513E+02  0.7818608E-02  0.1331783E+00
         -1   -1    0    0    0  501 -0.00000000000E+00  0.00000000000E+00  0.55199848418E+02  0.55199848648E+02  0.50400000000E-02 0.  1.
          2   -1    0    0  501    0  0.00000000000E+00 -0.00000000000E+00 -0.28297778618E+02  0.28297778732E+02  0.25500000000E-02 0. -1.
         24    2    1    2    0    0  0.00000000000E+00 -0.35527136788E-14  0.26902069800E+02  0.83497627380E+02  0.79045129000E+02 0.  0.
         66    2    3    3    0    0 -0.25655623537E+02  0.25233445379E+02 -0.37390930651E+01  0.36234218589E+02  0.19999987458E+01 0.  0.
        -13    1    3    3    0    0  0.25655623537E+02 -0.25233445379E+02  0.30641162865E+02  0.47263408791E+02  0.10566000000E+00 0.  1.
         13    1    4    4    0    0 -0.83918795452E+01  0.81913507345E+01 -0.83928291851E+00  0.11757441431E+02  0.10566000000E+00 0. -1.
        -13    1    4    4    0    0 -0.15561130348E+02  0.15499698575E+02 -0.21914002854E+01  0.22072671630E+02  0.10566000000E+00 0.  1.
         14    1    4    4    0    0 -0.17026136444E+01  0.15423960700E+01 -0.70840986119E+00  0.24041055281E+01  0.00000000000E+00 0. -1.
<mgrwt>
<rscale>  0 0.79045129E+02</rscale>
<asrwt>0</asrwt>
<pdfrwt beam="1">  1        2 0.43535045E-02 0.79045129E+02</pdfrwt>
<pdfrwt beam="2">  1       -1 0.84922843E-02 0.79045129E+02</pdfrwt>
<totfact> 0.13757436E+05</totfact>
</mgrwt>
</event>
<event>
 8    1  0.2676873E-016  0.7754840E+02  0.7818608E-02  0.1336156E+00
         -1   -1    0    0    0  501 -0.00000000000E+00  0.00000000000E+00  0.30695965868E+02  0.30695966282E+02  0.50400000000E-02 0.  1.
          2   -1    0    0  501    0  0.00000000000E+00 -0.00000000000E+00 -0.48978380718E+02  0.48978380784E+02  0.25500000000E-02 0. -1.
         24    2    1    2    0    0 -0.22204460493E-15  0.00000000000E+00 -0.18282414850E+02  0.79674347066E+02  0.77548403514E+02 0.  0.
         66    2    3    3    0    0 -0.13968287153E+01 -0.25483540210E+02 -0.39102556516E+02  0.46737264391E+02  0.20000011317E+01 0.  0.
        -13    1    3    3    0    0  0.13968287153E+01  0.25483540210E+02  0.20820141666E+02  0.32937082675E+02  0.10566000000E+00 0.  1.
         13    1    4    4    0    0 -0.28411217177E+00 -0.61787609839E+01 -0.10048868384E+02  0.11800369777E+02  0.10566000000E+00 0. -1.
        -13    1    4    4    0    0 -0.11124088943E+01 -0.66666222878E+01 -0.10506631897E+02  0.12493269553E+02  0.10566000000E+00 0.  1.
        -14    1    4    4    0    0 -0.30764928660E-03 -0.12638156939E+02 -0.18547056235E+02  0.22443625061E+02  0.00000000000E+00 0.  1.
<mgrwt>
<rscale>  0 0.77548404E+02</rscale>
<asrwt>0</asrwt>
<pdfrwt beam="1">  1        2 0.75351355E-02 0.77548404E+02</pdfrwt>
<pdfrwt beam="2">  1       -1 0.47224563E-02 0.77548404E+02</pdfrwt>
<totfact> 0.16198175E+05</totfact>
</mgrwt>
</event>
<event>
 8    1  0.2676873E-016  0.7911646E+02  0.7818608E-02  0.1331578E+00
         -1   -1    0    0    0  501 -0.00000000000E+00  0.00000000000E+00  0.25364232009E+02  0.25364232510E+02  0.50400000000E-02 0.  1.
          2   -1    0    0  501    0  0.00000000000E+00 -0.00000000000E+00 -0.61695279348E+02  0.61695279401E+02  0.25500000000E-02 0. -1.
         24    2    1    2    0    0 -0.17763568394E-14 -0.71054273576E-14 -0.36331047339E+02  0.87059511911E+02  0.79116456021E+02 0.  0.
         66    2    3    3    0    0 -0.12483547470E+02 -0.37442135931E+02 -0.20661160782E+02  0.44594125898E+02  0.19999998068E+01 0.  0.
        -13    1    3    3    0    0  0.12483547470E+02  0.37442135931E+02 -0.15669886557E+02  0.42465386013E+02  0.10566000000E+00 0.  1.
         13    1    4    4    0    0 -0.26279459522E+01 -0.67279179577E+01 -0.42528993432E+01  0.83826783806E+01  0.10566000000E+00 0. -1.
        -13    1    4    4    0    0 -0.40215466096E+01 -0.14429594238E+02 -0.73861224752E+01  0.16701856072E+02  0.10566000000E+00 0.  1.
        -14    1    4    4    0    0 -0.58340549085E+01 -0.16284623735E+02 -0.90221389640E+01  0.19509591445E+02  0.00000000000E+00 0.  1.
<mgrwt>
<rscale>  0 0.79116456E+02</rscale>
<asrwt>0</asrwt>
<pdfrwt beam="1">  1        2 0.94915814E-02 0.79116456E+02</pdfrwt>
<pdfrwt beam="2">  1       -1 0.39021896E-02 0.79116456E+02</pdfrwt>
<totfact> 0.16146960E+05</totfact>
</mgrwt>
</event>
<event>
 8    1  0.2676873E-016  0.8718116E+02  0.7818608E-02  0.1309825E+00
          2   -1    0    0  501    0  0.00000000000E+00  0.00000000000E+00  0.43289681295E+03  0.43289681296E+03  0.25500000000E-02 0. -1.
         -1   -1    0    0    0  501 -0.00000000000E+00 -0.00000000000E+00 -0.43893551406E+01  0.43893580342E+01  0.50400000000E-02 0.  1.
         24    2    1    2    0    0 -0.17763568394E-14  0.00000000000E+00  0.42850745781E+03  0.43728617100E+03  0.87181155891E+02 0.  0.
         66    2    3    3    0    0  0.91434354298E+01 -0.42437231306E+02  0.19586025115E+03  0.20062342584E+03  0.20000007003E+01 0.  0.
        -13    1    3    3    0    0 -0.91434354298E+01  0.42437231306E+02  0.23264720667E+03  0.23666274516E+03  0.10566000000E+00 0.  1.
         13    1    4    4    0    0  0.24113221298E+01 -0.13684089148E+02  0.60331809644E+02  0.61911284829E+02  0.10566000000E+00 0. -1.
        -13    1    4    4    0    0  0.10276104353E+01 -0.31356832957E+01  0.15643597302E+02  0.15988176679E+02  0.10566000000E+00 0.  1.
        -14    1    4    4    0    0  0.57045028647E+01 -0.25617458862E+02  0.11988484420E+03  0.12272396433E+03  0.00000000000E+00 0.  1.
<mgrwt>
<rscale>  0 0.87181156E+02</rscale>
<asrwt>0</asrwt>
<pdfrwt beam="1">  1        2 0.66599530E-01 0.87181156E+02</pdfrwt>
<pdfrwt beam="2">  1       -1 0.67528543E-03 0.87181156E+02</pdfrwt>
<totfact> 0.23178315E+05</totfact>
</mgrwt>
</event>
<event>
 8    1  0.2676873E-016  0.7960301E+02  0.7818608E-02  0.1330182E+00
          2   -1    0    0  501    0  0.00000000000E+00  0.00000000000E+00  0.64424406259E+03  0.64424406260E+03  0.25500000000E-02 0. -1.
         -1   -1    0    0    0  501 -0.00000000000E+00 -0.00000000000E+00 -0.24589412852E+01  0.24589464504E+01  0.50400000000E-02 0.  1.
         24    2    1    2    0    0  0.00000000000E+00 -0.11102230246E-15  0.64178512131E+03  0.64670300905E+03  0.79603014894E+02 0.  0.
         66    2    3    3    0    0 -0.11256371449E+02  0.97617935920E+00  0.63093040571E+03  0.63103473412E+03  0.19999995563E+01 0.  0.
        -13    1    3    3    0    0  0.11256371449E+02 -0.97617935920E+00  0.10854715599E+02  0.15668274925E+02  0.10566000000E+00 0.  1.
         13    1    4    4    0    0 -0.29596039962E+01 -0.23298029769E+00  0.15226576310E+03  0.15229473829E+03  0.10566000000E+00 0. -1.
        -13    1    4    4    0    0 -0.42928849439E+00  0.35402205937E+00  0.39408033372E+02  0.39412103198E+02  0.10566000000E+00 0.  1.
         14    1    4    4    0    0 -0.78674789588E+01  0.85513759751E+00  0.43925660924E+03  0.43932789263E+03  0.00000000000E+00 0. -1.
<mgrwt>
<rscale>  0 0.79603015E+02</rscale>
<asrwt>0</asrwt>
<pdfrwt beam="1">  1        2 0.99114509E-01 0.79603015E+02</pdfrwt>
<pdfrwt beam="2">  1       -1 0.37829891E-03 0.79603015E+02</pdfrwt>
<totfact> 0.33209474E+05</totfact>
</mgrwt>
</event>
<event>
 8    1  0.2676873E-016  0.8026613E+02  0.7818608E-02  0.1328298E+00
         -1   -1    0    0    0  501 -0.00000000000E+00  0.00000000000E+00  0.38475085833E+01  0.38475118844E+01  0.50400000000E-02 0.  1.
          2   -1    0    0  501    0  0.00000000000E+00 -0.00000000000E+00 -0.41862473836E+03  0.41862473837E+03  0.25500000000E-02 0. -1.
         24    2    1    2    0    0  0.00000000000E+00  0.00000000000E+00 -0.41477722977E+03  0.42247225025E+03  0.80266131661E+02 0.  0.
         66    2    3    3    0    0  0.29797179265E+02  0.23311246451E+02 -0.27761544205E+03  0.28018854325E+03  0.19999994868E+01 0.  0.
        -13    1    3    3    0    0 -0.29797179265E+02 -0.23311246451E+02 -0.13716178772E+03  0.14228370700E+03  0.10566000000E+00 0.  1.
         13    1    4    4    0    0  0.10764273432E+02  0.85589166529E+01 -0.95491145046E+02  0.96476393916E+02  0.10566000000E+00 0. -1.
        -13    1    4    4    0    0  0.10355231156E+02  0.86124174641E+01 -0.10047044584E+03  0.10136925667E+03  0.10566000000E+00 0.  1.
        -14    1    4    4    0    0  0.86776746765E+01  0.61399123336E+01 -0.81653851168E+02  0.82342892661E+02  0.00000000000E+00 0.  1.
<mgrwt>
<rscale>  0 0.80266132E+02</rscale>
<asrwt>0</asrwt>
<pdfrwt beam="1">  1        2 0.64403770E-01 0.80266132E+02</pdfrwt>
<pdfrwt beam="2">  1       -1 0.59192499E-03 0.80266132E+02</pdfrwt>
<totfact> 0.28455771E+05</totfact>
</mgrwt>
</event>
<event>
 8    1  0.2676873E-016  0.7826165E+02  0.7818608E-02  0.1334058E+00
          2   -1    0    0  501    0  0.00000000000E+00  0.00000000000E+00  0.38604130871E+02  0.38604130955E+02  0.25500000000E-02 0. -1.
         -1   -1    0    0    0  501 -0.00000000000E+00 -0.00000000000E+00 -0.39664709177E+02  0.39664709497E+02  0.50400000000E-02 0.  1.
         24    2    1    2    0    0  0.00000000000E+00  0.17347234760E-16 -0.10605783060E+01  0.78268840453E+02  0.78261654464E+02 0.  0.
         66    2    3    3    0    0 -0.13373789998E+02  0.21836580868E-01  0.36219956931E+02  0.38661919247E+02  0.19999960026E+01 0.  0.
        -13    1    3    3    0    0  0.13373789998E+02 -0.21836580868E-01 -0.37280535237E+02  0.39606921205E+02  0.10566000000E+00 0.  1.
         13    1    4    4    0    0 -0.43977840682E+01 -0.34549861354E+00  0.12840000732E+02  0.13577063631E+02  0.10566000000E+00 0. -1.
        -13    1    4    4    0    0 -0.54682785465E+01 -0.44599879320E+00  0.13876201311E+02  0.14921833401E+02  0.10566000000E+00 0.  1.
        -14    1    4    4    0    0 -0.35077273835E+01  0.81333398761E+00  0.95037548881E+01  0.10163022215E+02  0.00000000000E+00 0.  1.
<mgrwt>
<rscale>  0 0.78261654E+02</rscale>
<asrwt>0</asrwt>
<pdfrwt beam="1">  1        2 0.59390971E-02 0.78261654E+02</pdfrwt>
<pdfrwt beam="2">  1       -1 0.61022630E-02 0.78261654E+02</pdfrwt>
<totfact> 0.15037935E+05</totfact>
</mgrwt>
</event>
<event>
 8    1  0.2676873E-016  0.7740482E+02  0.7818608E-02  0.1336582E+00
          2   -1    0    0  501    0  0.00000000000E+00  0.00000000000E+00  0.19705641494E+03  0.19705641496E+03  0.25500000000E-02 0. -1.
         -1   -1    0    0    0  501 -0.00000000000E+00 -0.00000000000E+00 -0.76012569260E+01  0.76012585969E+01  0.50400000000E-02 0.  1.
         24    2    1    2    0    0 -0.35527136788E-14  0.00000000000E+00  0.18945515802E+03  0.20465767356E+03  0.77404821854E+02 0.  0.
         66    2    3    3    0    0  0.31624317360E+02  0.73297599599E+01  0.15038044958E+03  0.15385740945E+03  0.19999994088E+01 0.  0.
        -13    1    3    3    0    0 -0.31624317360E+02 -0.73297599599E+01  0.39074708433E+02  0.50800264101E+02  0.10566000000E+00 0.  1.
         13    1    4    4    0    0  0.24622525082E+02  0.54081889273E+01  0.12020141807E+03  0.12281656777E+03  0.10566000000E+00 0. -1.
        -13    1    4    4    0    0  0.30905673825E+01  0.91384734519E+00  0.13331276573E+02  0.13715714448E+02  0.10566000000E+00 0. -1.
         14    1    4    4    0    0  0.39112248955E+01  0.10077236874E+01  0.16847754937E+02  0.17325127233E+02  0.00000000000E+00 0. -1.
<mgrwt>
<rscale>  0 0.77404822E+02</rscale>
<asrwt>0</asrwt>
<pdfrwt beam="1">  1        2 0.30316365E-01 0.77404822E+02</pdfrwt>
<pdfrwt beam="2">  1       -1 0.11694245E-02 0.77404822E+02</pdfrwt>
<totfact> 0.23937582E+05</totfact>
</mgrwt>
</event>
<event>
 8    1  0.2676873E-016  0.7997392E+02  0.7818608E-02  0.1329125E+00
         -1   -1    0    0    0  501 -0.00000000000E+00  0.00000000000E+00  0.91578667970E+02  0.91578668109E+02  0.50400000000E-02 0.  1.
          2   -1    0    0  501    0  0.00000000000E+00 -0.00000000000E+00 -0.17459928064E+02  0.17459928251E+02  0.25500000000E-02 0. -1.
         24    2    1    2    0    0  0.00000000000E+00 -0.35527136788E-14  0.74118739906E+02  0.10903859636E+03  0.79973920067E+02 0.  0.
         66    2    3    3    0    0 -0.19264874997E+02 -0.31679811263E+02  0.16758448338E+02  0.40738083455E+02  0.20000006293E+01 0.  0.
        -13    1    3    3    0    0  0.19264874997E+02  0.31679811263E+02  0.57360291567E+02  0.68300512905E+02  0.10566000000E+00 0.  1.
         13    1    4    4    0    0 -0.19849911006E+01 -0.37150807319E+01  0.20031622156E+01  0.46653871663E+01  0.10566000000E+00 0. -1.
        -13    1    4    4    0    0 -0.55167969432E+01 -0.87748442784E+01  0.55171711522E+01  0.11742371233E+02  0.10566000000E+00 0.  1.
         14    1    4    4    0    0 -0.11763086954E+02 -0.19189886253E+02  0.92381149705E+01  0.24330325055E+02  0.00000000000E+00 0. -1.
<mgrwt>
<rscale>  0 0.79973920E+02</rscale>
<asrwt>0</asrwt>
<pdfrwt beam="1">  1        2 0.26861428E-02 0.79973920E+02</pdfrwt>
<pdfrwt beam="2">  1       -1 0.14089026E-01 0.79973920E+02</pdfrwt>
<totfact> 0.12085405E+05</totfact>
</mgrwt>
</event>
<event>
 8    1  0.2676873E-016  0.7873680E+02  0.7818608E-02  0.1332675E+00
         -1   -1    0    0    0  501 -0.00000000000E+00  0.00000000000E+00  0.16765415503E+01  0.16765491259E+01  0.50400000000E-02 0.  1.
          2   -1    0    0  501    0  0.00000000000E+00 -0.00000000000E+00 -0.92444316154E+03  0.92444316154E+03  0.25500000000E-02 0. -1.
         24    2    1    2    0    0  0.35527136788E-14  0.35527136788E-14 -0.92276661999E+03  0.92611971067E+03  0.78736799041E+02 0.  0.
         66    2    3    3    0    0 -0.20308579774E+02 -0.17954745046E+02 -0.79706950191E+03  0.79753282199E+03  0.19999994343E+01 0.  0.
        -13    1    3    3    0    0  0.20308579774E+02  0.17954745046E+02 -0.12569711808E+03  0.12858688867E+03  0.10566000000E+00 0.  1.
         13    1    4    4    0    0 -0.58340527231E+01 -0.44642747521E+01 -0.20895092140E+03  0.20908004362E+03  0.10566000000E+00 0. -1.
        -13    1    4    4    0    0 -0.31958762418E+01 -0.35455129795E+01 -0.13127251266E+03  0.13135930888E+03  0.10566000000E+00 0.  1.
        -14    1    4    4    0    0 -0.11278650809E+02 -0.99449573147E+01 -0.45684606785E+03  0.45709346949E+03  0.00000000000E+00 0.  1.
<mgrwt>
<rscale>  0 0.78736799E+02</rscale>
<asrwt>0</asrwt>
<pdfrwt beam="1">  1        2 0.14222162E+00 0.78736799E+02</pdfrwt>
<pdfrwt beam="2">  1       -1 0.25793079E-03 0.78736799E+02</pdfrwt>
<totfact> 0.36519453E+05</totfact>
</mgrwt>
</event>
<event>
 8    1  0.2676873E-016  0.8034674E+02  0.7818608E-02  0.1328070E+00
         -1   -1    0    0    0  501 -0.00000000000E+00  0.00000000000E+00  0.40269547898E+01  0.40269579438E+01  0.50400000000E-02 0.  1.
          2   -1    0    0  501    0  0.00000000000E+00 -0.00000000000E+00 -0.40077401288E+03  0.40077401289E+03  0.25500000000E-02 0. -1.
         24    2    1    2    0    0 -0.35527136788E-14  0.00000000000E+00 -0.39674705809E+03  0.40480097083E+03  0.80346735361E+02 0.  0.
         66    2    3    3    0    0 -0.31388691953E+02 -0.19291961103E+02 -0.27886483673E+03  0.28129526641E+03  0.19999998803E+01 0.  0.
        -13    1    3    3    0    0  0.31388691953E+02  0.19291961103E+02 -0.11788222136E+03  0.12350570442E+03  0.10566000000E+00 0.  1.
         13    1    4    4    0    0 -0.13117618219E+02 -0.83038552340E+01 -0.12002413567E+03  0.12102408944E+03  0.10566000000E+00 0. -1.
        -13    1    4    4    0    0 -0.10955205218E+02 -0.72688430644E+01 -0.10024075772E+03  0.10109932380E+03  0.10566000000E+00 0.  1.
         14    1    4    4    0    0 -0.73158685159E+01 -0.37192628049E+01 -0.58599943344E+02  0.59171853172E+02  0.00000000000E+00 0. -1.
<mgrwt>
<rscale>  0 0.80346735E+02</rscale>
<asrwt>0</asrwt>
<pdfrwt beam="1">  1        2 0.61657509E-01 0.80346735E+02</pdfrwt>
<pdfrwt beam="2">  1       -1 0.61953207E-03 0.80346735E+02</pdfrwt>
<totfact> 0.27955033E+05</totfact>
</mgrwt>
</event>
<event>
 8    1  0.2676873E-016  0.8113963E+02  0.7818608E-02  0.1325848E+00
          2   -1    0    0  501    0  0.00000000000E+00  0.00000000000E+00  0.47417600111E+03  0.47417600112E+03  0.25500000000E-02 0. -1.
         -1   -1    0    0    0  501 -0.00000000000E+00 -0.00000000000E+00 -0.34710929695E+01  0.34710966285E+01  0.50400000000E-02 0.  1.
         24    2    1    2    0    0  0.00000000000E+00  0.00000000000E+00  0.47070490814E+03  0.47764709775E+03  0.81139629264E+02 0.  0.
         66    2    3    3    0    0  0.28950221128E+02 -0.27471512326E+01  0.40181395057E+03  0.40286984624E+03  0.19999990596E+01 0.  0.
        -13    1    3    3    0    0 -0.28950221128E+02  0.27471512326E+01  0.68890957574E+02  0.74777251506E+02  0.10566000000E+00 0.  1.
         13    1    4    4    0    0  0.11595361143E+02 -0.53970683033E+00  0.15898928250E+03  0.15941250515E+03  0.10566000000E+00 0. -1.
        -13    1    4    4    0    0  0.50338291118E+01 -0.55587974026E+00  0.78320937604E+02  0.78484577269E+02  0.10566000000E+00 0.  1.
         14    1    4    4    0    0  0.12321030873E+02 -0.16515646620E+01  0.16450373047E+03  0.16497276383E+03  0.00000000000E+00 0. -1.
<mgrwt>
<rscale>  0 0.81139629E+02</rscale>
<asrwt>0</asrwt>
<pdfrwt beam="1">  1        2 0.72950134E-01 0.81139629E+02</pdfrwt>
<pdfrwt beam="2">  1       -1 0.53401473E-03 0.81139629E+02</pdfrwt>
<totfact> 0.28849050E+05</totfact>
</mgrwt>
</event>
<event>
 8    1  0.2676873E-016  0.7988365E+02  0.7818608E-02  0.1329382E+00
          2   -1    0    0  501    0  0.00000000000E+00  0.00000000000E+00  0.20825176766E+03  0.20825176767E+03  0.25500000000E-02 0. -1.
         -1   -1    0    0    0  501 -0.00000000000E+00 -0.00000000000E+00 -0.76606753018E+01  0.76606769597E+01  0.50400000000E-02 0.  1.
         24    2    1    2    0    0  0.00000000000E+00  0.00000000000E+00  0.20059109236E+03  0.21591244463E+03  0.79883649234E+02 0.  0.
         66    2    3    3    0    0  0.13445596398E+02  0.33331639358E+02  0.14729446708E+03  0.15162929229E+03  0.20000010799E+01 0.  0.
        -13    1    3    3    0    0 -0.13445596398E+02 -0.33331639358E+02  0.53296625275E+02  0.64283152338E+02  0.10566000000E+00 0.  1.
         13    1    4    4    0    0  0.58965602024E+01  0.16670386528E+02  0.72263849609E+02  0.74395875784E+02  0.10566000000E+00 0. -1.
        -13    1    4    4    0    0  0.37513046594E+00  0.10451218765E+01  0.39088515387E+01  0.40648846220E+01  0.10566000000E+00 0.  1.
         14    1    4    4    0    0  0.71739057294E+01  0.15616130954E+02  0.71121765932E+02  0.73168531889E+02  0.00000000000E+00 0. -1.
<mgrwt>
<rscale>  0 0.79883649E+02</rscale>
<asrwt>0</asrwt>
<pdfrwt beam="1">  1        2 0.32038729E-01 0.79883649E+02</pdfrwt>
<pdfrwt beam="2">  1       -1 0.11785657E-02 0.79883649E+02</pdfrwt>
<totfact> 0.22457635E+05</totfact>
</mgrwt>
</event>
<event>
 8    1  0.2676873E-016  0.8032438E+02  0.7818608E-02  0.1328133E+00
          2   -1    0    0  501    0  0.00000000000E+00  0.00000000000E+00  0.23515775367E+03  0.23515775369E+03  0.25500000000E-02 0. -1.
         -1   -1    0    0    0  501 -0.00000000000E+00 -0.00000000000E+00 -0.68592299851E+01  0.68592318367E+01  0.50400000000E-02 0.  1.
         24    2    1    2    0    0 -0.71054273576E-14  0.00000000000E+00  0.22829852369E+03  0.24201698552E+03  0.80324375901E+02 0.  0.
         66    2    3    3    0    0 -0.25639029032E+02 -0.21245980133E+01  0.20704369932E+03  0.20864555389E+03  0.20000006669E+01 0.  0.
        -13    1    3    3    0    0  0.25639029032E+02  0.21245980133E+01  0.21254824367E+02  0.33371431635E+02  0.10566000000E+00 0.  1.
         13    1    4    4    0    0 -0.13693978808E+02 -0.13066359405E+01  0.11162784781E+03  0.11247230737E+03  0.10566000000E+00 0. -1.
        -13    1    4    4    0    0 -0.39107507782E+01  0.23651267796E-01  0.35614658287E+02  0.35828893088E+02  0.10566000000E+00 0.  1.
        -14    1    4    4    0    0 -0.80342994462E+01 -0.84161334062E+00  0.59801193222E+02  0.60344353434E+02  0.00000000000E+00 0.  1.
<mgrwt>
<rscale>  0 0.80324376E+02</rscale>
<asrwt>0</asrwt>
<pdfrwt beam="1">  1        2 0.36178107E-01 0.80324376E+02</pdfrwt>
<pdfrwt beam="2">  1       -1 0.10552666E-02 0.80324376E+02</pdfrwt>
<totfact> 0.23104912E+05</totfact>
</mgrwt>
</event>
<event>
 8    1  0.2676873E-016  0.8113029E+02  0.7818608E-02  0.1325874E+00
         -1   -1    0    0    0  501 -0.00000000000E+00  0.00000000000E+00  0.10831244258E+02  0.10831245431E+02  0.50400000000E-02 0.  1.
          2   -1    0    0  501    0  0.00000000000E+00 -0.00000000000E+00 -0.15192446643E+03  0.15192446645E+03  0.25500000000E-02 0. -1.
         24    2    1    2    0    0  0.00000000000E+00  0.00000000000E+00 -0.14109322217E+03  0.16275571188E+03  0.81130292786E+02 0.  0.
         66    2    3    3    0    0  0.19478039727E+02  0.25356309769E+02 -0.12058882168E+03  0.12477179317E+03  0.19999953764E+01 0.  0.
        -13    1    3    3    0    0 -0.19478039727E+02 -0.25356309769E+02 -0.20504400491E+02  0.37983918706E+02  0.10566000000E+00 0.  1.
         13    1    4    4    0    0  0.76690612496E+01  0.10001381571E+02 -0.45137192491E+02  0.46863839405E+02  0.10566000000E+00 0. -1.
        -13    1    4    4    0    0  0.89977682107E+01  0.10857692635E+02 -0.55474934085E+02  0.57239224295E+02  0.10566000000E+00 0.  1.
        -14    1    4    4    0    0  0.28112102665E+01  0.44972355634E+01 -0.19976695102E+02  0.20668729474E+02  0.00000000000E+00 0.  1.
<mgrwt>
<rscale>  0 0.81130293E+02</rscale>
<asrwt>0</asrwt>
<pdfrwt beam="1">  1        2 0.23372993E-01 0.81130293E+02</pdfrwt>
<pdfrwt beam="2">  1       -1 0.16663455E-02 0.81130293E+02</pdfrwt>
<totfact> 0.19377271E+05</totfact>
</mgrwt>
</event>
<event>
 8    1  0.2676873E-016  0.8115085E+02  0.7818608E-02  0.1325817E+00
          2   -1    0    0  501    0  0.00000000000E+00  0.00000000000E+00  0.52659908464E+03  0.52659908465E+03  0.25500000000E-02 0. -1.
         -1   -1    0    0    0  501 -0.00000000000E+00 -0.00000000000E+00 -0.31264087295E+01  0.31264127920E+01  0.50400000000E-02 0.  1.
         24    2    1    2    0    0  0.00000000000E+00  0.00000000000E+00  0.52347267591E+03  0.52972549744E+03  0.81150848494E+02 0.  0.
         66    2    3    3    0    0  0.18058815806E+02 -0.34465302528E+02  0.33643101326E+03  0.33867950131E+03  0.20000039029E+01 0.  0.
        -13    1    3    3    0    0 -0.18058815806E+02  0.34465302528E+02  0.18704166265E+03  0.19104599613E+03  0.10566000000E+00 0.  1.
         13    1    4    4    0    0  0.11245720282E+02 -0.21975417598E+02  0.20862553898E+03  0.21008096507E+03  0.10566000000E+00 0. -1.
        -13    1    4    4    0    0  0.18350508140E+01 -0.42904374969E+01  0.41897593572E+02  0.42156788025E+02  0.10566000000E+00 0.  1.
         14    1    4    4    0    0  0.49780447108E+01 -0.81994474337E+01  0.85907880706E+02  0.86441748217E+02  0.00000000000E+00 0. -1.
<mgrwt>
<rscale>  0 0.81150848E+02</rscale>
<asrwt>0</asrwt>
<pdfrwt beam="1">  1        2 0.81015262E-01 0.81150848E+02</pdfrwt>
<pdfrwt beam="2">  1       -1 0.48098617E-03 0.81150848E+02</pdfrwt>
<totfact> 0.29819362E+05</totfact>
</mgrwt>
</event>
<event>
 8    1  0.2676873E-016  0.7547068E+02  0.7818608E-02  0.1342420E+00
          2   -1    0    0  501    0  0.00000000000E+00  0.00000000000E+00  0.11617131659E+02  0.11617131939E+02  0.25500000000E-02 0. -1.
         -1   -1    0    0    0  501 -0.00000000000E+00 -0.00000000000E+00 -0.12257379191E+03  0.12257379201E+03  0.50400000000E-02 0.  1.
         24    2    1    2    0    0 -0.71054273576E-14  0.00000000000E+00 -0.11095666025E+03  0.13419092395E+03  0.75470680513E+02 0.  0.
         66    2    3    3    0    0 -0.35450963630E+02  0.50069014841E+01 -0.34470617920E+02  0.49739957586E+02  0.19999990093E+01 0.  0.
        -13    1    3    3    0    0  0.35450963630E+02 -0.50069014841E+01 -0.76486042330E+02  0.84450966365E+02  0.10566000000E+00 0.  1.
         13    1    4    4    0    0 -0.16726935620E+02  0.19378237390E+01 -0.16224224409E+02  0.23383373533E+02  0.10566000000E+00 0. -1.
        -13    1    4    4    0    0 -0.20795734679E+01  0.32263585048E-01 -0.23686091620E+01  0.31539087091E+01  0.10566000000E+00 0.  1.
        -14    1    4    4    0    0 -0.16644454542E+02  0.30368141601E+01 -0.15877784349E+02  0.23202675344E+02  0.00000000000E+00 0.  1.
<mgrwt>
<rscale>  0 0.75470681E+02</rscale>
<asrwt>0</asrwt>
<pdfrwt beam="1">  1        2 0.17872511E-02 0.75470681E+02</pdfrwt>
<pdfrwt beam="2">  1       -1 0.18857506E-01 0.75470681E+02</pdfrwt>
<totfact> 0.13114101E+05</totfact>
</mgrwt>
</event>
<event>
 8    1  0.2676873E-016  0.7975574E+02  0.7818608E-02  0.1329746E+00
         -1   -1    0    0    0  501 -0.00000000000E+00  0.00000000000E+00  0.44641993962E+02  0.44641994246E+02  0.50400000000E-02 0.  1.
          2   -1    0    0  501    0  0.00000000000E+00 -0.00000000000E+00 -0.35622161222E+02  0.35622161313E+02  0.25500000000E-02 0. -1.
         24    2    1    2    0    0  0.35527136788E-14 -0.35527136788E-14  0.90198327395E+01  0.80264155559E+02  0.79755735123E+02 0.  0.
         66    2    3    3    0    0 -0.30224393622E+02  0.19766304670E+02  0.21473027839E+02  0.42063186954E+02  0.20000005057E+01 0.  0.
        -13    1    3    3    0    0  0.30224393622E+02 -0.19766304670E+02 -0.12453195100E+02  0.38200968605E+02  0.10566000000E+00 0.  1.
         13    1    4    4    0    0 -0.81902057832E+01  0.62625790864E+01  0.61768896043E+01  0.12019338451E+02  0.10566000000E+00 0. -1.
        -13    1    4    4    0    0 -0.51386969358E+01  0.27829387851E+01  0.32430519502E+01  0.66842729199E+01  0.10566000000E+00 0.  1.
         14    1    4    4    0    0 -0.16895490903E+02  0.10720786798E+02  0.12053086285E+02  0.23359575583E+02  0.00000000000E+00 0. -1.
<mgrwt>
<rscale>  0 0.79755735E+02</rscale>
<asrwt>0</asrwt>
<pdfrwt beam="1">  1        2 0.54803325E-02 0.79755735E+02</pdfrwt>
<pdfrwt beam="2">  1       -1 0.68679991E-02 0.79755735E+02</pdfrwt>
<totfact> 0.14042028E+05</totfact>
</mgrwt>
</event>
<event>
 8    1  0.2676873E-016  0.8179118E+02  0.7818608E-02  0.1324044E+00
         -1   -1    0    0    0  501 -0.00000000000E+00  0.00000000000E+00  0.19097518432E+01  0.19097584937E+01  0.50400000000E-02 0.  1.
          2   -1    0    0  501    0  0.00000000000E+00 -0.00000000000E+00 -0.87574004568E+03  0.87574004569E+03  0.25500000000E-02 0. -1.
         24    2    1    2    0    0  0.00000000000E+00 -0.17763568394E-14 -0.87383029384E+03  0.87764980418E+03  0.81791175231E+02 0.  0.
         66    2    3    3    0    0  0.16123122084E+02  0.10201863612E+02 -0.82501756257E+03  0.82524057803E+03  0.20000009583E+01 0.  0.
        -13    1    3    3    0    0 -0.16123122084E+02 -0.10201863612E+02 -0.48812731275E+02  0.52409226148E+02  0.10566000000E+00 0.  1.
         13    1    4    4    0    0  0.72733302139E+01  0.41726295274E+01 -0.33109180468E+03  0.33119798680E+03  0.10566000000E+00 0. -1.
        -13    1    4    4    0    0  0.24711239927E+01  0.21380433556E+01 -0.15526897287E+03  0.15530338948E+03  0.10566000000E+00 0.  1.
        -14    1    4    4    0    0  0.63786678772E+01  0.38911907286E+01 -0.33865678501E+03  0.33873920175E+03  0.00000000000E+00 0.  1.
<mgrwt>
<rscale>  0 0.81791175E+02</rscale>
<asrwt>0</asrwt>
<pdfrwt beam="1">  1        2 0.13472892E+00 0.81791175E+02</pdfrwt>
<pdfrwt beam="2">  1       -1 0.29380919E-03 0.81791175E+02</pdfrwt>
<totfact> 0.32885540E+05</totfact>
</mgrwt>
</event>
<event>
 8    1  0.2676873E-016  0.8073402E+02  0.7818608E-02  0.1326981E+00
         -1   -1    0    0    0  501 -0.00000000000E+00  0.00000000000E+00  0.20908540876E+01  0.20908601620E+01  0.50400000000E-02 0.  1.
          2   -1    0    0  501    0  0.00000000000E+00 -0.00000000000E+00 -0.77934332878E+03  0.77934332879E+03  0.25500000000E-02 0. -1.
         24    2    1    2    0    0  0.35527136788E-14 -0.35527136788E-14 -0.77725247470E+03  0.78143418895E+03  0.80734021568E+02 0.  0.
         66    2    3    3    0    0 -0.24605181169E+02  0.24663639328E+02 -0.58575279464E+03  0.58679131425E+03  0.20000017494E+01 0.  0.
        -13    1    3    3    0    0  0.24605181169E+02 -0.24663639328E+02 -0.19149968005E+03  0.19464287470E+03  0.10566000000E+00 0.  1.
         13    1    4    4    0    0 -0.55706088460E+01  0.59688165196E+01 -0.13623282099E+03  0.13647729163E+03  0.10566000000E+00 0. -1.
        -13    1    4    4    0    0 -0.14827069509E+02  0.14447277883E+02 -0.35977052252E+03  0.36036565578E+03  0.10566000000E+00 0.  1.
        -14    1    4    4    0    0 -0.42075028140E+01  0.42475449250E+01 -0.89749451137E+02  0.89948366840E+02  0.00000000000E+00 0.  1.
<mgrwt>
<rscale>  0 0.80734022E+02</rscale>
<asrwt>0</asrwt>
<pdfrwt beam="1">  1        2 0.11989874E+00 0.80734022E+02</pdfrwt>
<pdfrwt beam="2">  1       -1 0.32167095E-03 0.80734022E+02</pdfrwt>
<totfact> 0.33402990E+05</totfact>
</mgrwt>
</event>
<event>
 8    1  0.2676873E-016  0.7890655E+02  0.7818608E-02  0.1332183E+00
          2   -1    0    0  501    0  0.00000000000E+00  0.00000000000E+00  0.46036692922E+03  0.46036692923E+03  0.25500000000E-02 0. -1.
         -1   -1    0    0    0  501 -0.00000000000E+00 -0.00000000000E+00 -0.33811288712E+01  0.33811326276E+01  0.50400000000E-02 0.  1.
         24    2    1    2    0    0  0.00000000000E+00  0.35527136788E-14  0.45698580035E+03  0.46374806186E+03  0.78906546962E+02 0.  0.
         66    2    3    3    0    0  0.16465672990E+02 -0.28803746559E+02  0.35383588272E+03  0.35539359321E+03  0.19999992278E+01 0.  0.
        -13    1    3    3    0    0 -0.16465672990E+02  0.28803746559E+02  0.10314991763E+03  0.10835446864E+03  0.10566000000E+00 0.  1.
         13    1    4    4    0    0  0.10267859218E+02 -0.18015644788E+02  0.22534015922E+03  0.22629226878E+03  0.10566000000E+00 0. -1.
        -13    1    4    4    0    0  0.13159404397E+01 -0.21978708790E+01  0.31216803541E+02  0.31321914421E+02  0.10566000000E+00 0.  1.
        -14    1    4    4    0    0  0.48818733328E+01 -0.85902308916E+01  0.97278919958E+02  0.97779410012E+02  0.00000000000E+00 0.  1.
<mgrwt>
<rscale>  0 0.78906547E+02</rscale>
<asrwt>0</asrwt>
<pdfrwt beam="1">  1        2 0.70825642E-01 0.78906547E+02</pdfrwt>
<pdfrwt beam="2">  1       -1 0.52017426E-03 0.78906547E+02</pdfrwt>
<totfact> 0.30725812E+05</totfact>
</mgrwt>
</event>
<event>
 8    1  0.2676873E-016  0.8320766E+02  0.7818608E-02  0.1320187E+00
         -1   -1    0    0    0  501 -0.00000000000E+00  0.00000000000E+00  0.76864237052E+01  0.76864253575E+01  0.50400000000E-02 0.  1.
          2   -1    0    0  501    0  0.00000000000E+00 -0.00000000000E+00 -0.22518643209E+03  0.22518643211E+03  0.25500000000E-02 0. -1.
         24    2    1    2    0    0  0.35527136788E-14  0.17763568394E-14 -0.21750000839E+03  0.23287285747E+03  0.83207656470E+02 0.  0.
         66    2    3    3    0    0 -0.23774000470E+02 -0.97637690027E+01 -0.20028929105E+03  0.20194141329E+03  0.20000021777E+01 0.  0.
        -13    1    3    3    0    0  0.23774000470E+02  0.97637690027E+01 -0.17210717339E+02  0.30931444177E+02  0.10566000000E+00 0.  1.
         13    1    4    4    0    0 -0.20253962770E+02 -0.83204190750E+01 -0.16603488968E+03  0.16747252949E+03  0.10566000000E+00 0. -1.
        -13    1    4    4    0    0 -0.33165315758E+01 -0.14250623372E+01 -0.31351577623E+02  0.31558877798E+02  0.10566000000E+00 0.  1.
        -14    1    4    4    0    0 -0.20350612411E+00 -0.18287590533E-01 -0.29028237506E+01  0.29100059975E+01  0.00000000000E+00 0.  1.
<mgrwt>
<rscale>  0 0.83207656E+02</rscale>
<asrwt>0</asrwt>
<pdfrwt beam="1">  1        2 0.34644062E-01 0.83207656E+02</pdfrwt>
<pdfrwt beam="2">  1       -1 0.11825270E-02 0.83207656E+02</pdfrwt>
<totfact> 0.20729964E+05</totfact>
</mgrwt>
</event>
<event>
 8    1  0.2676873E-016  0.8039226E+02  0.7818608E-02  0.1327942E+00
         -1   -1    0    0    0  501 -0.00000000000E+00  0.00000000000E+00  0.47475719811E+01  0.47475746563E+01  0.50400000000E-02 0.  1.
          2   -1    0    0  501    0  0.00000000000E+00 -0.00000000000E+00 -0.34032735127E+03  0.34032735128E+03  0.25500000000E-02 0. -1.
         24    2    1    2    0    0  0.00000000000E+00 -0.35527136788E-14 -0.33557977929E+03  0.34507492594E+03  0.80392264816E+02 0.  0.
         66    2    3    3    0    0  0.28196733796E+01  0.19611008490E+02 -0.31789277632E+03  0.31851587004E+03  0.20000052522E+01 0.  0.
        -13    1    3    3    0    0 -0.28196733796E+01 -0.19611008490E+02 -0.17687002974E+02  0.26559055898E+02  0.10566000000E+00 0.  1.
         13    1    4    4    0    0  0.94293398369E+00  0.63540799561E+01 -0.10564345611E+03  0.10583862451E+03  0.10566000000E+00 0. -1.
        -13    1    4    4    0    0 -0.14533783508E+00  0.41175860749E+01 -0.66907971650E+02  0.67034793000E+02  0.10566000000E+00 0.  1.
         14    1    4    4    0    0  0.20220772310E+01  0.91393424587E+01 -0.14534134856E+03  0.14564245253E+03  0.00000000000E+00 0. -1.
<mgrwt>
<rscale>  0 0.80392265E+02</rscale>
<asrwt>0</asrwt>
<pdfrwt beam="1">  1        2 0.52358035E-01 0.80392265E+02</pdfrwt>
<pdfrwt beam="2">  1       -1 0.73039616E-03 0.80392265E+02</pdfrwt>
<totfact> 0.26341239E+05</totfact>
</mgrwt>
</event>
<event>
 8    1  0.2676873E-016  0.8138313E+02  0.7818608E-02  0.1325172E+00
         -1   -1    0    0    0  501 -0.00000000000E+00  0.00000000000E+00  0.18237142836E+01  0.18237212479E+01  0.50400000000E-02 0.  1.
          2   -1    0    0  501    0  0.00000000000E+00 -0.00000000000E+00 -0.90792742280E+03  0.90792742281E+03  0.25500000000E-02 0. -1.
         24    2    1    2    0    0  0.00000000000E+00  0.00000000000E+00 -0.90610370852E+03  0.90975114405E+03  0.81383127956E+02 0.  0.
         66    2    3    3    0    0  0.13365676264E+02  0.97637163990E+01 -0.86856600519E+03  0.86872600792E+03  0.19999993902E+01 0.  0.
        -13    1    3    3    0    0 -0.13365676264E+02 -0.97637163990E+01 -0.37537703327E+02  0.41025136136E+02  0.10566000000E+00 0.  1.
         13    1    4    4    0    0  0.45083750357E+01  0.33654991834E+01 -0.27562575180E+03  0.27568318456E+03  0.10566000000E+00 0. -1.
        -13    1    4    4    0    0  0.83727949713E+01  0.56995519529E+01 -0.55999868206E+03  0.56009028171E+03  0.10566000000E+00 0.  1.
        -14    1    4    4    0    0  0.48450625670E+00  0.69866526276E+00 -0.32941571328E+02  0.32952541648E+02  0.00000000000E+00 0.  1.
<mgrwt>
<rscale>  0 0.81383128E+02</rscale>
<asrwt>0</asrwt>
<pdfrwt beam="1">  1        2 0.13968078E+00 0.81383128E+02</pdfrwt>
<pdfrwt beam="2">  1       -1 0.28057269E-03 0.81383128E+02</pdfrwt>
<totfact> 0.33455439E+05</totfact>
</mgrwt>
</event>
<event>
 8    1  0.2676873E-016  0.7894825E+02  0.7818608E-02  0.1332063E+00
         -1   -1    0    0    0  501 -0.00000000000E+00  0.00000000000E+00  0.35183467866E+01  0.35183503965E+01  0.50400000000E-02 0.  1.
          2   -1    0    0  501    0  0.00000000000E+00 -0.00000000000E+00 -0.44288003321E+03  0.44288003322E+03  0.25500000000E-02 0. -1.
         24    2    1    2    0    0 -0.35527136788E-14  0.22204460493E-15 -0.43936168642E+03  0.44639838361E+03  0.78948245049E+02 0.  0.
         66    2    3    3    0    0  0.20158299415E+02 -0.18995616701E+01 -0.41125458995E+03  0.41175757811E+03  0.20000012999E+01 0.  0.
        -13    1    3    3    0    0 -0.20158299415E+02  0.18995616701E+01 -0.28107096473E+02  0.34640805505E+02  0.10566000000E+00 0.  1.
         13    1    4    4    0    0  0.10069345389E+02 -0.61544356211E+00 -0.19415279131E+03  0.19441473202E+03  0.10566000000E+00 0. -1.
        -13    1    4    4    0    0  0.19171652665E+01 -0.11408628656E+00 -0.32925348861E+02  0.32981484199E+02  0.10566000000E+00 0.  1.
         14    1    4    4    0    0  0.81717887592E+01 -0.11700318215E+01 -0.18417644978E+03  0.18436136189E+03  0.00000000000E+00 0. -1.
<mgrwt>
<rscale>  0 0.78948245E+02</rscale>
<asrwt>0</asrwt>
<pdfrwt beam="1">  1        2 0.68135345E-01 0.78948245E+02</pdfrwt>
<pdfrwt beam="2">  1       -1 0.54128475E-03 0.78948245E+02</pdfrwt>
<totfact> 0.30288336E+05</totfact>
</mgrwt>
</event>
<event>
 8    1  0.2799003E-016  0.7963464E+02  0.7818608E-02  0.1330091E+00
          2   -1    0    0  501    0  0.00000000000E+00  0.00000000000E+00  0.78407656345E+03  0.78407656346E+03  0.25500000000E-02 0. -1.
         -1   -1    0    0    0  501 -0.00000000000E+00 -0.00000000000E+00 -0.20220173905E+01  0.20220236718E+01  0.50400000000E-02 0.  1.
         24    2    1    2    0    0 -0.71054273576E-14  0.00000000000E+00  0.78205454606E+03  0.78609858713E+03  0.79634638626E+02 0.  0.
         66    2    3    3    0    0 -0.24274994002E+02  0.76160270188E+01  0.69329912503E+03  0.69376866171E+03  0.20000001301E+01 0.  0.
        -13    1    3    3    0    0  0.24274994002E+02 -0.76160270188E+01  0.88755421029E+02  0.92329925417E+02  0.10566000000E+00 0.  1.
         13    1    4    4    0    0 -0.15945335380E+02  0.50395091162E+01  0.44971720712E+03  0.45002803014E+03  0.10566000000E+00 0. -1.
        -13    1    4    4    0    0 -0.59811413740E+01  0.21565075285E+01  0.16493509508E+03  0.16505763033E+03  0.10566000000E+00 0.  1.
        -14    1    4    4    0    0 -0.23485172486E+01  0.42001037421E+00  0.78646822841E+02  0.78683001245E+02  0.00000000000E+00 0.  1.
<mgrwt>
<rscale>  0 0.79634639E+02</rscale>
<asrwt>0</asrwt>
<pdfrwt beam="1">  1        2 0.12062741E+00 0.79634639E+02</pdfrwt>
<pdfrwt beam="2">  1       -1 0.31107945E-03 0.79634639E+02</pdfrwt>
<totfact> 0.34653030E+05</totfact>
</mgrwt>
</event>
<event>
 8    1  0.2676873E-016  0.7642727E+02  0.7818608E-02  0.1339507E+00
         -1   -1    0    0    0  501 -0.00000000000E+00  0.00000000000E+00  0.94873449752E+00  0.94874788453E+00  0.50400000000E-02 0.  1.
          2   -1    0    0  501    0  0.00000000000E+00 -0.00000000000E+00 -0.15391783364E+04  0.15391783364E+04  0.25500000000E-02 0. -1.
         24    2    1    2    0    0  0.88817841970E-15  0.00000000000E+00 -0.15382296019E+04  0.15401270842E+04  0.76427269898E+02 0.  0.
         66    2    3    3    0    0 -0.71604219215E+01 -0.83448452266E+01 -0.15065828940E+04  0.15066243476E+04  0.20000089686E+01 0.  0.
        -13    1    3    3    0    0  0.71604219215E+01  0.83448452266E+01 -0.31646707855E+02  0.33502736694E+02  0.10566000000E+00 0.  1.
         13    1    4    4    0    0 -0.19138366463E+01 -0.13036802453E+01 -0.26812628738E+03  0.26813630769E+03  0.10566000000E+00 0.  1.
        -13    1    4    4    0    0 -0.23385727783E+01 -0.38538731342E+01 -0.63106864832E+03  0.63108475763E+03  0.10566000000E+00 0. -1.
         14    1    4    4    0    0 -0.29080124969E+01 -0.31872918471E+01 -0.60738795831E+03  0.60740328223E+03  0.00000000000E+00 0. -1.
<mgrwt>
<rscale>  0 0.76427270E+02</rscale>
<asrwt>0</asrwt>
<pdfrwt beam="1">  1        2 0.23679467E+00 0.76427270E+02</pdfrwt>
<pdfrwt beam="2">  1       -1 0.14596142E-03 0.76427270E+02</pdfrwt>
<totfact> 0.37054953E+05</totfact>
</mgrwt>
</event>
<event>
 8    1  0.2676873E-016  0.7707632E+02  0.7818608E-02  0.1337559E+00
         -1   -1    0    0    0  501 -0.00000000000E+00  0.00000000000E+00  0.36368130070E+02  0.36368130419E+02  0.50400000000E-02 0.  1.
          2   -1    0    0  501    0  0.00000000000E+00 -0.00000000000E+00 -0.40837671960E+02  0.40837672040E+02  0.25500000000E-02 0. -1.
         24    2    1    2    0    0  0.35527136788E-14 -0.88817841970E-15 -0.44695418904E+01  0.77205802458E+02  0.77076320154E+02 0.  0.
         66    2    3    3    0    0  0.21244033023E+02 -0.56013150380E+01 -0.33920108903E+02  0.40463038128E+02  0.19999993353E+01 0.  0.
        -13    1    3    3    0    0 -0.21244033023E+02  0.56013150380E+01  0.29450567013E+02  0.36742764330E+02  0.10566000000E+00 0.  1.
         13    1    4    4    0    0  0.71468819730E+01 -0.12211493554E+01 -0.11568054133E+02  0.13652844691E+02  0.10566000000E+00 0. -1.
        -13    1    4    4    0    0  0.65536857711E+01 -0.24110198065E+01 -0.97970335854E+01  0.12031493872E+02  0.10566000000E+00 0.  1.
        -14    1    4    4    0    0  0.75434652787E+01 -0.19691458761E+01 -0.12555021184E+02  0.14778699565E+02  0.00000000000E+00 0.  1.
<mgrwt>
<rscale>  0 0.77076320E+02</rscale>
<asrwt>0</asrwt>
<pdfrwt beam="1">  1        2 0.62827188E-02 0.77076320E+02</pdfrwt>
<pdfrwt beam="2">  1       -1 0.55950970E-02 0.77076320E+02</pdfrwt>
<totfact> 0.15862023E+05</totfact>
</mgrwt>
</event>
<event>
 8    1  0.2676873E-016  0.8229590E+02  0.7818608E-02  0.1322659E+00
         -1   -1    0    0    0  501 -0.00000000000E+00  0.00000000000E+00  0.21109868344E+02  0.21109868946E+02  0.50400000000E-02 0.  1.
          2   -1    0    0  501    0  0.00000000000E+00 -0.00000000000E+00 -0.80206740176E+02  0.80206740217E+02  0.25500000000E-02 0. -1.
         24    2    1    2    0    0  0.35527136788E-14  0.11102230246E-15 -0.59096871832E+02  0.10131660916E+03  0.82295899240E+02 0.  0.
         66    2    3    3    0    0 -0.29502647521E+02 -0.39089207464E+00 -0.64832593497E+02  0.71258853517E+02  0.20000044210E+01 0.  0.
        -13    1    3    3    0    0  0.29502647521E+02  0.39089207464E+00  0.57357216646E+01  0.30057755645E+02  0.10566000000E+00 0.  1.
         13    1    4    4    0    0 -0.10457728284E+02 -0.77760604330E+00 -0.21854817374E+02  0.24240729332E+02  0.10566000000E+00 0. -1.
        -13    1    4    4    0    0 -0.12215800773E+02  0.14692310056E+00 -0.28535790513E+02  0.31041099838E+02  0.10566000000E+00 0.  1.
         14    1    4    4    0    0 -0.68291184639E+01  0.23979086810E+00 -0.14441985610E+02  0.15977024348E+02  0.00000000000E+00 0. -1.
<mgrwt>
<rscale>  0 0.82295899E+02</rscale>
<asrwt>0</asrwt>
<pdfrwt beam="1">  1        2 0.12339498E-01 0.82295899E+02</pdfrwt>
<pdfrwt beam="2">  1       -1 0.32476722E-02 0.82295899E+02</pdfrwt>
<totfact> 0.15477738E+05</totfact>
</mgrwt>
</event>
<event>
 8    1  0.2676873E-016  0.8013303E+02  0.7818608E-02  0.1328674E+00
         -1   -1    0    0    0  501 -0.00000000000E+00  0.00000000000E+00  0.45739185922E+02  0.45739186200E+02  0.50400000000E-02 0.  1.
          2   -1    0    0  501    0  0.00000000000E+00 -0.00000000000E+00 -0.35097382185E+02  0.35097382278E+02  0.25500000000E-02 0. -1.
         24    2    1    2    0    0  0.35527136788E-14  0.44408920985E-15  0.10641803738E+02  0.80836568478E+02  0.80133031993E+02 0.  0.
         66    2    3    3    0    0  0.29281463636E+02  0.36896564403E+01 -0.21974477249E+02  0.36849631476E+02  0.20000030661E+01 0.  0.
        -13    1    3    3    0    0 -0.29281463636E+02 -0.36896564403E+01  0.32616280987E+02  0.43986937001E+02  0.10566000000E+00 0.  1.
         13    1    4    4    0    0  0.16145847491E+02  0.12506384795E+01 -0.11534461351E+02  0.19882340167E+02  0.10566000000E+00 0. -1.
        -13    1    4    4    0    0  0.11289481080E+02  0.19225390597E+01 -0.91127686428E+01  0.14635650169E+02  0.10566000000E+00 0.  1.
        -14    1    4    4    0    0  0.18461350646E+01  0.51647890107E+00 -0.13272472553E+01  0.23316411406E+01  0.00000000000E+00 0.  1.
<mgrwt>
<rscale>  0 0.80133032E+02</rscale>
<asrwt>0</asrwt>
<pdfrwt beam="1">  1        2 0.53995973E-02 0.80133032E+02</pdfrwt>
<pdfrwt beam="2">  1       -1 0.70367978E-02 0.80133032E+02</pdfrwt>
<totfact> 0.13817739E+05</totfact>
</mgrwt>
</event>
<event>
 8    1  0.2676873E-016  0.8011509E+02  0.7818608E-02  0.1328725E+00
          2   -1    0    0  501    0  0.00000000000E+00  0.00000000000E+00  0.22892711312E+02  0.22892711454E+02  0.25500000000E-02 0. -1.
         -1   -1    0    0    0  501 -0.00000000000E+00 -0.00000000000E+00 -0.70092478882E+02  0.70092479063E+02  0.50400000000E-02 0.  1.
         24    2    1    2    0    0 -0.22204460493E-15  0.00000000000E+00 -0.47199767569E+02  0.92985190517E+02  0.80115089695E+02 0.  0.
         66    2    3    3    0    0 -0.18022878339E+01  0.12026421860E+02  0.20653358099E+02  0.24050867490E+02  0.19999905203E+01 0.  0.
        -13    1    3    3    0    0  0.18022878339E+01 -0.12026421860E+02 -0.67853125668E+02  0.68934323027E+02  0.10566000000E+00 0.  1.
         13    1    4    4    0    0 -0.44269136639E+00  0.36017432871E+01  0.60110408152E+01  0.70222721444E+01  0.10566000000E+00 0. -1.
        -13    1    4    4    0    0 -0.87412366796E-02  0.43300489803E+01  0.82528295489E+01  0.93203948510E+01  0.10566000000E+00 0.  1.
        -14    1    4    4    0    0 -0.13508552308E+01  0.40946295922E+01  0.63894877347E+01  0.77082004945E+01  0.00000000000E+00 0.  1.
<mgrwt>
<rscale>  0 0.80115090E+02</rscale>
<asrwt>0</asrwt>
<pdfrwt beam="1">  1        2 0.35219556E-02 0.80115090E+02</pdfrwt>
<pdfrwt beam="2">  1       -1 0.10783458E-01 0.80115090E+02</pdfrwt>
<totfact> 0.12704056E+05</totfact>
</mgrwt>
</event>
<event>
 8    1  0.2676873E-016  0.7780168E+02  0.7818608E-02  0.1335408E+00
          2   -1    0    0  501    0  0.00000000000E+00  0.00000000000E+00  0.73522101996E+03  0.73522101996E+03  0.25500000000E-02 0. -1.
         -1   -1    0    0    0  501 -0.00000000000E+00 -0.00000000000E+00 -0.20582558597E+01  0.20582620304E+01  0.50400000000E-02 0.  1.
         24    2    1    2    0    0 -0.66613381478E-15  0.00000000000E+00  0.73316276410E+03  0.73727928199E+03  0.77801677331E+02 0.  0.
         66    2    3    3    0    0  0.15792698427E+01  0.34049127604E+02  0.54396640616E+03  0.54503696042E+03  0.20000014157E+01 0.  0.
        -13    1    3    3    0    0 -0.15792698427E+01 -0.34049127604E+02  0.18919635793E+03  0.19224232157E+03  0.10566000000E+00 0.  1.
         13    1    4    4    0    0  0.66131868625E+00  0.20044667124E+02  0.31651752513E+03  0.31715229922E+03  0.10566000000E+00 0. -1.
        -13    1    4    4    0    0 -0.13746268670E+00  0.21102518415E+01  0.39723677511E+02  0.39780067595E+02  0.10566000000E+00 0.  1.
        -14    1    4    4    0    0  0.10554138431E+01  0.11894208639E+02  0.18772520352E+03  0.18810459360E+03  0.00000000000E+00 0.  1.
<mgrwt>
<rscale>  0 0.77801677E+02</rscale>
<asrwt>0</asrwt>
<pdfrwt beam="1">  1        2 0.11311092E+00 0.77801677E+02</pdfrwt>
<pdfrwt beam="2">  1       -1 0.31665524E-03 0.77801677E+02</pdfrwt>
<totfact> 0.36349738E+05</totfact>
</mgrwt>
</event>
<event>
 8    1  0.2676873E-016  0.8071810E+02  0.7818608E-02  0.1327026E+00
         -1   -1    0    0    0  501 -0.00000000000E+00  0.00000000000E+00  0.20392584053E+01  0.20392646334E+01  0.50400000000E-02 0.  1.
          2   -1    0    0  501    0  0.00000000000E+00 -0.00000000000E+00 -0.79874640778E+03  0.79874640778E+03  0.25500000000E-02 0. -1.
         24    2    1    2    0    0  0.00000000000E+00 -0.88817841970E-15 -0.79670714937E+03  0.80078567241E+03  0.80718097626E+02 0.  0.
         66    2    3    3    0    0 -0.17560095690E+02  0.79077436693E+01 -0.75018462203E+03  0.75043444517E+03  0.19999996490E+01 0.  0.
        -13    1    3    3    0    0  0.17560095690E+02 -0.79077436693E+01 -0.46522527339E+02  0.50351227240E+02  0.10566000000E+00 0.  1.
         13    1    4    4    0    0 -0.47816851474E+01  0.19315386712E+01 -0.18201324854E+03  0.18208632338E+03  0.10566000000E+00 0. -1.
        -13    1    4    4    0    0 -0.17197613836E+01  0.51241004774E+00 -0.59080373634E+02  0.59107714014E+02  0.10566000000E+00 0.  1.
         14    1    4    4    0    0 -0.11058649159E+02  0.54637949503E+01 -0.50909099986E+03  0.50924040778E+03  0.00000000000E+00 0. -1.
<mgrwt>
<rscale>  0 0.80718098E+02</rscale>
<asrwt>0</asrwt>
<pdfrwt beam="1">  1        2 0.12288381E+00 0.80718098E+02</pdfrwt>
<pdfrwt beam="2">  1       -1 0.31373318E-03 0.80718098E+02</pdfrwt>
<totfact> 0.33567635E+05</totfact>
</mgrwt>
</event>
<event>
 8    1  0.2676873E-016  0.7791913E+02  0.7818608E-02  0.1335063E+00
          2   -1    0    0  501    0  0.00000000000E+00  0.00000000000E+00  0.17142303066E+03  0.17142303068E+03  0.25500000000E-02 0. -1.
         -1   -1    0    0    0  501 -0.00000000000E+00 -0.00000000000E+00 -0.88543973314E+01  0.88543987658E+01  0.50400000000E-02 0.  1.
         24    2    1    2    0    0  0.00000000000E+00  0.00000000000E+00  0.16256863333E+03  0.18027742945E+03  0.77919131316E+02 0.  0.
         66    2    3    3    0    0  0.11096600827E+02 -0.11996295305E+02  0.16309815751E+03  0.16392697958E+03  0.20000001988E+01 0.  0.
        -13    1    3    3    0    0 -0.11096600827E+02  0.11996295305E+02 -0.52952417718E+00  0.16350449867E+02  0.10566000000E+00 0.  1.
         13    1    4    4    0    0  0.75501689627E+01 -0.85413472682E+01  0.11381713198E+03  0.11438667038E+03  0.10566000000E+00 0. -1.
        -13    1    4    4    0    0  0.16953223296E+01 -0.13293507588E+01  0.25989515254E+02  0.26078868043E+02  0.10566000000E+00 0.  1.
         14    1    4    4    0    0  0.18511095345E+01 -0.21255972781E+01  0.23291510275E+02  0.23461441158E+02  0.00000000000E+00 0. -1.
<mgrwt>
<rscale>  0 0.77919131E+02</rscale>
<asrwt>0</asrwt>
<pdfrwt beam="1">  1        2 0.26372774E-01 0.77919131E+02</pdfrwt>
<pdfrwt beam="2">  1       -1 0.13622151E-02 0.77919131E+02</pdfrwt>
<totfact> 0.22436991E+05</totfact>
</mgrwt>
</event>
<event>
 8    1  0.2676873E-016  0.7905407E+02  0.7818608E-02  0.1331757E+00
         -1   -1    0    0    0  501 -0.00000000000E+00  0.00000000000E+00  0.19102387850E+01  0.19102454338E+01  0.50400000000E-02 0.  1.
          2   -1    0    0  501    0  0.00000000000E+00 -0.00000000000E+00 -0.81789967058E+03  0.81789967058E+03  0.25500000000E-02 0. -1.
         24    2    1    2    0    0  0.44408920985E-15  0.17763568394E-14 -0.81598943179E+03  0.81980991601E+03  0.79054067574E+02 0.  0.
         66    2    3    3    0    0 -0.30840516093E+01 -0.11500103044E+02 -0.79884558575E+03  0.79893681453E+03  0.19999995606E+01 0.  0.
        -13    1    3    3    0    0  0.30840516093E+01  0.11500103044E+02 -0.17143846040E+02  0.20873101481E+02  0.10566000000E+00 0.  1.
         13    1    4    4    0    0 -0.14202779951E+01 -0.80553417172E+01 -0.54123452752E+03  0.54129634274E+03  0.10566000000E+00 0. -1.
        -13    1    4    4    0    0 -0.11329310199E+01 -0.22107256722E+01 -0.18811800811E+03  0.18813443858E+03  0.10566000000E+00 0.  1.
        -14    1    4    4    0    0 -0.53084259433E+00 -0.12340356542E+01 -0.69493050118E+02  0.69506033210E+02  0.00000000000E+00 0.  1.
<mgrwt>
<rscale>  0 0.79054068E+02</rscale>
<asrwt>0</asrwt>
<pdfrwt beam="1">  1        2 0.12583044E+00 0.79054068E+02</pdfrwt>
<pdfrwt beam="2">  1       -1 0.29388406E-03 0.79054068E+02</pdfrwt>
<totfact> 0.35574583E+05</totfact>
</mgrwt>
</event>
<event>
 8    1  0.2676873E-016  0.7843310E+02  0.7818608E-02  0.1333558E+00
          2   -1    0    0  501    0  0.00000000000E+00  0.00000000000E+00  0.15347461562E+03  0.15347461564E+03  0.25500000000E-02 0. -1.
         -1   -1    0    0    0  501 -0.00000000000E+00 -0.00000000000E+00 -0.10020795061E+02  0.10020796328E+02  0.50400000000E-02 0.  1.
         24    2    1    2    0    0  0.00000000000E+00  0.00000000000E+00  0.14345382056E+03  0.16349541197E+03  0.78433099532E+02 0.  0.
         66    2    3    3    0    0  0.37264543464E+01  0.24068290198E+02  0.13577749526E+03  0.13795904204E+03  0.20000015062E+01 0.  0.
        -13    1    3    3    0    0 -0.37264543464E+01 -0.24068290198E+02  0.76763252966E+01  0.25536369929E+02  0.10566000000E+00 0.  1.
         13    1    4    4    0    0  0.29437642753E+01  0.16955699483E+02  0.92101698895E+02  0.93695760824E+02  0.10566000000E+00 0. -1.
        -13    1    4    4    0    0  0.23657825590E+00  0.23295199480E+01  0.16249718727E+02  0.16417891314E+02  0.10566000000E+00 0.  1.
         14    1    4    4    0    0  0.54611181522E+00  0.47830707669E+01  0.27426077643E+02  0.27845389905E+02  0.00000000000E+00 0. -1.
<mgrwt>
<rscale>  0 0.78433100E+02</rscale>
<asrwt>0</asrwt>
<pdfrwt beam="1">  1        2 0.23611478E-01 0.78433100E+02</pdfrwt>
<pdfrwt beam="2">  1       -1 0.15416609E-02 0.78433100E+02</pdfrwt>
<totfact> 0.21264558E+05</totfact>
</mgrwt>
</event>
<event>
 8    1  0.2676873E-016  0.7966247E+02  0.7818608E-02  0.1330012E+00
          2   -1    0    0  501    0  0.00000000000E+00  0.00000000000E+00  0.13752870156E+03  0.13752870158E+03  0.25500000000E-02 0. -1.
         -1   -1    0    0    0  501 -0.00000000000E+00 -0.00000000000E+00 -0.11535970447E+02  0.11535971548E+02  0.50400000000E-02 0.  1.
         24    2    1    2    0    0  0.00000000000E+00  0.00000000000E+00  0.12599273111E+03  0.14906467313E+03  0.79662465959E+02 0.  0.
         66    2    3    3    0    0  0.22703146564E+02  0.28339283217E+01  0.12398832938E+03  0.12609746163E+03  0.19999985680E+01 0.  0.
        -13    1    3    3    0    0 -0.22703146564E+02 -0.28339283217E+01  0.20044017323E+01  0.22967211498E+02  0.10566000000E+00 0.  1.
         13    1    4    4    0    0  0.12481943495E+02  0.14057109367E+01  0.73082053154E+02  0.74153709239E+02  0.10566000000E+00 0. -1.
        -13    1    4    4    0    0  0.18675935827E+01  0.16902144647E+00  0.97998846470E+01  0.99782451949E+01  0.10566000000E+00 0. -1.
         14    1    4    4    0    0  0.83536094866E+01  0.12591959386E+01  0.41106391580E+02  0.41965507200E+02  0.00000000000E+00 0. -1.
<mgrwt>
<rscale>  0 0.79662466E+02</rscale>
<asrwt>0</asrwt>
<pdfrwt beam="1">  1        2 0.21158262E-01 0.79662466E+02</pdfrwt>
<pdfrwt beam="2">  1       -1 0.17747648E-02 0.79662466E+02</pdfrwt>
<totfact> 0.19704825E+05</totfact>
</mgrwt>
</event>
<event>
 8    1  0.2676873E-016  0.7354975E+02  0.7818608E-02  0.1348422E+00
          2   -1    0    0  501    0  0.00000000000E+00  0.00000000000E+00  0.57403569015E+03  0.57403569016E+03  0.25500000000E-02 0. -1.
         -1   -1    0    0    0  501 -0.00000000000E+00 -0.00000000000E+00 -0.23559335409E+01  0.23559389319E+01  0.50400000000E-02 0.  1.
         24    2    1    2    0    0  0.00000000000E+00  0.00000000000E+00  0.57167975661E+03  0.57639162909E+03  0.73549751635E+02 0.  0.
         66    2    3    3    0    0 -0.18777413968E+02  0.17384999735E+02  0.49273274684E+03  0.49340084041E+03  0.20000024572E+01 0.  0.
        -13    1    3    3    0    0  0.18777413968E+02 -0.17384999735E+02  0.78947009770E+02  0.82990788686E+02  0.10566000000E+00 0.  1.
         13    1    4    4    0    0 -0.87793306190E+01  0.73789101191E+01  0.22979968441E+03  0.23008570377E+03  0.10566000000E+00 0. -1.
        -13    1    4    4    0    0 -0.47245750619E+01  0.41866417649E+01  0.11163544318E+03  0.11181383151E+03  0.10566000000E+00 0.  1.
         14    1    4    4    0    0 -0.52735082873E+01  0.58194478514E+01  0.15129761925E+03  0.15150130513E+03  0.00000000000E+00 0. -1.
<mgrwt>
<rscale>  0 0.73549752E+02</rscale>
<asrwt>0</asrwt>
<pdfrwt beam="1">  1        2 0.88313346E-01 0.73549752E+02</pdfrwt>
<pdfrwt beam="2">  1       -1 0.36245106E-03 0.73549752E+02</pdfrwt>
<totfact> 0.39493075E+05</totfact>
</mgrwt>
</event>
<event>
 8    1  0.2676873E-016  0.8589519E+02  0.7818608E-02  0.1313108E+00
          2   -1    0    0  501    0  0.00000000000E+00  0.00000000000E+00  0.36863554649E+02  0.36863554738E+02  0.25500000000E-02 0. -1.
         -1   -1    0    0    0  501 -0.00000000000E+00 -0.00000000000E+00 -0.50035755500E+02  0.50035755754E+02  0.50400000000E-02 0.  1.
         24    2    1    2    0    0 -0.35527136788E-14  0.00000000000E+00 -0.13172200851E+02  0.86899310492E+02  0.85895187809E+02 0.  0.
         66    2    3    3    0    0 -0.17262809876E+02  0.33402562029E+02  0.14358799154E+02  0.40297777467E+02  0.20000001861E+01 0.  0.
        -13    1    3    3    0    0  0.17262809876E+02 -0.33402562029E+02 -0.27531000005E+02  0.46601533024E+02  0.10566000000E+00 0.  1.
         13    1    4    4    0    0 -0.77480089261E+01  0.15108158307E+02  0.68119567194E+01  0.18294862889E+02  0.10566000000E+00 0. -1.
        -13    1    4    4    0    0 -0.14959860100E+01  0.22550490134E+01  0.61184212154E+00  0.27764608789E+01  0.10566000000E+00 0.  1.
        -14    1    4    4    0    0 -0.80188149398E+01  0.16039354709E+02  0.69350003128E+01  0.19226453699E+02  0.00000000000E+00 0.  1.
<mgrwt>
<rscale>  0 0.85895188E+02</rscale>
<asrwt>0</asrwt>
<pdfrwt beam="1">  1        2 0.56713161E-02 0.85895188E+02</pdfrwt>
<pdfrwt beam="2">  1       -1 0.76978086E-02 0.85895188E+02</pdfrwt>
<totfact> 0.11496601E+05</totfact>
</mgrwt>
</event>
<event>
 8    1  0.2676873E-016  0.8024592E+02  0.7818608E-02  0.1328355E+00
         -1   -1    0    0    0  501 -0.00000000000E+00  0.00000000000E+00  0.40593954534E+01  0.40593985821E+01  0.50400000000E-02 0.  1.
          2   -1    0    0  501    0  0.00000000000E+00 -0.00000000000E+00 -0.39657419626E+03  0.39657419627E+03  0.25500000000E-02 0. -1.
         24    2    1    2    0    0  0.00000000000E+00 -0.71054273576E-14 -0.39251480081E+03  0.40063359485E+03  0.80245924946E+02 0.  0.
         66    2    3    3    0    0  0.98209695041E+01  0.38727740856E+02 -0.17940584297E+03  0.18381171305E+03  0.20000020693E+01 0.  0.
        -13    1    3    3    0    0 -0.98209695041E+01 -0.38727740856E+02 -0.21310895784E+03  0.21682188180E+03  0.10566000000E+00 0.  1.
         13    1    4    4    0    0  0.27940721572E+01  0.11348029068E+02 -0.53388688106E+02  0.54652975991E+02  0.10566000000E+00 0. -1.
        -13    1    4    4    0    0  0.62715176178E+01  0.22415168893E+02 -0.10197011664E+03  0.10459296143E+03  0.10566000000E+00 0.  1.
        -14    1    4    4    0    0  0.75537972912E+00  0.49645428945E+01 -0.24047038226E+02  0.24565775626E+02  0.00000000000E+00 0.  1.
<mgrwt>
<rscale>  0 0.80245925E+02</rscale>
<asrwt>0</asrwt>
<pdfrwt beam="1">  1        2 0.61011384E-01 0.80245925E+02</pdfrwt>
<pdfrwt beam="2">  1       -1 0.62452294E-03 0.80245925E+02</pdfrwt>
<totfact> 0.27943693E+05</totfact>
</mgrwt>
</event>
<event>
 8    1  0.2676873E-016  0.7910694E+02  0.7818608E-02  0.1331605E+00
         -1   -1    0    0    0  501 -0.00000000000E+00  0.00000000000E+00  0.33185604334E+02  0.33185604717E+02  0.50400000000E-02 0.  1.
          2   -1    0    0  501    0  0.00000000000E+00 -0.00000000000E+00 -0.47143243361E+02  0.47143243430E+02  0.25500000000E-02 0. -1.
         24    2    1    2    0    0 -0.17763568394E-14  0.35527136788E-14 -0.13957639027E+02  0.80328848147E+02  0.79106941272E+02 0.  0.
         66    2    3    3    0    0 -0.60235661024E+01  0.31526488680E+02 -0.30410589361E+02  0.44260668600E+02  0.20000006336E+01 0.  0.
        -13    1    3    3    0    0  0.60235661024E+01 -0.31526488680E+02  0.16452950334E+02  0.36068179547E+02  0.10566000000E+00 0.  1.
         13    1    4    4    0    0 -0.64017973205E+00  0.34885553395E+01 -0.38119600729E+01  0.52078836469E+01  0.10566000000E+00 0. -1.
        -13    1    4    4    0    0 -0.14660049853E+01  0.48716460362E+01 -0.43351449243E+01  0.66848149764E+01  0.10566000000E+00 0.  1.
        -14    1    4    4    0    0 -0.39173813851E+01  0.23166287304E+02 -0.22263484364E+02  0.32367969977E+02  0.00000000000E+00 0.  1.
<mgrwt>
<rscale>  0 0.79106941E+02</rscale>
<asrwt>0</asrwt>
<pdfrwt beam="1">  1        2 0.72528067E-02 0.79106941E+02</pdfrwt>
<pdfrwt beam="2">  1       -1 0.51054776E-02 0.79106941E+02</pdfrwt>
<totfact> 0.15215930E+05</totfact>
</mgrwt>
</event>
<event>
 8    1  0.2676873E-016  0.7854130E+02  0.7818608E-02  0.1333243E+00
         -1   -1    0    0    0  501 -0.00000000000E+00  0.00000000000E+00  0.79737998099E+02  0.79737998258E+02  0.50400000000E-02 0.  1.
          2   -1    0    0  501    0  0.00000000000E+00 -0.00000000000E+00 -0.19340640658E+02  0.19340640826E+02  0.25500000000E-02 0. -1.
         24    2    1    2    0    0  0.00000000000E+00  0.35527136788E-14  0.60397357441E+02  0.99078639085E+02  0.78541300836E+02 0.  0.
         66    2    3    3    0    0  0.27673732158E+02  0.10405624168E+02 -0.23385231463E+01  0.29725093083E+02  0.20000006011E+01 0.  0.
        -13    1    3    3    0    0 -0.27673732158E+02 -0.10405624168E+02  0.62735880587E+02  0.69353546001E+02  0.10566000000E+00 0.  1.
         13    1    4    4    0    0  0.16786439354E+02  0.60487184343E+01 -0.81650805934E+00  0.17861953709E+02  0.10566000000E+00 0. -1.
        -13    1    4    4    0    0  0.36029085692E+01  0.99641133953E+00 -0.35352849219E+00  0.37563189623E+01  0.10566000000E+00 0.  1.
        -14    1    4    4    0    0  0.72843842356E+01  0.33604943943E+01 -0.11684865948E+01  0.81068204117E+01  0.00000000000E+00 0.  1.
<mgrwt>
<rscale>  0 0.78541301E+02</rscale>
<asrwt>0</asrwt>
<pdfrwt beam="1">  1        2 0.29754831E-02 0.78541301E+02</pdfrwt>
<pdfrwt beam="2">  1       -1 0.12267385E-01 0.78541301E+02</pdfrwt>
<totfact> 0.13001148E+05</totfact>
</mgrwt>
</event>
<event>
 8    1  0.2676873E-016  0.8018538E+02  0.7818608E-02  0.1328526E+00
          2   -1    0    0  501    0  0.00000000000E+00  0.00000000000E+00  0.26186422897E+02  0.26186423022E+02  0.25500000000E-02 0. -1.
         -1   -1    0    0    0  501 -0.00000000000E+00 -0.00000000000E+00 -0.61383867176E+02  0.61383867383E+02  0.50400000000E-02 0.  1.
         24    2    1    2    0    0 -0.71054273576E-14  0.35527136788E-14 -0.35197444279E+02  0.87570290405E+02  0.80185383193E+02 0.  0.
         66    2    3    3    0    0  0.32414802623E+02 -0.22568009946E+02 -0.24966883444E+02  0.46769432067E+02  0.20000012425E+01 0.  0.
        -13    1    3    3    0    0 -0.32414802623E+02  0.22568009946E+02 -0.10230560835E+02  0.40800858337E+02  0.10566000000E+00 0.  1.
         13    1    4    4    0    0  0.21884542371E+02 -0.15582587041E+02 -0.17402757717E+02  0.32009644700E+02  0.10566000000E+00 0. -1.
        -13    1    4    4    0    0  0.47594552926E+01 -0.30215737051E+01 -0.39184449860E+01  0.68664180969E+01  0.10566000000E+00 0.  1.
         14    1    4    4    0    0  0.57708049600E+01 -0.39638492000E+01 -0.36456807412E+01  0.78933692700E+01  0.00000000000E+00 0. -1.
<mgrwt>
<rscale>  0 0.80185383E+02</rscale>
<asrwt>0</asrwt>
<pdfrwt beam="1">  1        2 0.40286805E-02 0.80185383E+02</pdfrwt>
<pdfrwt beam="2">  1       -1 0.94436719E-02 0.80185383E+02</pdfrwt>
<totfact> 0.13014236E+05</totfact>
</mgrwt>
</event>
<event>
 8    1  0.2676873E-016  0.8012327E+02  0.7818608E-02  0.1328702E+00
          2   -1    0    0  501    0  0.00000000000E+00  0.00000000000E+00  0.15837712740E+02  0.15837712945E+02  0.25500000000E-02 0. -1.
         -1   -1    0    0    0  501 -0.00000000000E+00 -0.00000000000E+00 -0.10133624969E+03  0.10133624981E+03  0.50400000000E-02 0.  1.
         24    2    1    2    0    0  0.00000000000E+00  0.00000000000E+00 -0.85498536947E+02  0.11717396276E+03  0.80123265836E+02 0.  0.
         66    2    3    3    0    0  0.10858051950E+02 -0.26245470087E+02 -0.15104738413E+01  0.28513216649E+02  0.20000000626E+01 0.  0.
        -13    1    3    3    0    0 -0.10858051950E+02  0.26245470087E+02 -0.83988063106E+02  0.88660746108E+02  0.10566000000E+00 0.  1.
         13    1    4    4    0    0  0.91412909991E+01 -0.21656882232E+02 -0.83034873453E+00  0.23521998049E+02  0.10566000000E+00 0. -1.
        -13    1    4    4    0    0  0.81425974330E+00 -0.13887530545E+01 -0.10100039061E+00  0.16164835571E+01  0.10566000000E+00 0.  1.
        -14    1    4    4    0    0  0.90250120751E+00 -0.31998348001E+01 -0.57912471616E+00  0.33747350436E+01  0.00000000000E+00 0.  1.
<mgrwt>
<rscale>  0 0.80123266E+02</rscale>
<asrwt>0</asrwt>
<pdfrwt beam="1">  1        2 0.24365713E-02 0.80123266E+02</pdfrwt>
<pdfrwt beam="2">  1       -1 0.15590192E-01 0.80123266E+02</pdfrwt>
<totfact> 0.11773967E+05</totfact>
</mgrwt>
</event>
<event>
 8    1  0.2676873E-016  0.7880434E+02  0.7818608E-02  0.1332479E+00
          2   -1    0    0  501    0  0.00000000000E+00  0.00000000000E+00  0.14828912165E+03  0.14828912167E+03  0.25500000000E-02 0. -1.
         -1   -1    0    0    0  501 -0.00000000000E+00 -0.00000000000E+00 -0.10469621152E+02  0.10469622365E+02  0.50400000000E-02 0.  1.
         24    2    1    2    0    0 -0.17763568394E-14 -0.35527136788E-14  0.13781950050E+03  0.15875874404E+03  0.78804340556E+02 0.  0.
         66    2    3    3    0    0 -0.86028915732E+01 -0.25392747760E+02  0.12705417006E+03  0.12986748436E+03  0.19999954892E+01 0.  0.
        -13    1    3    3    0    0  0.86028915732E+01  0.25392747760E+02  0.10765330438E+02  0.28891259677E+02  0.10566000000E+00 0.  1.
         13    1    4    4    0    0 -0.60380417815E+01 -0.18205143952E+02  0.89107329304E+02  0.91148299570E+02  0.10566000000E+00 0. -1.
        -13    1    4    4    0    0 -0.22430539259E+01 -0.68907303519E+01  0.35288418890E+02  0.36024951457E+02  0.10566000000E+00 0.  1.
        -14    1    4    4    0    0 -0.32179586589E+00 -0.29687345686E+00  0.26584218658E+01  0.26942333316E+01  0.00000000000E+00 0.  1.
<mgrwt>
<rscale>  0 0.78804341E+02</rscale>
<asrwt>0</asrwt>
<pdfrwt beam="1">  1        2 0.22813712E-01 0.78804341E+02</pdfrwt>
<pdfrwt beam="2">  1       -1 0.16107110E-02 0.78804341E+02</pdfrwt>
<totfact> 0.20769303E+05</totfact>
</mgrwt>
</event>
<event>
 8    1  0.2676873E-016  0.8301772E+02  0.7818608E-02  0.1320699E+00
         -1   -1    0    0    0  501 -0.00000000000E+00  0.00000000000E+00  0.27282619503E+01  0.27282666055E+01  0.50400000000E-02 0.  1.
          2   -1    0    0  501    0  0.00000000000E+00 -0.00000000000E+00 -0.63153174071E+03  0.63153174072E+03  0.25500000000E-02 0. -1.
         24    2    1    2    0    0  0.00000000000E+00  0.00000000000E+00 -0.62880347876E+03  0.63426000732E+03  0.83017720916E+02 0.  0.
         66    2    3    3    0    0  0.20517450226E+02  0.32686968855E+02 -0.43084737838E+03  0.43257700720E+03  0.20000007814E+01 0.  0.
        -13    1    3    3    0    0 -0.20517450226E+02 -0.32686968855E+02 -0.19795610038E+03  0.20168300012E+03  0.10566000000E+00 0.  1.
         13    1    4    4    0    0  0.90810723372E+01  0.13845810006E+02 -0.19285175171E+03  0.19356131233E+03  0.10566000000E+00 0. -1.
        -13    1    4    4    0    0  0.37659861120E+01  0.66962876207E+01 -0.86570821174E+02  0.86911110694E+02  0.10566000000E+00 0.  1.
         14    1    4    4    0    0  0.76703917772E+01  0.12144871228E+02 -0.15142480549E+03  0.15210458417E+03  0.00000000000E+00 0. -1.
<mgrwt>
<rscale>  0 0.83017721E+02</rscale>
<asrwt>0</asrwt>
<pdfrwt beam="1">  1        2 0.97158614E-01 0.83017721E+02</pdfrwt>
<pdfrwt beam="2">  1       -1 0.41973347E-03 0.83017721E+02</pdfrwt>
<totfact> 0.29613178E+05</totfact>
</mgrwt>
</event>
<event>
 8    1  0.2676873E-016  0.8196800E+02  0.7818608E-02  0.1323558E+00
         -1   -1    0    0    0  501 -0.00000000000E+00  0.00000000000E+00  0.33741808139E+01  0.33741845780E+01  0.50400000000E-02 0.  1.
          2   -1    0    0  501    0  0.00000000000E+00 -0.00000000000E+00 -0.49780599261E+03  0.49780599262E+03  0.25500000000E-02 0. -1.
         24    2    1    2    0    0  0.00000000000E+00  0.35527136788E-14 -0.49443181180E+03  0.50118017720E+03  0.81968002884E+02 0.  0.
         66    2    3    3    0    0  0.84559903166E+01 -0.23223085298E+02 -0.44707499634E+03  0.44776206606E+03  0.19999966756E+01 0.  0.
        -13    1    3    3    0    0 -0.84559903166E+01  0.23223085298E+02 -0.47356815454E+02  0.53418111133E+02  0.10566000000E+00 0.  1.
         13    1    4    4    0    0  0.48276031331E+00 -0.32199041008E+01 -0.60932344385E+02  0.61019362470E+02  0.10566000000E+00 0. -1.
        -13    1    4    4    0    0  0.17926211245E+01 -0.46337559778E+01 -0.88403983389E+02  0.88543552154E+02  0.10566000000E+00 0. -1.
         14    1    4    4    0    0  0.61806088788E+01 -0.15369425220E+02 -0.29773866857E+03  0.29819915144E+03  0.00000000000E+00 0. -1.
<mgrwt>
<rscale>  0 0.81968003E+02</rscale>
<asrwt>0</asrwt>
<pdfrwt beam="1">  1        2 0.76585479E-01 0.81968003E+02</pdfrwt>
<pdfrwt beam="2">  1       -1 0.51910543E-03 0.81968003E+02</pdfrwt>
<totfact> 0.28540132E+05</totfact>
</mgrwt>
</event>
<event>
 8    1  0.2676873E-016  0.7992304E+02  0.7818608E-02  0.1329270E+00
         -1   -1    0    0    0  501 -0.00000000000E+00  0.00000000000E+00  0.63892365962E+02  0.63892366161E+02  0.50400000000E-02 0.  1.
          2   -1    0    0  501    0  0.00000000000E+00 -0.00000000000E+00 -0.24993957193E+02  0.24993957323E+02  0.25500000000E-02 0. -1.
         24    2    1    2    0    0  0.55511151231E-16 -0.35527136788E-14  0.38898408770E+02  0.88886323484E+02  0.79923039843E+02 0.  0.
         66    2    3    3    0    0  0.47740555737E+00 -0.22623206010E+02 -0.17136306150E+02  0.28455058344E+02  0.19999976612E+01 0.  0.
        -13    1    3    3    0    0 -0.47740555737E+00  0.22623206010E+02  0.56034714920E+02  0.60431265140E+02  0.10566000000E+00 0.  1.
         13    1    4    4    0    0  0.13695821296E+00 -0.16610376688E+02 -0.12174530983E+02  0.20594993080E+02  0.10566000000E+00 0. -1.
        -13    1    4    4    0    0  0.60005942332E+00 -0.35500757761E+01 -0.26440573154E+01  0.44682560860E+01  0.10566000000E+00 0.  1.
         14    1    4    4    0    0 -0.25961207891E+00 -0.24627535463E+01 -0.23177178520E+01  0.33918091784E+01  0.00000000000E+00 0. -1.
<mgrwt>
<rscale>  0 0.79923040E+02</rscale>
<asrwt>0</asrwt>
<pdfrwt beam="1">  1        2 0.38452241E-02 0.79923040E+02</pdfrwt>
<pdfrwt beam="2">  1       -1 0.98295950E-02 0.79923040E+02</pdfrwt>
<totfact> 0.13015183E+05</totfact>
</mgrwt>
</event>
<event>
 8    1  0.2676873E-016  0.7741299E+02  0.7818608E-02  0.1336558E+00
         -1   -1    0    0    0  501 -0.00000000000E+00  0.00000000000E+00  0.31213236946E+01  0.31213277637E+01  0.50400000000E-02 0.  1.
          2   -1    0    0  501    0  0.00000000000E+00 -0.00000000000E+00 -0.47998605154E+03  0.47998605155E+03  0.25500000000E-02 0. -1.
         24    2    1    2    0    0  0.35527136788E-14  0.35527136788E-14 -0.47686472785E+03  0.48310737931E+03  0.77412991682E+02 0.  0.
         66    2    3    3    0    0 -0.19038153518E+02 -0.24326214059E+02 -0.38387520814E+03  0.38512126846E+03  0.20000046303E+01 0.  0.
        -13    1    3    3    0    0  0.19038153518E+02  0.24326214059E+02 -0.92989519706E+02  0.97986110848E+02  0.10566000000E+00 0.  1.
         13    1    4    4    0    0 -0.13036732425E+00 -0.29553611939E+00 -0.35063893579E+01  0.35228209721E+01  0.10566000000E+00 0. -1.
        -13    1    4    4    0    0 -0.53988649551E+01 -0.67065916641E+01 -0.99592069310E+02  0.99963581109E+02  0.10566000000E+00 0. -1.
        -14    1    4    4    0    0 -0.13508921239E+02 -0.17324086276E+02 -0.28077674947E+03  0.28163486638E+03  0.00000000000E+00 0.  1.
<mgrwt>
<rscale>  0 0.77412992E+02</rscale>
<asrwt>0</asrwt>
<pdfrwt beam="1">  1        2 0.73843949E-01 0.77412992E+02</pdfrwt>
<pdfrwt beam="2">  1       -1 0.48020434E-03 0.77412992E+02</pdfrwt>
<totfact> 0.32737828E+05</totfact>
</mgrwt>
</event>
<event>
 8    1  0.2676873E-016  0.8844029E+02  0.7818608E-02  0.1306673E+00
          2   -1    0    0  501    0  0.00000000000E+00  0.00000000000E+00  0.83864772848E+02  0.83864772886E+02  0.25500000000E-02 0. -1.
         -1   -1    0    0    0  501 -0.00000000000E+00 -0.00000000000E+00 -0.23316357379E+02  0.23316357924E+02  0.50400000000E-02 0.  1.
         24    2    1    2    0    0  0.00000000000E+00  0.00000000000E+00  0.60548415469E+02  0.10718113081E+03  0.88440285990E+02 0.  0.
         66    2    3    3    0    0 -0.36547092877E+02  0.14268351667E+02  0.54952416372E+02  0.67550306607E+02  0.20000001372E+01 0.  0.
        -13    1    3    3    0    0  0.36547092877E+02 -0.14268351667E+02  0.55959990964E+01  0.39630824203E+02  0.10566000000E+00 0.  1.
         13    1    4    4    0    0 -0.79269467239E+01  0.37064126655E+01  0.11476274122E+02  0.14432255921E+02  0.10566000000E+00 0. -1.
        -13    1    4    4    0    0 -0.48577399725E+01  0.15465522410E+01  0.75834973005E+01  0.91383837092E+01  0.10566000000E+00 0.  1.
         14    1    4    4    0    0 -0.23762406181E+02  0.90153867609E+01  0.35892644950E+02  0.43979666977E+02  0.00000000000E+00 0. -1.
<mgrwt>
<rscale>  0 0.88440286E+02</rscale>
<asrwt>0</asrwt>
<pdfrwt beam="1">  1        2 0.12902273E-01 0.88440286E+02</pdfrwt>
<pdfrwt beam="2">  1       -1 0.35871320E-02 0.88440286E+02</pdfrwt>
<totfact> 0.12879642E+05</totfact>
</mgrwt>
</event>
<event>
 8    1  0.2676873E-016  0.7590097E+02  0.7818608E-02  0.1341104E+00
         -1   -1    0    0    0  501 -0.00000000000E+00  0.00000000000E+00  0.22651978000E+01  0.22652034069E+01  0.50400000000E-02 0.  1.
          2   -1    0    0  501    0  0.00000000000E+00 -0.00000000000E+00 -0.63581092334E+03  0.63581092334E+03  0.25500000000E-02 0. -1.
         24    2    1    2    0    0  0.00000000000E+00 -0.17763568394E-14 -0.63354572554E+03  0.63807612675E+03  0.75900969564E+02 0.  0.
         66    2    3    3    0    0  0.13330064218E+02  0.12262956162E+02 -0.59709578883E+03  0.59737379567E+03  0.19999999096E+01 0.  0.
        -13    1    3    3    0    0 -0.13330064218E+02 -0.12262956162E+02 -0.36449936705E+02  0.40702331084E+02  0.10566000000E+00 0.  1.
         13    1    4    4    0    0  0.32987210117E+01  0.28729490654E+01 -0.15931455980E+03  0.15937463890E+03  0.10566000000E+00 0. -1.
        -13    1    4    4    0    0  0.16269741509E+01  0.21614747825E+01 -0.96254457222E+02  0.96292526798E+02  0.10566000000E+00 0.  1.
         14    1    4    4    0    0  0.84043690552E+01  0.72285323143E+01 -0.34152677181E+03  0.34170662996E+03  0.00000000000E+00 0. -1.
<mgrwt>
<rscale>  0 0.75900970E+02</rscale>
<asrwt>0</asrwt>
<pdfrwt beam="1">  1        2 0.97816923E-01 0.75900970E+02</pdfrwt>
<pdfrwt beam="2">  1       -1 0.34849291E-03 0.75900970E+02</pdfrwt>
<totfact> 0.37447261E+05</totfact>
</mgrwt>
</event>
<event>
 8    1  0.2676873E-016  0.8126129E+02  0.7818608E-02  0.1325510E+00
          2   -1    0    0  501    0  0.00000000000E+00  0.00000000000E+00  0.39620816281E+02  0.39620816363E+02  0.25500000000E-02 0. -1.
         -1   -1    0    0    0  501 -0.00000000000E+00 -0.00000000000E+00 -0.41666206199E+02  0.41666206504E+02  0.50400000000E-02 0.  1.
         24    2    1    2    0    0  0.00000000000E+00 -0.71054273576E-14 -0.20453899182E+01  0.81287022867E+02  0.81261285165E+02 0.  0.
         66    2    3    3    0    0  0.17140634830E+01 -0.40305327723E+02 -0.56493509294E+01  0.40784465472E+02  0.20000003531E+01 0.  0.
        -13    1    3    3    0    0 -0.17140634830E+01  0.40305327723E+02  0.36039610112E+01  0.40502557395E+02  0.10566000000E+00 0.  1.
         13    1    4    4    0    0  0.56702647824E+00 -0.52036121353E+01 -0.31993691588E+00  0.52452475583E+01  0.10566000000E+00 0. -1.
        -13    1    4    4    0    0  0.95101060418E+00 -0.19045183424E+02 -0.24619784298E+01  0.19227478635E+02  0.10566000000E+00 0.  1.
        -14    1    4    4    0    0  0.19602640062E+00 -0.16056532164E+02 -0.28674355837E+01  0.16311739279E+02  0.00000000000E+00 0.  1.
<mgrwt>
<rscale>  0 0.81261285E+02</rscale>
<asrwt>0</asrwt>
<pdfrwt beam="1">  1        2 0.60955102E-02 0.81261285E+02</pdfrwt>
<pdfrwt beam="2">  1       -1 0.64101857E-02 0.81261285E+02</pdfrwt>
<totfact> 0.13624237E+05</totfact>
</mgrwt>
</event>
<event>
 8    1  0.2676873E-016  0.8067484E+02  0.7818608E-02  0.1327147E+00
          2   -1    0    0  501    0  0.00000000000E+00  0.00000000000E+00  0.54721557882E+03  0.54721557883E+03  0.25500000000E-02 0. -1.
         -1   -1    0    0    0  501 -0.00000000000E+00 -0.00000000000E+00 -0.29734285015E+01  0.29734327729E+01  0.50400000000E-02 0.  1.
         24    2    1    2    0    0 -0.35527136788E-14  0.00000000000E+00  0.54424215032E+03  0.55018901160E+03  0.80674843048E+02 0.  0.
         66    2    3    3    0    0  0.20976557286E+02 -0.46360123287E+01  0.50492256776E+03  0.50538332778E+03  0.19999997284E+01 0.  0.
        -13    1    3    3    0    0 -0.20976557286E+02  0.46360123287E+01  0.39319582562E+02  0.44805683822E+02  0.10566000000E+00 0.  1.
         13    1    4    4    0    0  0.18005079658E+02 -0.37621338557E+01  0.42314102133E+03  0.42354063753E+03  0.10566000000E+00 0. -1.
        -13    1    4    4    0    0  0.86765289937E+00 -0.45649838132E-01  0.27903717558E+02  0.27917441198E+02  0.10566000000E+00 0.  1.
         14    1    4    4    0    0  0.21038247287E+01 -0.82822863481E+00  0.53877828874E+02  0.53925249052E+02  0.00000000000E+00 0. -1.
<mgrwt>
<rscale>  0 0.80674843E+02</rscale>
<asrwt>0</asrwt>
<pdfrwt beam="1">  1        2 0.84187001E-01 0.80674843E+02</pdfrwt>
<pdfrwt beam="2">  1       -1 0.45745093E-03 0.80674843E+02</pdfrwt>
<totfact> 0.30637366E+05</totfact>
</mgrwt>
</event>
<event>
 8    1  0.2676873E-016  0.7907920E+02  0.7818608E-02  0.1331685E+00
          2   -1    0    0  501    0  0.00000000000E+00  0.00000000000E+00  0.73912894562E+02  0.73912894606E+02  0.25500000000E-02 0. -1.
         -1   -1    0    0    0  501 -0.00000000000E+00 -0.00000000000E+00 -0.21151651417E+02  0.21151652017E+02  0.50400000000E-02 0.  1.
         24    2    1    2    0    0 -0.71054273576E-14 -0.88817841970E-15  0.52761243145E+02  0.95064546623E+02  0.79079196041E+02 0.  0.
         66    2    3    3    0    0 -0.22442344359E+02 -0.51803575127E+01  0.64995055613E+02  0.68984434356E+02  0.20000012420E+01 0.  0.
        -13    1    3    3    0    0  0.22442344359E+02  0.51803575127E+01 -0.12233812468E+02  0.26080112267E+02  0.10566000000E+00 0.  1.
         13    1    4    4    0    0 -0.91881679538E+01 -0.24700419305E+01  0.28397654621E+02  0.29949315343E+02  0.10566000000E+00 0. -1.
        -13    1    4    4    0    0 -0.98409431945E+01 -0.16691657234E+01  0.28023854980E+02  0.29748577934E+02  0.10566000000E+00 0.  1.
        -14    1    4    4    0    0 -0.34132332111E+01 -0.10411498588E+01  0.85735460126E+01  0.92865410790E+01  0.00000000000E+00 0.  1.
<mgrwt>
<rscale>  0 0.79079196E+02</rscale>
<asrwt>0</asrwt>
<pdfrwt beam="1">  1        2 0.11371214E-01 0.79079196E+02</pdfrwt>
<pdfrwt beam="2">  1       -1 0.32541003E-02 0.79079196E+02</pdfrwt>
<totfact> 0.16884296E+05</totfact>
</mgrwt>
</event>
<event>
 8    1  0.2676873E-016  0.8026467E+02  0.7818608E-02  0.1328302E+00
          2   -1    0    0  501    0  0.00000000000E+00  0.00000000000E+00  0.23532635239E+03  0.23532635241E+03  0.25500000000E-02 0. -1.
         -1   -1    0    0    0  501 -0.00000000000E+00 -0.00000000000E+00 -0.68441298753E+01  0.68441317310E+01  0.50400000000E-02 0.  1.
         24    2    1    2    0    0  0.00000000000E+00  0.00000000000E+00  0.22848222252E+03  0.24217048414E+03  0.80264670814E+02 0.  0.
         66    2    3    3    0    0  0.31871305315E+02  0.13907334340E+02  0.17460995519E+03  0.17805007863E+03  0.19999997648E+01 0.  0.
        -13    1    3    3    0    0 -0.31871305315E+02 -0.13907334340E+02  0.53872267328E+02  0.64120405504E+02  0.10566000000E+00 0.  1.
         13    1    4    4    0    0  0.13526026475E+02  0.59104169466E+01  0.73678504044E+02  0.75142661271E+02  0.10566000000E+00 0. -1.
        -13    1    4    4    0    0  0.18483481756E+01  0.34111086824E+00  0.94954810107E+01  0.96802929327E+01  0.10566000000E+00 0.  1.
        -14    1    4    4    0    0  0.16496930664E+02  0.76558065249E+01  0.91435970135E+02  0.93227124430E+02  0.00000000000E+00 0.  1.
<mgrwt>
<rscale>  0 0.80264671E+02</rscale>
<asrwt>0</asrwt>
<pdfrwt beam="1">  1        2 0.36204042E-01 0.80264671E+02</pdfrwt>
<pdfrwt beam="2">  1       -1 0.10529436E-02 0.80264671E+02</pdfrwt>
<totfact> 0.23156093E+05</totfact>
</mgrwt>
</event>
<event>
 8    1  0.2676873E-016  0.7929079E+02  0.7818608E-02  0.1331076E+00
          2   -1    0    0  501    0  0.00000000000E+00  0.00000000000E+00  0.19233577996E+02  0.19233578165E+02  0.25500000000E-02 0. -1.
         -1   -1    0    0    0  501 -0.00000000000E+00 -0.00000000000E+00 -0.81719437043E+02  0.81719437198E+02  0.50400000000E-02 0.  1.
         24    2    1    2    0    0  0.17763568394E-14 -0.11102230246E-15 -0.62485859047E+02  0.10095301536E+03  0.79290785909E+02 0.  0.
         66    2    3    3    0    0  0.14042090128E+02 -0.87993494769E+00  0.15893752050E+02  0.21320552257E+02  0.20000034041E+01 0.  0.
        -13    1    3    3    0    0 -0.14042090128E+02  0.87993494769E+00 -0.78379611097E+02  0.79632463107E+02  0.10566000000E+00 0.  1.
         13    1    4    4    0    0  0.37832221185E+01 -0.18890241745E+00  0.42644587675E+01  0.57048423586E+01  0.10566000000E+00 0. -1.
        -13    1    4    4    0    0  0.12402724335E+01 -0.47741662864E+00  0.95480089244E+00  0.16398204555E+01  0.10566000000E+00 0. -1.
        -14    1    4    4    0    0  0.90185955756E+01 -0.21361590160E+00  0.10674492391E+02  0.13975889442E+02  0.00000000000E+00 0.  1.
<mgrwt>
<rscale>  0 0.79290786E+02</rscale>
<asrwt>0</asrwt>
<pdfrwt beam="1">  1        2 0.29590121E-02 0.79290786E+02</pdfrwt>
<pdfrwt beam="2">  1       -1 0.12572221E-01 0.79290786E+02</pdfrwt>
<totfact> 0.12637282E+05</totfact>
</mgrwt>
</event>
<event>
 8    1  0.2676873E-016  0.7823501E+02  0.7818608E-02  0.1334136E+00
         -1   -1    0    0    0  501 -0.00000000000E+00  0.00000000000E+00  0.53755728288E+02  0.53755728525E+02  0.50400000000E-02 0.  1.
          2   -1    0    0  501    0  0.00000000000E+00 -0.00000000000E+00 -0.28465419432E+02  0.28465419546E+02  0.25500000000E-02 0. -1.
         24    2    1    2    0    0  0.00000000000E+00  0.00000000000E+00  0.25290308857E+02  0.82221148070E+02  0.78235014335E+02 0.  0.
         66    2    3    3    0    0 -0.37287924140E+02 -0.27624072164E+01  0.66360601530E+00  0.37449440071E+02  0.20000020883E+01 0.  0.
        -13    1    3    3    0    0  0.37287924140E+02  0.27624072164E+01  0.24626702841E+02  0.44771708000E+02  0.10566000000E+00 0.  1.
         13    1    4    4    0    0 -0.55184994972E+01 -0.17580569609E-01 -0.28044403093E+00  0.55266589063E+01  0.10566000000E+00 0. -1.
        -13    1    4    4    0    0 -0.62629166699E+01 -0.10030680802E+00  0.28446005541E+00  0.62710659563E+01  0.10566000000E+00 0.  1.
         14    1    4    4    0    0 -0.25506507973E+02 -0.26445198388E+01  0.65958999082E+00  0.25651715208E+02  0.00000000000E+00 0. -1.
<mgrwt>
<rscale>  0 0.78235014E+02</rscale>
<asrwt>0</asrwt>
<pdfrwt beam="1">  1        2 0.43792954E-02 0.78235014E+02</pdfrwt>
<pdfrwt beam="2">  1       -1 0.82701120E-02 0.78235014E+02</pdfrwt>
<totfact> 0.14176704E+05</totfact>
</mgrwt>
</event>
<event>
 8    1  0.2676873E-016  0.8039674E+02  0.7818608E-02  0.1327929E+00
          2   -1    0    0  501    0  0.00000000000E+00  0.00000000000E+00  0.12012783081E+03  0.12012783084E+03  0.25500000000E-02 0. -1.
         -1   -1    0    0    0  501 -0.00000000000E+00 -0.00000000000E+00 -0.13451579107E+02  0.13451580051E+02  0.50400000000E-02 0.  1.
         24    2    1    2    0    0 -0.17763568394E-14  0.00000000000E+00  0.10667625171E+03  0.13357941089E+03  0.80396743318E+02 0.  0.
         66    2    3    3    0    0 -0.86859639156E+01  0.15998557911E+02  0.11287289349E+03  0.11434898298E+03  0.19999995545E+01 0.  0.
        -13    1    3    3    0    0  0.86859639156E+01 -0.15998557911E+02 -0.61966417850E+01  0.19230427916E+02  0.10566000000E+00 0.  1.
         13    1    4    4    0    0 -0.61179052237E+01  0.10031867901E+02  0.73190163240E+02  0.74127446314E+02  0.10566000000E+00 0. -1.
        -13    1    4    4    0    0 -0.13567247588E+01  0.42326143496E+01  0.27039703123E+02  0.27402781525E+02  0.10566000000E+00 0.  1.
        -14    1    4    4    0    0 -0.12113339330E+01  0.17340756602E+01  0.12643027127E+02  0.12818755136E+02  0.00000000000E+00 0.  1.
<mgrwt>
<rscale>  0 0.80396743E+02</rscale>
<asrwt>0</asrwt>
<pdfrwt beam="1">  1        2 0.18481204E-01 0.80396743E+02</pdfrwt>
<pdfrwt beam="2">  1       -1 0.20694739E-02 0.80396743E+02</pdfrwt>
<totfact> 0.18447449E+05</totfact>
</mgrwt>
</event>
<event>
 8    1  0.2676873E-016  0.8025198E+02  0.7818608E-02  0.1328338E+00
         -1   -1    0    0    0  501 -0.00000000000E+00  0.00000000000E+00  0.85824804852E+02  0.85824805000E+02  0.50400000000E-02 0.  1.
          2   -1    0    0  501    0  0.00000000000E+00 -0.00000000000E+00 -0.18760252246E+02  0.18760252419E+02  0.25500000000E-02 0. -1.
         24    2    1    2    0    0  0.71054273576E-14 -0.35527136788E-14  0.67064552606E+02  0.10458505742E+03  0.80251978288E+02 0.  0.
         66    2    3    3    0    0  0.26829659980E+02 -0.14691823906E+02  0.67346365623E+02  0.73994684311E+02  0.19999998136E+01 0.  0.
        -13    1    3    3    0    0 -0.26829659980E+02  0.14691823906E+02 -0.28181301766E+00  0.30590373109E+02  0.10566000000E+00 0.  1.
         13    1    4    4    0    0  0.35942050162E+01 -0.15224756065E+01  0.97406975232E+01  0.10494217167E+02  0.10566000000E+00 0.  1.
        -13    1    4    4    0    0  0.81579272802E+01 -0.42216170690E+01  0.19869446282E+02  0.21890177884E+02  0.10566000000E+00 0. -1.
        -14    1    4    4    0    0  0.15077527683E+02 -0.89477312307E+01  0.37736221818E+02  0.41610289260E+02  0.00000000000E+00 0.  1.
<mgrwt>
<rscale>  0 0.80251978E+02</rscale>
<asrwt>0</asrwt>
<pdfrwt beam="1">  1        2 0.28861928E-02 0.80251978E+02</pdfrwt>
<pdfrwt beam="2">  1       -1 0.13203816E-01 0.80251978E+02</pdfrwt>
<totfact> 0.12144209E+05</totfact>
</mgrwt>
</event>
<event>
 8    1  0.2676873E-016  0.7693563E+02  0.7818608E-02  0.1337980E+00
          2   -1    0    0  501    0  0.00000000000E+00  0.00000000000E+00  0.83941307190E+03  0.83941307191E+03  0.25500000000E-02 0. -1.
         -1   -1    0    0    0  501 -0.00000000000E+00 -0.00000000000E+00 -0.17628623554E+01  0.17628695600E+01  0.50400000000E-02 0.  1.
         24    2    1    2    0    0  0.44408920985E-15 -0.17763568394E-14  0.83765020955E+03  0.84117594147E+03  0.76935628596E+02 0.  0.
         66    2    3    3    0    0  0.24093677625E+01 -0.11577556379E+02  0.81902897476E+03  0.81911678432E+03  0.20000010367E+01 0.  0.
        -13    1    3    3    0    0 -0.24093677625E+01  0.11577556379E+02  0.18621234790E+02  0.22059157143E+02  0.10566000000E+00 0.  1.
         13    1    4    4    0    0  0.32391223024E+00 -0.58286320011E+00  0.32515912010E+02  0.32522920326E+02  0.10566000000E+00 0. -1.
        -13    1    4    4    0    0  0.23606463955E+00 -0.19776935596E+01  0.10860907625E+03  0.10862738884E+03  0.10566000000E+00 0.  1.
         14    1    4    4    0    0  0.18493908927E+01 -0.90169996188E+01  0.67790398650E+03  0.67796647516E+03  0.00000000000E+00 0. -1.
<mgrwt>
<rscale>  0 0.76935629E+02</rscale>
<asrwt>0</asrwt>
<pdfrwt beam="1">  1        2 0.12914044E+00 0.76935629E+02</pdfrwt>
<pdfrwt beam="2">  1       -1 0.27121021E-03 0.76935629E+02</pdfrwt>
<totfact> 0.38321890E+05</totfact>
</mgrwt>
</event>
<event>
 8    1  0.2676873E-016  0.7936706E+02  0.7818608E-02  0.1330857E+00
          2   -1    0    0  501    0  0.00000000000E+00  0.00000000000E+00  0.60658132176E+02  0.60658132230E+02  0.25500000000E-02 0. -1.
         -1   -1    0    0    0  501 -0.00000000000E+00 -0.00000000000E+00 -0.25961606218E+02  0.25961606707E+02  0.50400000000E-02 0.  1.
         24    2    1    2    0    0  0.71054273576E-14  0.11102230246E-15  0.34696525958E+02  0.86619738937E+02  0.79367060295E+02 0.  0.
         66    2    3    3    0    0 -0.32220635977E+02 -0.68633116005E+00 -0.78641140226E+01  0.33233788792E+02  0.19999987203E+01 0.  0.
        -13    1    3    3    0    0  0.32220635977E+02  0.68633116005E+00  0.42560639981E+02  0.53385950145E+02  0.10566000000E+00 0.  1.
         13    1    4    4    0    0 -0.12306635045E+02 -0.20087038876E+00 -0.30700440138E+01  0.12685816856E+02  0.10566000000E+00 0. -1.
        -13    1    4    4    0    0 -0.51830220478E+01  0.51954306461E+00 -0.14647177490E+01  0.54120425593E+01  0.10566000000E+00 0.  1.
        -14    1    4    4    0    0 -0.14730978885E+02 -0.10050038359E+01 -0.33293522598E+01  0.15135929376E+02  0.00000000000E+00 0.  1.
<mgrwt>
<rscale>  0 0.79367060E+02</rscale>
<asrwt>0</asrwt>
<pdfrwt beam="1">  1        2 0.93320201E-02 0.79367060E+02</pdfrwt>
<pdfrwt beam="2">  1       -1 0.39940934E-02 0.79367060E+02</pdfrwt>
<totfact> 0.15946143E+05</totfact>
</mgrwt>
</event>
<event>
 8    1  0.2676873E-016  0.7878461E+02  0.7818608E-02  0.1332536E+00
          2   -1    0    0  501    0  0.00000000000E+00  0.00000000000E+00  0.19160220792E+03  0.19160220793E+03  0.25500000000E-02 0. -1.
         -1   -1    0    0    0  501 -0.00000000000E+00 -0.00000000000E+00 -0.80988293056E+01  0.80988308738E+01  0.50400000000E-02 0.  1.
         24    2    1    2    0    0  0.17763568394E-14  0.00000000000E+00  0.18350337861E+03  0.19970103881E+03  0.78784611055E+02 0.  0.
         66    2    3    3    0    0 -0.13315937796E+02 -0.58790980085E+01  0.18452480102E+03  0.18510883334E+03  0.19999983367E+01 0.  0.
        -13    1    3    3    0    0  0.13315937796E+02  0.58790980085E+01 -0.10214224113E+01  0.14592205473E+02  0.10566000000E+00 0.  1.
         13    1    4    4    0    0 -0.23313586432E+01 -0.91031332794E+00  0.26491120688E+02  0.26609294294E+02  0.10566000000E+00 0. -1.
        -13    1    4    4    0    0 -0.57890063610E+01 -0.27737951558E+01  0.74826570740E+02  0.75101487249E+02  0.10566000000E+00 0.  1.
         14    1    4    4    0    0 -0.51955727921E+01 -0.21949895248E+01  0.83207109596E+02  0.83398051793E+02  0.00000000000E+00 0. -1.
<mgrwt>
<rscale>  0 0.78784611E+02</rscale>
<asrwt>0</asrwt>
<pdfrwt beam="1">  1        2 0.29477261E-01 0.78784611E+02</pdfrwt>
<pdfrwt beam="2">  1       -1 0.12459739E-02 0.78784611E+02</pdfrwt>
<totfact> 0.22629639E+05</totfact>
</mgrwt>
</event>
<event>
 8    1  0.2676873E-016  0.7947108E+02  0.7818608E-02  0.1330559E+00
          2   -1    0    0  501    0  0.00000000000E+00  0.00000000000E+00  0.99479781473E+01  0.99479784741E+01  0.25500000000E-02 0. -1.
         -1   -1    0    0    0  501 -0.00000000000E+00 -0.00000000000E+00 -0.15871699034E+03  0.15871699042E+03  0.50400000000E-02 0.  1.
         24    2    1    2    0    0  0.35527136788E-14  0.00000000000E+00 -0.14876901219E+03  0.16866496889E+03  0.79471081175E+02 0.  0.
         66    2    3    3    0    0 -0.29844757226E+02 -0.18332768930E+02 -0.11414304708E+03  0.11941287681E+03  0.20000001905E+01 0.  0.
        -13    1    3    3    0    0  0.29844757226E+02  0.18332768930E+02 -0.34625965109E+02  0.49252092080E+02  0.10566000000E+00 0.  1.
         13    1    4    4    0    0 -0.10713637287E+02 -0.63941026820E+01 -0.41267021904E+02  0.43112003362E+02  0.10566000000E+00 0. -1.
        -13    1    4    4    0    0 -0.19005101482E+02 -0.11659129118E+02 -0.71893752727E+02  0.75271854098E+02  0.10566000000E+00 0.  1.
        -14    1    4    4    0    0 -0.12601845750E+00 -0.27953712953E+00 -0.98227244770E+00  0.10290193487E+01  0.00000000000E+00 0.  1.
<mgrwt>
<rscale>  0 0.79471081E+02</rscale>
<asrwt>0</asrwt>
<pdfrwt beam="1">  1        2 0.15304583E-02 0.79471081E+02</pdfrwt>
<pdfrwt beam="2">  1       -1 0.24417997E-01 0.79471081E+02</pdfrwt>
<totfact> 0.10810722E+05</totfact>
</mgrwt>
</event>
<event>
 8    1  0.2676873E-016  0.7904839E+02  0.7818608E-02  0.1331774E+00
          2   -1    0    0  501    0  0.00000000000E+00  0.00000000000E+00  0.58724237443E+03  0.58724237444E+03  0.25500000000E-02 0. -1.
         -1   -1    0    0    0  501 -0.00000000000E+00 -0.00000000000E+00 -0.26601630674E+01  0.26601678418E+01  0.50400000000E-02 0.  1.
         24    2    1    2    0    0  0.17763568394E-14 -0.35527136788E-14  0.58458221136E+03  0.58990254228E+03  0.79048387357E+02 0.  0.
         66    2    3    3    0    0  0.10692885181E+02 -0.26279078217E+02  0.49755926283E+03  0.49837149574E+03  0.19999974632E+01 0.  0.
        -13    1    3    3    0    0 -0.10692885181E+02  0.26279078217E+02  0.87022948532E+02  0.91531046540E+02  0.10566000000E+00 0.  1.
         13    1    4    4    0    0  0.34552876593E+01 -0.10902897563E+02  0.19944679028E+03  0.19977448663E+03  0.10566000000E+00 0. -1.
        -13    1    4    4    0    0  0.34422251174E+01 -0.77905667388E+01  0.15253523979E+03  0.15277287843E+03  0.10566000000E+00 0.  1.
        -14    1    4    4    0    0  0.37953724044E+01 -0.75856139146E+01  0.14557723276E+03  0.14582413068E+03  0.00000000000E+00 0.  1.
<mgrwt>
<rscale>  0 0.79048387E+02</rscale>
<asrwt>0</asrwt>
<pdfrwt beam="1">  1        2 0.90345014E-01 0.79048387E+02</pdfrwt>
<pdfrwt beam="2">  1       -1 0.40925608E-03 0.79048387E+02</pdfrwt>
<totfact> 0.32980426E+05</totfact>
</mgrwt>
</event>
<event>
 8    1  0.2676873E-016  0.7894021E+02  0.7818608E-02  0.1332086E+00
         -1   -1    0    0    0  501 -0.00000000000E+00  0.00000000000E+00  0.63914561170E+01  0.63914581042E+01  0.50400000000E-02 0.  1.
          2   -1    0    0  501    0  0.00000000000E+00 -0.00000000000E+00 -0.24374555411E+03  0.24374555412E+03  0.25500000000E-02 0. -1.
         24    2    1    2    0    0  0.00000000000E+00  0.00000000000E+00 -0.23735409799E+03  0.25013701222E+03  0.78940211882E+02 0.  0.
         66    2    3    3    0    0  0.12992788714E+02 -0.35825475876E+02 -0.86499703741E+02  0.94543513940E+02  0.20000001157E+01 0.  0.
        -13    1    3    3    0    0 -0.12992788714E+02  0.35825475876E+02 -0.15085439425E+03  0.15559349828E+03  0.10566000000E+00 0.  1.
         13    1    4    4    0    0  0.64030897304E+01 -0.17131653770E+02 -0.40499821473E+02  0.44438044763E+02  0.10566000000E+00 0. -1.
        -13    1    4    4    0    0  0.60178865733E+01 -0.17887635139E+02 -0.43871135452E+02  0.47758456210E+02  0.10566000000E+00 0.  1.
        -14    1    4    4    0    0  0.57181241047E+00 -0.80618696700E+00 -0.21287468163E+01  0.23470129668E+01  0.00000000000E+00 0.  1.
<mgrwt>
<rscale>  0 0.78940212E+02</rscale>
<asrwt>0</asrwt>
<pdfrwt beam="1">  1        2 0.37499309E-01 0.78940212E+02</pdfrwt>
<pdfrwt beam="2">  1       -1 0.98330129E-03 0.78940212E+02</pdfrwt>
<totfact> 0.24496722E+05</totfact>
</mgrwt>
</event>
<event>
 8    1  0.2676873E-016  0.7930354E+02  0.7818608E-02  0.1331040E+00
          2   -1    0    0  501    0  0.00000000000E+00  0.00000000000E+00  0.75458063142E+01  0.75458067451E+01  0.25500000000E-02 0. -1.
         -1   -1    0    0    0  501 -0.00000000000E+00 -0.00000000000E+00 -0.20836246481E+03  0.20836246487E+03  0.50400000000E-02 0.  1.
         24    2    1    2    0    0  0.00000000000E+00 -0.88817841970E-15 -0.20081665850E+03  0.21590827162E+03  0.79303539787E+02 0.  0.
         66    2    3    3    0    0 -0.38743034387E+02  0.76916863355E+01 -0.91831103625E+02  0.99985680692E+02  0.19999995427E+01 0.  0.
        -13    1    3    3    0    0  0.38743034387E+02 -0.76916863355E+01 -0.10898555487E+03  0.11592259092E+03  0.10566000000E+00 0.  1.
         13    1    4    4    0    0 -0.71974424573E+01  0.17802113112E+01 -0.16924761807E+02  0.18477853135E+02  0.10566000000E+00 0. -1.
        -13    1    4    4    0    0 -0.88315227571E+01  0.19542981004E+01 -0.22765094241E+02  0.24496443723E+02  0.10566000000E+00 0.  1.
         14    1    4    4    0    0 -0.22714069172E+02  0.39571769238E+01 -0.52141247578E+02  0.57011383833E+02  0.00000000000E+00 0. -1.
<mgrwt>
<rscale>  0 0.79303540E+02</rscale>
<asrwt>0</asrwt>
<pdfrwt beam="1">  1        2 0.11608935E-02 0.79303540E+02</pdfrwt>
<pdfrwt beam="2">  1       -1 0.32055760E-01 0.79303540E+02</pdfrwt>
<totfact> 0.10057589E+05</totfact>
</mgrwt>
</event>
<event>
 8    1  0.2676873E-016  0.8651989E+02  0.7818608E-02  0.1311505E+00
         -1   -1    0    0    0  501 -0.00000000000E+00  0.00000000000E+00  0.15334187347E+01  0.15334270173E+01  0.50400000000E-02 0.  1.
          2   -1    0    0  501    0  0.00000000000E+00 -0.00000000000E+00 -0.12204219312E+04  0.12204219312E+04  0.25500000000E-02 0. -1.
         24    2    1    2    0    0  0.35527136788E-14  0.17763568394E-14 -0.12188885125E+04  0.12219553582E+04  0.86519891717E+02 0.  0.
         66    2    3    3    0    0 -0.27150716040E+02  0.12448458505E+02 -0.10512902709E+04  0.10517163872E+04  0.20000000404E+01 0.  0.
        -13    1    3    3    0    0  0.27150716040E+02 -0.12448458505E+02 -0.16759824161E+03  0.17023897102E+03  0.10566000000E+00 0.  1.
         13    1    4    4    0    0 -0.16729359342E+02  0.83876487651E+01 -0.65803565781E+03  0.65830172583E+03  0.10566000000E+00 0. -1.
        -13    1    4    4    0    0 -0.58855003267E+01  0.25329151131E+01 -0.23827624148E+03  0.23836239886E+03  0.10566000000E+00 0.  1.
        -14    1    4    4    0    0 -0.45358563704E+01  0.15278946272E+01 -0.15497837158E+03  0.15505226252E+03  0.00000000000E+00 0.  1.
<mgrwt>
<rscale>  0 0.86519892E+02</rscale>
<asrwt>0</asrwt>
<pdfrwt beam="1">  1        2 0.18775644E+00 0.86519892E+02</pdfrwt>
<pdfrwt beam="2">  1       -1 0.23591219E-03 0.86519892E+02</pdfrwt>
<totfact> 0.28507837E+05</totfact>
</mgrwt>
</event>
<event>
 8    1  0.2676873E-016  0.8170991E+02  0.7818608E-02  0.1324268E+00
          2   -1    0    0  501    0  0.00000000000E+00  0.00000000000E+00  0.66926355895E+03  0.66926355896E+03  0.25500000000E-02 0. -1.
         -1   -1    0    0    0  501 -0.00000000000E+00 -0.00000000000E+00 -0.24939737026E+01  0.24939787952E+01  0.50400000000E-02 0.  1.
         24    2    1    2    0    0 -0.17763568394E-14  0.00000000000E+00  0.66676958525E+03  0.67175753775E+03  0.81709911964E+02 0.  0.
         66    2    3    3    0    0  0.12710672259E+02 -0.25485337755E+02  0.57412524489E+03  0.57483463750E+03  0.20000032785E+01 0.  0.
        -13    1    3    3    0    0 -0.12710672259E+02  0.25485337755E+02  0.92644340357E+02  0.96922900255E+02  0.10566000000E+00 0.  1.
         13    1    4    4    0    0  0.11734579643E+02 -0.24132449874E+02  0.53927200799E+03  0.53993924220E+03  0.10566000000E+00 0. -1.
        -13    1    4    4    0    0  0.13344452992E+00 -0.10887249968E+00  0.30507263179E+01  0.30574099767E+01  0.10566000000E+00 0. -1.
         14    1    4    4    0    0  0.84264808580E+00 -0.12440153810E+01  0.31802510580E+02  0.31837985321E+02  0.00000000000E+00 0. -1.
<mgrwt>
<rscale>  0 0.81709912E+02</rscale>
<asrwt>0</asrwt>
<pdfrwt beam="1">  1        2 0.10296359E+00 0.81709912E+02</pdfrwt>
<pdfrwt beam="2">  1       -1 0.38368879E-03 0.81709912E+02</pdfrwt>
<totfact> 0.31324992E+05</totfact>
</mgrwt>
</event>
<event>
 8    1  0.2813699E-016  0.7918349E+02  0.7818608E-02  0.1331385E+00
         -1   -1    0    0    0  501 -0.00000000000E+00  0.00000000000E+00  0.11500650957E+02  0.11500652061E+02  0.50400000000E-02 0.  1.
          2   -1    0    0  501    0  0.00000000000E+00 -0.00000000000E+00 -0.13629715389E+03  0.13629715392E+03  0.25500000000E-02 0. -1.
         24    2    1    2    0    0  0.00000000000E+00  0.35527136788E-14 -0.12479650294E+03  0.14779780598E+03  0.79183485065E+02 0.  0.
         66    2    3    3    0    0  0.17619139637E+02  0.17330899302E+02 -0.12011040062E+03  0.12264298793E+03  0.19999999204E+01 0.  0.
        -13    1    3    3    0    0 -0.17619139637E+02 -0.17330899302E+02 -0.46861023207E+01  0.25154818051E+02  0.10566000000E+00 0.  1.
         13    1    4    4    0    0  0.15085576072E+00  0.31884235400E+00 -0.19985682727E+01  0.20322049807E+01  0.10566000000E+00 0.  1.
        -13    1    4    4    0    0  0.13057560250E+01  0.10004384058E+01 -0.94682032707E+01  0.96106146012E+01  0.10566000000E+00 0.  1.
         14    1    4    4    0    0  0.16162527851E+02  0.16011618543E+02 -0.10864362907E+03  0.11100016835E+03  0.00000000000E+00 0. -1.
<mgrwt>
<rscale>  0 0.79183485E+02</rscale>
<asrwt>0</asrwt>
<pdfrwt beam="1">  1        2 0.20968792E-01 0.79183485E+02</pdfrwt>
<pdfrwt beam="2">  1       -1 0.17693311E-02 0.79183485E+02</pdfrwt>
<totfact> 0.19966772E+05</totfact>
</mgrwt>
</event>
<event>
 8    1  0.2676873E-016  0.7902910E+02  0.7818608E-02  0.1331829E+00
         -1   -1    0    0    0  501 -0.00000000000E+00  0.00000000000E+00  0.95203714752E+01  0.95203728093E+01  0.50400000000E-02 0.  1.
          2   -1    0    0  501    0  0.00000000000E+00 -0.00000000000E+00 -0.16400616343E+03  0.16400616345E+03  0.25500000000E-02 0. -1.
         24    2    1    2    0    0  0.00000000000E+00  0.00000000000E+00 -0.15448579196E+03  0.17352653626E+03  0.79029101414E+02 0.  0.
         66    2    3    3    0    0  0.33050745645E+01  0.17970981371E+02 -0.15415891897E+03  0.15525093233E+03  0.20000003195E+01 0.  0.
        -13    1    3    3    0    0 -0.33050745645E+01 -0.17970981371E+02 -0.32687299084E+00  0.18275603938E+02  0.10566000000E+00 0.  1.
         13    1    4    4    0    0  0.14945788179E+01  0.71432231054E+01 -0.68512397249E+02  0.68900066350E+02  0.10566000000E+00 0. -1.
        -13    1    4    4    0    0  0.18620463769E+01  0.10254899887E+02 -0.81859015983E+02  0.82519936077E+02  0.10566000000E+00 0.  1.
        -14    1    4    4    0    0 -0.51550630318E-01  0.57285837824E+00 -0.37875057359E+01  0.38309298987E+01  0.00000000000E+00 0.  1.
<mgrwt>
<rscale>  0 0.79029101E+02</rscale>
<asrwt>0</asrwt>
<pdfrwt beam="1">  1        2 0.25231715E-01 0.79029101E+02</pdfrwt>
<pdfrwt beam="2">  1       -1 0.14646728E-02 0.79029101E+02</pdfrwt>
<totfact> 0.21299540E+05</totfact>
</mgrwt>
</event>
<event>
 8    1  0.2676873E-016  0.7860292E+02  0.7818608E-02  0.1333064E+00
          2   -1    0    0  501    0  0.00000000000E+00  0.00000000000E+00  0.69360898250E+01  0.69360902937E+01  0.25500000000E-02 0. -1.
         -1   -1    0    0    0  501 -0.00000000000E+00 -0.00000000000E+00 -0.22269100683E+03  0.22269100689E+03  0.50400000000E-02 0.  1.
         24    2    1    2    0    0 -0.35527136788E-14 -0.35527136788E-14 -0.21575491701E+03  0.22962709718E+03  0.78602923278E+02 0.  0.
         66    2    3    3    0    0  0.26684453704E+02  0.17187304880E+02 -0.40367336925E+02  0.51390518643E+02  0.19999993720E+01 0.  0.
        -13    1    3    3    0    0 -0.26684453704E+02 -0.17187304880E+02 -0.17538758008E+03  0.17823657854E+03  0.10566000000E+00 0.  1.
         13    1    4    4    0    0  0.48082904219E+01  0.32463208208E+01 -0.66477302572E+01  0.88239298083E+01  0.10566000000E+00 0. -1.
        -13    1    4    4    0    0  0.40291387525E+01  0.21343419908E+01 -0.65636389646E+01  0.79926150485E+01  0.10566000000E+00 0.  1.
        -14    1    4    4    0    0  0.17847024529E+02  0.11806642068E+02 -0.27155967703E+02  0.34573973786E+02  0.00000000000E+00 0.  1.
<mgrwt>
<rscale>  0 0.78602923E+02</rscale>
<asrwt>0</asrwt>
<pdfrwt beam="1">  1        2 0.10670910E-02 0.78602923E+02</pdfrwt>
<pdfrwt beam="2">  1       -1 0.34260150E-01 0.78602923E+02</pdfrwt>
<totfact> 0.10072920E+05</totfact>
</mgrwt>
</event>
<event>
 8    1  0.2676873E-016  0.8658857E+02  0.7818608E-02  0.1311330E+00
          2   -1    0    0  501    0  0.00000000000E+00  0.00000000000E+00  0.11053511410E+04  0.11053511410E+04  0.25500000000E-02 0. -1.
         -1   -1    0    0    0  501 -0.00000000000E+00 -0.00000000000E+00 -0.16957426221E+01  0.16957501119E+01  0.50400000000E-02 0.  1.
         24    2    1    2    0    0  0.88817841970E-15  0.00000000000E+00  0.11036553984E+04  0.11070468911E+04  0.86588571755E+02 0.  0.
         66    2    3    3    0    0  0.63260128501E+01  0.19340407079E+02  0.10403596521E+04  0.10405605584E+04  0.20000184854E+01 0.  0.
        -13    1    3    3    0    0 -0.63260128501E+01 -0.19340407079E+02  0.63295746253E+02  0.66486332749E+02  0.10566000000E+00 0.  1.
         13    1    4    4    0    0  0.40798296535E+01  0.11058469627E+02  0.59599027845E+03  0.59610683432E+03  0.10566000000E+00 0. -1.
        -13    1    4    4    0    0  0.11213470033E+01  0.21817334013E+01  0.12430677215E+03  0.12433101843E+03  0.10566000000E+00 0.  1.
         14    1    4    4    0    0  0.11248361933E+01  0.61002040510E+01  0.32006260154E+03  0.32012270562E+03  0.00000000000E+00 0. -1.
<mgrwt>
<rscale>  0 0.86588572E+02</rscale>
<asrwt>0</asrwt>
<pdfrwt beam="1">  1        2 0.17005330E+00 0.86588572E+02</pdfrwt>
<pdfrwt beam="2">  1       -1 0.26088516E-03 0.86588572E+02</pdfrwt>
<totfact> 0.28675962E+05</totfact>
</mgrwt>
</event>
<event>
 8    1  0.2676873E-016  0.8213254E+02  0.7818608E-02  0.1323106E+00
         -1   -1    0    0    0  501 -0.00000000000E+00  0.00000000000E+00  0.12304407754E+02  0.12304408786E+02  0.50400000000E-02 0.  1.
          2   -1    0    0  501    0  0.00000000000E+00 -0.00000000000E+00 -0.13705969019E+03  0.13705969021E+03  0.25500000000E-02 0. -1.
         24    2    1    2    0    0 -0.88817841970E-15  0.00000000000E+00 -0.12475528243E+03  0.14936409900E+03  0.82132536636E+02 0.  0.
         66    2    3    3    0    0  0.70445819012E+01 -0.24639863448E+02 -0.12071349397E+03  0.12342000096E+03  0.20000012920E+01 0.  0.
        -13    1    3    3    0    0 -0.70445819012E+01  0.24639863448E+02 -0.40417884594E+01  0.25944098036E+02  0.10566000000E+00 0.  1.
         13    1    4    4    0    0  0.49199001586E+01 -0.17939388198E+02 -0.90171875110E+02  0.92070653801E+02  0.10566000000E+00 0. -1.
        -13    1    4    4    0    0  0.85923698713E+00 -0.16967988343E+01 -0.77546085337E+01  0.79851444590E+01  0.10566000000E+00 0.  1.
         14    1    4    4    0    0  0.12654447554E+01 -0.50036764161E+01 -0.22787010329E+02  0.23364202701E+02  0.00000000000E+00 0. -1.
<mgrwt>
<rscale>  0 0.82132537E+02</rscale>
<asrwt>0</asrwt>
<pdfrwt beam="1">  1        2 0.21086105E-01 0.82132537E+02</pdfrwt>
<pdfrwt beam="2">  1       -1 0.18929860E-02 0.82132537E+02</pdfrwt>
<totfact> 0.18147157E+05</totfact>
</mgrwt>
</event>
<event>
 8    1  0.2676873E-016  0.8532492E+02  0.7818608E-02  0.1314585E+00
         -1   -1    0    0    0  501 -0.00000000000E+00  0.00000000000E+00  0.16846960308E+01  0.16847035697E+01  0.50400000000E-02 0.  1.
          2   -1    0    0  501    0  0.00000000000E+00 -0.00000000000E+00 -0.10803618327E+04  0.10803618327E+04  0.25500000000E-02 0. -1.
         24    2    1    2    0    0 -0.17763568394E-14  0.00000000000E+00 -0.10786771367E+04  0.10820465363E+04  0.85324917151E+02 0.  0.
         66    2    3    3    0    0  0.15818136607E+02  0.27922052973E+02 -0.89567128629E+03  0.89624823993E+03  0.19999999935E+01 0.  0.
        -13    1    3    3    0    0 -0.15818136607E+02 -0.27922052973E+02 -0.18300585039E+03  0.18579829635E+03  0.10566000000E+00 0.  1.
         13    1    4    4    0    0  0.10205805330E+02  0.18313428750E+02 -0.58429640980E+03  0.58467242607E+03  0.10566000000E+00 0. -1.
        -13    1    4    4    0    0  0.69922932882E+00  0.88617960181E+00 -0.40979116562E+02  0.40994797160E+02  0.10566000000E+00 0.  1.
        -14    1    4    4    0    0  0.49131019486E+01  0.87224446211E+01 -0.27039575993E+03  0.27058101670E+03  0.00000000000E+00 0.  1.
<mgrwt>
<rscale>  0 0.85324917E+02</rscale>
<asrwt>0</asrwt>
<pdfrwt beam="1">  1        2 0.16620896E+00 0.85324917E+02</pdfrwt>
<pdfrwt beam="2">  1       -1 0.25918545E-03 0.85324917E+02</pdfrwt>
<totfact> 0.29817863E+05</totfact>
</mgrwt>
</event>
<event>
 8    1  0.2676873E-016  0.7974603E+02  0.7818608E-02  0.1329774E+00
         -1   -1    0    0    0  501 -0.00000000000E+00  0.00000000000E+00  0.25630871377E+01  0.25630920930E+01  0.50400000000E-02 0.  1.
          2   -1    0    0  501    0  0.00000000000E+00 -0.00000000000E+00 -0.62028944167E+03  0.62028944167E+03  0.25500000000E-02 0. -1.
         24    2    1    2    0    0  0.00000000000E+00  0.00000000000E+00 -0.61772635453E+03  0.62285253376E+03  0.79746032740E+02 0.  0.
         66    2    3    3    0    0 -0.33045038724E+02 -0.19028653086E+02 -0.39939795822E+03  0.40121913370E+03  0.19999998593E+01 0.  0.
        -13    1    3    3    0    0  0.33045038724E+02  0.19028653086E+02 -0.21832839631E+03  0.22163340006E+03  0.10566000000E+00 0.  1.
         13    1    4    4    0    0 -0.41510924454E+01 -0.22052587889E+01 -0.46969647086E+02  0.47204381643E+02  0.10566000000E+00 0.  1.
        -13    1    4    4    0    0 -0.12076363224E+02 -0.74755272446E+01 -0.15750201187E+03  0.15814112989E+03  0.10566000000E+00 0.  1.
         14    1    4    4    0    0 -0.16817583055E+02 -0.93478670529E+01 -0.19492629926E+03  0.19587362217E+03  0.00000000000E+00 0. -1.
<mgrwt>
<rscale>  0 0.79746033E+02</rscale>
<asrwt>0</asrwt>
<pdfrwt beam="1">  1        2 0.95429025E-01 0.79746033E+02</pdfrwt>
<pdfrwt beam="2">  1       -1 0.39432198E-03 0.79746033E+02</pdfrwt>
<totfact> 0.32727064E+05</totfact>
</mgrwt>
</event>
<event>
 8    1  0.2676873E-016  0.7903446E+02  0.7818608E-02  0.1331814E+00
         -1   -1    0    0    0  501 -0.00000000000E+00  0.00000000000E+00  0.10945017295E+03  0.10945017307E+03  0.50400000000E-02 0.  1.
          2   -1    0    0  501    0  0.00000000000E+00 -0.00000000000E+00 -0.14267782434E+02  0.14267782662E+02  0.25500000000E-02 0. -1.
         24    2    1    2    0    0  0.00000000000E+00  0.00000000000E+00  0.95182390518E+02  0.12371795573E+03  0.79034455177E+02 0.  0.
         66    2    3    3    0    0 -0.19372509494E+02 -0.26459721791E+02  0.13176555768E+02  0.35398200870E+02  0.20000003918E+01 0.  0.
        -13    1    3    3    0    0  0.19372509494E+02  0.26459721791E+02  0.82005834749E+02  0.88319754859E+02  0.10566000000E+00 0.  1.
         13    1    4    4    0    0 -0.70483366782E+01 -0.93785944772E+01  0.43106838677E+01  0.12499209725E+02  0.10566000000E+00 0. -1.
        -13    1    4    4    0    0 -0.71422447230E+01 -0.86923981601E+01  0.45658146137E+01  0.12141963292E+02  0.10566000000E+00 0.  1.
         14    1    4    4    0    0 -0.51819280931E+01 -0.83887291537E+01  0.43000572871E+01  0.10757027854E+02  0.00000000000E+00 0. -1.
<mgrwt>
<rscale>  0 0.79034455E+02</rscale>
<asrwt>0</asrwt>
<pdfrwt beam="1">  1        2 0.21950435E-02 0.79034455E+02</pdfrwt>
<pdfrwt beam="2">  1       -1 0.16838488E-01 0.79034455E+02</pdfrwt>
<totfact> 0.11980927E+05</totfact>
</mgrwt>
</event>
<event>
 8    1  0.2676873E-016  0.8027766E+02  0.7818608E-02  0.1328265E+00
          2   -1    0    0  501    0  0.00000000000E+00  0.00000000000E+00  0.25843911577E+03  0.25843911578E+03  0.25500000000E-02 0. -1.
         -1   -1    0    0    0  501 -0.00000000000E+00 -0.00000000000E+00 -0.62340614214E+01  0.62340634587E+01  0.50400000000E-02 0.  1.
         24    2    1    2    0    0  0.00000000000E+00 -0.22204460493E-15  0.25220505434E+03  0.26467317924E+03  0.80277657979E+02 0.  0.
         66    2    3    3    0    0  0.36877368194E+02  0.10829906032E+01  0.74259031138E+02  0.82942852950E+02  0.19999990653E+01 0.  0.
        -13    1    3    3    0    0 -0.36877368194E+02 -0.10829906032E+01  0.17794602321E+03  0.18173032629E+03  0.10566000000E+00 0.  1.
         13    1    4    4    0    0  0.20777137361E+02  0.60345916467E+00  0.41076679536E+02  0.46036489502E+02  0.10566000000E+00 0. -1.
        -13    1    4    4    0    0  0.77839252592E+00  0.10086131514E+00  0.11519893683E+01  0.13979669057E+01  0.10566000000E+00 0.  1.
         14    1    4    4    0    0  0.15321838307E+02  0.37867012336E+00  0.32030362234E+02  0.35508396542E+02  0.00000000000E+00 0. -1.
<mgrwt>
<rscale>  0 0.80277658E+02</rscale>
<asrwt>0</asrwt>
<pdfrwt beam="1">  1        2 0.39759869E-01 0.80277658E+02</pdfrwt>
<pdfrwt beam="2">  1       -1 0.95908642E-03 0.80277658E+02</pdfrwt>
<totfact> 0.23935736E+05</totfact>
</mgrwt>
</event>
<event>
 8    1  0.2676873E-016  0.8013596E+02  0.7818608E-02  0.1328666E+00
         -1   -1    0    0    0  501 -0.00000000000E+00  0.00000000000E+00  0.20051370047E+02  0.20051370680E+02  0.50400000000E-02 0.  1.
          2   -1    0    0  501    0  0.00000000000E+00 -0.00000000000E+00 -0.80066494204E+02  0.80066494245E+02  0.25500000000E-02 0. -1.
         24    2    1    2    0    0  0.00000000000E+00 -0.35527136788E-14 -0.60015124158E+02  0.10011786493E+03  0.80135957906E+02 0.  0.
         66    2    3    3    0    0 -0.29625841334E+02  0.23708108141E+02 -0.46009735174E+02  0.59671271114E+02  0.19999997971E+01 0.  0.
        -13    1    3    3    0    0  0.29625841334E+02 -0.23708108141E+02 -0.14005388983E+02  0.40446593811E+02  0.10566000000E+00 0.  1.
         13    1    4    4    0    0 -0.11879100911E+02  0.98769777454E+01 -0.17944892630E+02  0.23679063819E+02  0.10566000000E+00 0. -1.
        -13    1    4    4    0    0 -0.77022877732E+01  0.54911091077E+01 -0.11063619706E+02  0.14556522978E+02  0.10566000000E+00 0.  1.
         14    1    4    4    0    0 -0.10044452649E+02  0.83400212878E+01 -0.17001222838E+02  0.21435684316E+02  0.00000000000E+00 0. -1.
<mgrwt>
<rscale>  0 0.80135958E+02</rscale>
<asrwt>0</asrwt>
<pdfrwt beam="1">  1        2 0.12317922E-01 0.80135958E+02</pdfrwt>
<pdfrwt beam="2">  1       -1 0.30848263E-02 0.80135958E+02</pdfrwt>
<totfact> 0.16622940E+05</totfact>
</mgrwt>
</event>
<event>
 8    1  0.2676873E-016  0.7958077E+02  0.7818608E-02  0.1330245E+00
          2   -1    0    0  501    0  0.00000000000E+00  0.00000000000E+00  0.34082712081E+02  0.34082712177E+02  0.25500000000E-02 0. -1.
         -1   -1    0    0    0  501 -0.00000000000E+00 -0.00000000000E+00 -0.46453893384E+02  0.46453893658E+02  0.50400000000E-02 0.  1.
         24    2    1    2    0    0  0.35527136788E-14  0.35527136788E-14 -0.12371181303E+02  0.80536605835E+02  0.79580768736E+02 0.  0.
         66    2    3    3    0    0 -0.31191796963E+02  0.24603848476E+02 -0.44389257799E+01  0.40024763130E+02  0.20000109697E+01 0.  0.
        -13    1    3    3    0    0  0.31191796963E+02 -0.24603848476E+02 -0.79322555231E+01  0.40511842705E+02  0.10566000000E+00 0.  1.
         13    1    4    4    0    0 -0.17362400679E+02  0.14663385834E+02 -0.25018909332E+01  0.22863474446E+02  0.10566000000E+00 0. -1.
        -13    1    4    4    0    0 -0.37179583620E+00  0.20902319927E+00  0.13816829774E-01  0.43963369074E+00  0.10566000000E+00 0.  1.
         14    1    4    4    0    0 -0.13457600448E+02  0.97314394430E+01 -0.19508516765E+01  0.16721654993E+02  0.00000000000E+00 0. -1.
<mgrwt>
<rscale>  0 0.79580769E+02</rscale>
<asrwt>0</asrwt>
<pdfrwt beam="1">  1        2 0.52434942E-02 0.79580769E+02</pdfrwt>
<pdfrwt beam="2">  1       -1 0.71467529E-02 0.79580769E+02</pdfrwt>
<totfact> 0.14003730E+05</totfact>
</mgrwt>
</event>
<event>
 8    1  0.2676873E-016  0.8041465E+02  0.7818608E-02  0.1327879E+00
         -1   -1    0    0    0  501 -0.00000000000E+00  0.00000000000E+00  0.37863294906E+01  0.37863328450E+01  0.50400000000E-02 0.  1.
          2   -1    0    0  501    0  0.00000000000E+00 -0.00000000000E+00 -0.42696447182E+03  0.42696447182E+03  0.25500000000E-02 0. -1.
         24    2    1    2    0    0  0.00000000000E+00  0.00000000000E+00 -0.42317814233E+03  0.43075080467E+03  0.80414647800E+02 0.  0.
         66    2    3    3    0    0 -0.17441137278E+02  0.16936313902E+02 -0.38309730843E+03  0.38387312973E+03  0.20000004115E+01 0.  0.
        -13    1    3    3    0    0  0.17441137278E+02 -0.16936313902E+02 -0.40080833891E+02  0.46877674938E+02  0.10566000000E+00 0.  1.
         13    1    4    4    0    0 -0.93552053478E+01  0.91907087897E+01 -0.21382944079E+03  0.21423125334E+03  0.10566000000E+00 0. -1.
        -13    1    4    4    0    0 -0.27388061995E+00  0.25748214376E+00 -0.36407056845E+01  0.36615856626E+01  0.10566000000E+00 0.  1.
        -14    1    4    4    0    0 -0.78120513098E+01  0.74881229689E+01 -0.16562716196E+03  0.16598029073E+03  0.00000000000E+00 0.  1.
<mgrwt>
<rscale>  0 0.80414648E+02</rscale>
<asrwt>0</asrwt>
<pdfrwt beam="1">  1        2 0.65686804E-01 0.80414648E+02</pdfrwt>
<pdfrwt beam="2">  1       -1 0.58251283E-03 0.80414648E+02</pdfrwt>
<totfact> 0.28511404E+05</totfact>
</mgrwt>
</event>
<event>
 8    1  0.2676873E-016  0.8004373E+02  0.7818608E-02  0.1328927E+00
          2   -1    0    0  501    0  0.00000000000E+00  0.00000000000E+00  0.37592844946E+03  0.37592844947E+03  0.25500000000E-02 0. -1.
         -1   -1    0    0    0  501 -0.00000000000E+00 -0.00000000000E+00 -0.42607821200E+01  0.42607851009E+01  0.50400000000E-02 0.  1.
         24    2    1    2    0    0 -0.35527136788E-14  0.71054273576E-14  0.37166766734E+03  0.38018923457E+03  0.80043732651E+02 0.  0.
         66    2    3    3    0    0 -0.25229886687E+02  0.30755696711E+02  0.16620239200E+03  0.17090844090E+03  0.20000008918E+01 0.  0.
        -13    1    3    3    0    0  0.25229886687E+02 -0.30755696711E+02  0.20546527534E+03  0.20928079367E+03  0.10566000000E+00 0.  1.
         13    1    4    4    0    0 -0.11444867466E+02  0.13636098327E+02  0.75324796223E+02  0.77400027513E+02  0.10566000000E+00 0.  1.
        -13    1    4    4    0    0 -0.10787680452E+02  0.12565375058E+02  0.69644190688E+02  0.71586221862E+02  0.10566000000E+00 0. -1.
        -14    1    4    4    0    0 -0.29973387693E+01  0.45542233256E+01  0.21233405089E+02  0.21922191530E+02  0.00000000000E+00 0.  1.
<mgrwt>
<rscale>  0 0.80043733E+02</rscale>
<asrwt>0</asrwt>
<pdfrwt beam="1">  1        2 0.57835144E-01 0.80043733E+02</pdfrwt>
<pdfrwt beam="2">  1       -1 0.65550520E-03 0.80043733E+02</pdfrwt>
<totfact> 0.27603128E+05</totfact>
</mgrwt>
</event>
<event>
 8    1  0.2676873E-016  0.7661877E+02  0.7818608E-02  0.1338930E+00
         -1   -1    0    0    0  501 -0.00000000000E+00  0.00000000000E+00  0.40997797042E+01  0.40997828021E+01  0.50400000000E-02 0.  1.
          2   -1    0    0  501    0  0.00000000000E+00 -0.00000000000E+00 -0.35797248213E+03  0.35797248214E+03  0.25500000000E-02 0. -1.
         24    2    1    2    0    0 -0.35527136788E-14  0.00000000000E+00 -0.35387270243E+03  0.36207226494E+03  0.76618767397E+02 0.  0.
         66    2    3    3    0    0 -0.18902165985E+02  0.33131882680E+02 -0.16167795920E+03  0.16612879346E+03  0.19999990648E+01 0.  0.
        -13    1    3    3    0    0  0.18902165985E+02 -0.33131882680E+02 -0.19219474322E+03  0.19594347148E+03  0.10566000000E+00 0.  1.
         13    1    4    4    0    0 -0.58076015391E+01  0.10295128682E+02 -0.52055821085E+02  0.53381060153E+02  0.10566000000E+00 0. -1.
        -13    1    4    4    0    0 -0.10504101196E+02  0.18451940250E+02 -0.85919736135E+02  0.88504364087E+02  0.10566000000E+00 0.  1.
         14    1    4    4    0    0 -0.25904632495E+01  0.43848137486E+01 -0.23702401983E+02  0.24243369222E+02  0.00000000000E+00 0. -1.
<mgrwt>
<rscale>  0 0.76618767E+02</rscale>
<asrwt>0</asrwt>
<pdfrwt beam="1">  1        2 0.55072665E-01 0.76618767E+02</pdfrwt>
<pdfrwt beam="2">  1       -1 0.63073586E-03 0.76618767E+02</pdfrwt>
<totfact> 0.30408201E+05</totfact>
</mgrwt>
</event>
<event>
 8    1  0.2676873E-016  0.7835195E+02  0.7818608E-02  0.1333795E+00
          2   -1    0    0  501    0  0.00000000000E+00  0.00000000000E+00  0.37997586811E+03  0.37997586812E+03  0.25500000000E-02 0. -1.
         -1   -1    0    0    0  501 -0.00000000000E+00 -0.00000000000E+00 -0.40390887851E+01  0.40390919296E+01  0.50400000000E-02 0.  1.
         24    2    1    2    0    0  0.00000000000E+00  0.00000000000E+00  0.37593677932E+03  0.38401496005E+03  0.78351946317E+02 0.  0.
         66    2    3    3    0    0 -0.20227887008E+02  0.14139362335E+02  0.33704553329E+03  0.33795381414E+03  0.20000004227E+01 0.  0.
        -13    1    3    3    0    0  0.20227887008E+02 -0.14139362335E+02  0.38891246032E+02  0.46061145905E+02  0.10566000000E+00 0.  1.
         13    1    4    4    0    0 -0.77428879661E+01  0.52032355710E+01  0.13346025854E+03  0.13378594002E+03  0.10566000000E+00 0. -1.
        -13    1    4    4    0    0 -0.39077641288E+01  0.21242118957E+01  0.55420619378E+02  0.55598912876E+02  0.10566000000E+00 0.  1.
         14    1    4    4    0    0 -0.85772349134E+01  0.68119148681E+01  0.14816465537E+03  0.14856896124E+03  0.00000000000E+00 0. -1.
<mgrwt>
<rscale>  0 0.78351946E+02</rscale>
<asrwt>0</asrwt>
<pdfrwt beam="1">  1        2 0.58457813E-01 0.78351946E+02</pdfrwt>
<pdfrwt beam="2">  1       -1 0.62139866E-03 0.78351946E+02</pdfrwt>
<totfact> 0.29297552E+05</totfact>
</mgrwt>
</event>
<event>
 8    1  0.2676873E-016  0.8006919E+02  0.7818608E-02  0.1328855E+00
         -1   -1    0    0    0  501 -0.00000000000E+00  0.00000000000E+00  0.58525759431E+01  0.58525781132E+01  0.50400000000E-02 0.  1.
          2   -1    0    0  501    0  0.00000000000E+00 -0.00000000000E+00 -0.27385695006E+03  0.27385695007E+03  0.25500000000E-02 0. -1.
         24    2    1    2    0    0 -0.35527136788E-14 -0.35527136788E-14 -0.26800437412E+03  0.27970952819E+03  0.80069192651E+02 0.  0.
         66    2    3    3    0    0 -0.18492455148E+02 -0.25489442431E+02 -0.22029989246E+03  0.22254825365E+03  0.20000024307E+01 0.  0.
        -13    1    3    3    0    0  0.18492455148E+02  0.25489442431E+02 -0.47704481655E+02  0.57161274538E+02  0.10566000000E+00 0.  1.
         13    1    4    4    0    0 -0.69877516072E+01 -0.10320734745E+02 -0.85084914833E+02  0.85993023754E+02  0.10566000000E+00 0. -1.
        -13    1    4    4    0    0 -0.40742104029E+01 -0.43987434180E+01 -0.43797958514E+02  0.44206565894E+02  0.10566000000E+00 0. -1.
        -14    1    4    4    0    0 -0.74304931375E+01 -0.10769964268E+02 -0.91417019117E+02  0.92348664001E+02  0.00000000000E+00 0.  1.
<mgrwt>
<rscale>  0 0.80069193E+02</rscale>
<asrwt>0</asrwt>
<pdfrwt beam="1">  1        2 0.42131829E-01 0.80069193E+02</pdfrwt>
<pdfrwt beam="2">  1       -1 0.90039668E-03 0.80069193E+02</pdfrwt>
<totfact> 0.24610268E+05</totfact>
</mgrwt>
</event>
<event>
 8    1  0.2676873E-016  0.8499283E+02  0.7818608E-02  0.1315451E+00
          2   -1    0    0  501    0  0.00000000000E+00  0.00000000000E+00  0.94977366034E+02  0.94977366068E+02  0.25500000000E-02 0. -1.
         -1   -1    0    0    0  501 -0.00000000000E+00 -0.00000000000E+00 -0.19014480869E+02  0.19014481537E+02  0.50400000000E-02 0.  1.
         24    2    1    2    0    0  0.00000000000E+00  0.00000000000E+00  0.75962885164E+02  0.11399184760E+03  0.84992831450E+02 0.  0.
         66    2    3    3    0    0  0.17948671070E+02 -0.25926553681E+02  0.76164014755E+02  0.82457856483E+02  0.19999933095E+01 0.  0.
        -13    1    3    3    0    0 -0.17948671070E+02  0.25926553681E+02 -0.20112959034E+00  0.31533991122E+02  0.10566000000E+00 0.  1.
         13    1    4    4    0    0  0.11009288542E+02 -0.17335307588E+02  0.49575909736E+02  0.53660966387E+02  0.10566000000E+00 0. -1.
        -13    1    4    4    0    0  0.39408032016E+00 -0.36656720461E+00  0.12488707802E+01  0.13640062594E+01  0.10566000000E+00 0.  1.
         14    1    4    4    0    0  0.65453022073E+01 -0.82246788881E+01  0.25339234238E+02  0.27432883837E+02  0.00000000000E+00 0. -1.
<mgrwt>
<rscale>  0 0.84992831E+02</rscale>
<asrwt>0</asrwt>
<pdfrwt beam="1">  1        2 0.14611903E-01 0.84992831E+02</pdfrwt>
<pdfrwt beam="2">  1       -1 0.29253048E-02 0.84992831E+02</pdfrwt>
<totfact> 0.14846241E+05</totfact>
</mgrwt>
</event>
<event>
 8    1  0.2676873E-016  0.8196088E+02  0.7818608E-02  0.1323577E+00
         -1   -1    0    0    0  501 -0.00000000000E+00  0.00000000000E+00  0.41600444109E+01  0.41600474639E+01  0.50400000000E-02 0.  1.
          2   -1    0    0  501    0  0.00000000000E+00 -0.00000000000E+00 -0.40369662659E+03  0.40369662660E+03  0.25500000000E-02 0. -1.
         24    2    1    2    0    0  0.00000000000E+00  0.00000000000E+00 -0.39953658218E+03  0.40785667406E+03  0.81960881386E+02 0.  0.
         66    2    3    3    0    0  0.26831850389E+02  0.72085169876E+01 -0.34962784381E+03  0.35073571257E+03  0.19999975379E+01 0.  0.
        -13    1    3    3    0    0 -0.26831850389E+02 -0.72085169876E+01 -0.49908738368E+02  0.57120961494E+02  0.10566000000E+00 0.  1.
         13    1    4    4    0    0  0.41537033561E+01  0.74155366542E+00 -0.50583615406E+02  0.50759397800E+02  0.10566000000E+00 0.  1.
        -13    1    4    4    0    0  0.19080275779E+02  0.59949900244E+01 -0.25366177028E+03  0.25444901591E+03  0.10566000000E+00 0. -1.
         14    1    4    4    0    0  0.35978712545E+01  0.47197329778E+00 -0.45382458122E+02  0.45527298861E+02  0.00000000000E+00 0. -1.
<mgrwt>
<rscale>  0 0.81960881E+02</rscale>
<asrwt>0</asrwt>
<pdfrwt beam="1">  1        2 0.62107142E-01 0.81960881E+02</pdfrwt>
<pdfrwt beam="2">  1       -1 0.64000739E-03 0.81960881E+02</pdfrwt>
<totfact> 0.26605239E+05</totfact>
</mgrwt>
</event>
<event>
 8    1  0.2676873E-016  0.8961356E+02  0.7818608E-02  0.1303790E+00
          2   -1    0    0  501    0  0.00000000000E+00  0.00000000000E+00  0.17097384620E+03  0.17097384621E+03  0.25500000000E-02 0. -1.
         -1   -1    0    0    0  501 -0.00000000000E+00 -0.00000000000E+00 -0.11742425105E+02  0.11742426187E+02  0.50400000000E-02 0.  1.
         24    2    1    2    0    0  0.00000000000E+00  0.00000000000E+00  0.15923142109E+03  0.18271627240E+03  0.89613563359E+02 0.  0.
         66    2    3    3    0    0  0.43247874154E+02  0.45118032607E+01  0.10151161814E+03  0.11045063877E+03  0.19999999311E+01 0.  0.
        -13    1    3    3    0    0 -0.43247874154E+02 -0.45118032607E+01  0.57719802948E+02  0.72265633630E+02  0.10566000000E+00 0.  1.
         13    1    4    4    0    0  0.12095830701E+02  0.15984953576E+01  0.29382896002E+02  0.31815563004E+02  0.10566000000E+00 0. -1.
        -13    1    4    4    0    0  0.30978474503E+01  0.85958637741E-01  0.62957256228E+01  0.70179322357E+01  0.10566000000E+00 0.  1.
        -14    1    4    4    0    0  0.28054196003E+02  0.28273492654E+01  0.65832996517E+02  0.71617143532E+02  0.00000000000E+00 0.  1.
<mgrwt>
<rscale>  0 0.89613563E+02</rscale>
<asrwt>0</asrwt>
<pdfrwt beam="1">  1        2 0.26303668E-01 0.89613563E+02</pdfrwt>
<pdfrwt beam="2">  1       -1 0.18065271E-02 0.89613563E+02</pdfrwt>
<totfact> 0.15456540E+05</totfact>
</mgrwt>
</event>
<event>
 8    1  0.2676873E-016  0.8076416E+02  0.7818608E-02  0.1326897E+00
         -1   -1    0    0    0  501 -0.00000000000E+00  0.00000000000E+00  0.32953390556E+01  0.32953429097E+01  0.50400000000E-02 0.  1.
          2   -1    0    0  501    0  0.00000000000E+00 -0.00000000000E+00 -0.49485389766E+03  0.49485389767E+03  0.25500000000E-02 0. -1.
         24    2    1    2    0    0  0.00000000000E+00  0.00000000000E+00 -0.49155855861E+03  0.49814924058E+03  0.80764158818E+02 0.  0.
         66    2    3    3    0    0  0.37617416432E+02 -0.11490960722E+02 -0.30164469096E+03  0.30420491742E+03  0.20000000498E+01 0.  0.
        -13    1    3    3    0    0 -0.37617416432E+02  0.11490960722E+02 -0.18991386765E+03  0.19394432316E+03  0.10566000000E+00 0.  1.
         13    1    4    4    0    0  0.33052209042E+01 -0.93260292470E+00 -0.27276081558E+02  0.27491635503E+02  0.10566000000E+00 0. -1.
        -13    1    4    4    0    0  0.21856154143E+02 -0.74785779696E+01 -0.18009752927E+03  0.18157299308E+03  0.10566000000E+00 0.  1.
        -14    1    4    4    0    0  0.12456041384E+02 -0.30797798279E+01 -0.94271080133E+02  0.95140288838E+02  0.00000000000E+00 0.  1.
<mgrwt>
<rscale>  0 0.80764159E+02</rscale>
<asrwt>0</asrwt>
<pdfrwt beam="1">  1        2 0.76131310E-01 0.80764159E+02</pdfrwt>
<pdfrwt beam="2">  1       -1 0.50697593E-03 0.80764159E+02</pdfrwt>
<totfact> 0.29607659E+05</totfact>
</mgrwt>
</event>
<event>
 8    1  0.2676873E-016  0.7931061E+02  0.7818608E-02  0.1331019E+00
          2   -1    0    0  501    0  0.00000000000E+00  0.00000000000E+00  0.39581854409E+03  0.39581854410E+03  0.25500000000E-02 0. -1.
         -1   -1    0    0    0  501 -0.00000000000E+00 -0.00000000000E+00 -0.39728875028E+01  0.39728906997E+01  0.50400000000E-02 0.  1.
         24    2    1    2    0    0  0.71054273576E-14 -0.17763568394E-14  0.39184565659E+03  0.39979143480E+03  0.79310609325E+02 0.  0.
         66    2    3    3    0    0  0.37944861256E+02 -0.85335445367E+01  0.23440523392E+03  0.23761828125E+03  0.20000042201E+01 0.  0.
        -13    1    3    3    0    0 -0.37944861256E+02  0.85335445367E+01  0.15744042266E+03  0.16217315354E+03  0.10566000000E+00 0.  1.
         13    1    4    4    0    0  0.20483170178E+02 -0.41896526248E+01  0.12430167122E+03  0.12604772938E+03  0.10566000000E+00 0. -1.
        -13    1    4    4    0    0  0.11587565874E+02 -0.31774237999E+01  0.70465759781E+02  0.71482880261E+02  0.10566000000E+00 0.  1.
         14    1    4    4    0    0  0.58741252036E+01 -0.11664681120E+01  0.39637802925E+02  0.40087671615E+02  0.00000000000E+00 0. -1.
<mgrwt>
<rscale>  0 0.79310609E+02</rscale>
<asrwt>0</asrwt>
<pdfrwt beam="1">  1        2 0.60895141E-01 0.79310609E+02</pdfrwt>
<pdfrwt beam="2">  1       -1 0.61121390E-03 0.79310609E+02</pdfrwt>
<totfact> 0.28793335E+05</totfact>
</mgrwt>
</event>
<event>
 8    1  0.2676873E-016  0.7946127E+02  0.7818608E-02  0.1330587E+00
          2   -1    0    0  501    0  0.00000000000E+00  0.00000000000E+00  0.38673018181E+03  0.38673018181E+03  0.25500000000E-02 0. -1.
         -1   -1    0    0    0  501 -0.00000000000E+00 -0.00000000000E+00 -0.40817159917E+01  0.40817191034E+01  0.50400000000E-02 0.  1.
         24    2    1    2    0    0  0.00000000000E+00  0.00000000000E+00  0.38264846581E+03  0.39081190092E+03  0.79461270497E+02 0.  0.
         66    2    3    3    0    0  0.14367797269E+02  0.21101022675E+01  0.37319708513E+03  0.37348487316E+03  0.20000001198E+01 0.  0.
        -13    1    3    3    0    0 -0.14367797269E+02 -0.21101022675E+01  0.94513806805E+01  0.17327027753E+02  0.10566000000E+00 0.  1.
         13    1    4    4    0    0  0.62720864904E+01  0.97549736798E+00  0.14917656760E+03  0.14931158746E+03  0.10566000000E+00 0. -1.
        -13    1    4    4    0    0  0.31104158030E+01  0.93620060725E+00  0.98697299103E+02  0.98750793274E+02  0.10566000000E+00 0.  1.
        -14    1    4    4    0    0  0.49852949761E+01  0.19840429223E+00  0.12532321843E+03  0.12542249243E+03  0.00000000000E+00 0.  1.
<mgrwt>
<rscale>  0 0.79461270E+02</rscale>
<asrwt>0</asrwt>
<pdfrwt beam="1">  1        2 0.59496947E-01 0.79461270E+02</pdfrwt>
<pdfrwt beam="2">  1       -1 0.62795659E-03 0.79461270E+02</pdfrwt>
<totfact> 0.28418158E+05</totfact>
</mgrwt>
</event>
<event>
 8    1  0.2676873E-016  0.8011742E+02  0.7818608E-02  0.1328719E+00
         -1   -1    0    0    0  501 -0.00000000000E+00  0.00000000000E+00  0.57530652797E+01  0.57530674874E+01  0.50400000000E-02 0.  1.
          2   -1    0    0  501    0  0.00000000000E+00 -0.00000000000E+00 -0.27892956128E+03  0.27892956129E+03  0.25500000000E-02 0. -1.
         24    2    1    2    0    0  0.00000000000E+00  0.00000000000E+00 -0.27317649600E+03  0.28468262878E+03  0.80117421086E+02 0.  0.
         66    2    3    3    0    0  0.37018440907E+02 -0.13982665347E+02 -0.15823313755E+03  0.16311837946E+03  0.20000000638E+01 0.  0.
        -13    1    3    3    0    0 -0.37018440907E+02  0.13982665347E+02 -0.11494335845E+03  0.12156424932E+03  0.10566000000E+00 0.  1.
         13    1    4    4    0    0  0.29071252246E+02 -0.10331770973E+02 -0.12179207235E+03  0.12563917880E+03  0.10566000000E+00 0. -1.
        -13    1    4    4    0    0  0.76086803904E+01 -0.34874887619E+01 -0.34395028766E+02  0.35398923189E+02  0.10566000000E+00 0.  1.
         14    1    4    4    0    0  0.33850827058E+00 -0.16340561204E+00 -0.20460364340E+01  0.20802774652E+01  0.00000000000E+00 0. -1.
<mgrwt>
<rscale>  0 0.80117421E+02</rscale>
<asrwt>0</asrwt>
<pdfrwt beam="1">  1        2 0.42912230E-01 0.80117421E+02</pdfrwt>
<pdfrwt beam="2">  1       -1 0.88508736E-03 0.80117421E+02</pdfrwt>
<totfact> 0.24735296E+05</totfact>
</mgrwt>
</event>
<event>
 8    1  0.2676873E-016  0.8009225E+02  0.7818608E-02  0.1328790E+00
          2   -1    0    0  501    0  0.00000000000E+00  0.00000000000E+00  0.28078807620E+02  0.28078807736E+02  0.25500000000E-02 0. -1.
         -1   -1    0    0    0  501 -0.00000000000E+00 -0.00000000000E+00 -0.57113971662E+02  0.57113971884E+02  0.50400000000E-02 0.  1.
         24    2    1    2    0    0 -0.35527136788E-14  0.00000000000E+00 -0.29035164041E+02  0.85192779620E+02  0.80092252737E+02 0.  0.
         66    2    3    3    0    0 -0.17914918224E+02 -0.23385165380E+02  0.14288742319E+02  0.32802109829E+02  0.19999993480E+01 0.  0.
        -13    1    3    3    0    0  0.17914918224E+02  0.23385165380E+02 -0.43323906360E+02  0.52390669791E+02  0.10566000000E+00 0.  1.
         13    1    4    4    0    0 -0.42037315080E+01 -0.56407005065E+01  0.30600554376E+01  0.76722854556E+01  0.10566000000E+00 0.  1.
        -13    1    4    4    0    0 -0.49153451297E+01 -0.52974740371E+01  0.40143768141E+01  0.82674200425E+01  0.10566000000E+00 0.  1.
         14    1    4    4    0    0 -0.87958415863E+01 -0.12446990836E+02  0.72143100671E+01  0.16862404331E+02  0.00000000000E+00 0. -1.
<mgrwt>
<rscale>  0 0.80092253E+02</rscale>
<asrwt>0</asrwt>
<pdfrwt beam="1">  1        2 0.43198166E-02 0.80092253E+02</pdfrwt>
<pdfrwt beam="2">  1       -1 0.87867649E-02 0.80092253E+02</pdfrwt>
<totfact> 0.13237894E+05</totfact>
</mgrwt>
</event>
<event>
 8    1  0.2676873E-016  0.7995977E+02  0.7818608E-02  0.1329166E+00
          2   -1    0    0  501    0  0.00000000000E+00  0.00000000000E+00  0.32276052559E+02  0.32276052660E+02  0.25500000000E-02 0. -1.
         -1   -1    0    0    0  501 -0.00000000000E+00 -0.00000000000E+00 -0.49522515650E+02  0.49522515906E+02  0.50400000000E-02 0.  1.
         24    2    1    2    0    0  0.00000000000E+00 -0.17763568394E-14 -0.17246463090E+02  0.81798568566E+02  0.79959773201E+02 0.  0.
         66    2    3    3    0    0  0.25152743752E+02 -0.14667393822E+02  0.19361018209E+02  0.35023448995E+02  0.19999983940E+01 0.  0.
        -13    1    3    3    0    0 -0.25152743752E+02  0.14667393822E+02 -0.36607481300E+02  0.46775119572E+02  0.10566000000E+00 0.  1.
         13    1    4    4    0    0  0.23817207644E+01 -0.14092260842E+01  0.14389285059E+01  0.31209279449E+01  0.10566000000E+00 0. -1.
        -13    1    4    4    0    0  0.15769792833E+02 -0.86542228499E+01  0.11579903488E+02  0.21393626807E+02  0.10566000000E+00 0.  1.
         14    1    4    4    0    0  0.70012301543E+01 -0.46039448883E+01  0.63421862158E+01  0.10508894243E+02  0.00000000000E+00 0. -1.
<mgrwt>
<rscale>  0 0.79959773E+02</rscale>
<asrwt>0</asrwt>
<pdfrwt beam="1">  1        2 0.49655466E-02 0.79959773E+02</pdfrwt>
<pdfrwt beam="2">  1       -1 0.76188486E-02 0.79959773E+02</pdfrwt>
<totfact> 0.13670613E+05</totfact>
</mgrwt>
</event>
<event>
 8    1  0.2676873E-016  0.7944386E+02  0.7818608E-02  0.1330637E+00
          2   -1    0    0  501    0  0.00000000000E+00  0.00000000000E+00  0.20488034579E+03  0.20488034581E+03  0.25500000000E-02 0. -1.
         -1   -1    0    0    0  501 -0.00000000000E+00 -0.00000000000E+00 -0.77012334626E+01  0.77012351118E+01  0.50400000000E-02 0.  1.
         24    2    1    2    0    0  0.88817841970E-15  0.00000000000E+00  0.19717911233E+03  0.21258158092E+03  0.79443855692E+02 0.  0.
         66    2    3    3    0    0 -0.76307290116E+01  0.15484777598E+02  0.19430521923E+03  0.19508081556E+03  0.20000046816E+01 0.  0.
        -13    1    3    3    0    0  0.76307290116E+01 -0.15484777598E+02  0.28738931022E+01  0.17500765358E+02  0.10566000000E+00 0.  1.
         13    1    4    4    0    0 -0.27431399161E+01  0.47861663036E+01  0.52963413495E+02  0.53250037911E+02  0.10566000000E+00 0. -1.
        -13    1    4    4    0    0 -0.61358457440E+00  0.13639389847E+01  0.17369833272E+02  0.17434422489E+02  0.10566000000E+00 0.  1.
         14    1    4    4    0    0 -0.42740045211E+01  0.93346723101E+01  0.12397197246E+03  0.12439635516E+03  0.00000000000E+00 0. -1.
<mgrwt>
<rscale>  0 0.79443856E+02</rscale>
<asrwt>0</asrwt>
<pdfrwt beam="1">  1        2 0.31520047E-01 0.79443856E+02</pdfrwt>
<pdfrwt beam="2">  1       -1 0.11848055E-02 0.79443856E+02</pdfrwt>
<totfact> 0.22657365E+05</totfact>
</mgrwt>
</event>
<event>
 8    1  0.2676873E-016  0.8084562E+02  0.7818608E-02  0.1326669E+00
          2   -1    0    0  501    0  0.00000000000E+00  0.00000000000E+00  0.50833622220E+03  0.50833622221E+03  0.25500000000E-02 0. -1.
         -1   -1    0    0    0  501 -0.00000000000E+00 -0.00000000000E+00 -0.32144129205E+01  0.32144168717E+01  0.50400000000E-02 0.  1.
         24    2    1    2    0    0  0.00000000000E+00  0.00000000000E+00  0.50512180928E+03  0.51155063908E+03  0.80845619123E+02 0.  0.
         66    2    3    3    0    0 -0.36723923775E+02 -0.98401605220E+01  0.33913192161E+03  0.34126226805E+03  0.19999999182E+01 0.  0.
        -13    1    3    3    0    0  0.36723923775E+02  0.98401605220E+01  0.16598988767E+03  0.17028837103E+03  0.10566000000E+00 0.  1.
         13    1    4    4    0    0 -0.42390974197E+01 -0.12023268052E+01  0.36482981286E+02  0.36748260152E+02  0.10566000000E+00 0. -1.
        -13    1    4    4    0    0 -0.30452368077E+02 -0.84319789000E+01  0.28242311777E+03  0.28418528042E+03  0.10566000000E+00 0.  1.
        -14    1    4    4    0    0 -0.20324582786E+01 -0.20585481682E+00  0.20225822556E+02  0.20328727480E+02  0.00000000000E+00 0.  1.
<mgrwt>
<rscale>  0 0.80845619E+02</rscale>
<asrwt>0</asrwt>
<pdfrwt beam="1">  1        2 0.78205528E-01 0.80845619E+02</pdfrwt>
<pdfrwt beam="2">  1       -1 0.49452566E-03 0.80845619E+02</pdfrwt>
<totfact> 0.29783650E+05</totfact>
</mgrwt>
</event>
<event>
 8    1  0.2676873E-016  0.8375604E+02  0.7818608E-02  0.1318718E+00
          2   -1    0    0  501    0  0.00000000000E+00  0.00000000000E+00  0.96083453878E+03  0.96083453879E+03  0.25500000000E-02 0. -1.
         -1   -1    0    0    0  501 -0.00000000000E+00 -0.00000000000E+00 -0.18252520787E+01  0.18252590371E+01  0.50400000000E-02 0.  1.
         24    2    1    2    0    0  0.00000000000E+00 -0.17763568394E-14  0.95900928670E+03  0.96265979782E+03  0.83756040740E+02 0.  0.
         66    2    3    3    0    0  0.14576989844E+02 -0.14195960284E+02  0.90015930133E+03  0.90039146025E+03  0.20000007249E+01 0.  0.
        -13    1    3    3    0    0 -0.14576989844E+02  0.14195960284E+02  0.58849985372E+02  0.62268337569E+02  0.10566000000E+00 0.  1.
         13    1    4    4    0    0  0.38157120169E+01 -0.42450197053E+01  0.27942899975E+03  0.27948731083E+03  0.10566000000E+00 0. -1.
        -13    1    4    4    0    0  0.43974181533E+00 -0.68867951877E+00  0.34479825747E+02  0.34489668017E+02  0.10566000000E+00 0.  1.
         14    1    4    4    0    0  0.10321536011E+02 -0.92622610599E+01  0.58625047584E+03  0.58641448141E+03  0.00000000000E+00 0. -1.
<mgrwt>
<rscale>  0 0.83756041E+02</rscale>
<asrwt>0</asrwt>
<pdfrwt beam="1">  1        2 0.14782037E+00 0.83756041E+02</pdfrwt>
<pdfrwt beam="2">  1       -1 0.28080917E-03 0.83756041E+02</pdfrwt>
<totfact> 0.31196521E+05</totfact>
</mgrwt>
</event>
<event>
 8    1  0.2676873E-016  0.7737264E+02  0.7818608E-02  0.1336677E+00
         -1   -1    0    0    0  501 -0.00000000000E+00  0.00000000000E+00  0.12940498740E+02  0.12940499722E+02  0.50400000000E-02 0.  1.
          2   -1    0    0  501    0  0.00000000000E+00 -0.00000000000E+00 -0.11565484095E+03  0.11565484097E+03  0.25500000000E-02 0. -1.
         24    2    1    2    0    0  0.17763568394E-14  0.35527136788E-14 -0.10271434221E+03  0.12859534070E+03  0.77372640862E+02 0.  0.
         66    2    3    3    0    0  0.14603924904E+02  0.27618352253E+02 -0.89239575102E+02  0.94571400355E+02  0.19999992769E+01 0.  0.
        -13    1    3    3    0    0 -0.14603924904E+02 -0.27618352253E+02 -0.13474767104E+02  0.34023940340E+02  0.10566000000E+00 0.  1.
         13    1    4    4    0    0  0.30883418210E+01  0.65070713785E+01 -0.22268016223E+02  0.23404177911E+02  0.10566000000E+00 0.  1.
        -13    1    4    4    0    0  0.10162537737E+02  0.19077880700E+02 -0.59350974258E+02  0.63164800441E+02  0.10566000000E+00 0. -1.
         14    1    4    4    0    0  0.13530453460E+01  0.20334001737E+01 -0.76205846206E+01  0.80024220043E+01  0.00000000000E+00 0. -1.
<mgrwt>
<rscale>  0 0.77372641E+02</rscale>
<asrwt>0</asrwt>
<pdfrwt beam="1">  1        2 0.17793052E-01 0.77372641E+02</pdfrwt>
<pdfrwt beam="2">  1       -1 0.19908461E-02 0.77372641E+02</pdfrwt>
<totfact> 0.20202504E+05</totfact>
</mgrwt>
</event>
<event>
 8    1  0.2676873E-016  0.8117168E+02  0.7818608E-02  0.1325759E+00
         -1   -1    0    0    0  501 -0.00000000000E+00  0.00000000000E+00  0.25004510086E+01  0.25004560880E+01  0.50400000000E-02 0.  1.
          2   -1    0    0  501    0  0.00000000000E+00 -0.00000000000E+00 -0.65876471095E+03  0.65876471096E+03  0.25500000000E-02 0. -1.
         24    2    1    2    0    0  0.00000000000E+00  0.00000000000E+00 -0.65626425994E+03  0.66126516704E+03  0.81171683905E+02 0.  0.
         66    2    3    3    0    0  0.12084972372E+02  0.34336312901E+02 -0.47410002619E+03  0.47549959390E+03  0.20000075127E+01 0.  0.
        -13    1    3    3    0    0 -0.12084972372E+02 -0.34336312901E+02 -0.18216423375E+03  0.18576557314E+03  0.10566000000E+00 0.  1.
         13    1    4    4    0    0  0.56655922864E+01  0.17284058112E+02 -0.23336192495E+03  0.23406972632E+03  0.10566000000E+00 0. -1.
        -13    1    4    4    0    0  0.25468501653E+01  0.78743082759E+01 -0.11559014418E+03  0.11588608101E+03  0.10566000000E+00 0.  1.
        -14    1    4    4    0    0  0.38725299199E+01  0.91779465133E+01 -0.12514795706E+03  0.12554378657E+03  0.00000000000E+00 0.  1.
<mgrwt>
<rscale>  0 0.81171684E+02</rscale>
<asrwt>0</asrwt>
<pdfrwt beam="1">  1        2 0.10134828E+00 0.81171684E+02</pdfrwt>
<pdfrwt beam="2">  1       -1 0.38468569E-03 0.81171684E+02</pdfrwt>
<totfact> 0.31744363E+05</totfact>
</mgrwt>
</event>
<event>
 8    1  0.2676873E-016  0.8180688E+02  0.7818608E-02  0.1324001E+00
         -1   -1    0    0    0  501 -0.00000000000E+00  0.00000000000E+00  0.16380514280E+01  0.16380591815E+01  0.50400000000E-02 0.  1.
          2   -1    0    0  501    0  0.00000000000E+00 -0.00000000000E+00 -0.10213888029E+04  0.10213888029E+04  0.25500000000E-02 0. -1.
         24    2    1    2    0    0  0.00000000000E+00  0.00000000000E+00 -0.10197507515E+04  0.10230268621E+04  0.81806878800E+02 0.  0.
         66    2    3    3    0    0 -0.14232310757E+02 -0.19355465109E+02 -0.92378331208E+03  0.92409783052E+03  0.19999979701E+01 0.  0.
        -13    1    3    3    0    0  0.14232310757E+02  0.19355465109E+02 -0.95967439369E+02  0.98929031543E+02  0.10566000000E+00 0.  1.
         13    1    4    4    0    0 -0.70233211985E+01 -0.10991048389E+02 -0.48952194906E+03  0.48969570139E+03  0.10566000000E+00 0. -1.
        -13    1    4    4    0    0 -0.12714572817E+01 -0.13745563501E+01 -0.81380623198E+02  0.81402229730E+02  0.10566000000E+00 0.  1.
         14    1    4    4    0    0 -0.59375322768E+01 -0.69898603692E+01 -0.35288073982E+03  0.35299989940E+03  0.00000000000E+00 0. -1.
<mgrwt>
<rscale>  0 0.81806879E+02</rscale>
<asrwt>0</asrwt>
<pdfrwt beam="1">  1        2 0.15713623E+00 0.81806879E+02</pdfrwt>
<pdfrwt beam="2">  1       -1 0.25200933E-03 0.81806879E+02</pdfrwt>
<totfact> 0.33268358E+05</totfact>
</mgrwt>
</event>
<event>
 8    1  0.2676873E-016  0.8001844E+02  0.7818608E-02  0.1328999E+00
          2   -1    0    0  501    0  0.00000000000E+00  0.00000000000E+00  0.14367144315E+04  0.14367144315E+04  0.25500000000E-02 0. -1.
         -1   -1    0    0    0  501 -0.00000000000E+00 -0.00000000000E+00 -0.11141598818E+01  0.11141712811E+01  0.50400000000E-02 0.  1.
         24    2    1    2    0    0  0.00000000000E+00  0.00000000000E+00  0.14356002716E+04  0.14378286027E+04  0.80018442321E+02 0.  0.
         66    2    3    3    0    0  0.21797500683E+02 -0.56150939087E+01  0.13120508144E+04  0.13122454038E+04  0.19999991167E+01 0.  0.
        -13    1    3    3    0    0 -0.21797500683E+02  0.56150939087E+01  0.12354945718E+03  0.12558319892E+03  0.10566000000E+00 0.  1.
         13    1    4    4    0    0  0.12115273916E+02 -0.38806917076E+01  0.76929788975E+03  0.76940307639E+03  0.10566000000E+00 0. -1.
        -13    1    4    4    0    0  0.36357268572E+01 -0.56896533453E+00  0.21641332234E+03  0.21644463376E+03  0.10566000000E+00 0.  1.
         14    1    4    4    0    0  0.60464999093E+01 -0.11654368665E+01  0.32633960229E+03  0.32639769366E+03  0.00000000000E+00 0. -1.
<mgrwt>
<rscale>  0 0.80018442E+02</rscale>
<asrwt>0</asrwt>
<pdfrwt beam="1">  1        2 0.22103435E+00 0.80018442E+02</pdfrwt>
<pdfrwt beam="2">  1       -1 0.17140903E-03 0.80018442E+02</pdfrwt>
<totfact> 0.33731014E+05</totfact>
</mgrwt>
</event>
<event>
 8    1  0.2676873E-016  0.8812700E+02  0.7818608E-02  0.1307452E+00
          2   -1    0    0  501    0  0.00000000000E+00  0.00000000000E+00  0.81599017294E+03  0.81599017295E+03  0.25500000000E-02 0. -1.
         -1   -1    0    0    0  501 -0.00000000000E+00 -0.00000000000E+00 -0.23794280298E+01  0.23794333675E+01  0.50400000000E-02 0.  1.
         24    2    1    2    0    0  0.00000000000E+00 -0.17763568394E-14  0.81361074491E+03  0.81836960632E+03  0.88127000976E+02 0.  0.
         66    2    3    3    0    0 -0.11254269659E+02  0.11242302374E+02  0.78837743815E+03  0.78854044471E+03  0.19999996459E+01 0.  0.
        -13    1    3    3    0    0  0.11254269659E+02 -0.11242302374E+02  0.25233306760E+02  0.29829161609E+02  0.10566000000E+00 0.  1.
         13    1    4    4    0    0 -0.20158599057E+01  0.21103753498E+01  0.16567019080E+03  0.16569592831E+03  0.10566000000E+00 0. -1.
        -13    1    4    4    0    0 -0.51459580762E+01  0.57139896654E+01  0.39493006863E+03  0.39500493774E+03  0.10566000000E+00 0.  1.
        -14    1    4    4    0    0 -0.40924516768E+01  0.34179373591E+01  0.22777717872E+03  0.22783957866E+03  0.00000000000E+00 0.  1.
<mgrwt>
<rscale>  0 0.88127001E+02</rscale>
<asrwt>0</asrwt>
<pdfrwt beam="1">  1        2 0.12553686E+00 0.88127001E+02</pdfrwt>
<pdfrwt beam="2">  1       -1 0.36606651E-03 0.88127001E+02</pdfrwt>
<totfact> 0.26785090E+05</totfact>
</mgrwt>
</event>
<event>
 8    1  0.2676873E-016  0.7877411E+02  0.7818608E-02  0.1332567E+00
         -1   -1    0    0    0  501 -0.00000000000E+00  0.00000000000E+00  0.21372497983E+03  0.21372497989E+03  0.50400000000E-02 0.  1.
          2   -1    0    0  501    0  0.00000000000E+00 -0.00000000000E+00 -0.72585808541E+01  0.72585813021E+01  0.25500000000E-02 0. -1.
         24    2    1    2    0    0 -0.55511151231E-16  0.00000000000E+00  0.20646639897E+03  0.22098356119E+03  0.78774110028E+02 0.  0.
         66    2    3    3    0    0 -0.19178196750E+00 -0.38285938584E+02  0.12893149601E+03  0.13451089374E+03  0.19999996573E+01 0.  0.
        -13    1    3    3    0    0  0.19178196750E+00  0.38285938584E+02  0.77534902964E+02  0.86472667447E+02  0.10566000000E+00 0.  1.
         13    1    4    4    0    0  0.61858430974E+00 -0.21498148910E+02  0.70710573997E+02  0.73909062314E+02  0.10566000000E+00 0. -1.
        -13    1    4    4    0    0 -0.17637962826E+00 -0.68034000424E+01  0.24541348524E+02  0.25467750457E+02  0.10566000000E+00 0.  1.
        -14    1    4    4    0    0 -0.63398664898E+00 -0.99843896319E+01  0.33679573488E+02  0.35134080972E+02  0.00000000000E+00 0.  1.
<mgrwt>
<rscale>  0 0.78774110E+02</rscale>
<asrwt>0</asrwt>
<pdfrwt beam="1">  1        2 0.11167049E-02 0.78774110E+02</pdfrwt>
<pdfrwt beam="2">  1       -1 0.32880762E-01 0.78774110E+02</pdfrwt>
<totfact> 0.10149670E+05</totfact>
</mgrwt>
</event>
<event>
 8    1  0.2676873E-016  0.7907275E+02  0.7818608E-02  0.1331704E+00
         -1   -1    0    0    0  501 -0.00000000000E+00  0.00000000000E+00  0.76675039681E+01  0.76675056245E+01  0.50400000000E-02 0.  1.
          2   -1    0    0  501    0  0.00000000000E+00 -0.00000000000E+00 -0.20386357118E+03  0.20386357120E+03  0.25500000000E-02 0. -1.
         24    2    1    2    0    0  0.00000000000E+00  0.00000000000E+00 -0.19619606721E+03  0.21153107682E+03  0.79072749235E+02 0.  0.
         66    2    3    3    0    0 -0.18646243077E+02 -0.16680468528E+02 -0.17996931563E+03  0.18171096545E+03  0.19999963747E+01 0.  0.
        -13    1    3    3    0    0  0.18646243077E+02  0.16680468528E+02 -0.16226751583E+02  0.29820111371E+02  0.10566000000E+00 0.  1.
         13    1    4    4    0    0 -0.48459202763E+01 -0.45393721768E+01 -0.44285502780E+02  0.44780640500E+02  0.10566000000E+00 0. -1.
        -13    1    4    4    0    0 -0.67508150430E+01 -0.50549332886E+01 -0.60610292287E+02  0.61194317950E+02  0.10566000000E+00 0.  1.
        -14    1    4    4    0    0 -0.70495077580E+01 -0.70861630623E+01 -0.75073520566E+02  0.75736007003E+02  0.00000000000E+00 0.  1.
<mgrwt>
<rscale>  0 0.79072749E+02</rscale>
<asrwt>0</asrwt>
<pdfrwt beam="1">  1        2 0.31363622E-01 0.79072749E+02</pdfrwt>
<pdfrwt beam="2">  1       -1 0.11796163E-02 0.79072749E+02</pdfrwt>
<totfact> 0.22898945E+05</totfact>
</mgrwt>
</event>
<event>
 8    1  0.2676873E-016  0.8292656E+02  0.7818608E-02  0.1320946E+00
          2   -1    0    0  501    0  0.00000000000E+00  0.00000000000E+00  0.13005954894E+02  0.13005955144E+02  0.25500000000E-02 0. -1.
         -1   -1    0    0    0  501 -0.00000000000E+00 -0.00000000000E+00 -0.13218586262E+03  0.13218586271E+03  0.50400000000E-02 0.  1.
         24    2    1    2    0    0  0.00000000000E+00  0.35527136788E-14 -0.11917990772E+03  0.14519181786E+03  0.82926555263E+02 0.  0.
         66    2    3    3    0    0 -0.17055769029E+02 -0.21908851205E+02 -0.57649025890E+01  0.28427647103E+02  0.19999999095E+01 0.  0.
        -13    1    3    3    0    0  0.17055769029E+02  0.21908851205E+02 -0.11341500513E+03  0.11676417075E+03  0.10566000000E+00 0.  1.
         13    1    4    4    0    0 -0.79604782686E+01 -0.10323772808E+02 -0.18491811402E+01  0.13167389042E+02  0.10566000000E+00 0.  1.
        -13    1    4    4    0    0 -0.85471245140E+01 -0.10739685315E+02 -0.34662203763E+01  0.14156977992E+02  0.10566000000E+00 0. -1.
         14    1    4    4    0    0 -0.54816624684E+00 -0.84539308165E+00 -0.44950107247E+00  0.11032800691E+01  0.00000000000E+00 0. -1.
<mgrwt>
<rscale>  0 0.82926555E+02</rscale>
<asrwt>0</asrwt>
<pdfrwt beam="1">  1        2 0.20009162E-02 0.82926555E+02</pdfrwt>
<pdfrwt beam="2">  1       -1 0.20336286E-01 0.82926555E+02</pdfrwt>
<totfact> 0.10166615E+05</totfact>
</mgrwt>
</event>
<event>
 8    1  0.2676873E-016  0.7510327E+02  0.7818608E-02  0.1343552E+00
         -1   -1    0    0    0  501 -0.00000000000E+00  0.00000000000E+00  0.11353528398E+01  0.11353640264E+01  0.50400000000E-02 0.  1.
          2   -1    0    0  501    0  0.00000000000E+00 -0.00000000000E+00 -0.12420089145E+04  0.12420089145E+04  0.25500000000E-02 0. -1.
         24    2    1    2    0    0  0.22204460493E-15 -0.35527136788E-14 -0.12408735617E+04  0.12431442786E+04  0.75103270315E+02 0.  0.
         66    2    3    3    0    0 -0.16884980861E+01  0.23026370754E+02 -0.11105196376E+04  0.11107614192E+04  0.19999994273E+01 0.  0.
        -13    1    3    3    0    0  0.16884980861E+01 -0.23026370754E+02 -0.13035392408E+03  0.13238285940E+03  0.10566000000E+00 0.  1.
         13    1    4    4    0    0  0.14722856834E+00  0.59737183081E+01 -0.29600624896E+03  0.29606657626E+03  0.10566000000E+00 0. -1.
        -13    1    4    4    0    0 -0.69456996196E+00  0.25135876718E+01 -0.12460902124E+03  0.12463635059E+03  0.10566000000E+00 0.  1.
         14    1    4    4    0    0 -0.11411566925E+01  0.14539064774E+02 -0.68990436741E+03  0.69005849231E+03  0.00000000000E+00 0. -1.
<mgrwt>
<rscale>  0 0.75103270E+02</rscale>
<asrwt>0</asrwt>
<pdfrwt beam="1">  1        2 0.19107721E+00 0.75103270E+02</pdfrwt>
<pdfrwt beam="2">  1       -1 0.17467152E-03 0.75103270E+02</pdfrwt>
<totfact> 0.41080013E+05</totfact>
</mgrwt>
</event>
<event>
 8    1  0.2676873E-016  0.7268626E+02  0.7818608E-02  0.1351189E+00
         -1   -1    0    0    0  501 -0.00000000000E+00  0.00000000000E+00  0.12034052904E+01  0.12034158444E+01  0.50400000000E-02 0.  1.
          2   -1    0    0  501    0  0.00000000000E+00 -0.00000000000E+00 -0.10975663839E+04  0.10975663839E+04  0.25500000000E-02 0. -1.
         24    2    1    2    0    0  0.35527136788E-14  0.22204460493E-15 -0.10963629786E+04  0.10987697997E+04  0.72686257099E+02 0.  0.
         66    2    3    3    0    0  0.20585786675E+02  0.18212119143E+01 -0.10000044538E+04  0.10002199753E+04  0.19999986319E+01 0.  0.
        -13    1    3    3    0    0 -0.20585786675E+02 -0.18212119143E+01 -0.96358524764E+02  0.98549824376E+02  0.10566000000E+00 0.  1.
         13    1    4    4    0    0  0.17054811073E+02  0.21095069293E+01 -0.82961096488E+03  0.82978893751E+03  0.10566000000E+00 0.  1.
        -13    1    4    4    0    0  0.10063090768E+01  0.85130383002E-01 -0.43001246573E+02  0.43013233731E+02  0.10566000000E+00 0. -1.
        -14    1    4    4    0    0  0.25246665246E+01 -0.37342539804E+00 -0.12739224235E+03  0.12741780409E+03  0.00000000000E+00 0.  1.
<mgrwt>
<rscale>  0 0.72686257E+02</rscale>
<asrwt>0</asrwt>
<pdfrwt beam="1">  1        2 0.16885557E+00 0.72686257E+02</pdfrwt>
<pdfrwt beam="2">  1       -1 0.18514097E-03 0.72686257E+02</pdfrwt>
<totfact> 0.45162587E+05</totfact>
</mgrwt>
</event>
<event>
 8    1  0.2676873E-016  0.8017168E+02  0.7818608E-02  0.1328565E+00
          2   -1    0    0  501    0  0.00000000000E+00  0.00000000000E+00  0.94098964636E+01  0.94098968091E+01  0.25500000000E-02 0. -1.
         -1   -1    0    0    0  501 -0.00000000000E+00 -0.00000000000E+00 -0.17076431620E+03  0.17076431627E+03  0.50400000000E-02 0.  1.
         24    2    1    2    0    0  0.00000000000E+00  0.00000000000E+00 -0.16135441974E+03  0.18017421308E+03  0.80171680110E+02 0.  0.
         66    2    3    3    0    0  0.13129313275E+02  0.23425469158E+02 -0.13918511393E+02  0.30312644609E+02  0.19999978687E+01 0.  0.
        -13    1    3    3    0    0 -0.13129313275E+02 -0.23425469158E+02 -0.14743590834E+03  0.14986156847E+03  0.10566000000E+00 0.  1.
         13    1    4    4    0    0  0.36506033661E+01  0.77212839804E+01 -0.50855791433E+01  0.99407952649E+01  0.10566000000E+00 0. -1.
        -13    1    4    4    0    0  0.13743713075E+01  0.21161995353E+01 -0.14568860587E+01  0.29156265172E+01  0.10566000000E+00 0. -1.
         14    1    4    4    0    0  0.81043386014E+01  0.13587985642E+02 -0.73760461907E+01  0.17456222827E+02  0.00000000000E+00 0. -1.
<mgrwt>
<rscale>  0 0.80171680E+02</rscale>
<asrwt>0</asrwt>
<pdfrwt beam="1">  1        2 0.14476765E-02 0.80171680E+02</pdfrwt>
<pdfrwt beam="2">  1       -1 0.26271431E-01 0.80171680E+02</pdfrwt>
<totfact> 0.10367617E+05</totfact>
</mgrwt>
</event>
<event>
 8    1  0.2676873E-016  0.8321795E+02  0.7818608E-02  0.1320160E+00
         -1   -1    0    0    0  501 -0.00000000000E+00  0.00000000000E+00  0.52079332485E+02  0.52079332729E+02  0.50400000000E-02 0.  1.
          2   -1    0    0  501    0  0.00000000000E+00 -0.00000000000E+00 -0.33243641372E+02  0.33243641469E+02  0.25500000000E-02 0. -1.
         24    2    1    2    0    0  0.00000000000E+00 -0.88817841970E-15  0.18835691113E+02  0.85322974198E+02  0.83217946780E+02 0.  0.
         66    2    3    3    0    0  0.40483815828E+02 -0.49774357586E+01  0.11198054268E+01  0.40853007025E+02  0.20000020104E+01 0.  0.
        -13    1    3    3    0    0 -0.40483815828E+02  0.49774357586E+01  0.17715885686E+02  0.44469967173E+02  0.10566000000E+00 0.  1.
         13    1    4    4    0    0  0.31801389575E+02 -0.38546282729E+01  0.76143553179E+00  0.32043368832E+02  0.10566000000E+00 0. -1.
        -13    1    4    4    0    0  0.59595497042E+00 -0.28233731137E-01  0.23094541821E+00  0.64842832459E+00  0.10566000000E+00 0.  1.
        -14    1    4    4    0    0  0.80864712826E+01 -0.10945737546E+01  0.12742447679E+00  0.81612098677E+01  0.00000000000E+00 0.  1.
<mgrwt>
<rscale>  0 0.83217947E+02</rscale>
<asrwt>0</asrwt>
<pdfrwt beam="1">  1        2 0.51144063E-02 0.83217947E+02</pdfrwt>
<pdfrwt beam="2">  1       -1 0.80122051E-02 0.83217947E+02</pdfrwt>
<totfact> 0.12297522E+05</totfact>
</mgrwt>
</event>
<event>
 8    1  0.2676873E-016  0.8027321E+02  0.7818608E-02  0.1328278E+00
         -1   -1    0    0    0  501 -0.00000000000E+00  0.00000000000E+00  0.24869102134E+01  0.24869153205E+01  0.50400000000E-02 0.  1.
          2   -1    0    0  501    0  0.00000000000E+00 -0.00000000000E+00 -0.64776980927E+03  0.64776980928E+03  0.25500000000E-02 0. -1.
         24    2    1    2    0    0  0.00000000000E+00  0.00000000000E+00 -0.64528289906E+03  0.65025672460E+03  0.80273208898E+02 0.  0.
         66    2    3    3    0    0  0.25186043197E+02  0.10767572920E+01 -0.57557893228E+03  0.57613418871E+03  0.19999834360E+01 0.  0.
        -13    1    3    3    0    0 -0.25186043197E+02 -0.10767572920E+01 -0.69703966776E+02  0.74122535888E+02  0.10566000000E+00 0.  1.
         13    1    4    4    0    0  0.75490594085E+01  0.24776131231E+00 -0.16381345157E+03  0.16398752319E+03  0.10566000000E+00 0. -1.
        -13    1    4    4    0    0  0.11727323122E+02  0.12515137179E+01 -0.27744705668E+03  0.27769763560E+03  0.10566000000E+00 0.  1.
        -14    1    4    4    0    0  0.59096606662E+01 -0.42251773822E+00 -0.13431842403E+03  0.13444902991E+03  0.00000000000E+00 0.  1.
<mgrwt>
<rscale>  0 0.80273209E+02</rscale>
<asrwt>0</asrwt>
<pdfrwt beam="1">  1        2 0.99656760E-01 0.80273209E+02</pdfrwt>
<pdfrwt beam="2">  1       -1 0.38260248E-03 0.80273209E+02</pdfrwt>
<totfact> 0.32538703E+05</totfact>
</mgrwt>
</event>
<event>
 8    1  0.2676873E-016  0.8131974E+02  0.7818608E-02  0.1325347E+00
         -1   -1    0    0    0  501 -0.00000000000E+00  0.00000000000E+00  0.22095813054E+02  0.22095813629E+02  0.50400000000E-02 0.  1.
          2   -1    0    0  501    0  0.00000000000E+00 -0.00000000000E+00 -0.74820744596E+02  0.74820744639E+02  0.25500000000E-02 0. -1.
         24    2    1    2    0    0  0.35527136788E-14 -0.35527136788E-14 -0.52724931542E+02  0.96916558269E+02  0.81319744592E+02 0.  0.
         66    2    3    3    0    0  0.31204703009E+02 -0.25538570537E+02 -0.20387512534E+02  0.45228340008E+02  0.19999993931E+01 0.  0.
        -13    1    3    3    0    0 -0.31204703009E+02  0.25538570537E+02 -0.32337419007E+02  0.51688218261E+02  0.10566000000E+00 0.  1.
         13    1    4    4    0    0  0.97824688748E+01 -0.83847125191E+01 -0.74775920179E+01  0.14897169118E+02  0.10566000000E+00 0. -1.
        -13    1    4    4    0    0  0.10672597157E+02 -0.87461906828E+01 -0.65816625499E+01  0.15288218585E+02  0.10566000000E+00 0.  1.
         14    1    4    4    0    0  0.10749636977E+02 -0.84076673348E+01 -0.63282579666E+01  0.15042952304E+02  0.00000000000E+00 0. -1.
<mgrwt>
<rscale>  0 0.81319745E+02</rscale>
<asrwt>0</asrwt>
<pdfrwt beam="1">  1        2 0.11510884E-01 0.81319745E+02</pdfrwt>
<pdfrwt beam="2">  1       -1 0.33993559E-02 0.81319745E+02</pdfrwt>
<totfact> 0.15704191E+05</totfact>
</mgrwt>
</event>
<event>
 8    1  0.2676873E-016  0.7878859E+02  0.7818608E-02  0.1332525E+00
          2   -1    0    0  501    0  0.00000000000E+00  0.00000000000E+00  0.13522794095E+04  0.13522794095E+04  0.25500000000E-02 0. -1.
         -1   -1    0    0    0  501 -0.00000000000E+00 -0.00000000000E+00 -0.11476199514E+01  0.11476310185E+01  0.50400000000E-02 0.  1.
         24    2    1    2    0    0  0.00000000000E+00  0.00000000000E+00  0.13511317895E+04  0.13534270405E+04  0.78788586002E+02 0.  0.
         66    2    3    3    0    0 -0.29101391315E+01 -0.15600104755E+02  0.12949009216E+04  0.12949997022E+04  0.20000001632E+01 0.  0.
        -13    1    3    3    0    0  0.29101391315E+01  0.15600104755E+02  0.56230867958E+02  0.58427338237E+02  0.10566000000E+00 0.  1.
         13    1    4    4    0    0 -0.22019445941E+01 -0.99414873816E+01  0.79725853189E+03  0.79732356015E+03  0.10566000000E+00 0. -1.
        -13    1    4    4    0    0 -0.24890925525E-01 -0.79556841342E+00  0.45497273819E+02  0.45504358447E+02  0.10566000000E+00 0.  1.
         14    1    4    4    0    0 -0.68330361185E+00 -0.48630489600E+01  0.45214511584E+03  0.45217178365E+03  0.00000000000E+00 0. -1.
<mgrwt>
<rscale>  0 0.78788586E+02</rscale>
<asrwt>0</asrwt>
<pdfrwt beam="1">  1        2 0.20804310E+00 0.78788586E+02</pdfrwt>
<pdfrwt beam="2">  1       -1 0.17655767E-03 0.78788586E+02</pdfrwt>
<totfact> 0.35709347E+05</totfact>
</mgrwt>
</event>
<event>
 8    1  0.2676873E-016  0.8269701E+02  0.7818608E-02  0.1321567E+00
          2   -1    0    0  501    0  0.00000000000E+00  0.00000000000E+00  0.11610556583E+03  0.11610556586E+03  0.25500000000E-02 0. -1.
         -1   -1    0    0    0  501 -0.00000000000E+00 -0.00000000000E+00 -0.14725383607E+02  0.14725384469E+02  0.50400000000E-02 0.  1.
         24    2    1    2    0    0  0.00000000000E+00  0.00000000000E+00  0.10138018223E+03  0.13083095033E+03  0.82697014554E+02 0.  0.
         66    2    3    3    0    0  0.31099453858E+02 -0.26604968671E+02  0.59765570479E+02  0.72463258383E+02  0.20000031609E+01 0.  0.
        -13    1    3    3    0    0 -0.31099453858E+02  0.26604968671E+02  0.41614611747E+02  0.58367691946E+02  0.10566000000E+00 0.  1.
         13    1    4    4    0    0  0.15696205217E+02 -0.13021201199E+02  0.30756882895E+02  0.36904194183E+02  0.10566000000E+00 0. -1.
        -13    1    4    4    0    0  0.14201955946E+02 -0.12540127674E+02  0.26230207123E+02  0.32357151984E+02  0.10566000000E+00 0.  1.
         14    1    4    4    0    0  0.12012926950E+01 -0.10436397978E+01  0.27784804609E+01  0.32019122159E+01  0.00000000000E+00 0. -1.
<mgrwt>
<rscale>  0 0.82697015E+02</rscale>
<asrwt>0</asrwt>
<pdfrwt beam="1">  1        2 0.17862395E-01 0.82697015E+02</pdfrwt>
<pdfrwt beam="2">  1       -1 0.22654437E-02 0.82697015E+02</pdfrwt>
<totfact> 0.16934128E+05</totfact>
</mgrwt>
</event>
<event>
 8    1  0.2676873E-016  0.7997676E+02  0.7818608E-02  0.1329117E+00
          2   -1    0    0  501    0  0.00000000000E+00  0.00000000000E+00  0.11175608709E+04  0.11175608709E+04  0.25500000000E-02 0. -1.
         -1   -1    0    0    0  501 -0.00000000000E+00 -0.00000000000E+00 -0.14308530450E+01  0.14308619213E+01  0.50400000000E-02 0.  1.
         24    2    1    2    0    0  0.00000000000E+00  0.00000000000E+00  0.11161300179E+04  0.11189917329E+04  0.79976755199E+02 0.  0.
         66    2    3    3    0    0 -0.12391402924E+02  0.14660992532E+02  0.10488280058E+04  0.10490055659E+04  0.19999995302E+01 0.  0.
        -13    1    3    3    0    0  0.12391402924E+02 -0.14660992532E+02  0.67302012103E+02  0.69986166959E+02  0.10566000000E+00 0.  1.
         13    1    4    4    0    0 -0.64769084215E+01  0.77560642970E+01  0.50204171840E+03  0.50214341085E+03  0.10566000000E+00 0. -1.
        -13    1    4    4    0    0 -0.55880177045E+00  0.80290425589E+00  0.53205864373E+02  0.53214961076E+02  0.10566000000E+00 0. -1.
        -14    1    4    4    0    0 -0.53556927322E+01  0.61020239794E+01  0.49358042302E+03  0.49364719398E+03  0.00000000000E+00 0.  1.
<mgrwt>
<rscale>  0 0.79976755E+02</rscale>
<asrwt>0</asrwt>
<pdfrwt beam="1">  1        2 0.17193258E+00 0.79976755E+02</pdfrwt>
<pdfrwt beam="2">  1       -1 0.22013174E-03 0.79976755E+02</pdfrwt>
<totfact> 0.35257112E+05</totfact>
</mgrwt>
</event>
<event>
 8    1  0.2676873E-016  0.7981584E+02  0.7818608E-02  0.1329575E+00
         -1   -1    0    0    0  501 -0.00000000000E+00  0.00000000000E+00  0.30572879717E+02  0.30572880132E+02  0.50400000000E-02 0.  1.
          2   -1    0    0  501    0  0.00000000000E+00 -0.00000000000E+00 -0.52093301080E+02  0.52093301142E+02  0.25500000000E-02 0. -1.
         24    2    1    2    0    0  0.35527136788E-14  0.00000000000E+00 -0.21520421363E+02  0.82666181274E+02  0.79815844234E+02 0.  0.
         66    2    3    3    0    0  0.20523719276E+02  0.21802067319E+02 -0.38053258170E+02  0.48462394214E+02  0.20000008067E+01 0.  0.
        -13    1    3    3    0    0 -0.20523719276E+02 -0.21802067319E+02  0.16532836807E+02  0.34203787060E+02  0.10566000000E+00 0.  1.
         13    1    4    4    0    0  0.10072660276E+02  0.11506929314E+02 -0.20244174540E+02  0.25371355386E+02  0.10566000000E+00 0. -1.
        -13    1    4    4    0    0  0.40768961647E+01  0.34517135932E+01 -0.67010810950E+01  0.85703594408E+01  0.10566000000E+00 0.  1.
        -14    1    4    4    0    0  0.63741628356E+01  0.68434244120E+01 -0.11108002535E+02  0.14520679387E+02  0.00000000000E+00 0.  1.
<mgrwt>
<rscale>  0 0.79815844E+02</rscale>
<asrwt>0</asrwt>
<pdfrwt beam="1">  1        2 0.80143540E-02 0.79815844E+02</pdfrwt>
<pdfrwt beam="2">  1       -1 0.47035200E-02 0.79815844E+02</pdfrwt>
<totfact> 0.15173165E+05</totfact>
</mgrwt>
</event>
<event>
 8    1  0.2676873E-016  0.8141748E+02  0.7818608E-02  0.1325076E+00
          2   -1    0    0  501    0  0.00000000000E+00  0.00000000000E+00  0.72805475859E+02  0.72805475904E+02  0.25500000000E-02 0. -1.
         -1   -1    0    0    0  501 -0.00000000000E+00 -0.00000000000E+00 -0.22762044933E+02  0.22762045491E+02  0.50400000000E-02 0.  1.
         24    2    1    2    0    0  0.00000000000E+00  0.00000000000E+00  0.50043430926E+02  0.95567521395E+02  0.81417480720E+02 0.  0.
         66    2    3    3    0    0 -0.72024920154E+01 -0.17105857532E+02  0.67532573082E+02  0.70065217371E+02  0.20000012387E+01 0.  0.
        -13    1    3    3    0    0  0.72024920154E+01  0.17105857532E+02 -0.17489142156E+02  0.25502304024E+02  0.10566000000E+00 0.  1.
         13    1    4    4    0    0 -0.45231572376E+01 -0.89521783510E+01  0.37217098183E+02  0.38545090606E+02  0.10566000000E+00 0. -1.
        -13    1    4    4    0    0 -0.58952178964E+00 -0.17648823754E+01  0.53397559387E+01  0.56556611691E+01  0.10566000000E+00 0.  1.
        -14    1    4    4    0    0 -0.20898129881E+01 -0.63887968061E+01  0.24975718960E+02  0.25864465595E+02  0.00000000000E+00 0.  1.
<mgrwt>
<rscale>  0 0.81417481E+02</rscale>
<asrwt>0</asrwt>
<pdfrwt beam="1">  1        2 0.11200842E-01 0.81417481E+02</pdfrwt>
<pdfrwt beam="2">  1       -1 0.35018532E-02 0.81417481E+02</pdfrwt>
<totfact> 0.15546474E+05</totfact>
</mgrwt>
</event>
<event>
 8    1  0.2676873E-016  0.7548842E+02  0.7818608E-02  0.1342365E+00
          2   -1    0    0  501    0  0.00000000000E+00  0.00000000000E+00  0.41189232529E+02  0.41189232608E+02  0.25500000000E-02 0. -1.
         -1   -1    0    0    0  501 -0.00000000000E+00 -0.00000000000E+00 -0.34587328437E+02  0.34587328804E+02  0.50400000000E-02 0.  1.
         24    2    1    2    0    0  0.35527136788E-14 -0.17763568394E-14  0.66019040928E+01  0.75776561412E+02  0.75488423760E+02 0.  0.
         66    2    3    3    0    0 -0.20165274151E+02 -0.15681057547E+02  0.31159623336E+02  0.40341739755E+02  0.19999981470E+01 0.  0.
        -13    1    3    3    0    0  0.20165274151E+02  0.15681057547E+02 -0.24557719244E+02  0.35434821657E+02  0.10566000000E+00 0.  1.
         13    1    4    4    0    0 -0.10585305388E+02 -0.87419251328E+01  0.16276360928E+02  0.21293215686E+02  0.10566000000E+00 0. -1.
        -13    1    4    4    0    0 -0.88791348140E+01 -0.64563493894E+01  0.14244474082E+02  0.17984429054E+02  0.10566000000E+00 0.  1.
        -14    1    4    4    0    0 -0.70083394936E+00 -0.48278302531E+00  0.63878832660E+00  0.10640950147E+01  0.00000000000E+00 0.  1.
<mgrwt>
<rscale>  0 0.75488424E+02</rscale>
<asrwt>0</asrwt>
<pdfrwt beam="1">  1        2 0.63368050E-02 0.75488424E+02</pdfrwt>
<pdfrwt beam="2">  1       -1 0.53211275E-02 0.75488424E+02</pdfrwt>
<totfact> 0.16822590E+05</totfact>
</mgrwt>
</event>
<event>
 8    1  0.2676873E-016  0.8090773E+02  0.7818608E-02  0.1326495E+00
         -1   -1    0    0    0  501 -0.00000000000E+00  0.00000000000E+00  0.10175660965E+01  0.10175785780E+01  0.50400000000E-02 0.  1.
          2   -1    0    0  501    0  0.00000000000E+00 -0.00000000000E+00 -0.16082543362E+04  0.16082543362E+04  0.25500000000E-02 0. -1.
         24    2    1    2    0    0  0.35527136788E-14  0.11102230246E-15 -0.16072367701E+04  0.16092719148E+04  0.80907728476E+02 0.  0.
         66    2    3    3    0    0  0.12999734434E+02  0.94825689672E+00 -0.15653129919E+04  0.15653685364E+04  0.19999996744E+01 0.  0.
        -13    1    3    3    0    0 -0.12999734434E+02 -0.94825689672E+00 -0.41923778277E+02  0.43903378407E+02  0.10566000000E+00 0.  1.
         13    1    4    4    0    0  0.17488254455E+01  0.67693868290E+00 -0.25907956564E+03  0.25908637388E+03  0.10566000000E+00 0. -1.
        -13    1    4    4    0    0  0.24159201185E+01 -0.19106130214E+00 -0.25813704492E+03  0.25814844237E+03  0.10566000000E+00 0.  1.
         14    1    4    4    0    0  0.88349888703E+01  0.46237951595E+00 -0.10480963813E+04  0.10481337202E+04  0.00000000000E+00 0. -1.
<mgrwt>
<rscale>  0 0.80907728E+02</rscale>
<asrwt>0</asrwt>
<pdfrwt beam="1">  1        2 0.24742171E+00 0.80907728E+02</pdfrwt>
<pdfrwt beam="2">  1       -1 0.15655088E-03 0.80907728E+02</pdfrwt>
<totfact> 0.31338406E+05</totfact>
</mgrwt>
</event>
<event>
 8    1  0.2676873E-016  0.8444067E+02  0.7818608E-02  0.1316902E+00
          2   -1    0    0  501    0  0.00000000000E+00  0.00000000000E+00  0.20560816179E+04  0.20560816179E+04  0.25500000000E-02 0. -1.
         -1   -1    0    0    0  501 -0.00000000000E+00 -0.00000000000E+00 -0.86696051478E+00  0.86697516445E+00  0.50400000000E-02 0.  1.
         24    2    1    2    0    0  0.17763568394E-14  0.17763568394E-14  0.20552146574E+04  0.20569485930E+04  0.84440669024E+02 0.  0.
         66    2    3    3    0    0 -0.13593583828E+02 -0.86415054822E+01  0.19782384004E+04  0.19783049891E+04  0.20000032121E+01 0.  0.
        -13    1    3    3    0    0  0.13593583828E+02  0.86415054822E+01  0.76976256932E+02  0.78643603895E+02  0.10566000000E+00 0.  1.
         13    1    4    4    0    0 -0.29936575926E+01 -0.13128363485E+01  0.42529897339E+03  0.42531154870E+03  0.10566000000E+00 0. -1.
        -13    1    4    4    0    0 -0.55806694935E+01 -0.45839745868E+01  0.83790407074E+03  0.83793520014E+03  0.10566000000E+00 0.  1.
        -14    1    4    4    0    0 -0.50192567423E+01 -0.27446945469E+01  0.71503535629E+03  0.71505824031E+03  0.00000000000E+00 0.  1.
<mgrwt>
<rscale>  0 0.84440669E+02</rscale>
<asrwt>0</asrwt>
<pdfrwt beam="1">  1        2 0.31632168E+00 0.84440669E+02</pdfrwt>
<pdfrwt beam="2">  1       -1 0.13337906E-03 0.84440669E+02</pdfrwt>
<totfact> 0.23467803E+05</totfact>
</mgrwt>
</event>
<event>
 8    1  0.2676873E-016  0.7912358E+02  0.7818608E-02  0.1331557E+00
          2   -1    0    0  501    0  0.00000000000E+00  0.00000000000E+00  0.26420822888E+02  0.26420823011E+02  0.25500000000E-02 0. -1.
         -1   -1    0    0    0  501 -0.00000000000E+00 -0.00000000000E+00 -0.59238702713E+02  0.59238702927E+02  0.50400000000E-02 0.  1.
         24    2    1    2    0    0 -0.35527136788E-14 -0.35527136788E-14 -0.32817879825E+02  0.85659525938E+02  0.79123581489E+02 0.  0.
         66    2    3    3    0    0 -0.19007357016E+02 -0.26213941112E+02  0.81411718383E+01  0.33447406592E+02  0.19999998799E+01 0.  0.
        -13    1    3    3    0    0  0.19007357016E+02  0.26213941112E+02 -0.40959051664E+02  0.52212119346E+02  0.10566000000E+00 0.  1.
         13    1    4    4    0    0 -0.50408168569E+01 -0.66970722177E+01  0.25846259375E+01  0.87722326774E+01  0.10566000000E+00 0. -1.
        -13    1    4    4    0    0 -0.35630084504E+01 -0.53814100167E+01  0.90497374649E+00  0.65180322569E+01  0.10566000000E+00 0.  1.
         14    1    4    4    0    0 -0.10403531708E+02 -0.14135458878E+02  0.46515721543E+01  0.18157141658E+02  0.00000000000E+00 0. -1.
<mgrwt>
<rscale>  0 0.79123581E+02</rscale>
<asrwt>0</asrwt>
<pdfrwt beam="1">  1        2 0.40647420E-02 0.79123581E+02</pdfrwt>
<pdfrwt beam="2">  1       -1 0.91136465E-02 0.79123581E+02</pdfrwt>
<totfact> 0.13536647E+05</totfact>
</mgrwt>
</event>
<event>
 8    1  0.2676873E-016  0.7416517E+02  0.7818608E-02  0.1346476E+00
          2   -1    0    0  501    0  0.00000000000E+00  0.00000000000E+00  0.24931115203E+02  0.24931115334E+02  0.25500000000E-02 0. -1.
         -1   -1    0    0    0  501 -0.00000000000E+00 -0.00000000000E+00 -0.55156709444E+02  0.55156709674E+02  0.50400000000E-02 0.  1.
         24    2    1    2    0    0  0.00000000000E+00  0.88817841970E-15 -0.30225594240E+02  0.80087825008E+02  0.74165174896E+02 0.  0.
         66    2    3    3    0    0  0.36227676797E+02  0.73509974982E+01 -0.17904616498E+02  0.41122463636E+02  0.19999983061E+01 0.  0.
        -13    1    3    3    0    0 -0.36227676797E+02 -0.73509974982E+01 -0.12320977742E+02  0.38965361372E+02  0.10566000000E+00 0.  1.
         13    1    4    4    0    0  0.10603164302E+02  0.23988453055E+01 -0.47688686670E+01  0.11871597383E+02  0.10566000000E+00 0. -1.
        -13    1    4    4    0    0  0.60440814165E+01  0.80634378247E+00 -0.25607568181E+01  0.66143593780E+01  0.10566000000E+00 0. -1.
         14    1    4    4    0    0  0.19580431078E+02  0.41458084102E+01 -0.10574991013E+02  0.22636506875E+02  0.00000000000E+00 0. -1.
<mgrwt>
<rscale>  0 0.74165175E+02</rscale>
<asrwt>0</asrwt>
<pdfrwt beam="1">  1        2 0.38355562E-02 0.74165175E+02</pdfrwt>
<pdfrwt beam="2">  1       -1 0.84856476E-02 0.74165175E+02</pdfrwt>
<totfact> 0.16051449E+05</totfact>
</mgrwt>
</event>
<event>
 8    1  0.2676873E-016  0.8004591E+02  0.7818608E-02  0.1328921E+00
          2   -1    0    0  501    0  0.00000000000E+00  0.00000000000E+00  0.41803944031E+03  0.41803944031E+03  0.25500000000E-02 0. -1.
         -1   -1    0    0    0  501 -0.00000000000E+00 -0.00000000000E+00 -0.38317829590E+01  0.38317862736E+01  0.50400000000E-02 0.  1.
         24    2    1    2    0    0 -0.35527136788E-14 -0.35527136788E-14  0.41420765735E+03  0.42187122659E+03  0.80045914433E+02 0.  0.
         66    2    3    3    0    0  0.14083068392E+02  0.23083146613E+02  0.36256713066E+03  0.36357954937E+03  0.20000020149E+01 0.  0.
        -13    1    3    3    0    0 -0.14083068392E+02 -0.23083146613E+02  0.51640526684E+02  0.58291677220E+02  0.10566000000E+00 0.  1.
         13    1    4    4    0    0  0.23906013995E+01  0.42795991937E+01  0.71210824148E+02  0.71379426897E+02  0.10566000000E+00 0. -1.
        -13    1    4    4    0    0  0.76560284532E+00  0.14640369699E+01  0.17604875183E+02  0.17682543545E+02  0.10566000000E+00 0.  1.
         14    1    4    4    0    0  0.10926864147E+02  0.17339510449E+02  0.27375143133E+03  0.27451757893E+03  0.00000000000E+00 0. -1.
<mgrwt>
<rscale>  0 0.80045914E+02</rscale>
<asrwt>0</asrwt>
<pdfrwt beam="1">  1        2 0.64313755E-01 0.80045914E+02</pdfrwt>
<pdfrwt beam="2">  1       -1 0.58950537E-03 0.80045914E+02</pdfrwt>
<totfact> 0.28646837E+05</totfact>
</mgrwt>
</event>
<event>
 8    1  0.2676873E-016  0.7652568E+02  0.7818608E-02  0.1339211E+00
          2   -1    0    0  501    0  0.00000000000E+00  0.00000000000E+00  0.10363333616E+03  0.10363333619E+03  0.25500000000E-02 0. -1.
         -1   -1    0    0    0  501 -0.00000000000E+00 -0.00000000000E+00 -0.14127159633E+02  0.14127160532E+02  0.50400000000E-02 0.  1.
         24    2    1    2    0    0  0.00000000000E+00  0.00000000000E+00  0.89506176527E+02  0.11776049672E+03  0.76525675117E+02 0.  0.
         66    2    3    3    0    0 -0.25417679606E+02 -0.12716513030E+02  0.84145060669E+02  0.88837826248E+02  0.19999993121E+01 0.  0.
        -13    1    3    3    0    0  0.25417679606E+02  0.12716513030E+02  0.53611158576E+01  0.28922670476E+02  0.10566000000E+00 0.  1.
         13    1    4    4    0    0 -0.78371494966E+01 -0.36028226634E+01  0.24369032986E+02  0.25850767418E+02  0.10566000000E+00 0. -1.
        -13    1    4    4    0    0 -0.32780375245E+01 -0.22803988372E+01  0.11298569769E+02  0.11983930563E+02  0.10566000000E+00 0.  1.
         14    1    4    4    0    0 -0.14302492584E+02 -0.68332915298E+01  0.48477457913E+02  0.51003128267E+02  0.00000000000E+00 0. -1.
<mgrwt>
<rscale>  0 0.76525675E+02</rscale>
<asrwt>0</asrwt>
<pdfrwt beam="1">  1        2 0.15943590E-01 0.76525675E+02</pdfrwt>
<pdfrwt beam="2">  1       -1 0.21734092E-02 0.76525675E+02</pdfrwt>
<totfact> 0.20158101E+05</totfact>
</mgrwt>
</event>
<event>
 8    1  0.2676873E-016  0.8460425E+02  0.7818608E-02  0.1316471E+00
         -1   -1    0    0    0  501 -0.00000000000E+00  0.00000000000E+00  0.18479734242E+01  0.18479802970E+01  0.50400000000E-02 0.  1.
          2   -1    0    0  501    0  0.00000000000E+00 -0.00000000000E+00 -0.96833987066E+03  0.96833987066E+03  0.25500000000E-02 0. -1.
         24    2    1    2    0    0  0.17763568394E-14 -0.35527136788E-14 -0.96649189723E+03  0.97018785096E+03  0.84604247699E+02 0.  0.
         66    2    3    3    0    0  0.10710933138E+02 -0.28174906640E+02 -0.82348254939E+03  0.82403644252E+03  0.20000008544E+01 0.  0.
        -13    1    3    3    0    0 -0.10710933138E+02  0.28174906640E+02 -0.14300934784E+03  0.14615140843E+03  0.10566000000E+00 0.  1.
         13    1    4    4    0    0  0.48686362828E+01 -0.13651171614E+02 -0.41713947028E+03  0.41739119173E+03  0.10566000000E+00 0. -1.
        -13    1    4    4    0    0  0.29873297047E+01 -0.84266908939E+01 -0.23117185628E+03  0.23134470290E+03  0.10566000000E+00 0.  1.
         14    1    4    4    0    0  0.28549671505E+01 -0.60970441322E+01 -0.17517122283E+03  0.17530054790E+03  0.00000000000E+00 0. -1.
<mgrwt>
<rscale>  0 0.84604248E+02</rscale>
<asrwt>0</asrwt>
<pdfrwt beam="1">  1        2 0.14897496E+00 0.84604248E+02</pdfrwt>
<pdfrwt beam="2">  1       -1 0.28430491E-03 0.84604248E+02</pdfrwt>
<totfact> 0.30402681E+05</totfact>
</mgrwt>
</event>
<event>
 8    1  0.2676873E-016  0.8056123E+02  0.7818608E-02  0.1327466E+00
         -1   -1    0    0    0  501 -0.00000000000E+00  0.00000000000E+00  0.14741489330E+03  0.14741489339E+03  0.50400000000E-02 0.  1.
          2   -1    0    0  501    0  0.00000000000E+00 -0.00000000000E+00 -0.11006539810E+02  0.11006540105E+02  0.25500000000E-02 0. -1.
         24    2    1    2    0    0  0.35527136788E-14  0.00000000000E+00  0.13640835349E+03  0.15842143349E+03  0.80561229431E+02 0.  0.
         66    2    3    3    0    0 -0.29737506308E+02  0.66811407428E+00  0.14905833483E+02  0.33330909510E+02  0.19999997737E+01 0.  0.
        -13    1    3    3    0    0  0.29737506308E+02 -0.66811407428E+00  0.12150252001E+03  0.12509052398E+03  0.10566000000E+00 0.  1.
         13    1    4    4    0    0 -0.91639064038E+01 -0.11985578222E+00  0.43280261831E+01  0.10135803898E+02  0.10566000000E+00 0. -1.
        -13    1    4    4    0    0 -0.86366730810E+01 -0.39687337956E+00  0.45268713268E+01  0.97597827042E+01  0.10566000000E+00 0.  1.
         14    1    4    4    0    0 -0.11936926823E+02  0.11848432361E+01  0.60509359729E+01  0.13435322907E+02  0.00000000000E+00 0. -1.
<mgrwt>
<rscale>  0 0.80561229E+02</rscale>
<asrwt>0</asrwt>
<pdfrwt beam="1">  1        2 0.16933139E-02 0.80561229E+02</pdfrwt>
<pdfrwt beam="2">  1       -1 0.22679214E-01 0.80561229E+02</pdfrwt>
<totfact> 0.10645272E+05</totfact>
</mgrwt>
</event>
<event>
 8    1  0.2676873E-016  0.8057226E+02  0.7818608E-02  0.1327435E+00
          2   -1    0    0  501    0  0.00000000000E+00  0.00000000000E+00  0.21544825011E+02  0.21544825162E+02  0.25500000000E-02 0. -1.
         -1   -1    0    0    0  501 -0.00000000000E+00 -0.00000000000E+00 -0.75330021148E+02  0.75330021316E+02  0.50400000000E-02 0.  1.
         24    2    1    2    0    0 -0.22204460493E-15  0.35527136788E-14 -0.53785196136E+02  0.96874846478E+02  0.80572256744E+02 0.  0.
         66    2    3    3    0    0 -0.19152066858E+01  0.24734117085E+02  0.11216893606E+02  0.27299510335E+02  0.19999994432E+01 0.  0.
        -13    1    3    3    0    0  0.19152066858E+01 -0.24734117085E+02 -0.65002089742E+02  0.69575336143E+02  0.10566000000E+00 0.  1.
         13    1    4    4    0    0 -0.19596326733E+01  0.21643123094E+02  0.10172684708E+02  0.23994991471E+02  0.10566000000E+00 0. -1.
        -13    1    4    4    0    0  0.80723760208E-01  0.18229675724E+01  0.86920456060E+00  0.20239584233E+01  0.10566000000E+00 0.  1.
         14    1    4    4    0    0 -0.36297772740E-01  0.12680264178E+01  0.17500433728E+00  0.12805604409E+01  0.00000000000E+00 0. -1.
<mgrwt>
<rscale>  0 0.80572257E+02</rscale>
<asrwt>0</asrwt>
<pdfrwt beam="1">  1        2 0.33145885E-02 0.80572257E+02</pdfrwt>
<pdfrwt beam="2">  1       -1 0.11589234E-01 0.80572257E+02</pdfrwt>
<totfact> 0.12348569E+05</totfact>
</mgrwt>
</event>
<event>
 8    1  0.2676873E-016  0.7985976E+02  0.7818608E-02  0.1329450E+00
          2   -1    0    0  501    0  0.00000000000E+00  0.00000000000E+00  0.13067283453E+04  0.13067283453E+04  0.25500000000E-02 0. -1.
         -1   -1    0    0    0  501 -0.00000000000E+00 -0.00000000000E+00 -0.12201376258E+01  0.12201480350E+01  0.50400000000E-02 0.  1.
         24    2    1    2    0    0  0.00000000000E+00  0.00000000000E+00  0.13055082076E+04  0.13079484933E+04  0.79859757818E+02 0.  0.
         66    2    3    3    0    0  0.28692086238E+01 -0.17184646032E+02  0.12411431636E+04  0.12412670530E+04  0.19999985865E+01 0.  0.
        -13    1    3    3    0    0 -0.28692086238E+01  0.17184646032E+02  0.64365044063E+02  0.66681440286E+02  0.10566000000E+00 0.  1.
         13    1    4    4    0    0  0.76890790075E+00 -0.52409771382E+01  0.33876509097E+03  0.33880651866E+03  0.10566000000E+00 0. -1.
        -13    1    4    4    0    0  0.98312003530E+00 -0.25530684166E+01  0.19209946066E+03  0.19211897000E+03  0.10566000000E+00 0.  1.
         14    1    4    4    0    0  0.11171806877E+01 -0.93906004774E+01  0.71027861194E+03  0.71034156435E+03  0.00000000000E+00 0. -1.
<mgrwt>
<rscale>  0 0.79859758E+02</rscale>
<asrwt>0</asrwt>
<pdfrwt beam="1">  1        2 0.20103509E+00 0.79859758E+02</pdfrwt>
<pdfrwt beam="2">  1       -1 0.18771432E-03 0.79859758E+02</pdfrwt>
<totfact> 0.34739763E+05</totfact>
</mgrwt>
</event>
<event>
 8    1  0.2676873E-016  0.7878601E+02  0.7818608E-02  0.1332532E+00
         -1   -1    0    0    0  501 -0.00000000000E+00  0.00000000000E+00  0.16616256537E+02  0.16616257302E+02  0.50400000000E-02 0.  1.
          2   -1    0    0  501    0  0.00000000000E+00 -0.00000000000E+00 -0.93390997236E+02  0.93390997271E+02  0.25500000000E-02 0. -1.
         24    2    1    2    0    0 -0.35527136788E-14  0.00000000000E+00 -0.76774740698E+02  0.11000725457E+03  0.78786009222E+02 0.  0.
         66    2    3    3    0    0  0.19546979406E+02 -0.20780218992E+02 -0.76289616853E+02  0.81473968494E+02  0.19999993237E+01 0.  0.
        -13    1    3    3    0    0 -0.19546979406E+02  0.20780218992E+02 -0.48512384539E+00  0.28533286078E+02  0.10566000000E+00 0.  1.
         13    1    4    4    0    0  0.11547196406E+02 -0.11995037495E+02 -0.42732123966E+02  0.45861359030E+02  0.10566000000E+00 0. -1.
        -13    1    4    4    0    0  0.53576148450E+01 -0.62301127151E+01 -0.21995022813E+02  0.23480002850E+02  0.10566000000E+00 0.  1.
        -14    1    4    4    0    0  0.26421681542E+01 -0.25550687826E+01 -0.11562470074E+02  0.12132606614E+02  0.00000000000E+00 0.  1.
<mgrwt>
<rscale>  0 0.78786009E+02</rscale>
<asrwt>0</asrwt>
<pdfrwt beam="1">  1        2 0.14367845E-01 0.78786009E+02</pdfrwt>
<pdfrwt beam="2">  1       -1 0.25563473E-02 0.78786009E+02</pdfrwt>
<totfact> 0.18122052E+05</totfact>
</mgrwt>
</event>
<event>
 8    1  0.2676873E-016  0.8041658E+02  0.7818608E-02  0.1327873E+00
         -1   -1    0    0    0  501 -0.00000000000E+00  0.00000000000E+00  0.13354860472E+03  0.13354860481E+03  0.50400000000E-02 0.  1.
          2   -1    0    0  501    0  0.00000000000E+00 -0.00000000000E+00 -0.12105754796E+02  0.12105755065E+02  0.25500000000E-02 0. -1.
         24    2    1    2    0    0 -0.35527136788E-14  0.00000000000E+00  0.12144284992E+03  0.14565435988E+03  0.80416582582E+02 0.  0.
         66    2    3    3    0    0 -0.21483376416E+02  0.30697591269E+02  0.34459949119E+02  0.50944731180E+02  0.19999924486E+01 0.  0.
        -13    1    3    3    0    0  0.21483376416E+02 -0.30697591269E+02  0.86982900802E+02  0.94709628697E+02  0.10566000000E+00 0.  1.
         13    1    4    4    0    0 -0.11539995378E+02  0.16193160724E+02  0.17633535970E+02  0.26577108617E+02  0.10566000000E+00 0. -1.
        -13    1    4    4    0    0 -0.49744207054E+01  0.63007099735E+01  0.79770489921E+01  0.11317609385E+02  0.10566000000E+00 0. -1.
         14    1    4    4    0    0 -0.49689603325E+01  0.82037205710E+01  0.88493641567E+01  0.13050013179E+02  0.00000000000E+00 0. -1.
<mgrwt>
<rscale>  0 0.80416583E+02</rscale>
<asrwt>0</asrwt>
<pdfrwt beam="1">  1        2 0.18624240E-02 0.80416583E+02</pdfrwt>
<pdfrwt beam="2">  1       -1 0.20545938E-01 0.80416583E+02</pdfrwt>
<totfact> 0.10957739E+05</totfact>
</mgrwt>
</event>
<event>
 8    1  0.2676873E-016  0.7806684E+02  0.7818608E-02  0.1334629E+00
          2   -1    0    0  501    0  0.00000000000E+00  0.00000000000E+00  0.37340340841E+03  0.37340340841E+03  0.25500000000E-02 0. -1.
         -1   -1    0    0    0  501 -0.00000000000E+00 -0.00000000000E+00 -0.40803248094E+01  0.40803279221E+01  0.50400000000E-02 0.  1.
         24    2    1    2    0    0 -0.35527136788E-14  0.13322676296E-14  0.36932308360E+03  0.37748373634E+03  0.78066837527E+02 0.  0.
         66    2    3    3    0    0 -0.20730344372E+02  0.37413005425E+01  0.34353195391E+03  0.34418301499E+03  0.19999862068E+01 0.  0.
        -13    1    3    3    0    0  0.20730344372E+02 -0.37413005425E+01  0.25791129689E+02  0.33300721346E+02  0.10566000000E+00 0.  1.
         13    1    4    4    0    0 -0.55314988078E+01  0.98665325562E+00  0.97114208810E+02  0.97276675933E+02  0.10566000000E+00 0. -1.
        -13    1    4    4    0    0 -0.31118953570E+00 -0.41674969262E-01  0.31345385332E+01  0.31519948576E+01  0.10566000000E+00 0.  1.
        -14    1    4    4    0    0 -0.14887656028E+02  0.27963222562E+01  0.24328320656E+03  0.24375434420E+03  0.00000000000E+00 0.  1.
<mgrwt>
<rscale>  0 0.78066838E+02</rscale>
<asrwt>0</asrwt>
<pdfrwt beam="1">  1        2 0.57446685E-01 0.78066838E+02</pdfrwt>
<pdfrwt beam="2">  1       -1 0.62774245E-03 0.78066838E+02</pdfrwt>
<totfact> 0.29395358E+05</totfact>
</mgrwt>
</event>
<event>
 8    1  0.2676873E-016  0.7658533E+02  0.7818608E-02  0.1339031E+00
         -1   -1    0    0    0  501 -0.00000000000E+00  0.00000000000E+00  0.90540346566E+01  0.90540360593E+01  0.50400000000E-02 0.  1.
          2   -1    0    0  501    0  0.00000000000E+00 -0.00000000000E+00 -0.16195301637E+03  0.16195301639E+03  0.25500000000E-02 0. -1.
         24    2    1    2    0    0  0.00000000000E+00 -0.55511151231E-16 -0.15289898171E+03  0.17100705245E+03  0.76585333963E+02 0.  0.
         66    2    3    3    0    0  0.26587609942E+02  0.28089415075E+00 -0.13795048950E+03  0.14050379873E+03  0.20000000613E+01 0.  0.
        -13    1    3    3    0    0 -0.26587609942E+02 -0.28089415075E+00 -0.14948492211E+02  0.30503253717E+02  0.10566000000E+00 0.  1.
         13    1    4    4    0    0  0.16686868523E+02  0.99781060469E+00 -0.87765310850E+02  0.89343204329E+02  0.10566000000E+00 0. -1.
        -13    1    4    4    0    0  0.28864666714E+01 -0.18500999277E+00 -0.13432893322E+02  0.13741168276E+02  0.10566000000E+00 0.  1.
         14    1    4    4    0    0  0.70142747469E+01 -0.53190646116E+00 -0.36752285326E+02  0.37419426123E+02  0.00000000000E+00 0. -1.
<mgrwt>
<rscale>  0 0.76585334E+02</rscale>
<asrwt>0</asrwt>
<pdfrwt beam="1">  1        2 0.24915847E-01 0.76585334E+02</pdfrwt>
<pdfrwt beam="2">  1       -1 0.13929286E-02 0.76585334E+02</pdfrwt>
<totfact> 0.23046363E+05</totfact>
</mgrwt>
</event>
<event>
 8    1  0.2676873E-016  0.7954346E+02  0.7818608E-02  0.1330352E+00
         -1   -1    0    0    0  501 -0.00000000000E+00  0.00000000000E+00  0.42764788936E+02  0.42764789233E+02  0.50400000000E-02 0.  1.
          2   -1    0    0  501    0  0.00000000000E+00 -0.00000000000E+00 -0.36988153448E+02  0.36988153535E+02  0.25500000000E-02 0. -1.
         24    2    1    2    0    0 -0.17763568394E-14  0.00000000000E+00  0.57766354881E+01  0.79752942768E+02  0.79543462098E+02 0.  0.
         66    2    3    3    0    0  0.12172732473E+02 -0.63271969190E+01 -0.34511946722E+02  0.37192516816E+02  0.20000009540E+01 0.  0.
        -13    1    3    3    0    0 -0.12172732473E+02  0.63271969190E+01  0.40288582210E+02  0.42560425952E+02  0.10566000000E+00 0.  1.
         13    1    4    4    0    0  0.64816421387E+01 -0.36443356101E+01 -0.18219130475E+02  0.19678433529E+02  0.10566000000E+00 0. -1.
        -13    1    4    4    0    0  0.33803934307E+01 -0.88239152721E+00 -0.90113922755E+01  0.96655071948E+01  0.10566000000E+00 0.  1.
        -14    1    4    4    0    0  0.23106969035E+01 -0.18004697816E+01 -0.72814239716E+01  0.78485760918E+01  0.00000000000E+00 0.  1.
<mgrwt>
<rscale>  0 0.79543462E+02</rscale>
<asrwt>0</asrwt>
<pdfrwt beam="1">  1        2 0.56904851E-02 0.79543462E+02</pdfrwt>
<pdfrwt beam="2">  1       -1 0.65791984E-02 0.79543462E+02</pdfrwt>
<totfact> 0.14253824E+05</totfact>
</mgrwt>
</event>
<event>
 8    1  0.2676873E-016  0.7985686E+02  0.7818608E-02  0.1329458E+00
         -1   -1    0    0    0  501 -0.00000000000E+00  0.00000000000E+00  0.28944943528E+02  0.28944943967E+02  0.50400000000E-02 0.  1.
          2   -1    0    0  501    0  0.00000000000E+00 -0.00000000000E+00 -0.55079723520E+02  0.55079723579E+02  0.25500000000E-02 0. -1.
         24    2    1    2    0    0  0.00000000000E+00  0.00000000000E+00 -0.26134779991E+02  0.84024667546E+02  0.79856859637E+02 0.  0.
         66    2    3    3    0    0  0.24628601716E+02  0.27207650294E+02  0.34089582147E+01  0.36911316060E+02  0.20000000454E+01 0.  0.
        -13    1    3    3    0    0 -0.24628601716E+02 -0.27207650294E+02 -0.29543738206E+02  0.47113351486E+02  0.10566000000E+00 0.  1.
         13    1    4    4    0    0  0.92618977320E+01  0.92883011918E+01  0.95003688478E+00  0.13151768807E+02  0.10566000000E+00 0. -1.
        -13    1    4    4    0    0  0.38184199752E+00  0.62594219551E+00 -0.34643593742E-01  0.74160040276E+00  0.10566000000E+00 0.  1.
         14    1    4    4    0    0  0.14984861987E+02  0.17293406907E+02  0.24935649236E+01  0.23017946851E+02  0.00000000000E+00 0. -1.
<mgrwt>
<rscale>  0 0.79856860E+02</rscale>
<asrwt>0</asrwt>
<pdfrwt beam="1">  1        2 0.84738036E-02 0.79856860E+02</pdfrwt>
<pdfrwt beam="2">  1       -1 0.44530683E-02 0.79856860E+02</pdfrwt>
<totfact> 0.15340725E+05</totfact>
</mgrwt>
</event>
<event>
 8    1  0.2676873E-016  0.8120674E+02  0.7818608E-02  0.1325661E+00
         -1   -1    0    0    0  501 -0.00000000000E+00  0.00000000000E+00  0.20413039703E+02  0.20413040326E+02  0.50400000000E-02 0.  1.
          2   -1    0    0  501    0  0.00000000000E+00 -0.00000000000E+00 -0.80763750063E+02  0.80763750103E+02  0.25500000000E-02 0. -1.
         24    2    1    2    0    0 -0.71054273576E-14  0.17763568394E-14 -0.60350710359E+02  0.10117679043E+03  0.81206740364E+02 0.  0.
         66    2    3    3    0    0  0.37613351181E+02 -0.14979945787E+02 -0.26789330896E+02  0.48588385639E+02  0.20000015834E+01 0.  0.
        -13    1    3    3    0    0 -0.37613351181E+02  0.14979945787E+02 -0.33561379463E+02  0.52588404789E+02  0.10566000000E+00 0.  1.
         13    1    4    4    0    0  0.22514609681E+02 -0.92630094937E+01 -0.15641171534E+02  0.28937318551E+02  0.10566000000E+00 0. -1.
        -13    1    4    4    0    0  0.14674657728E+02 -0.56626636969E+01 -0.11016198739E+02  0.19203623051E+02  0.10566000000E+00 0.  1.
        -14    1    4    4    0    0  0.42408377148E+00 -0.54272596070E-01 -0.13196062348E+00  0.44744403680E+00  0.00000000000E+00 0.  1.
<mgrwt>
<rscale>  0 0.81206740E+02</rscale>
<asrwt>0</asrwt>
<pdfrwt beam="1">  1        2 0.12425192E-01 0.81206740E+02</pdfrwt>
<pdfrwt beam="2">  1       -1 0.31404677E-02 0.81206740E+02</pdfrwt>
<totfact> 0.16074035E+05</totfact>
</mgrwt>
</event>
<event>
 8    1  0.2676873E-016  0.8038848E+02  0.7818608E-02  0.1327953E+00
         -1   -1    0    0    0  501 -0.00000000000E+00  0.00000000000E+00  0.16276597253E+01  0.16276675284E+01  0.50400000000E-02 0.  1.
          2   -1    0    0  501    0  0.00000000000E+00 -0.00000000000E+00 -0.99257432022E+03  0.99257432023E+03  0.25500000000E-02 0. -1.
         24    2    1    2    0    0  0.00000000000E+00  0.00000000000E+00 -0.99094666050E+03  0.99420198776E+03  0.80388484895E+02 0.  0.
         66    2    3    3    0    0 -0.31722661459E+02 -0.22631914418E+01 -0.79925445733E+03  0.79988945289E+03  0.19999999545E+01 0.  0.
        -13    1    3    3    0    0  0.31722661459E+02  0.22631914418E+01 -0.19169220317E+03  0.19431253487E+03  0.10566000000E+00 0.  1.
         13    1    4    4    0    0 -0.67247252988E+01 -0.40690236359E+00 -0.17251300703E+03  0.17264453729E+03  0.10566000000E+00 0.  1.
        -13    1    4    4    0    0 -0.11040982277E+02 -0.16781205937E+01 -0.27935654722E+03  0.27957970423E+03  0.10566000000E+00 0. -1.
        -14    1    4    4    0    0 -0.13956953883E+02 -0.17816848452E+00 -0.34738490309E+03  0.34766521137E+03  0.00000000000E+00 0.  1.
<mgrwt>
<rscale>  0 0.80388485E+02</rscale>
<asrwt>0</asrwt>
<pdfrwt beam="1">  1        2 0.15270326E+00 0.80388485E+02</pdfrwt>
<pdfrwt beam="2">  1       -1 0.25041058E-03 0.80388485E+02</pdfrwt>
<totfact> 0.34779213E+05</totfact>
</mgrwt>
</event>
<event>
 8    1  0.2676873E-016  0.8197593E+02  0.7818608E-02  0.1323536E+00
          2   -1    0    0  501    0  0.00000000000E+00  0.00000000000E+00  0.29721834386E+03  0.29721834387E+03  0.25500000000E-02 0. -1.
         -1   -1    0    0    0  501 -0.00000000000E+00 -0.00000000000E+00 -0.56524532579E+01  0.56524555048E+01  0.50400000000E-02 0.  1.
         24    2    1    2    0    0  0.35527136788E-14  0.35527136788E-14  0.29156589061E+03  0.30287079938E+03  0.81975926661E+02 0.  0.
         66    2    3    3    0    0 -0.23877003083E+02 -0.20500422664E+02  0.24275264619E+03  0.24479220952E+03  0.20000009770E+01 0.  0.
        -13    1    3    3    0    0  0.23877003083E+02  0.20500422664E+02  0.48813244420E+02  0.58078589863E+02  0.10566000000E+00 0.  1.
         13    1    4    4    0    0 -0.11091910167E+02 -0.90259531021E+01  0.11054508964E+03  0.11146625637E+03  0.10566000000E+00 0. -1.
        -13    1    4    4    0    0 -0.17487789019E+01 -0.11579995030E+01  0.18661600642E+02  0.18779395439E+02  0.10566000000E+00 0.  1.
        -14    1    4    4    0    0 -0.11036314015E+02 -0.10316470059E+02  0.11354595590E+03  0.11454655771E+03  0.00000000000E+00 0.  1.
<mgrwt>
<rscale>  0 0.81975927E+02</rscale>
<asrwt>0</asrwt>
<pdfrwt beam="1">  1        2 0.45725900E-01 0.81975927E+02</pdfrwt>
<pdfrwt beam="2">  1       -1 0.86960835E-03 0.81975927E+02</pdfrwt>
<totfact> 0.23832121E+05</totfact>
</mgrwt>
</event>
<event>
 8    1  0.2676873E-016  0.7698406E+02  0.7818608E-02  0.1337835E+00
          2   -1    0    0  501    0  0.00000000000E+00  0.00000000000E+00  0.73018107339E+01  0.73018111792E+01  0.25500000000E-02 0. -1.
         -1   -1    0    0    0  501 -0.00000000000E+00 -0.00000000000E+00 -0.20291356975E+03  0.20291356981E+03  0.50400000000E-02 0.  1.
         24    2    1    2    0    0 -0.35527136788E-14  0.00000000000E+00 -0.19561175901E+03  0.21021538099E+03  0.76984064196E+02 0.  0.
         66    2    3    3    0    0 -0.22975924860E+02  0.17023196538E+02 -0.27616905419E+02  0.39804218380E+02  0.19999981010E+01 0.  0.
        -13    1    3    3    0    0  0.22975924860E+02 -0.17023196538E+02 -0.16799485359E+03  0.17041116261E+03  0.10566000000E+00 0.  1.
         13    1    4    4    0    0 -0.84128343709E+01  0.64973461350E+01 -0.90393545466E+01  0.13953937925E+02  0.10566000000E+00 0. -1.
        -13    1    4    4    0    0 -0.31921878073E+01  0.23738952876E+01 -0.38724595298E+01  0.55527064283E+01  0.10566000000E+00 0.  1.
        -14    1    4    4    0    0 -0.11370902682E+02  0.81519551150E+01 -0.14705091342E+02  0.20297574027E+02  0.00000000000E+00 0.  1.
<mgrwt>
<rscale>  0 0.76984064E+02</rscale>
<asrwt>0</asrwt>
<pdfrwt beam="1">  1        2 0.11233557E-02 0.76984064E+02</pdfrwt>
<pdfrwt beam="2">  1       -1 0.31217468E-01 0.76984064E+02</pdfrwt>
<totfact> 0.10935246E+05</totfact>
</mgrwt>
</event>
<event>
 8    1  0.2676873E-016  0.8163228E+02  0.7818608E-02  0.1324482E+00
         -1   -1    0    0    0  501 -0.00000000000E+00  0.00000000000E+00  0.68438112895E+01  0.68438131454E+01  0.50400000000E-02 0.  1.
          2   -1    0    0  501    0  0.00000000000E+00 -0.00000000000E+00 -0.24342534638E+03  0.24342534639E+03  0.25500000000E-02 0. -1.
         24    2    1    2    0    0 -0.71054273576E-14  0.00000000000E+00 -0.23658153509E+03  0.25026915954E+03  0.81632282036E+02 0.  0.
         66    2    3    3    0    0  0.34322825929E+02  0.19684658247E+02 -0.87948135329E+02  0.96459404195E+02  0.19999999662E+01 0.  0.
        -13    1    3    3    0    0 -0.34322825929E+02 -0.19684658247E+02 -0.14863339976E+03  0.15380975534E+03  0.10566000000E+00 0.  1.
         13    1    4    4    0    0  0.30839975576E+02  0.17551833495E+02 -0.79561483261E+02  0.87116081956E+02  0.10566000000E+00 0. -1.
        -13    1    4    4    0    0  0.70861578761E+00  0.27105002098E+00 -0.13075449714E+01  0.15154017079E+01  0.10566000000E+00 0.  1.
        -14    1    4    4    0    0  0.27742345651E+01  0.18617747305E+01 -0.70791070963E+01  0.78279205317E+01  0.00000000000E+00 0.  1.
<mgrwt>
<rscale>  0 0.81632282E+02</rscale>
<asrwt>0</asrwt>
<pdfrwt beam="1">  1        2 0.37450047E-01 0.81632282E+02</pdfrwt>
<pdfrwt beam="2">  1       -1 0.10528944E-02 0.81632282E+02</pdfrwt>
<totfact> 0.22417510E+05</totfact>
</mgrwt>
</event>
<event>
 8    1  0.2676873E-016  0.7842319E+02  0.7818608E-02  0.1333587E+00
         -1   -1    0    0    0  501 -0.00000000000E+00  0.00000000000E+00  0.26065670815E+02  0.26065671302E+02  0.50400000000E-02 0.  1.
          2   -1    0    0  501    0  0.00000000000E+00 -0.00000000000E+00 -0.58987514329E+02  0.58987514385E+02  0.25500000000E-02 0. -1.
         24    2    1    2    0    0 -0.35527136788E-14  0.71054273576E-14 -0.32921843514E+02  0.85053185687E+02  0.78423189269E+02 0.  0.
         66    2    3    3    0    0 -0.16444060186E+02  0.35540669644E+02 -0.18004566932E+02  0.43147546223E+02  0.20000001404E+01 0.  0.
        -13    1    3    3    0    0  0.16444060186E+02 -0.35540669644E+02 -0.14917276583E+02  0.41905639463E+02  0.10566000000E+00 0.  1.
         13    1    4    4    0    0 -0.68785203229E+01  0.13982681664E+02 -0.71248208734E+01  0.17134866935E+02  0.10566000000E+00 0. -1.
        -13    1    4    4    0    0 -0.33371090654E+01  0.81720511839E+01 -0.47733407960E+01  0.10035669577E+02  0.10566000000E+00 0.  1.
         14    1    4    4    0    0 -0.62284307976E+01  0.13385936796E+02 -0.61064052622E+01  0.15977009712E+02  0.00000000000E+00 0. -1.
<mgrwt>
<rscale>  0 0.78423189E+02</rscale>
<asrwt>0</asrwt>
<pdfrwt beam="1">  1        2 0.90750022E-02 0.78423189E+02</pdfrwt>
<pdfrwt beam="2">  1       -1 0.40101033E-02 0.78423189E+02</pdfrwt>
<totfact> 0.16367570E+05</totfact>
</mgrwt>
</event>
<event>
 8    1  0.2676873E-016  0.8385589E+02  0.7818608E-02  0.1318452E+00
         -1   -1    0    0    0  501 -0.00000000000E+00  0.00000000000E+00  0.91199561245E+02  0.91199561384E+02  0.50400000000E-02 0.  1.
          2   -1    0    0  501    0  0.00000000000E+00 -0.00000000000E+00 -0.19275889068E+02  0.19275889237E+02  0.25500000000E-02 0. -1.
         24    2    1    2    0    0  0.00000000000E+00  0.00000000000E+00  0.71923672177E+02  0.11047545062E+03  0.83855891687E+02 0.  0.
         66    2    3    3    0    0  0.17060292811E+02 -0.26459088627E+02 -0.45195851350E+00  0.31549028914E+02  0.19999992788E+01 0.  0.
        -13    1    3    3    0    0 -0.17060292811E+02  0.26459088627E+02  0.72375630690E+02  0.78926421708E+02  0.10566000000E+00 0.  1.
         13    1    4    4    0    0  0.23758698390E+01 -0.43049121579E+01 -0.58844203356E+00  0.49532266495E+01  0.10566000000E+00 0.  1.
        -13    1    4    4    0    0  0.10403251375E+02 -0.15072592760E+02 -0.16377365018E+00  0.18315258052E+02  0.10566000000E+00 0. -1.
         14    1    4    4    0    0  0.42811715975E+01 -0.70815837089E+01  0.30025717024E+00  0.82805442117E+01  0.00000000000E+00 0. -1.
<mgrwt>
<rscale>  0 0.83855892E+02</rscale>
<asrwt>0</asrwt>
<pdfrwt beam="1">  1        2 0.29655214E-02 0.83855892E+02</pdfrwt>
<pdfrwt beam="2">  1       -1 0.14030702E-01 0.83855892E+02</pdfrwt>
<totfact> 0.10753473E+05</totfact>
</mgrwt>
</event>
<event>
 8    1  0.2676873E-016  0.7931629E+02  0.7818608E-02  0.1331003E+00
         -1   -1    0    0    0  501 -0.00000000000E+00  0.00000000000E+00  0.63901883257E+01  0.63901903133E+01  0.50400000000E-02 0.  1.
          2   -1    0    0  501    0  0.00000000000E+00 -0.00000000000E+00 -0.24612238294E+03  0.24612238296E+03  0.25500000000E-02 0. -1.
         24    2    1    2    0    0  0.00000000000E+00  0.00000000000E+00 -0.23973219462E+03  0.25251257327E+03  0.79316294185E+02 0.  0.
         66    2    3    3    0    0  0.16266381311E+02  0.35295771158E+02 -0.95204554245E+02  0.10285083261E+03  0.19999990712E+01 0.  0.
        -13    1    3    3    0    0 -0.16266381311E+02 -0.35295771158E+02 -0.14452764037E+03  0.14966174066E+03  0.10566000000E+00 0.  1.
         13    1    4    4    0    0  0.11999882198E+02  0.26498728030E+02 -0.73324523197E+02  0.78883944032E+02  0.10566000000E+00 0. -1.
        -13    1    4    4    0    0  0.26171936993E+01  0.51895912710E+01 -0.13221682448E+02  0.14443185632E+02  0.10566000000E+00 0.  1.
         14    1    4    4    0    0  0.16493054137E+01  0.36074518576E+01 -0.86583486009E+01  0.95237029430E+01  0.00000000000E+00 0. -1.
<mgrwt>
<rscale>  0 0.79316294E+02</rscale>
<asrwt>0</asrwt>
<pdfrwt beam="1">  1        2 0.37864975E-01 0.79316294E+02</pdfrwt>
<pdfrwt beam="2">  1       -1 0.98310624E-03 0.79316294E+02</pdfrwt>
<totfact> 0.24276749E+05</totfact>
</mgrwt>
</event>
<event>
 8    1  0.2676873E-016  0.8004737E+02  0.7818608E-02  0.1328917E+00
         -1   -1    0    0    0  501 -0.00000000000E+00  0.00000000000E+00  0.30522851502E+01  0.30522893112E+01  0.50400000000E-02 0.  1.
          2   -1    0    0  501    0  0.00000000000E+00 -0.00000000000E+00 -0.52481806876E+03  0.52481806877E+03  0.25500000000E-02 0. -1.
         24    2    1    2    0    0  0.17763568394E-14  0.00000000000E+00 -0.52176578361E+03  0.52787035808E+03  0.80047373416E+02 0.  0.
         66    2    3    3    0    0  0.11986514365E+02 -0.37133286688E+02 -0.31903657790E+03  0.32142012311E+03  0.19999985736E+01 0.  0.
        -13    1    3    3    0    0 -0.11986514365E+02  0.37133286688E+02 -0.20272920571E+03  0.20645023497E+03  0.10566000000E+00 0.  1.
         13    1    4    4    0    0  0.22994334820E+01 -0.74410868328E+01 -0.59665701766E+02  0.60171956083E+02  0.10566000000E+00 0. -1.
        -13    1    4    4    0    0  0.16137227014E+01 -0.63391070614E+01 -0.57207032718E+02  0.57579893502E+02  0.10566000000E+00 0.  1.
        -14    1    4    4    0    0  0.80733581819E+01 -0.23353092793E+02 -0.20216384342E+03  0.20366827352E+03  0.00000000000E+00 0.  1.
<mgrwt>
<rscale>  0 0.80047373E+02</rscale>
<asrwt>0</asrwt>
<pdfrwt beam="1">  1        2 0.80741170E-01 0.80047373E+02</pdfrwt>
<pdfrwt beam="2">  1       -1 0.46958307E-03 0.80047373E+02</pdfrwt>
<totfact> 0.30870534E+05</totfact>
</mgrwt>
</event>
<event>
 8    1  0.2676873E-016  0.7880481E+02  0.7818608E-02  0.1332478E+00
          2   -1    0    0  501    0  0.00000000000E+00  0.00000000000E+00  0.45808385666E+03  0.45808385667E+03  0.25500000000E-02 0. -1.
         -1   -1    0    0    0  501 -0.00000000000E+00 -0.00000000000E+00 -0.33892234788E+01  0.33892272262E+01  0.50400000000E-02 0.  1.
         24    2    1    2    0    0 -0.17763568394E-14  0.00000000000E+00  0.45469463318E+03  0.46147308389E+03  0.78804807685E+02 0.  0.
         66    2    3    3    0    0  0.12771355612E+02 -0.31782835215E+02  0.34123783042E+03  0.34295847131E+03  0.19999991322E+01 0.  0.
        -13    1    3    3    0    0 -0.12771355612E+02  0.31782835215E+02  0.11345680276E+03  0.11851461258E+03  0.10566000000E+00 0.  1.
         13    1    4    4    0    0  0.89364092685E+01 -0.24001681569E+02  0.25224831046E+03  0.25354518616E+03  0.10566000000E+00 0. -1.
        -13    1    4    4    0    0  0.15282803025E+01 -0.25703220333E+01  0.29345719029E+02  0.29497874252E+02  0.10566000000E+00 0.  1.
        -14    1    4    4    0    0  0.23066660409E+01 -0.52108316124E+01  0.59643800930E+02  0.59915410904E+02  0.00000000000E+00 0.  1.
<mgrwt>
<rscale>  0 0.78804808E+02</rscale>
<asrwt>0</asrwt>
<pdfrwt beam="1">  1        2 0.70474362E-01 0.78804808E+02</pdfrwt>
<pdfrwt beam="2">  1       -1 0.52141986E-03 0.78804808E+02</pdfrwt>
<totfact> 0.30778342E+05</totfact>
</mgrwt>
</event>
<event>
 8    1  0.2676873E-016  0.8362165E+02  0.7818608E-02  0.1319077E+00
         -1   -1    0    0    0  501 -0.00000000000E+00  0.00000000000E+00  0.16829118476E+02  0.16829119231E+02  0.50400000000E-02 0.  1.
          2   -1    0    0  501    0  0.00000000000E+00 -0.00000000000E+00 -0.10387621131E+03  0.10387621134E+03  0.25500000000E-02 0. -1.
         24    2    1    2    0    0  0.71054273576E-14  0.00000000000E+00 -0.87047092836E+02  0.12070533057E+03  0.83621650653E+02 0.  0.
         66    2    3    3    0    0 -0.37165332773E+02  0.10521303105E+02 -0.66561662218E+02  0.76983210191E+02  0.19999987470E+01 0.  0.
        -13    1    3    3    0    0  0.37165332773E+02 -0.10521303105E+02 -0.20485430618E+02  0.43722120383E+02  0.10566000000E+00 0.  1.
         13    1    4    4    0    0 -0.79575799841E+01  0.18538884941E+01 -0.13308145166E+02  0.15616589690E+02  0.10566000000E+00 0. -1.
        -13    1    4    4    0    0 -0.15338829955E+01  0.51408945769E+00 -0.23273799803E+01  0.28363615113E+01  0.10566000000E+00 0. -1.
         14    1    4    4    0    0 -0.27673869793E+02  0.81533251529E+01 -0.50926137071E+02  0.58530258989E+02  0.00000000000E+00 0. -1.
<mgrwt>
<rscale>  0 0.83621651E+02</rscale>
<asrwt>0</asrwt>
<pdfrwt beam="1">  1        2 0.15980955E-01 0.83621651E+02</pdfrwt>
<pdfrwt beam="2">  1       -1 0.25890953E-02 0.83621651E+02</pdfrwt>
<totfact> 0.15909899E+05</totfact>
</mgrwt>
</event>
<event>
 8    1  0.2676873E-016  0.7556878E+02  0.7818608E-02  0.1342119E+00
          2   -1    0    0  501    0  0.00000000000E+00  0.00000000000E+00  0.13282445648E+02  0.13282445893E+02  0.25500000000E-02 0. -1.
         -1   -1    0    0    0  501 -0.00000000000E+00 -0.00000000000E+00 -0.10748472430E+03  0.10748472442E+03  0.50400000000E-02 0.  1.
         24    2    1    2    0    0 -0.17763568394E-14  0.00000000000E+00 -0.94202278655E+02  0.12076717031E+03  0.75568777429E+02 0.  0.
         66    2    3    3    0    0 -0.13840062215E+02 -0.16700010923E+02  0.22580755677E+01  0.21898323918E+02  0.19999995554E+01 0.  0.
        -13    1    3    3    0    0  0.13840062215E+02  0.16700010923E+02 -0.96460354222E+02  0.98868846396E+02  0.10566000000E+00 0.  1.
         13    1    4    4    0    0 -0.50297835877E+00 -0.12925702887E+01  0.19058833454E+00  0.14039989778E+01  0.10566000000E+00 0. -1.
        -13    1    4    4    0    0 -0.10268759238E+02 -0.11619220332E+02  0.13294302370E+01  0.15563812071E+02  0.10566000000E+00 0.  1.
         14    1    4    4    0    0 -0.30683246190E+01 -0.37882203026E+01  0.73805699617E+00  0.49305128697E+01  0.00000000000E+00 0. -1.
<mgrwt>
<rscale>  0 0.75568777E+02</rscale>
<asrwt>0</asrwt>
<pdfrwt beam="1">  1        2 0.20434533E-02 0.75568777E+02</pdfrwt>
<pdfrwt beam="2">  1       -1 0.16536111E-01 0.75568777E+02</pdfrwt>
<totfact> 0.13455196E+05</totfact>
</mgrwt>
</event>
<event>
 8    1  0.2676873E-016  0.7691015E+02  0.7818608E-02  0.1338056E+00
          2   -1    0    0  501    0  0.00000000000E+00  0.00000000000E+00  0.29207768236E+03  0.29207768237E+03  0.25500000000E-02 0. -1.
         -1   -1    0    0    0  501 -0.00000000000E+00 -0.00000000000E+00 -0.50630107947E+01  0.50630133032E+01  0.50400000000E-02 0.  1.
         24    2    1    2    0    0 -0.88817841970E-15 -0.17763568394E-14  0.28701467157E+03  0.29714069568E+03  0.76910151034E+02 0.  0.
         66    2    3    3    0    0 -0.76836858803E+01 -0.10487914863E+02  0.28331853653E+03  0.28362374464E+03  0.20000001232E+01 0.  0.
        -13    1    3    3    0    0  0.76836858803E+01  0.10487914863E+02  0.36961350410E+01  0.13516951031E+02  0.10566000000E+00 0.  1.
         13    1    4    4    0    0 -0.92422320574E+00 -0.82164714615E+00  0.22019029685E+02  0.22053982064E+02  0.10566000000E+00 0.  1.
        -13    1    4    4    0    0 -0.41777133363E+00 -0.13593736770E+01  0.27992108219E+02  0.28028409093E+02  0.10566000000E+00 0. -1.
         14    1    4    4    0    0 -0.63416913410E+01 -0.83068940403E+01  0.23330739862E+03  0.23354135349E+03  0.00000000000E+00 0. -1.
<mgrwt>
<rscale>  0 0.76910151E+02</rscale>
<asrwt>0</asrwt>
<pdfrwt beam="1">  1        2 0.44935038E-01 0.76910151E+02</pdfrwt>
<pdfrwt beam="2">  1       -1 0.77892476E-03 0.76910151E+02</pdfrwt>
<totfact> 0.27990748E+05</totfact>
</mgrwt>
</event>
<event>
 8    1  0.2676873E-016  0.7958705E+02  0.7818608E-02  0.1330227E+00
         -1   -1    0    0    0  501 -0.00000000000E+00  0.00000000000E+00  0.16716541797E+01  0.16716617774E+01  0.50400000000E-02 0.  1.
          2   -1    0    0  501    0  0.00000000000E+00 -0.00000000000E+00 -0.94727782037E+03  0.94727782037E+03  0.25500000000E-02 0. -1.
         24    2    1    2    0    0  0.00000000000E+00  0.22204460493E-15 -0.94560616619E+03  0.94894948215E+03  0.79587047547E+02 0.  0.
         66    2    3    3    0    0  0.17486829624E+02 -0.17369825522E+01 -0.89846997059E+03  0.89864403097E+03  0.20000071844E+01 0.  0.
        -13    1    3    3    0    0 -0.17486829624E+02  0.17369825522E+01 -0.47136195596E+02  0.50305451176E+02  0.10566000000E+00 0.  1.
         13    1    4    4    0    0  0.12222769025E+02 -0.17414575796E+01 -0.63105795849E+03  0.63117872817E+03  0.10566000000E+00 0. -1.
        -13    1    4    4    0    0  0.10491421669E+01 -0.33109939461E+00 -0.60471223363E+02  0.60481322283E+02  0.10566000000E+00 0.  1.
         14    1    4    4    0    0  0.42149184328E+01  0.33557442195E+00 -0.20694078874E+03  0.20698398052E+03  0.00000000000E+00 0. -1.
<mgrwt>
<rscale>  0 0.79587048E+02</rscale>
<asrwt>0</asrwt>
<pdfrwt beam="1">  1        2 0.14573462E+00 0.79587048E+02</pdfrwt>
<pdfrwt beam="2">  1       -1 0.25717891E-03 0.79587048E+02</pdfrwt>
<totfact> 0.35590913E+05</totfact>
</mgrwt>
</event>
<event>
 8    1  0.2676873E-016  0.8106048E+02  0.7818608E-02  0.1326069E+00
          2   -1    0    0  501    0  0.00000000000E+00  0.00000000000E+00  0.99473736800E+03  0.99473736801E+03  0.25500000000E-02 0. -1.
         -1   -1    0    0    0  501 -0.00000000000E+00 -0.00000000000E+00 -0.16513871060E+01  0.16513947970E+01  0.50400000000E-02 0.  1.
         24    2    1    2    0    0 -0.35527136788E-14  0.00000000000E+00  0.99308598090E+03  0.99638876280E+03  0.81060478573E+02 0.  0.
         66    2    3    3    0    0 -0.17506559783E+02  0.18507448146E+02  0.88393057136E+03  0.88429987010E+03  0.20000001965E+01 0.  0.
        -13    1    3    3    0    0  0.17506559783E+02 -0.18507448146E+02  0.10915540953E+03  0.11208889270E+03  0.10566000000E+00 0.  1.
         13    1    4    4    0    0 -0.95910156996E+01  0.11276010894E+02  0.51065954679E+03  0.51087407440E+03  0.10566000000E+00 0. -1.
        -13    1    4    4    0    0 -0.28437166033E+01  0.26748169564E+01  0.12353887238E+03  0.12360058868E+03  0.10566000000E+00 0.  1.
         14    1    4    4    0    0 -0.50718274800E+01  0.45566202960E+01  0.24973215220E+03  0.24982520702E+03  0.00000000000E+00 0. -1.
<mgrwt>
<rscale>  0 0.81060479E+02</rscale>
<asrwt>0</asrwt>
<pdfrwt beam="1">  1        2 0.15303663E+00 0.81060479E+02</pdfrwt>
<pdfrwt beam="2">  1       -1 0.25405995E-03 0.81060479E+02</pdfrwt>
<totfact> 0.34038383E+05</totfact>
</mgrwt>
</event>
<event>
 8    1  0.2676873E-016  0.7940005E+02  0.7818608E-02  0.1330763E+00
          2   -1    0    0  501    0  0.00000000000E+00  0.00000000000E+00  0.23015578963E+03  0.23015578965E+03  0.25500000000E-02 0. -1.
         -1   -1    0    0    0  501 -0.00000000000E+00 -0.00000000000E+00 -0.68479352038E+01  0.68479370585E+01  0.50400000000E-02 0.  1.
         24    2    1    2    0    0  0.35527136788E-14  0.00000000000E+00  0.22330785443E+03  0.23700372670E+03  0.79400054298E+02 0.  0.
         66    2    3    3    0    0  0.30533320319E+02  0.10957071248E+02  0.17990567117E+03  0.18281791920E+03  0.19999996856E+01 0.  0.
        -13    1    3    3    0    0 -0.30533320319E+02 -0.10957071248E+02  0.43402183255E+02  0.54185807509E+02  0.10566000000E+00 0.  1.
         13    1    4    4    0    0  0.15115143382E+02  0.52089478113E+01  0.93065887193E+02  0.94429186271E+02  0.10566000000E+00 0. -1.
        -13    1    4    4    0    0  0.14024244741E+02  0.50032962477E+01  0.77916423481E+02  0.79326493847E+02  0.10566000000E+00 0.  1.
         14    1    4    4    0    0  0.13939321963E+01  0.74482718877E+00  0.89233604999E+01  0.90622390787E+01  0.00000000000E+00 0. -1.
<mgrwt>
<rscale>  0 0.79400054E+02</rscale>
<asrwt>0</asrwt>
<pdfrwt beam="1">  1        2 0.35408583E-01 0.79400054E+02</pdfrwt>
<pdfrwt beam="2">  1       -1 0.10535286E-02 0.79400054E+02</pdfrwt>
<totfact> 0.23638120E+05</totfact>
</mgrwt>
</event>
<event>
 8    1  0.2676873E-016  0.8583737E+02  0.7818608E-02  0.1313257E+00
          2   -1    0    0  501    0  0.00000000000E+00  0.00000000000E+00  0.19236883948E+03  0.19236883950E+03  0.25500000000E-02 0. -1.
         -1   -1    0    0    0  501 -0.00000000000E+00 -0.00000000000E+00 -0.95754244726E+01  0.95754257990E+01  0.50400000000E-02 0.  1.
         24    2    1    2    0    0 -0.88817841970E-15  0.00000000000E+00  0.18279341501E+03  0.20194426530E+03  0.85837367830E+02 0.  0.
         66    2    3    3    0    0  0.53647471260E+01 -0.40340038108E+02  0.12335104821E+03  0.12990604405E+03  0.19999997422E+01 0.  0.
        -13    1    3    3    0    0 -0.53647471260E+01  0.40340038108E+02  0.59442366798E+02  0.72038221250E+02  0.10566000000E+00 0.  1.
         13    1    4    4    0    0  0.40102616003E+01 -0.27659081221E+02  0.82409180290E+02  0.87019487083E+02  0.10566000000E+00 0. -1.
        -13    1    4    4    0    0  0.17183943654E+00 -0.19368848084E+01  0.56177730723E+01  0.59457202996E+01  0.10566000000E+00 0.  1.
        -14    1    4    4    0    0  0.11826460891E+01 -0.10744072079E+02  0.35324094852E+02  0.36940836668E+02  0.00000000000E+00 0.  1.
<mgrwt>
<rscale>  0 0.85837368E+02</rscale>
<asrwt>0</asrwt>
<pdfrwt beam="1">  1        2 0.29595205E-01 0.85837368E+02</pdfrwt>
<pdfrwt beam="2">  1       -1 0.14731424E-02 0.85837368E+02</pdfrwt>
<totfact> 0.18057923E+05</totfact>
</mgrwt>
</event>
<event>
 8    1  0.2676873E-016  0.8027141E+02  0.7818608E-02  0.1328283E+00
         -1   -1    0    0    0  501 -0.00000000000E+00  0.00000000000E+00  0.52948965707E+01  0.52948989693E+01  0.50400000000E-02 0.  1.
          2   -1    0    0  501    0  0.00000000000E+00 -0.00000000000E+00 -0.30423153901E+03  0.30423153902E+03  0.25500000000E-02 0. -1.
         24    2    1    2    0    0  0.00000000000E+00 -0.17763568394E-14 -0.29893664244E+03  0.30952643799E+03  0.80271412233E+02 0.  0.
         66    2    3    3    0    0  0.32375121094E+02  0.84313170899E+01 -0.23488516072E+03  0.23726414459E+03  0.20000012830E+01 0.  0.
        -13    1    3    3    0    0 -0.32375121094E+02 -0.84313170899E+01 -0.64051481717E+02  0.72262293403E+02  0.10566000000E+00 0.  1.
         13    1    4    4    0    0  0.12660749216E+02  0.36087110599E+01 -0.89771021989E+02  0.90731278616E+02  0.10566000000E+00 0. -1.
        -13    1    4    4    0    0  0.52607851816E+00  0.91583371379E-01 -0.55067346235E+01  0.55335735624E+01  0.10566000000E+00 0.  1.
        -14    1    4    4    0    0  0.19188293360E+02  0.47310226586E+01 -0.13960740411E+03  0.14099929241E+03  0.00000000000E+00 0.  1.
<mgrwt>
<rscale>  0 0.80271412E+02</rscale>
<asrwt>0</asrwt>
<pdfrwt beam="1">  1        2 0.46804839E-01 0.80271412E+02</pdfrwt>
<pdfrwt beam="2">  1       -1 0.81459990E-03 0.80271412E+02</pdfrwt>
<totfact> 0.25397542E+05</totfact>
</mgrwt>
</event>
<event>
 8    1  0.2676873E-016  0.8051734E+02  0.7818608E-02  0.1327590E+00
         -1   -1    0    0    0  501 -0.00000000000E+00  0.00000000000E+00  0.23609274148E+01  0.23609327944E+01  0.50400000000E-02 0.  1.
          2   -1    0    0  501    0  0.00000000000E+00 -0.00000000000E+00 -0.68649233315E+03  0.68649233315E+03  0.25500000000E-02 0. -1.
         24    2    1    2    0    0  0.00000000000E+00 -0.35527136788E-14 -0.68413140573E+03  0.68885326595E+03  0.80517337857E+02 0.  0.
         66    2    3    3    0    0  0.25869950605E+01  0.26404170815E+02 -0.60104979544E+03  0.60163837093E+03  0.19999993220E+01 0.  0.
        -13    1    3    3    0    0 -0.25869950605E+01 -0.26404170815E+02 -0.83081610297E+02  0.87214895021E+02  0.10566000000E+00 0.  1.
         13    1    4    4    0    0  0.13404502118E+01  0.63505669409E+01 -0.14674704436E+03  0.14689054666E+03  0.10566000000E+00 0. -1.
        -13    1    4    4    0    0  0.15629630005E+00  0.15396131376E+01 -0.40442166979E+02  0.40471902243E+02  0.10566000000E+00 0. -1.
         14    1    4    4    0    0  0.10902485487E+01  0.18513990737E+02 -0.41386058410E+03  0.41427592202E+03  0.00000000000E+00 0. -1.
<mgrwt>
<rscale>  0 0.80517338E+02</rscale>
<asrwt>0</asrwt>
<pdfrwt beam="1">  1        2 0.10561405E+00 0.80517338E+02</pdfrwt>
<pdfrwt beam="2">  1       -1 0.36322057E-03 0.80517338E+02</pdfrwt>
<totfact> 0.32746978E+05</totfact>
</mgrwt>
</event>
<event>
 8    1  0.2676873E-016  0.8037041E+02  0.7818608E-02  0.1328004E+00
         -1   -1    0    0    0  501 -0.00000000000E+00  0.00000000000E+00  0.11189356500E+02  0.11189357635E+02  0.50400000000E-02 0.  1.
          2   -1    0    0  501    0  0.00000000000E+00 -0.00000000000E+00 -0.14432024187E+03  0.14432024189E+03  0.25500000000E-02 0. -1.
         24    2    1    2    0    0  0.71054273576E-14  0.00000000000E+00 -0.13313088537E+03  0.15550959952E+03  0.80370410635E+02 0.  0.
         66    2    3    3    0    0 -0.39185963931E+02  0.28762506300E+01 -0.82682989953E+02  0.91565765555E+02  0.20000018215E+01 0.  0.
        -13    1    3    3    0    0  0.39185963931E+02 -0.28762506300E+01 -0.50447895414E+02  0.63943833969E+02  0.10566000000E+00 0.  1.
         13    1    4    4    0    0 -0.20168386182E+02  0.12329242965E+01 -0.43501961022E+02  0.47965776136E+02  0.10566000000E+00 0. -1.
        -13    1    4    4    0    0 -0.56685398726E+01  0.64759150504E+00 -0.12920022592E+02  0.14124088178E+02  0.10566000000E+00 0.  1.
        -14    1    4    4    0    0 -0.13349037876E+02  0.99573482849E+00 -0.26261006339E+02  0.29475901241E+02  0.00000000000E+00 0.  1.
<mgrwt>
<rscale>  0 0.80370411E+02</rscale>
<asrwt>0</asrwt>
<pdfrwt beam="1">  1        2 0.22203113E-01 0.80370411E+02</pdfrwt>
<pdfrwt beam="2">  1       -1 0.17214397E-02 0.80370411E+02</pdfrwt>
<totfact> 0.19542564E+05</totfact>
</mgrwt>
</event>
<event>
 8    1  0.2676873E-016  0.7789900E+02  0.7818608E-02  0.1335122E+00
         -1   -1    0    0    0  501 -0.00000000000E+00  0.00000000000E+00  0.66149075803E+02  0.66149075995E+02  0.50400000000E-02 0.  1.
          2   -1    0    0  501    0  0.00000000000E+00 -0.00000000000E+00 -0.22934007484E+02  0.22934007626E+02  0.25500000000E-02 0. -1.
         24    2    1    2    0    0 -0.35527136788E-14  0.00000000000E+00  0.43215068319E+02  0.89083083621E+02  0.77898996512E+02 0.  0.
         66    2    3    3    0    0  0.30587289636E+02  0.31611865462E+01 -0.56682791138E+01  0.31332168408E+02  0.20000003414E+01 0.  0.
        -13    1    3    3    0    0 -0.30587289636E+02 -0.31611865462E+01  0.48883347433E+02  0.57750915213E+02  0.10566000000E+00 0.  1.
         13    1    4    4    0    0  0.11124132420E+02  0.72128701582E+00 -0.15663022394E+01  0.11257488343E+02  0.10566000000E+00 0. -1.
        -13    1    4    4    0    0  0.74532746354E+01  0.67569961800E+00 -0.10476968476E+01  0.75575594926E+01  0.10566000000E+00 0.  1.
        -14    1    4    4    0    0  0.12009882581E+02  0.17641999124E+01 -0.30542800268E+01  0.12517120572E+02  0.00000000000E+00 0.  1.
<mgrwt>
<rscale>  0 0.77898997E+02</rscale>
<asrwt>0</asrwt>
<pdfrwt beam="1">  1        2 0.35283089E-02 0.77898997E+02</pdfrwt>
<pdfrwt beam="2">  1       -1 0.10176781E-01 0.77898997E+02</pdfrwt>
<totfact> 0.13762364E+05</totfact>
</mgrwt>
</event>
<event>
 8    1  0.2676873E-016  0.7967382E+02  0.7818608E-02  0.1329980E+00
          2   -1    0    0  501    0  0.00000000000E+00  0.00000000000E+00  0.51133106108E+03  0.51133106109E+03  0.25500000000E-02 0. -1.
         -1   -1    0    0    0  501 -0.00000000000E+00 -0.00000000000E+00 -0.31036217342E+01  0.31036258264E+01  0.50400000000E-02 0.  1.
         24    2    1    2    0    0  0.17763568394E-14  0.00000000000E+00  0.50822743935E+03  0.51443468691E+03  0.79673816245E+02 0.  0.
         66    2    3    3    0    0  0.12541628106E+02  0.19571607870E+02  0.46296102731E+03  0.46354854447E+03  0.20000002954E+01 0.  0.
        -13    1    3    3    0    0 -0.12541628106E+02 -0.19571607870E+02  0.45266412035E+02  0.50886142443E+02  0.10566000000E+00 0.  1.
         13    1    4    4    0    0  0.46105517317E+01  0.74766328540E+01  0.18032220329E+03  0.18053605011E+03  0.10566000000E+00 0. -1.
        -13    1    4    4    0    0  0.43492312106E+01  0.78872891661E+01  0.17879832173E+03  0.17902507132E+03  0.10566000000E+00 0.  1.
         14    1    4    4    0    0  0.35818451632E+01  0.42076858501E+01  0.10384050229E+03  0.10398742304E+03  0.00000000000E+00 0. -1.
<mgrwt>
<rscale>  0 0.79673816E+02</rscale>
<asrwt>0</asrwt>
<pdfrwt beam="1">  1        2 0.78666343E-01 0.79673816E+02</pdfrwt>
<pdfrwt beam="2">  1       -1 0.47748042E-03 0.79673816E+02</pdfrwt>
<totfact> 0.30996301E+05</totfact>
</mgrwt>
</event>
<event>
 8    1  0.2676873E-016  0.7951142E+02  0.7818608E-02  0.1330444E+00
         -1   -1    0    0    0  501 -0.00000000000E+00  0.00000000000E+00  0.11734982955E+03  0.11734982966E+03  0.50400000000E-02 0.  1.
          2   -1    0    0  501    0  0.00000000000E+00 -0.00000000000E+00 -0.13468416059E+02  0.13468416301E+02  0.25500000000E-02 0. -1.
         24    2    1    2    0    0 -0.35527136788E-14  0.35527136788E-14  0.10388141349E+03  0.13081824596E+03  0.79511416834E+02 0.  0.
         66    2    3    3    0    0  0.31129775691E+02 -0.24207029660E+02  0.59943849086E+02  0.71779581091E+02  0.19999997003E+01 0.  0.
        -13    1    3    3    0    0 -0.31129775691E+02  0.24207029660E+02  0.43937564404E+02  0.59038664867E+02  0.10566000000E+00 0.  1.
         13    1    4    4    0    0  0.22256083716E+02 -0.18010667727E+02  0.44333912704E+02  0.52775225192E+02  0.10566000000E+00 0. -1.
        -13    1    4    4    0    0  0.46911170253E+01 -0.29320668689E+01  0.78494179107E+01  0.96035472946E+01  0.10566000000E+00 0.  1.
         14    1    4    4    0    0  0.41825749506E+01 -0.32642950642E+01  0.77605184707E+01  0.94008086044E+01  0.00000000000E+00 0. -1.
<mgrwt>
<rscale>  0 0.79511417E+02</rscale>
<asrwt>0</asrwt>
<pdfrwt beam="1">  1        2 0.20720640E-02 0.79511417E+02</pdfrwt>
<pdfrwt beam="2">  1       -1 0.18053820E-01 0.79511417E+02</pdfrwt>
<totfact> 0.11619722E+05</totfact>
</mgrwt>
</event>
<event>
 8    1  0.2676873E-016  0.8182008E+02  0.7818608E-02  0.1323964E+00
          2   -1    0    0  501    0  0.00000000000E+00  0.00000000000E+00  0.36167338518E+02  0.36167338608E+02  0.25500000000E-02 0. -1.
         -1   -1    0    0    0  501 -0.00000000000E+00 -0.00000000000E+00 -0.46274661115E+02  0.46274661389E+02  0.50400000000E-02 0.  1.
         24    2    1    2    0    0  0.00000000000E+00  0.00000000000E+00 -0.10107322597E+02  0.82441999997E+02  0.81820079402E+02 0.  0.
         66    2    3    3    0    0  0.14619033908E+02  0.28723486402E+02  0.20291485472E+02  0.38137897258E+02  0.20000002855E+01 0.  0.
        -13    1    3    3    0    0 -0.14619033908E+02 -0.28723486402E+02 -0.30398808068E+02  0.44304102739E+02  0.10566000000E+00 0.  1.
         13    1    4    4    0    0  0.64599996409E+01  0.13426049165E+02  0.90838872378E+01  0.17450460249E+02  0.10566000000E+00 0. -1.
        -13    1    4    4    0    0  0.78720924172E+01  0.14201269580E+02  0.10234203073E+02  0.19193644086E+02  0.10566000000E+00 0.  1.
        -14    1    4    4    0    0  0.28694184963E+00  0.10961676575E+01  0.97339516048E+00  0.14937929230E+01  0.00000000000E+00 0.  1.
<mgrwt>
<rscale>  0 0.81820079E+02</rscale>
<asrwt>0</asrwt>
<pdfrwt beam="1">  1        2 0.55642059E-02 0.81820079E+02</pdfrwt>
<pdfrwt beam="2">  1       -1 0.71191787E-02 0.81820079E+02</pdfrwt>
<totfact> 0.13118573E+05</totfact>
</mgrwt>
</event>
<event>
 8    1  0.2676873E-016  0.7859561E+02  0.7818608E-02  0.1333085E+00
          2   -1    0    0  501    0  0.00000000000E+00  0.00000000000E+00  0.18898346812E+03  0.18898346813E+03  0.25500000000E-02 0. -1.
         -1   -1    0    0    0  501 -0.00000000000E+00 -0.00000000000E+00 -0.81717067689E+01  0.81717083232E+01  0.50400000000E-02 0.  1.
         24    2    1    2    0    0  0.35527136788E-14 -0.35527136788E-14  0.18081176135E+03  0.19715517646E+03  0.78595614140E+02 0.  0.
         66    2    3    3    0    0 -0.27535554849E+02  0.27684003996E+02  0.10101830796E+03  0.10832040159E+03  0.19999998594E+01 0.  0.
        -13    1    3    3    0    0  0.27535554849E+02 -0.27684003996E+02  0.79793453387E+02  0.88834774866E+02  0.10566000000E+00 0.  1.
         13    1    4    4    0    0 -0.23009642093E+02  0.22313885115E+02  0.82482464913E+02  0.88491362744E+02  0.10566000000E+00 0. -1.
        -13    1    4    4    0    0 -0.24000873148E+01  0.27861028148E+01  0.10426464651E+02  0.11056451382E+02  0.10566000000E+00 0.  1.
         14    1    4    4    0    0 -0.21258254405E+01  0.25840160661E+01  0.81093783963E+01  0.87725874637E+01  0.00000000000E+00 0. -1.
<mgrwt>
<rscale>  0 0.78595614E+02</rscale>
<asrwt>0</asrwt>
<pdfrwt beam="1">  1        2 0.29074377E-01 0.78595614E+02</pdfrwt>
<pdfrwt beam="2">  1       -1 0.12571859E-02 0.78595614E+02</pdfrwt>
<totfact> 0.22666136E+05</totfact>
</mgrwt>
</event>
<event>
 8    1  0.2676873E-016  0.8007182E+02  0.7818608E-02  0.1328848E+00
         -1   -1    0    0    0  501 -0.00000000000E+00  0.00000000000E+00  0.11106177243E+03  0.11106177255E+03  0.50400000000E-02 0.  1.
          2   -1    0    0  501    0  0.00000000000E+00 -0.00000000000E+00 -0.14432274162E+02  0.14432274387E+02  0.25500000000E-02 0. -1.
         24    2    1    2    0    0  0.00000000000E+00 -0.35527136788E-14  0.96629498272E+02  0.12549404694E+03  0.80071817013E+02 0.  0.
         66    2    3    3    0    0 -0.28733540011E+02 -0.27821038925E+02  0.50091788048E+02  0.64131222966E+02  0.20000002307E+01 0.  0.
        -13    1    3    3    0    0  0.28733540011E+02  0.27821038925E+02  0.46537710225E+02  0.61362823969E+02  0.10566000000E+00 0.  1.
         13    1    4    4    0    0 -0.22236543007E+02 -0.21452261813E+02  0.38410374832E+02  0.49295349076E+02  0.10566000000E+00 0. -1.
        -13    1    4    4    0    0 -0.80156664153E+00 -0.45858499407E+00  0.13917135997E+01  0.16735710492E+01  0.10566000000E+00 0.  1.
         14    1    4    4    0    0 -0.56954303622E+01 -0.59101921184E+01  0.10289699616E+02  0.13162302841E+02  0.00000000000E+00 0. -1.
<mgrwt>
<rscale>  0 0.80071817E+02</rscale>
<asrwt>0</asrwt>
<pdfrwt beam="1">  1        2 0.22203500E-02 0.80071817E+02</pdfrwt>
<pdfrwt beam="2">  1       -1 0.17086426E-01 0.80071817E+02</pdfrwt>
<totfact> 0.11558912E+05</totfact>
</mgrwt>
</event>
<event>
 8    1  0.2676873E-016  0.7879487E+02  0.7818608E-02  0.1332507E+00
         -1   -1    0    0    0  501 -0.00000000000E+00  0.00000000000E+00  0.13216774521E+01  0.13216870616E+01  0.50400000000E-02 0.  1.
          2   -1    0    0  501    0  0.00000000000E+00 -0.00000000000E+00 -0.11743806492E+04  0.11743806492E+04  0.25500000000E-02 0. -1.
         24    2    1    2    0    0 -0.88817841970E-15  0.00000000000E+00 -0.11730589718E+04  0.11757023363E+04  0.78794874829E+02 0.  0.
         66    2    3    3    0    0  0.72240704449E+01 -0.21760782789E+02 -0.10644811755E+04  0.10647299619E+04  0.19999994379E+01 0.  0.
        -13    1    3    3    0    0 -0.72240704449E+01  0.21760782789E+02 -0.10857779631E+03  0.11097237439E+03  0.10566000000E+00 0.  1.
         13    1    4    4    0    0  0.14093514477E+01 -0.42706173592E+01 -0.21869820828E+03  0.21874446716E+03  0.10566000000E+00 0. -1.
        -13    1    4    4    0    0  0.62664407035E+00 -0.94261799414E+00 -0.65250419120E+02  0.65260321566E+02  0.10566000000E+00 0. -1.
        -14    1    4    4    0    0  0.51880749268E+01 -0.16547547436E+02 -0.78053254806E+03  0.78072517317E+03  0.00000000000E+00 0.  1.
<mgrwt>
<rscale>  0 0.78794875E+02</rscale>
<asrwt>0</asrwt>
<pdfrwt beam="1">  1        2 0.18067311E+00 0.78794875E+02</pdfrwt>
<pdfrwt beam="2">  1       -1 0.20333667E-03 0.78794875E+02</pdfrwt>
<totfact> 0.36523871E+05</totfact>
</mgrwt>
</event>
<event>
 8    1  0.2676873E-016  0.7933843E+02  0.7818608E-02  0.1330939E+00
          2   -1    0    0  501    0  0.00000000000E+00  0.00000000000E+00  0.20802375402E+02  0.20802375558E+02  0.25500000000E-02 0. -1.
         -1   -1    0    0    0  501 -0.00000000000E+00 -0.00000000000E+00 -0.75647438084E+02  0.75647438252E+02  0.50400000000E-02 0.  1.
         24    2    1    2    0    0 -0.71054273576E-14  0.17763568394E-14 -0.54845062682E+02  0.96449813810E+02  0.79338425012E+02 0.  0.
         66    2    3    3    0    0  0.34521767559E+02 -0.15308939624E+02 -0.12774734797E+02  0.39916286411E+02  0.20000009834E+01 0.  0.
        -13    1    3    3    0    0 -0.34521767559E+02  0.15308939624E+02 -0.42070327885E+02  0.56533527399E+02  0.10566000000E+00 0.  1.
         13    1    4    4    0    0  0.83855617757E+01 -0.39788198081E+01 -0.35179236001E+01  0.99265101547E+01  0.10566000000E+00 0. -1.
        -13    1    4    4    0    0  0.18548571549E+02 -0.73975043076E+01 -0.68380367257E+01  0.21107877363E+02  0.10566000000E+00 0.  1.
        -14    1    4    4    0    0  0.75876342344E+01 -0.39326155079E+01 -0.24187744716E+01  0.88818988934E+01  0.00000000000E+00 0.  1.
<mgrwt>
<rscale>  0 0.79338425E+02</rscale>
<asrwt>0</asrwt>
<pdfrwt beam="1">  1        2 0.32003655E-02 0.79338425E+02</pdfrwt>
<pdfrwt beam="2">  1       -1 0.11638067E-01 0.79338425E+02</pdfrwt>
<totfact> 0.12815597E+05</totfact>
</mgrwt>
</event>
<event>
 8    1  0.2676873E-016  0.8475435E+02  0.7818608E-02  0.1316076E+00
          2   -1    0    0  501    0  0.00000000000E+00  0.00000000000E+00  0.16022765304E+03  0.16022765306E+03  0.25500000000E-02 0. -1.
         -1   -1    0    0    0  501 -0.00000000000E+00 -0.00000000000E+00 -0.11207959670E+02  0.11207960804E+02  0.50400000000E-02 0.  1.
         24    2    1    2    0    0  0.00000000000E+00  0.71054273576E-14  0.14901969337E+03  0.17143561387E+03  0.84754354986E+02 0.  0.
         66    2    3    3    0    0 -0.58228957184E+01  0.41153220626E+02  0.58077851887E+02  0.71445997509E+02  0.19999994731E+01 0.  0.
        -13    1    3    3    0    0  0.58228957184E+01 -0.41153220626E+02  0.90941841487E+02  0.99989616358E+02  0.10566000000E+00 0.  1.
         13    1    4    4    0    0 -0.16475994274E-01  0.11562391213E+01  0.12931901901E+01  0.17380061183E+01  0.10566000000E+00 0. -1.
        -13    1    4    4    0    0 -0.23140105684E+01  0.15573898445E+02  0.21207966525E+02  0.26413821493E+02  0.10566000000E+00 0.  1.
         14    1    4    4    0    0 -0.34924091556E+01  0.24423083059E+02  0.35576695172E+02  0.43294169898E+02  0.00000000000E+00 0. -1.
<mgrwt>
<rscale>  0 0.84754355E+02</rscale>
<asrwt>0</asrwt>
<pdfrwt beam="1">  1        2 0.24650406E-01 0.84754355E+02</pdfrwt>
<pdfrwt beam="2">  1       -1 0.17243017E-02 0.84754355E+02</pdfrwt>
<totfact> 0.17553093E+05</totfact>
</mgrwt>
</event>
<event>
 8    1  0.2676873E-016  0.8617616E+02  0.7818608E-02  0.1312385E+00
          2   -1    0    0  501    0  0.00000000000E+00  0.00000000000E+00  0.18039913477E+02  0.18039913657E+02  0.25500000000E-02 0. -1.
         -1   -1    0    0    0  501 -0.00000000000E+00 -0.00000000000E+00 -0.10291527906E+03  0.10291527918E+03  0.50400000000E-02 0.  1.
         24    2    1    2    0    0 -0.88817841970E-15 -0.35527136788E-14 -0.84875365579E+02  0.12095519284E+03  0.86176162551E+02 0.  0.
         66    2    3    3    0    0  0.49223484466E+01  0.27623452713E+02  0.33937322148E+01  0.28333762037E+02  0.19999996983E+01 0.  0.
        -13    1    3    3    0    0 -0.49223484466E+01 -0.27623452713E+02 -0.88269097794E+02  0.92621430800E+02  0.10566000000E+00 0.  1.
         13    1    4    4    0    0  0.25657819708E+01  0.17698364687E+02  0.14271785008E+01  0.17940550499E+02  0.10566000000E+00 0. -1.
        -13    1    4    4    0    0  0.75906642126E+00  0.27595431412E+01  0.54335070729E+00  0.29150736194E+01  0.10566000000E+00 0.  1.
         14    1    4    4    0    0  0.15975000546E+01  0.71655448853E+01  0.14232030066E+01  0.74781379183E+01  0.00000000000E+00 0. -1.
<mgrwt>
<rscale>  0 0.86176163E+02</rscale>
<asrwt>0</asrwt>
<pdfrwt beam="1">  1        2 0.27753714E-02 0.86176163E+02</pdfrwt>
<pdfrwt beam="2">  1       -1 0.15833120E-01 0.86176163E+02</pdfrwt>
<totfact> 0.97851405E+04</totfact>
</mgrwt>
</event>
<event>
 8    1  0.2676873E-016  0.7881012E+02  0.7818608E-02  0.1332462E+00
          2   -1    0    0  501    0  0.00000000000E+00  0.00000000000E+00  0.29535825055E+03  0.29535825057E+03  0.25500000000E-02 0. -1.
         -1   -1    0    0    0  501 -0.00000000000E+00 -0.00000000000E+00 -0.52572036548E+01  0.52572060707E+01  0.50400000000E-02 0.  1.
         24    2    1    2    0    0  0.00000000000E+00  0.00000000000E+00  0.29010104690E+03  0.30061545664E+03  0.78810122169E+02 0.  0.
         66    2    3    3    0    0  0.49042507655E+01 -0.92722298604E+01  0.28992758735E+03  0.29012416623E+03  0.20000004863E+01 0.  0.
        -13    1    3    3    0    0 -0.49042507655E+01  0.92722298604E+01  0.17345955069E+00  0.10491290407E+02  0.10566000000E+00 0.  1.
         13    1    4    4    0    0  0.15593521212E+01 -0.30718523430E+01  0.84192944543E+02  0.84263461421E+02  0.10566000000E+00 0. -1.
        -13    1    4    4    0    0  0.33388584840E+01 -0.51700975210E+01  0.17083732271E+03  0.17094817893E+03  0.10566000000E+00 0.  1.
        -14    1    4    4    0    0  0.60401603152E-02 -0.10302799964E+01  0.34897320092E+02  0.34912525874E+02  0.00000000000E+00 0.  1.
<mgrwt>
<rscale>  0 0.78810122E+02</rscale>
<asrwt>0</asrwt>
<pdfrwt beam="1">  1        2 0.45439725E-01 0.78810122E+02</pdfrwt>
<pdfrwt beam="2">  1       -1 0.80880086E-03 0.78810122E+02</pdfrwt>
<totfact> 0.26366191E+05</totfact>
</mgrwt>
</event>
<event>
 8    1  0.2676873E-016  0.7978995E+02  0.7818608E-02  0.1329649E+00
          2   -1    0    0  501    0  0.00000000000E+00  0.00000000000E+00  0.70866056714E+03  0.70866056715E+03  0.25500000000E-02 0. -1.
         -1   -1    0    0    0  501 -0.00000000000E+00 -0.00000000000E+00 -0.22459371813E+01  0.22459428363E+01  0.50400000000E-02 0.  1.
         24    2    1    2    0    0  0.00000000000E+00  0.71054273576E-14  0.70641462996E+03  0.71090650998E+03  0.79789952459E+02 0.  0.
         66    2    3    3    0    0 -0.41425389481E+01  0.35361628925E+02  0.51330759327E+03  0.51454474127E+03  0.20000072466E+01 0.  0.
        -13    1    3    3    0    0  0.41425389481E+01 -0.35361628925E+02  0.19310703669E+03  0.19636176871E+03  0.10566000000E+00 0.  1.
         13    1    4    4    0    0 -0.28818332879E+01  0.17604514864E+02  0.25752366972E+03  0.25814080564E+03  0.10566000000E+00 0. -1.
        -13    1    4    4    0    0 -0.12075321519E+01  0.17516507822E+02  0.25329486691E+03  0.25390271158E+03  0.10566000000E+00 0.  1.
        -14    1    4    4    0    0 -0.53173508313E-01  0.24060623972E+00  0.24890566454E+01  0.25012240541E+01  0.00000000000E+00 0.  1.
<mgrwt>
<rscale>  0 0.79789952E+02</rscale>
<asrwt>0</asrwt>
<pdfrwt beam="1">  1        2 0.10902462E+00 0.79789952E+02</pdfrwt>
<pdfrwt beam="2">  1       -1 0.34552948E-03 0.79789952E+02</pdfrwt>
<totfact> 0.33775006E+05</totfact>
</mgrwt>
</event>
<event>
 8    1  0.2676873E-016  0.8033250E+02  0.7818608E-02  0.1328110E+00
         -1   -1    0    0    0  501 -0.00000000000E+00  0.00000000000E+00  0.22011857090E+02  0.22011857667E+02  0.50400000000E-02 0.  1.
          2   -1    0    0  501    0  0.00000000000E+00 -0.00000000000E+00 -0.73293569391E+02  0.73293569435E+02  0.25500000000E-02 0. -1.
         24    2    1    2    0    0  0.35527136788E-14  0.35527136788E-14 -0.51281712301E+02  0.95305427102E+02  0.80332499143E+02 0.  0.
         66    2    3    3    0    0  0.29172006750E+02  0.19124811075E+02 -0.49222490682E+02  0.60362388680E+02  0.20000004499E+01 0.  0.
        -13    1    3    3    0    0 -0.29172006750E+02 -0.19124811075E+02 -0.20592216191E+01  0.34943038422E+02  0.10566000000E+00 0.  1.
         13    1    4    4    0    0  0.99215748757E+01  0.69031021894E+01 -0.17028533621E+02  0.20882351140E+02  0.10566000000E+00 0. -1.
        -13    1    4    4    0    0  0.66713986829E+01  0.41246673007E+01 -0.98773207554E+01  0.12613210141E+02  0.10566000000E+00 0.  1.
        -14    1    4    4    0    0  0.12579033191E+02  0.80970415849E+01 -0.22316636306E+02  0.26866827398E+02  0.00000000000E+00 0.  1.
<mgrwt>
<rscale>  0 0.80332499E+02</rscale>
<asrwt>0</asrwt>
<pdfrwt beam="1">  1        2 0.11275934E-01 0.80332499E+02</pdfrwt>
<pdfrwt beam="2">  1       -1 0.33864396E-02 0.80332499E+02</pdfrwt>
<totfact> 0.16148305E+05</totfact>
</mgrwt>
</event>
<event>
 8    1  0.2676873E-016  0.7692652E+02  0.7818608E-02  0.1338007E+00
          2   -1    0    0  501    0  0.00000000000E+00  0.00000000000E+00  0.50754177665E+03  0.50754177666E+03  0.25500000000E-02 0. -1.
         -1   -1    0    0    0  501 -0.00000000000E+00 -0.00000000000E+00 -0.29148759979E+01  0.29148803551E+01  0.50400000000E-02 0.  1.
         24    2    1    2    0    0  0.35527136788E-14  0.00000000000E+00  0.50462690066E+03  0.51045665702E+03  0.76926522251E+02 0.  0.
         66    2    3    3    0    0  0.26244343169E+02  0.11798198845E+01  0.43866731542E+03  0.43945781497E+03  0.19999992076E+01 0.  0.
        -13    1    3    3    0    0 -0.26244343169E+02 -0.11798198845E+01  0.65959585237E+02  0.70998842047E+02  0.10566000000E+00 0.  1.
         13    1    4    4    0    0  0.16735321022E+02 -0.14572379775E+00  0.27918038501E+03  0.27968158814E+03  0.10566000000E+00 0. -1.
        -13    1    4    4    0    0  0.44397916229E+01  0.71602815940E+00  0.77606420773E+02  0.77736684745E+02  0.10566000000E+00 0.  1.
        -14    1    4    4    0    0  0.50692305236E+01  0.60951552291E+00  0.81880509638E+02  0.82039542087E+02  0.00000000000E+00 0.  1.
<mgrwt>
<rscale>  0 0.76926522E+02</rscale>
<asrwt>0</asrwt>
<pdfrwt beam="1">  1        2 0.78083310E-01 0.76926522E+02</pdfrwt>
<pdfrwt beam="2">  1       -1 0.44844303E-03 0.76926522E+02</pdfrwt>
<totfact> 0.33878083E+05</totfact>
</mgrwt>
</event>
<event>
 8    1  0.2676873E-016  0.7923967E+02  0.7818608E-02  0.1331223E+00
         -1   -1    0    0    0  501 -0.00000000000E+00  0.00000000000E+00  0.35468449331E+01  0.35468485139E+01  0.50400000000E-02 0.  1.
          2   -1    0    0  501    0  0.00000000000E+00 -0.00000000000E+00 -0.44257094527E+03  0.44257094528E+03  0.25500000000E-02 0. -1.
         24    2    1    2    0    0 -0.35527136788E-14  0.35527136788E-14 -0.43902410034E+03  0.44611779379E+03  0.79239669740E+02 0.  0.
         66    2    3    3    0    0  0.29675662479E+02  0.21423863503E+02 -0.30468088837E+03  0.30687794089E+03  0.19999986450E+01 0.  0.
        -13    1    3    3    0    0 -0.29675662479E+02 -0.21423863503E+02 -0.13434321197E+03  0.13923985290E+03  0.10566000000E+00 0.  1.
         13    1    4    4    0    0  0.50913262717E+00  0.32317691369E+00 -0.42910601227E+01  0.43345150088E+01  0.10566000000E+00 0.  1.
        -13    1    4    4    0    0  0.12738828090E+02  0.99354280883E+01 -0.13026828708E+03  0.13126624949E+03  0.10566000000E+00 0.  1.
         14    1    4    4    0    0  0.16427701762E+02  0.11165258501E+02 -0.17012154117E+03  0.17127717639E+03  0.00000000000E+00 0. -1.
<mgrwt>
<rscale>  0 0.79239670E+02</rscale>
<asrwt>0</asrwt>
<pdfrwt beam="1">  1        2 0.68087794E-01 0.79239670E+02</pdfrwt>
<pdfrwt beam="2">  1       -1 0.54566908E-03 0.79239670E+02</pdfrwt>
<totfact> 0.29991786E+05</totfact>
</mgrwt>
</event>
<event>
 8    1  0.2676873E-016  0.8098062E+02  0.7818608E-02  0.1326291E+00
         -1   -1    0    0    0  501 -0.00000000000E+00  0.00000000000E+00  0.98758858096E+02  0.98758858225E+02  0.50400000000E-02 0.  1.
          2   -1    0    0  501    0  0.00000000000E+00 -0.00000000000E+00 -0.16600690389E+02  0.16600690585E+02  0.25500000000E-02 0. -1.
         24    2    1    2    0    0 -0.71054273576E-14 -0.35527136788E-14  0.82158167707E+02  0.11535954881E+03  0.80980621018E+02 0.  0.
         66    2    3    3    0    0 -0.32888248757E+02 -0.23491843035E+02  0.38270477209E+02  0.55696795464E+02  0.20000009127E+01 0.  0.
        -13    1    3    3    0    0  0.32888248757E+02  0.23491843035E+02  0.43887690498E+02  0.59662753346E+02  0.10566000000E+00 0.  1.
         13    1    4    4    0    0 -0.22503430797E+02 -0.15821355062E+02  0.24813368276E+02  0.37046377460E+02  0.10566000000E+00 0. -1.
        -13    1    4    4    0    0 -0.63102216910E+01 -0.47704724266E+01  0.83235212667E+01  0.11483399988E+02  0.10566000000E+00 0. -1.
        -14    1    4    4    0    0 -0.40745962688E+01 -0.29000155465E+01  0.51335876664E+01  0.71670180168E+01  0.00000000000E+00 0.  1.
<mgrwt>
<rscale>  0 0.80980621E+02</rscale>
<asrwt>0</asrwt>
<pdfrwt beam="1">  1        2 0.25539523E-02 0.80980621E+02</pdfrwt>
<pdfrwt beam="2">  1       -1 0.15193671E-01 0.80980621E+02</pdfrwt>
<totfact> 0.11529415E+05</totfact>
</mgrwt>
</event>
<event>
 8    1  0.2676873E-016  0.7525723E+02  0.7818608E-02  0.1343076E+00
          2   -1    0    0  501    0  0.00000000000E+00  0.00000000000E+00  0.11462233217E+03  0.11462233220E+03  0.25500000000E-02 0. -1.
         -1   -1    0    0    0  501 -0.00000000000E+00 -0.00000000000E+00 -0.12352851727E+02  0.12352852755E+02  0.50400000000E-02 0.  1.
         24    2    1    2    0    0 -0.35527136788E-14  0.00000000000E+00  0.10226948045E+03  0.12697518496E+03  0.75257231971E+02 0.  0.
         66    2    3    3    0    0 -0.27627377099E+02  0.24330281681E+02  0.64094571567E+02  0.73941522024E+02  0.20000007255E+01 0.  0.
        -13    1    3    3    0    0  0.27627377099E+02 -0.24330281681E+02  0.38174908881E+02  0.53033662933E+02  0.10566000000E+00 0.  1.
         13    1    4    4    0    0 -0.96152674352E+01  0.82829226084E+01  0.21080476106E+02  0.24606052338E+02  0.10566000000E+00 0. -1.
        -13    1    4    4    0    0 -0.92992421044E+01  0.90069664190E+01  0.22249254555E+02  0.25741830551E+02  0.10566000000E+00 0.  1.
        -14    1    4    4    0    0 -0.87128675592E+01  0.70403926533E+01  0.20764840906E+02  0.23593639135E+02  0.00000000000E+00 0.  1.
<mgrwt>
<rscale>  0 0.75257232E+02</rscale>
<asrwt>0</asrwt>
<pdfrwt beam="1">  1        2 0.17634205E-01 0.75257232E+02</pdfrwt>
<pdfrwt beam="2">  1       -1 0.19004388E-02 0.75257232E+02</pdfrwt>
<totfact> 0.21688291E+05</totfact>
</mgrwt>
</event>
<event>
 8    1  0.2676873E-016  0.8146064E+02  0.7818608E-02  0.1324957E+00
          2   -1    0    0  501    0  0.00000000000E+00  0.00000000000E+00  0.24692112092E+03  0.24692112093E+03  0.25500000000E-02 0. -1.
         -1   -1    0    0    0  501 -0.00000000000E+00 -0.00000000000E+00 -0.67185773215E+01  0.67185792119E+01  0.50400000000E-02 0.  1.
         24    2    1    2    0    0  0.00000000000E+00 -0.17763568394E-14  0.24020254360E+03  0.25363970015E+03  0.81460637970E+02 0.  0.
         66    2    3    3    0    0 -0.96137959619E+01 -0.15650051839E+02  0.23328095195E+03  0.23401143506E+03  0.20000000342E+01 0.  0.
        -13    1    3    3    0    0  0.96137959619E+01  0.15650051839E+02  0.69215916499E+01  0.19628265088E+02  0.10566000000E+00 0.  1.
         13    1    4    4    0    0 -0.18071755769E+01 -0.26953458484E+01  0.41789640293E+02  0.41915581502E+02  0.10566000000E+00 0. -1.
        -13    1    4    4    0    0 -0.56892210498E+01 -0.85586976969E+01  0.12086113387E+03  0.12129733463E+03  0.10566000000E+00 0.  1.
        -14    1    4    4    0    0 -0.21173993352E+01 -0.43960082936E+01  0.70630177781E+02  0.70798518927E+02  0.00000000000E+00 0.  1.
<mgrwt>
<rscale>  0 0.81460638E+02</rscale>
<asrwt>0</asrwt>
<pdfrwt beam="1">  1        2 0.37987865E-01 0.81460638E+02</pdfrwt>
<pdfrwt beam="2">  1       -1 0.10336274E-02 0.81460638E+02</pdfrwt>
<totfact> 0.22657660E+05</totfact>
</mgrwt>
</event>
<event>
 8    1  0.2676873E-016  0.7950665E+02  0.7818608E-02  0.1330457E+00
         -1   -1    0    0    0  501 -0.00000000000E+00  0.00000000000E+00  0.39709735064E+01  0.39709767048E+01  0.50400000000E-02 0.  1.
          2   -1    0    0  501    0  0.00000000000E+00 -0.00000000000E+00 -0.39796949317E+03  0.39796949318E+03  0.25500000000E-02 0. -1.
         24    2    1    2    0    0 -0.35527136788E-14  0.00000000000E+00 -0.39399851966E+03  0.40194046988E+03  0.79506652757E+02 0.  0.
         66    2    3    3    0    0  0.20779238375E+02  0.31437974791E+02 -0.26070936765E+03  0.26342645538E+03  0.20000012173E+01 0.  0.
        -13    1    3    3    0    0 -0.20779238375E+02 -0.31437974791E+02 -0.13328915201E+03  0.13851401451E+03  0.10566000000E+00 0.  1.
         13    1    4    4    0    0  0.23812921132E+01  0.30627815642E+01 -0.25266515128E+02  0.25562846747E+02  0.10566000000E+00 0. -1.
        -13    1    4    4    0    0  0.65185640699E+01  0.88192058840E+01 -0.76851370935E+02  0.77629984211E+02  0.10566000000E+00 0. -1.
        -14    1    4    4    0    0  0.11879382192E+02  0.19555987343E+02 -0.15859148159E+03  0.16023362442E+03  0.00000000000E+00 0.  1.
<mgrwt>
<rscale>  0 0.79506653E+02</rscale>
<asrwt>0</asrwt>
<pdfrwt beam="1">  1        2 0.61226044E-01 0.79506653E+02</pdfrwt>
<pdfrwt beam="2">  1       -1 0.61091956E-03 0.79506653E+02</pdfrwt>
<totfact> 0.28662685E+05</totfact>
</mgrwt>
</event>
<event>
 8    1  0.2676873E-016  0.8015408E+02  0.7818608E-02  0.1328615E+00
          2   -1    0    0  501    0  0.00000000000E+00  0.00000000000E+00  0.33695701626E+03  0.33695701627E+03  0.25500000000E-02 0. -1.
         -1   -1    0    0    0  501 -0.00000000000E+00 -0.00000000000E+00 -0.47666871034E+01  0.47666897679E+01  0.50400000000E-02 0.  1.
         24    2    1    2    0    0  0.00000000000E+00  0.35527136788E-14  0.33219032916E+03  0.34172370604E+03  0.80154079640E+02 0.  0.
         66    2    3    3    0    0  0.48504783959E+01 -0.29953646501E+02  0.27765136598E+03  0.27931170601E+03  0.20000006620E+01 0.  0.
        -13    1    3    3    0    0 -0.48504783959E+01  0.29953646501E+02  0.54538963177E+02  0.62412000031E+02  0.10566000000E+00 0.  1.
         13    1    4    4    0    0  0.30994327523E+01 -0.14906996369E+02  0.14144992822E+03  0.14226706711E+03  0.10566000000E+00 0. -1.
        -13    1    4    4    0    0  0.16672829564E+00 -0.53514668235E+01  0.48282242149E+02  0.48578308600E+02  0.10566000000E+00 0.  1.
        -14    1    4    4    0    0  0.15843173479E+01 -0.96951833082E+01  0.87919195607E+02  0.88466330301E+02  0.00000000000E+00 0.  1.
<mgrwt>
<rscale>  0 0.80154080E+02</rscale>
<asrwt>0</asrwt>
<pdfrwt beam="1">  1        2 0.51839558E-01 0.80154080E+02</pdfrwt>
<pdfrwt beam="2">  1       -1 0.73333645E-03 0.80154080E+02</pdfrwt>
<totfact> 0.26452080E+05</totfact>
</mgrwt>
</event>
<event>
 8    1  0.2676873E-016  0.8128710E+02  0.7818608E-02  0.1325438E+00
          2   -1    0    0  501    0  0.00000000000E+00  0.00000000000E+00  0.58503138548E+02  0.58503138604E+02  0.25500000000E-02 0. -1.
         -1   -1    0    0    0  501 -0.00000000000E+00 -0.00000000000E+00 -0.28236060168E+02  0.28236060618E+02  0.50400000000E-02 0.  1.
         24    2    1    2    0    0  0.17763568394E-14 -0.35527136788E-14  0.30267078380E+02  0.86739199222E+02  0.81287100133E+02 0.  0.
         66    2    3    3    0    0  0.11271237295E+02 -0.28158023142E+02  0.43972944283E+02  0.53455915405E+02  0.20000013834E+01 0.  0.
        -13    1    3    3    0    0 -0.11271237295E+02  0.28158023142E+02 -0.13705865903E+02  0.33283283816E+02  0.10566000000E+00 0.  1.
         13    1    4    4    0    0  0.57641045085E+01 -0.13525638887E+02  0.21309637970E+02  0.25889759414E+02  0.10566000000E+00 0. -1.
        -13    1    4    4    0    0  0.15500893653E+01 -0.39856450376E+01  0.72832821841E+01  0.84466269490E+01  0.10566000000E+00 0.  1.
        -14    1    4    4    0    0  0.39570434208E+01 -0.10646739218E+02  0.15380024129E+02  0.19119529043E+02  0.00000000000E+00 0.  1.
<mgrwt>
<rscale>  0 0.81287100E+02</rscale>
<asrwt>0</asrwt>
<pdfrwt beam="1">  1        2 0.90004827E-02 0.81287100E+02</pdfrwt>
<pdfrwt beam="2">  1       -1 0.43440094E-02 0.81287100E+02</pdfrwt>
<totfact> 0.14817021E+05</totfact>
</mgrwt>
</event>
<event>
 8    1  0.2676873E-016  0.7059432E+02  0.7818608E-02  0.1358084E+00
         -1   -1    0    0    0  501 -0.00000000000E+00  0.00000000000E+00  0.65956297537E+01  0.65956316794E+01  0.50400000000E-02 0.  1.
          2   -1    0    0  501    0  0.00000000000E+00 -0.00000000000E+00 -0.18889616068E+03  0.18889616069E+03  0.25500000000E-02 0. -1.
         24    2    1    2    0    0  0.00000000000E+00  0.00000000000E+00 -0.18230053092E+03  0.19549179237E+03  0.70594315002E+02 0.  0.
         66    2    3    3    0    0  0.40389123543E+01  0.98535897896E+01 -0.18433185571E+03  0.18465004486E+03  0.19999983078E+01 0.  0.
        -13    1    3    3    0    0 -0.40389123543E+01 -0.98535897896E+01  0.20313247843E+01  0.10841747514E+02  0.10566000000E+00 0.  1.
         13    1    4    4    0    0  0.19753248215E+01  0.30646925131E+01 -0.73363998207E+02  0.73454623036E+02  0.10566000000E+00 0. -1.
        -13    1    4    4    0    0  0.80460418538E+00  0.33526645661E+01 -0.52816535070E+02  0.52929059017E+02  0.10566000000E+00 0.  1.
         14    1    4    4    0    0  0.12589833474E+01  0.34362327104E+01 -0.58151322431E+02  0.58266362807E+02  0.00000000000E+00 0. -1.
<mgrwt>
<rscale>  0 0.70594315E+02</rscale>
<asrwt>0</asrwt>
<pdfrwt beam="1">  1        2 0.29060944E-01 0.70594315E+02</pdfrwt>
<pdfrwt beam="2">  1       -1 0.10147126E-02 0.70594315E+02</pdfrwt>
<totfact> 0.30021387E+05</totfact>
</mgrwt>
</event>
<event>
 8    1  0.2676873E-016  0.7905373E+02  0.7818608E-02  0.1331758E+00
          2   -1    0    0  501    0  0.00000000000E+00  0.00000000000E+00  0.13850523228E+02  0.13850523463E+02  0.25500000000E-02 0. -1.
         -1   -1    0    0    0  501 -0.00000000000E+00 -0.00000000000E+00 -0.11280245617E+03  0.11280245629E+03  0.50400000000E-02 0.  1.
         24    2    1    2    0    0  0.00000000000E+00  0.00000000000E+00 -0.98951932945E+02  0.12665297975E+03  0.79053730119E+02 0.  0.
         66    2    3    3    0    0 -0.43033400220E+01 -0.38001032547E+02 -0.33665988170E+02  0.50990155593E+02  0.19999994914E+01 0.  0.
        -13    1    3    3    0    0  0.43033400220E+01  0.38001032547E+02 -0.65285944776E+02  0.75662824156E+02  0.10566000000E+00 0.  1.
         13    1    4    4    0    0 -0.12140911002E+01 -0.11332197027E+02 -0.10468358958E+02  0.15475477698E+02  0.10566000000E+00 0. -1.
        -13    1    4    4    0    0 -0.11621316277E+01 -0.12614692466E+02 -0.11881025591E+02  0.17368101482E+02  0.10566000000E+00 0.  1.
        -14    1    4    4    0    0 -0.19271172941E+01 -0.14054143054E+02 -0.11316603620E+02  0.18146576414E+02  0.00000000000E+00 0.  1.
<mgrwt>
<rscale>  0 0.79053730E+02</rscale>
<asrwt>0</asrwt>
<pdfrwt beam="1">  1        2 0.21308498E-02 0.79053730E+02</pdfrwt>
<pdfrwt beam="2">  1       -1 0.17354223E-01 0.79053730E+02</pdfrwt>
<totfact> 0.11894035E+05</totfact>
</mgrwt>
</event>
<event>
 8    1  0.2676873E-016  0.7952018E+02  0.7818608E-02  0.1330419E+00
         -1   -1    0    0    0  501 -0.00000000000E+00  0.00000000000E+00  0.17565329700E+02  0.17565330423E+02  0.50400000000E-02 0.  1.
          2   -1    0    0  501    0  0.00000000000E+00 -0.00000000000E+00 -0.89999159031E+02  0.89999159067E+02  0.25500000000E-02 0. -1.
         24    2    1    2    0    0  0.00000000000E+00  0.35527136788E-14 -0.72433829331E+02  0.10756448949E+03  0.79520184655E+02 0.  0.
         66    2    3    3    0    0 -0.22598171909E+02  0.26295082733E+02 -0.62495175207E+02  0.71496543064E+02  0.19999990818E+01 0.  0.
        -13    1    3    3    0    0  0.22598171909E+02 -0.26295082733E+02 -0.99386541242E+01  0.36067946426E+02  0.10566000000E+00 0.  1.
         13    1    4    4    0    0 -0.54538709436E+01  0.68242400498E+01 -0.15194795371E+02  0.17527348086E+02  0.10566000000E+00 0. -1.
        -13    1    4    4    0    0 -0.17158478595E+02  0.19371167612E+02 -0.47190517801E+02  0.53820178899E+02  0.10566000000E+00 0.  1.
        -14    1    4    4    0    0  0.14177629498E-01  0.99675070782E-01 -0.10986203452E+00  0.14901607814E+00  0.00000000000E+00 0.  1.
<mgrwt>
<rscale>  0 0.79520185E+02</rscale>
<asrwt>0</asrwt>
<pdfrwt beam="1">  1        2 0.13846024E-01 0.79520185E+02</pdfrwt>
<pdfrwt beam="2">  1       -1 0.27023585E-02 0.79520185E+02</pdfrwt>
<totfact> 0.17501122E+05</totfact>
</mgrwt>
</event>
<event>
 8    1  0.2676873E-016  0.7968240E+02  0.7818608E-02  0.1329955E+00
          2   -1    0    0  501    0  0.00000000000E+00  0.00000000000E+00  0.20944699749E+03  0.20944699751E+03  0.25500000000E-02 0. -1.
         -1   -1    0    0    0  501 -0.00000000000E+00 -0.00000000000E+00 -0.75786292619E+01  0.75786309378E+01  0.50400000000E-02 0.  1.
         24    2    1    2    0    0 -0.88817841970E-15  0.71054273576E-14  0.20186836823E+03  0.21702562845E+03  0.79682402764E+02 0.  0.
         66    2    3    3    0    0 -0.73705787024E+01 -0.29492999529E+02  0.17103013615E+03  0.17372239331E+03  0.20000031780E+01 0.  0.
        -13    1    3    3    0    0  0.73705787024E+01  0.29492999529E+02  0.30838232076E+02  0.43303235136E+02  0.10566000000E+00 0.  1.
         13    1    4    4    0    0 -0.45599951083E+01 -0.18692350390E+02  0.11304101535E+03  0.11466682098E+03  0.10566000000E+00 0. -1.
        -13    1    4    4    0    0 -0.42158647319E+00 -0.17565507353E+01  0.85764795402E+01  0.87652935478E+01  0.10566000000E+00 0.  1.
        -14    1    4    4    0    0 -0.23889971209E+01 -0.90440984039E+01  0.49412641261E+02  0.50290278778E+02  0.00000000000E+00 0.  1.
<mgrwt>
<rscale>  0 0.79682403E+02</rscale>
<asrwt>0</asrwt>
<pdfrwt beam="1">  1        2 0.32222616E-01 0.79682403E+02</pdfrwt>
<pdfrwt beam="2">  1       -1 0.11659431E-02 0.79682403E+02</pdfrwt>
<totfact> 0.22652766E+05</totfact>
</mgrwt>
</event>
<event>
 8    1  0.2676873E-016  0.7907522E+02  0.7818608E-02  0.1331696E+00
          2   -1    0    0  501    0  0.00000000000E+00  0.00000000000E+00  0.32489321289E+02  0.32489321389E+02  0.25500000000E-02 0. -1.
         -1   -1    0    0    0  501 -0.00000000000E+00 -0.00000000000E+00 -0.48114969767E+02  0.48114970031E+02  0.50400000000E-02 0.  1.
         24    2    1    2    0    0 -0.35527136788E-14  0.17763568394E-14 -0.15625648477E+02  0.80604291420E+02  0.79075223079E+02 0.  0.
         66    2    3    3    0    0 -0.30638376900E+02  0.82372439983E+01  0.16188721348E+02  0.35674038592E+02  0.20000007074E+01 0.  0.
        -13    1    3    3    0    0  0.30638376900E+02 -0.82372439983E+01 -0.31814369826E+02  0.44930252828E+02  0.10566000000E+00 0.  1.
         13    1    4    4    0    0 -0.26664060410E+00  0.61305789305E-01  0.33807374998E+00  0.44756397038E+00  0.10566000000E+00 0.  1.
        -13    1    4    4    0    0 -0.11744301917E+02  0.28722623372E+01  0.61574697587E+01  0.13568497201E+02  0.10566000000E+00 0.  1.
         14    1    4    4    0    0 -0.18627434379E+02  0.53036758718E+01  0.96931778395E+01  0.21657977420E+02  0.00000000000E+00 0. -1.
<mgrwt>
<rscale>  0 0.79075223E+02</rscale>
<asrwt>0</asrwt>
<pdfrwt beam="1">  1        2 0.49983572E-02 0.79075223E+02</pdfrwt>
<pdfrwt beam="2">  1       -1 0.74023031E-02 0.79075223E+02</pdfrwt>
<totfact> 0.14119812E+05</totfact>
</mgrwt>
</event>
<event>
 8    1  0.2676873E-016  0.7940515E+02  0.7818608E-02  0.1330748E+00
          2   -1    0    0  501    0  0.00000000000E+00  0.00000000000E+00  0.75704289399E+01  0.75704293694E+01  0.25500000000E-02 0. -1.
         -1   -1    0    0    0  501 -0.00000000000E+00 -0.00000000000E+00 -0.20821732586E+03  0.20821732592E+03  0.50400000000E-02 0.  1.
         24    2    1    2    0    0  0.00000000000E+00 -0.71054273576E-14 -0.20064689692E+03  0.21578775529E+03  0.79405151531E+02 0.  0.
         66    2    3    3    0    0  0.11457837743E+02  0.37152204432E+02 -0.78864780827E+02  0.87950110976E+02  0.20000064305E+01 0.  0.
        -13    1    3    3    0    0 -0.11457837743E+02 -0.37152204432E+02 -0.12178211609E+03  0.12783764432E+03  0.10566000000E+00 0.  1.
         13    1    4    4    0    0  0.16926888236E+01  0.46801184900E+01 -0.10262181044E+02  0.11405798015E+02  0.10566000000E+00 0. -1.
        -13    1    4    4    0    0  0.47990780126E+01  0.15587366184E+02 -0.34901731592E+02  0.38524526817E+02  0.10566000000E+00 0.  1.
         14    1    4    4    0    0  0.49660709070E+01  0.16884719758E+02 -0.33700868192E+02  0.38019786144E+02  0.00000000000E+00 0. -1.
<mgrwt>
<rscale>  0 0.79405152E+02</rscale>
<asrwt>0</asrwt>
<pdfrwt beam="1">  1        2 0.11646816E-02 0.79405152E+02</pdfrwt>
<pdfrwt beam="2">  1       -1 0.32033431E-01 0.79405152E+02</pdfrwt>
<totfact> 0.10027011E+05</totfact>
</mgrwt>
</event>
<event>
 8    1  0.2676873E-016  0.9022649E+02  0.7818608E-02  0.1302304E+00
          2   -1    0    0  501    0  0.00000000000E+00  0.00000000000E+00  0.42407260506E+02  0.42407260582E+02  0.25500000000E-02 0. -1.
         -1   -1    0    0    0  501 -0.00000000000E+00 -0.00000000000E+00 -0.47991893374E+02  0.47991893638E+02  0.50400000000E-02 0.  1.
         24    2    1    2    0    0  0.00000000000E+00  0.00000000000E+00 -0.55846328680E+01  0.90399154221E+02  0.90226487018E+02 0.  0.
         66    2    3    3    0    0  0.18018997227E+02  0.11138856148E+02  0.37087531416E+02  0.42757962527E+02  0.19999988892E+01 0.  0.
        -13    1    3    3    0    0 -0.18018997227E+02 -0.11138856148E+02 -0.42672164284E+02  0.47641191694E+02  0.10566000000E+00 0.  1.
         13    1    4    4    0    0  0.10518470177E+02  0.62779885283E+01  0.22166674003E+02  0.25326349030E+02  0.10566000000E+00 0. -1.
        -13    1    4    4    0    0  0.12992989256E+01  0.53427273515E+00  0.30093816999E+01  0.33228251992E+01  0.10566000000E+00 0.  1.
         14    1    4    4    0    0  0.62012281237E+01  0.43265948847E+01  0.11911475714E+02  0.14108788297E+02  0.00000000000E+00 0. -1.
<mgrwt>
<rscale>  0 0.90226487E+02</rscale>
<asrwt>0</asrwt>
<pdfrwt beam="1">  1        2 0.65241940E-02 0.90226487E+02</pdfrwt>
<pdfrwt beam="2">  1       -1 0.73833682E-02 0.90226487E+02</pdfrwt>
<totfact> 0.10323042E+05</totfact>
</mgrwt>
</event>
<event>
 8    1  0.2676873E-016  0.7841950E+02  0.7818608E-02  0.1333597E+00
         -1   -1    0    0    0  501 -0.00000000000E+00  0.00000000000E+00  0.41337827459E+01  0.41337858184E+01  0.50400000000E-02 0.  1.
          2   -1    0    0  501    0  0.00000000000E+00 -0.00000000000E+00 -0.37191207559E+03  0.37191207560E+03  0.25500000000E-02 0. -1.
         24    2    1    2    0    0  0.00000000000E+00 -0.22204460493E-15 -0.36777829285E+03  0.37604586142E+03  0.78419495036E+02 0.  0.
         66    2    3    3    0    0  0.27940698864E+02 -0.18113698402E+01 -0.31545905217E+03  0.31670550565E+03  0.20000000285E+01 0.  0.
        -13    1    3    3    0    0 -0.27940698864E+02  0.18113698402E+01 -0.52319240675E+02  0.59340355767E+02  0.10566000000E+00 0.  1.
         13    1    4    4    0    0  0.26731770615E+01 -0.31752765292E-01 -0.31243073486E+02  0.31357418400E+02  0.10566000000E+00 0. -1.
        -13    1    4    4    0    0  0.45963710725E+01  0.35483725227E+00 -0.52470894619E+02  0.52673128658E+02  0.10566000000E+00 0.  1.
         14    1    4    4    0    0  0.20671150730E+02 -0.21344543272E+01 -0.23174508407E+03  0.23267495860E+03  0.00000000000E+00 0. -1.
<mgrwt>
<rscale>  0 0.78419495E+02</rscale>
<asrwt>0</asrwt>
<pdfrwt beam="1">  1        2 0.57217216E-01 0.78419495E+02</pdfrwt>
<pdfrwt beam="2">  1       -1 0.63596711E-03 0.78419495E+02</pdfrwt>
<totfact> 0.29010557E+05</totfact>
</mgrwt>
</event>
<event>
 8    1  0.2676873E-016  0.7991037E+02  0.7818608E-02  0.1329306E+00
         -1   -1    0    0    0  501 -0.00000000000E+00  0.00000000000E+00  0.48272997011E+01  0.48273023322E+01  0.50400000000E-02 0.  1.
          2   -1    0    0  501    0  0.00000000000E+00 -0.00000000000E+00 -0.33070586936E+03  0.33070586937E+03  0.25500000000E-02 0. -1.
         24    2    1    2    0    0  0.00000000000E+00  0.00000000000E+00 -0.32587856966E+03  0.33553317171E+03  0.79910369475E+02 0.  0.
         66    2    3    3    0    0  0.98088917582E+01 -0.23527766638E+02 -0.29209340232E+03  0.29321037812E+03  0.19999995356E+01 0.  0.
        -13    1    3    3    0    0 -0.98088917582E+01  0.23527766638E+02 -0.33785167344E+02  0.42322793587E+02  0.10566000000E+00 0.  1.
         13    1    4    4    0    0  0.52306012532E+01 -0.14725504643E+02 -0.18391889295E+03  0.18458160803E+03  0.10566000000E+00 0. -1.
        -13    1    4    4    0    0  0.39226670572E+01 -0.76657403559E+01 -0.93659591144E+02  0.94054670640E+02  0.10566000000E+00 0.  1.
         14    1    4    4    0    0  0.65562344775E+00 -0.11365216384E+01 -0.14514918228E+02  0.14574099448E+02  0.00000000000E+00 0. -1.
<mgrwt>
<rscale>  0 0.79910369E+02</rscale>
<asrwt>0</asrwt>
<pdfrwt beam="1">  1        2 0.50877809E-01 0.79910369E+02</pdfrwt>
<pdfrwt beam="2">  1       -1 0.74266195E-03 0.79910369E+02</pdfrwt>
<totfact> 0.26485030E+05</totfact>
</mgrwt>
</event>
<event>
 8    1  0.2676873E-016  0.7888245E+02  0.7818608E-02  0.1332253E+00
          2   -1    0    0  501    0  0.00000000000E+00  0.00000000000E+00  0.38722749216E+03  0.38722749217E+03  0.25500000000E-02 0. -1.
         -1   -1    0    0    0  501 -0.00000000000E+00 -0.00000000000E+00 -0.40173010664E+01  0.40173042279E+01  0.50400000000E-02 0.  1.
         24    2    1    2    0    0  0.00000000000E+00  0.00000000000E+00  0.38321019109E+03  0.39124479639E+03  0.78882445127E+02 0.  0.
         66    2    3    3    0    0 -0.10728236672E+02  0.37583897525E+02  0.21699914420E+03  0.22050005215E+03  0.19999995107E+01 0.  0.
        -13    1    3    3    0    0  0.10728236672E+02 -0.37583897525E+02  0.16621104689E+03  0.17074474424E+03  0.10566000000E+00 0.  1.
         13    1    4    4    0    0 -0.76640371904E+01  0.25752649275E+02  0.14688213384E+03  0.14931948572E+03  0.10566000000E+00 0. -1.
        -13    1    4    4    0    0 -0.28144850377E+01  0.93567158268E+01  0.55700394021E+02  0.56550990400E+02  0.10566000000E+00 0.  1.
        -14    1    4    4    0    0 -0.24971444382E+00  0.24745324226E+01  0.14416616343E+02  0.14629576029E+02  0.00000000000E+00 0.  1.
<mgrwt>
<rscale>  0 0.78882445E+02</rscale>
<asrwt>0</asrwt>
<pdfrwt beam="1">  1        2 0.59573464E-01 0.78882445E+02</pdfrwt>
<pdfrwt beam="2">  1       -1 0.61804653E-03 0.78882445E+02</pdfrwt>
<totfact> 0.28978856E+05</totfact>
</mgrwt>
</event>
<event>
 8    1  0.2676873E-016  0.7863949E+02  0.7818608E-02  0.1332957E+00
         -1   -1    0    0    0  501 -0.00000000000E+00  0.00000000000E+00  0.12245590014E+02  0.12245591051E+02  0.50400000000E-02 0.  1.
          2   -1    0    0  501    0  0.00000000000E+00 -0.00000000000E+00 -0.12625298091E+03  0.12625298093E+03  0.25500000000E-02 0. -1.
         24    2    1    2    0    0  0.00000000000E+00  0.35527136788E-14 -0.11400739090E+03  0.13849857199E+03  0.78639489210E+02 0.  0.
         66    2    3    3    0    0 -0.15138811718E+02 -0.30951645923E+02 -0.90310025253E+02  0.96680342611E+02  0.19999951507E+01 0.  0.
        -13    1    3    3    0    0  0.15138811718E+02  0.30951645923E+02 -0.23697365642E+02  0.41818229374E+02  0.10566000000E+00 0.  1.
         13    1    4    4    0    0 -0.28601975145E+01 -0.43014421643E+01 -0.13990096632E+02  0.14913654895E+02  0.10566000000E+00 0. -1.
        -13    1    4    4    0    0 -0.99276397427E+01 -0.21341402965E+02 -0.61257412651E+02  0.65623892601E+02  0.10566000000E+00 0.  1.
         14    1    4    4    0    0 -0.23509744610E+01 -0.53088007937E+01 -0.15062515970E+02  0.16142795115E+02  0.00000000000E+00 0. -1.
<mgrwt>
<rscale>  0 0.78639489E+02</rscale>
<asrwt>0</asrwt>
<pdfrwt beam="1">  1        2 0.19423535E-01 0.78639489E+02</pdfrwt>
<pdfrwt beam="2">  1       -1 0.18839371E-02 0.78639489E+02</pdfrwt>
<totfact> 0.19861753E+05</totfact>
</mgrwt>
</event>
<event>
 8    1  0.2676873E-016  0.8146053E+02  0.7818608E-02  0.1324957E+00
         -1   -1    0    0    0  501 -0.00000000000E+00  0.00000000000E+00  0.50925054889E+01  0.50925079829E+01  0.50400000000E-02 0.  1.
          2   -1    0    0  501    0  0.00000000000E+00 -0.00000000000E+00 -0.32576382142E+03  0.32576382143E+03  0.25500000000E-02 0. -1.
         24    2    1    2    0    0 -0.35527136788E-14 -0.17763568394E-14 -0.32067131594E+03  0.33085632942E+03  0.81460529409E+02 0.  0.
         66    2    3    3    0    0 -0.29954548899E+02 -0.10866170330E+02 -0.26331054909E+03  0.26523912592E+03  0.20000001199E+01 0.  0.
        -13    1    3    3    0    0  0.29954548899E+02  0.10866170330E+02 -0.57360766847E+02  0.65617203497E+02  0.10566000000E+00 0.  1.
         13    1    4    4    0    0 -0.11222957658E+02 -0.35592441387E+01 -0.96907656313E+02  0.97620325822E+02  0.10566000000E+00 0. -1.
        -13    1    4    4    0    0 -0.32125477827E+01 -0.84436817312E+00 -0.30251092753E+02  0.30433093790E+02  0.10566000000E+00 0.  1.
         14    1    4    4    0    0 -0.15519043459E+02 -0.64625580178E+01 -0.13615180002E+03  0.13718570631E+03  0.00000000000E+00 0. -1.
<mgrwt>
<rscale>  0 0.81460529E+02</rscale>
<asrwt>0</asrwt>
<pdfrwt beam="1">  1        2 0.50117495E-01 0.81460529E+02</pdfrwt>
<pdfrwt beam="2">  1       -1 0.78346283E-03 0.81460529E+02</pdfrwt>
<totfact> 0.25048209E+05</totfact>
</mgrwt>
</event>
<event>
 8    1  0.2676873E-016  0.7704605E+02  0.7818608E-02  0.1337650E+00
          2   -1    0    0  501    0  0.00000000000E+00  0.00000000000E+00  0.58258288960E+02  0.58258289016E+02  0.25500000000E-02 0. -1.
         -1   -1    0    0    0  501 -0.00000000000E+00 -0.00000000000E+00 -0.25473171765E+02  0.25473172263E+02  0.50400000000E-02 0.  1.
         24    2    1    2    0    0  0.00000000000E+00  0.00000000000E+00  0.32785117195E+02  0.83731461280E+02  0.77046049208E+02 0.  0.
         66    2    3    3    0    0 -0.32818646608E+02 -0.26382287611E+01  0.38084455400E+02  0.50383028548E+02  0.20000016091E+01 0.  0.
        -13    1    3    3    0    0  0.32818646608E+02  0.26382287611E+01 -0.52993382041E+01  0.33348432731E+02  0.10566000000E+00 0.  1.
         13    1    4    4    0    0 -0.20183036475E+02 -0.10594424058E+01  0.23854158693E+02  0.31265147218E+02  0.10566000000E+00 0. -1.
        -13    1    4    4    0    0 -0.27578351304E+01 -0.64493171542E+00  0.28414778922E+01  0.40133218376E+01  0.10566000000E+00 0.  1.
         14    1    4    4    0    0 -0.98777750025E+01 -0.93385463994E+00  0.11388818814E+02  0.15104559493E+02  0.00000000000E+00 0. -1.
<mgrwt>
<rscale>  0 0.77046049E+02</rscale>
<asrwt>0</asrwt>
<pdfrwt beam="1">  1        2 0.89628136E-02 0.77046049E+02</pdfrwt>
<pdfrwt beam="2">  1       -1 0.39189496E-02 0.77046049E+02</pdfrwt>
<totfact> 0.17124961E+05</totfact>
</mgrwt>
</event>
<event>
 8    1  0.2676873E-016  0.7865196E+02  0.7818608E-02  0.1332921E+00
         -1   -1    0    0    0  501 -0.00000000000E+00  0.00000000000E+00  0.58453961490E+01  0.58453983218E+01  0.50400000000E-02 0.  1.
          2   -1    0    0  501    0  0.00000000000E+00 -0.00000000000E+00 -0.26457271178E+03  0.26457271180E+03  0.25500000000E-02 0. -1.
         24    2    1    2    0    0  0.00000000000E+00  0.71054273576E-14 -0.25872731563E+03  0.27041811012E+03  0.78651957535E+02 0.  0.
         66    2    3    3    0    0  0.26937524479E+02  0.25420644586E+02 -0.17462825943E+03  0.17852413962E+03  0.20000093485E+01 0.  0.
        -13    1    3    3    0    0 -0.26937524479E+02 -0.25420644586E+02 -0.84099056201E+02  0.91893970500E+02  0.10566000000E+00 0.  1.
         13    1    4    4    0    0  0.23190026122E+01  0.17525692501E+01 -0.14763065579E+02  0.15046878128E+02  0.10566000000E+00 0.  1.
        -13    1    4    4    0    0  0.14375917789E+01  0.10619445444E+01 -0.77314650978E+01  0.79360640706E+01  0.10566000000E+00 0.  1.
         14    1    4    4    0    0  0.23180930088E+02  0.22606130791E+02 -0.15213372876E+03  0.15554119742E+03  0.00000000000E+00 0. -1.
<mgrwt>
<rscale>  0 0.78651958E+02</rscale>
<asrwt>0</asrwt>
<pdfrwt beam="1">  1        2 0.40703485E-01 0.78651958E+02</pdfrwt>
<pdfrwt beam="2">  1       -1 0.89929209E-03 0.78651958E+02</pdfrwt>
<totfact> 0.25471240E+05</totfact>
</mgrwt>
</event>
<event>
 8    1  0.2676873E-016  0.7864263E+02  0.7818608E-02  0.1332948E+00
         -1   -1    0    0    0  501 -0.00000000000E+00  0.00000000000E+00  0.24041422030E+01  0.24041474859E+01  0.50400000000E-02 0.  1.
          2   -1    0    0  501    0  0.00000000000E+00 -0.00000000000E+00 -0.64312503145E+03  0.64312503146E+03  0.25500000000E-02 0. -1.
         24    2    1    2    0    0  0.00000000000E+00  0.88817841970E-15 -0.64072088925E+03  0.64552917894E+03  0.78642628051E+02 0.  0.
         66    2    3    3    0    0 -0.17214405430E+02 -0.68197543061E+01 -0.60506982667E+03  0.60535637433E+03  0.19999992952E+01 0.  0.
        -13    1    3    3    0    0  0.17214405430E+02  0.68197543061E+01 -0.35651062578E+02  0.40172804608E+02  0.10566000000E+00 0.  1.
         13    1    4    4    0    0 -0.51689149037E+01 -0.24468479803E+01 -0.19738462217E+03  0.19746747828E+03  0.10566000000E+00 0. -1.
        -13    1    4    4    0    0 -0.71025498890E+01 -0.19979150922E+01 -0.24658471199E+03  0.24669509365E+03  0.10566000000E+00 0.  1.
         14    1    4    4    0    0 -0.49429406372E+01 -0.23749912336E+01 -0.16110049251E+03  0.16119380240E+03  0.00000000000E+00 0. -1.
<mgrwt>
<rscale>  0 0.78642628E+02</rscale>
<asrwt>0</asrwt>
<pdfrwt beam="1">  1        2 0.98942175E-01 0.78642628E+02</pdfrwt>
<pdfrwt beam="2">  1       -1 0.36986895E-03 0.78642628E+02</pdfrwt>
<totfact> 0.34258075E+05</totfact>
</mgrwt>
</event>
<event>
 8    1  0.2676873E-016  0.8111564E+02  0.7818608E-02  0.1325915E+00
         -1   -1    0    0    0  501 -0.00000000000E+00  0.00000000000E+00  0.10802617774E+02  0.10802618950E+02  0.50400000000E-02 0.  1.
          2   -1    0    0  501    0  0.00000000000E+00 -0.00000000000E+00 -0.15227205216E+03  0.15227205219E+03  0.25500000000E-02 0. -1.
         24    2    1    2    0    0  0.35527136788E-14  0.00000000000E+00 -0.14146943439E+03  0.16307467113E+03  0.81115642753E+02 0.  0.
         66    2    3    3    0    0  0.21286999391E+02 -0.13002193921E+02 -0.13500777988E+03  0.13730729772E+03  0.19999970438E+01 0.  0.
        -13    1    3    3    0    0 -0.21286999391E+02  0.13002193921E+02 -0.64616545077E+01  0.25767373417E+02  0.10566000000E+00 0.  1.
         13    1    4    4    0    0  0.17129065853E+02 -0.10580114189E+02 -0.11168856882E+03  0.11348872756E+03  0.10566000000E+00 0. -1.
        -13    1    4    4    0    0  0.30968882001E+01 -0.20024685313E+01 -0.16809668559E+02  0.17209785525E+02  0.10566000000E+00 0.  1.
        -14    1    4    4    0    0  0.10610453372E+01 -0.41961120004E+00 -0.65095424996E+01  0.66087846327E+01  0.00000000000E+00 0.  1.
<mgrwt>
<rscale>  0 0.81115643E+02</rscale>
<asrwt>0</asrwt>
<pdfrwt beam="1">  1        2 0.23426468E-01 0.81115643E+02</pdfrwt>
<pdfrwt beam="2">  1       -1 0.16619414E-02 0.81115643E+02</pdfrwt>
<totfact> 0.19400942E+05</totfact>
</mgrwt>
</event>
<event>
 8    1  0.2676873E-016  0.7982429E+02  0.7818608E-02  0.1329551E+00
          2   -1    0    0  501    0  0.00000000000E+00  0.00000000000E+00  0.96286169548E+03  0.96286169548E+03  0.25500000000E-02 0. -1.
         -1   -1    0    0    0  501 -0.00000000000E+00 -0.00000000000E+00 -0.16544178769E+01  0.16544255538E+01  0.50400000000E-02 0.  1.
         24    2    1    2    0    0  0.17763568394E-14 -0.17763568394E-14  0.96120727760E+03  0.96451612104E+03  0.79824289684E+02 0.  0.
         66    2    3    3    0    0  0.12278551695E+02 -0.14047144846E+02  0.90688590324E+03  0.90708000011E+03  0.19999999115E+01 0.  0.
        -13    1    3    3    0    0 -0.12278551695E+02  0.14047144846E+02  0.54321374360E+02  0.57436120921E+02  0.10566000000E+00 0.  1.
         13    1    4    4    0    0  0.13817327430E+01 -0.17214704369E+01  0.10034253353E+03  0.10036686627E+03  0.10566000000E+00 0. -1.
        -13    1    4    4    0    0  0.67152521993E+01 -0.67871255085E+01  0.50075773079E+03  0.50084875541E+03  0.10566000000E+00 0.  1.
        -14    1    4    4    0    0  0.41815667527E+01 -0.55385489009E+01  0.30578563892E+03  0.30586437843E+03  0.00000000000E+00 0.  1.
<mgrwt>
<rscale>  0 0.79824290E+02</rscale>
<asrwt>0</asrwt>
<pdfrwt beam="1">  1        2 0.14813289E+00 0.79824290E+02</pdfrwt>
<pdfrwt beam="2">  1       -1 0.25452586E-03 0.79824290E+02</pdfrwt>
<totfact> 0.35359225E+05</totfact>
</mgrwt>
</event>
<event>
 8    1  0.2676873E-016  0.8124751E+02  0.7818608E-02  0.1325548E+00
         -1   -1    0    0    0  501 -0.00000000000E+00  0.00000000000E+00  0.10425246054E+01  0.10425367881E+01  0.50400000000E-02 0.  1.
          2   -1    0    0  501    0  0.00000000000E+00 -0.00000000000E+00 -0.15829649068E+04  0.15829649068E+04  0.25500000000E-02 0. -1.
         24    2    1    2    0    0  0.16653345369E-15  0.00000000000E+00 -0.15819223822E+04  0.15840074436E+04  0.81247511103E+02 0.  0.
         66    2    3    3    0    0 -0.80452521654E-01 -0.16677741660E+02 -0.15130917680E+04  0.15131850026E+04  0.20000065032E+01 0.  0.
        -13    1    3    3    0    0  0.80452521654E-01  0.16677741660E+02 -0.68830614108E+02  0.70822440950E+02  0.10566000000E+00 0.  1.
         13    1    4    4    0    0 -0.76457801506E+00 -0.82719360128E+01 -0.74779464735E+03  0.74784079540E+03  0.10566000000E+00 0. -1.
        -13    1    4    4    0    0  0.67157215779E+00 -0.67040326194E+01 -0.57518593349E+03  0.57522540305E+03  0.10566000000E+00 0.  1.
         14    1    4    4    0    0  0.12553335620E-01 -0.17017730282E+01 -0.19011118721E+03  0.19011880415E+03  0.00000000000E+00 0. -1.
<mgrwt>
<rscale>  0 0.81247511E+02</rscale>
<asrwt>0</asrwt>
<pdfrwt beam="1">  1        2 0.24353114E+00 0.81247511E+02</pdfrwt>
<pdfrwt beam="2">  1       -1 0.16039061E-03 0.81247511E+02</pdfrwt>
<totfact> 0.31230727E+05</totfact>
</mgrwt>
</event>
<event>
 8    1  0.2676873E-016  0.8060499E+02  0.7818608E-02  0.1327343E+00
          2   -1    0    0  501    0  0.00000000000E+00  0.00000000000E+00  0.26779651391E+02  0.26779651513E+02  0.25500000000E-02 0. -1.
         -1   -1    0    0    0  501 -0.00000000000E+00 -0.00000000000E+00 -0.60653922456E+02  0.60653922666E+02  0.50400000000E-02 0.  1.
         24    2    1    2    0    0 -0.17763568394E-14 -0.71054273576E-14 -0.33874271065E+02  0.87433574179E+02  0.80604985289E+02 0.  0.
         66    2    3    3    0    0  0.14152782830E+02  0.37536771402E+02 -0.20854844529E+02  0.45257430442E+02  0.20000002056E+01 0.  0.
        -13    1    3    3    0    0 -0.14152782830E+02 -0.37536771402E+02 -0.13019426536E+02  0.42176143736E+02  0.10566000000E+00 0.  1.
         13    1    4    4    0    0  0.42391351571E+01  0.10252540545E+02 -0.52504274046E+01  0.12274485996E+02  0.10566000000E+00 0. -1.
        -13    1    4    4    0    0  0.61255175811E+01  0.16841794665E+02 -0.10338231426E+02  0.20689567570E+02  0.10566000000E+00 0.  1.
        -14    1    4    4    0    0  0.37881300919E+01  0.10442436192E+02 -0.52661856976E+01  0.12293376876E+02  0.00000000000E+00 0.  1.
<mgrwt>
<rscale>  0 0.80604985E+02</rscale>
<asrwt>0</asrwt>
<pdfrwt beam="1">  1        2 0.41199464E-02 0.80604985E+02</pdfrwt>
<pdfrwt beam="2">  1       -1 0.93313727E-02 0.80604985E+02</pdfrwt>
<totfact> 0.12880730E+05</totfact>
</mgrwt>
</event>
<event>
 8    1  0.2676873E-016  0.7879978E+02  0.7818608E-02  0.1332492E+00
          2   -1    0    0  501    0  0.00000000000E+00  0.00000000000E+00  0.12921640604E+03  0.12921640607E+03  0.25500000000E-02 0. -1.
         -1   -1    0    0    0  501 -0.00000000000E+00 -0.00000000000E+00 -0.12013576850E+02  0.12013577907E+02  0.50400000000E-02 0.  1.
         24    2    1    2    0    0 -0.88817841970E-15  0.00000000000E+00  0.11720282919E+03  0.14122998397E+03  0.78799779204E+02 0.  0.
         66    2    3    3    0    0 -0.58807438378E+01 -0.23047505169E+02  0.11487661942E+03  0.11733033840E+03  0.19999942190E+01 0.  0.
        -13    1    3    3    0    0  0.58807438378E+01  0.23047505169E+02  0.23262097707E+01  0.23899645573E+02  0.10566000000E+00 0.  1.
         13    1    4    4    0    0 -0.21592799701E+01 -0.87172065124E+01  0.44441852368E+02  0.45340286559E+02  0.10566000000E+00 0. -1.
        -13    1    4    4    0    0 -0.29901978967E+01 -0.12425847513E+02  0.62802934788E+02  0.64090270337E+02  0.10566000000E+00 0.  1.
        -14    1    4    4    0    0 -0.73126597103E+00 -0.19044511437E+01  0.76318322674E+01  0.78997815056E+01  0.00000000000E+00 0.  1.
<mgrwt>
<rscale>  0 0.78799779E+02</rscale>
<asrwt>0</asrwt>
<pdfrwt beam="1">  1        2 0.19879448E-01 0.78799779E+02</pdfrwt>
<pdfrwt beam="2">  1       -1 0.18482426E-02 0.78799779E+02</pdfrwt>
<totfact> 0.19894969E+05</totfact>
</mgrwt>
</event>
<event>
 8    1  0.2676873E-016  0.8311943E+02  0.7818608E-02  0.1320425E+00
          2   -1    0    0  501    0  0.00000000000E+00  0.00000000000E+00  0.14059203552E+04  0.14059203552E+04  0.25500000000E-02 0. -1.
         -1   -1    0    0    0  501 -0.00000000000E+00 -0.00000000000E+00 -0.12285209430E+01  0.12285312812E+01  0.50400000000E-02 0.  1.
         24    2    1    2    0    0  0.88817841970E-15  0.35527136788E-14  0.14046918342E+04  0.14071488865E+04  0.83119429156E+02 0.  0.
         66    2    3    3    0    0  0.68469012576E+01  0.20523022042E+02  0.13029951869E+04  0.13031763240E+04  0.19999994527E+01 0.  0.
        -13    1    3    3    0    0 -0.68469012576E+01 -0.20523022042E+02  0.10169664734E+03  0.10397256242E+03  0.10566000000E+00 0.  1.
         13    1    4    4    0    0  0.24771303296E+01  0.57586239121E+01  0.40072865233E+03  0.40077769635E+03  0.10566000000E+00 0.  1.
        -13    1    4    4    0    0  0.19710376567E+01  0.83314114295E+01  0.51832972857E+03  0.51840043990E+03  0.10566000000E+00 0. -1.
         14    1    4    4    0    0  0.23987332712E+01  0.64329867002E+01  0.38393680598E+03  0.38399818779E+03  0.00000000000E+00 0. -1.
<mgrwt>
<rscale>  0 0.83119429E+02</rscale>
<asrwt>0</asrwt>
<pdfrwt beam="1">  1        2 0.21629522E+00 0.83119429E+02</pdfrwt>
<pdfrwt beam="2">  1       -1 0.18900421E-03 0.83119429E+02</pdfrwt>
<totfact> 0.30752835E+05</totfact>
</mgrwt>
</event>
<event>
 8    1  0.2676873E-016  0.8007749E+02  0.7818608E-02  0.1328832E+00
         -1   -1    0    0    0  501 -0.00000000000E+00  0.00000000000E+00  0.32212685812E+01  0.32212725240E+01  0.50400000000E-02 0.  1.
          2   -1    0    0  501    0  0.00000000000E+00 -0.00000000000E+00 -0.49766107636E+03  0.49766107637E+03  0.25500000000E-02 0. -1.
         24    2    1    2    0    0 -0.88817841970E-15  0.00000000000E+00 -0.49443980778E+03  0.50088234889E+03  0.80077486935E+02 0.  0.
         66    2    3    3    0    0  0.77461397849E+01  0.19388697306E+02 -0.46088469251E+03  0.46136170632E+03  0.19999998372E+01 0.  0.
        -13    1    3    3    0    0 -0.77461397849E+01 -0.19388697306E+02 -0.33555115267E+02  0.39520642574E+02  0.10566000000E+00 0.  1.
         13    1    4    4    0    0  0.38946847989E+01  0.10104152258E+02 -0.22468163355E+03  0.22494245949E+03  0.10566000000E+00 0. -1.
        -13    1    4    4    0    0  0.38489677050E+01  0.89711595215E+01 -0.23150114988E+03  0.23170690498E+03  0.10566000000E+00 0.  1.
         14    1    4    4    0    0  0.24872810677E-02  0.31338552639E+00 -0.47019090869E+01  0.47123418527E+01  0.00000000000E+00 0. -1.
<mgrwt>
<rscale>  0 0.80077487E+02</rscale>
<asrwt>0</asrwt>
<pdfrwt beam="1">  1        2 0.76563182E-01 0.80077487E+02</pdfrwt>
<pdfrwt beam="2">  1       -1 0.49558048E-03 0.80077487E+02</pdfrwt>
<totfact> 0.30329181E+05</totfact>
</mgrwt>
</event>
<event>
 8    1  0.2676873E-016  0.8025756E+02  0.7818608E-02  0.1328322E+00
          2   -1    0    0  501    0  0.00000000000E+00  0.00000000000E+00  0.25926133740E+02  0.25926133865E+02  0.25500000000E-02 0. -1.
         -1   -1    0    0    0  501 -0.00000000000E+00 -0.00000000000E+00 -0.62111803490E+02  0.62111803695E+02  0.50400000000E-02 0.  1.
         24    2    1    2    0    0  0.17763568394E-14  0.35527136788E-14 -0.36185669751E+02  0.88037937560E+02  0.80257558862E+02 0.  0.
         66    2    3    3    0    0  0.14120356533E+02  0.27480361188E+02  0.99433757514E+01  0.32518078747E+02  0.20000011028E+01 0.  0.
        -13    1    3    3    0    0 -0.14120356533E+02 -0.27480361188E+02 -0.46129045502E+02  0.55519858813E+02  0.10566000000E+00 0.  1.
         13    1    4    4    0    0  0.42518660585E+01  0.89385223930E+01  0.28814559023E+01  0.10309679903E+02  0.10566000000E+00 0. -1.
        -13    1    4    4    0    0  0.36671992378E+01  0.75058046866E+01  0.34989256181E+01  0.90575437487E+01  0.10566000000E+00 0.  1.
        -14    1    4    4    0    0  0.62012912364E+01  0.11036034109E+02  0.35629942310E+01  0.13150855095E+02  0.00000000000E+00 0.  1.
<mgrwt>
<rscale>  0 0.80257559E+02</rscale>
<asrwt>0</asrwt>
<pdfrwt beam="1">  1        2 0.39886360E-02 0.80257559E+02</pdfrwt>
<pdfrwt beam="2">  1       -1 0.95556620E-02 0.80257559E+02</pdfrwt>
<totfact> 0.12955594E+05</totfact>
</mgrwt>
</event>
<event>
 8    1  0.2676873E-016  0.8112943E+02  0.7818608E-02  0.1325876E+00
          2   -1    0    0  501    0  0.00000000000E+00  0.00000000000E+00  0.58985384391E+02  0.58985384446E+02  0.25500000000E-02 0. -1.
         -1   -1    0    0    0  501 -0.00000000000E+00 -0.00000000000E+00 -0.27896677125E+02  0.27896677580E+02  0.50400000000E-02 0.  1.
         24    2    1    2    0    0  0.71054273576E-14  0.88817841970E-15  0.31088707266E+02  0.86882062026E+02  0.81129433515E+02 0.  0.
         66    2    3    3    0    0  0.39954897712E+02  0.55424096202E+01  0.11219694233E+02  0.41916508560E+02  0.19999989178E+01 0.  0.
        -13    1    3    3    0    0 -0.39954897712E+02 -0.55424096202E+01  0.19869013034E+02  0.44965553466E+02  0.10566000000E+00 0.  1.
         13    1    4    4    0    0  0.56855423491E+01  0.11172507981E+01  0.19239859335E+01  0.61062694877E+01  0.10566000000E+00 0. -1.
        -13    1    4    4    0    0  0.62145174604E+01  0.56052059781E+00  0.21770775866E+01  0.66094811793E+01  0.10566000000E+00 0.  1.
         14    1    4    4    0    0  0.28054837902E+02  0.38646382244E+01  0.71186307125E+01  0.29200757893E+02  0.00000000000E+00 0. -1.
<mgrwt>
<rscale>  0 0.81129434E+02</rscale>
<asrwt>0</asrwt>
<pdfrwt beam="1">  1        2 0.90746745E-02 0.81129434E+02</pdfrwt>
<pdfrwt beam="2">  1       -1 0.42917965E-02 0.81129434E+02</pdfrwt>
<totfact> 0.14923994E+05</totfact>
</mgrwt>
</event>
<event>
 8    1  0.2676873E-016  0.7963207E+02  0.7818608E-02  0.1330099E+00
         -1   -1    0    0    0  501 -0.00000000000E+00  0.00000000000E+00  0.11262055007E+02  0.11262056135E+02  0.50400000000E-02 0.  1.
          2   -1    0    0  501    0  0.00000000000E+00 -0.00000000000E+00 -0.14076618359E+03  0.14076618361E+03  0.25500000000E-02 0. -1.
         24    2    1    2    0    0  0.22204460493E-15  0.00000000000E+00 -0.12950412858E+03  0.15202823974E+03  0.79632068670E+02 0.  0.
         66    2    3    3    0    0 -0.11706789980E+01 -0.35224324814E+02 -0.10005692759E+03  0.10610142450E+03  0.19999938194E+01 0.  0.
        -13    1    3    3    0    0  0.11706789980E+01  0.35224324814E+02 -0.29447200989E+02  0.45926815239E+02  0.10566000000E+00 0.  1.
         13    1    4    4    0    0 -0.12547671229E+01 -0.31308713632E+02 -0.89769013862E+02  0.95080476459E+02  0.10566000000E+00 0. -1.
        -13    1    4    4    0    0 -0.13118517602E+00 -0.46077048819E+00 -0.13024579140E+01  0.13917900871E+01  0.10566000000E+00 0. -1.
         14    1    4    4    0    0  0.21527330091E+00 -0.34548406938E+01 -0.89854558130E+01  0.96291579581E+01  0.00000000000E+00 0. -1.
<mgrwt>
<rscale>  0 0.79632069E+02</rscale>
<asrwt>0</asrwt>
<pdfrwt beam="1">  1        2 0.21656335E-01 0.79632069E+02</pdfrwt>
<pdfrwt beam="2">  1       -1 0.17326240E-02 0.79632069E+02</pdfrwt>
<totfact> 0.19869758E+05</totfact>
</mgrwt>
</event>
<event>
 8    1  0.2676873E-016  0.7964849E+02  0.7818608E-02  0.1330052E+00
          2   -1    0    0  501    0  0.00000000000E+00  0.00000000000E+00  0.23880298732E+02  0.23880298869E+02  0.25500000000E-02 0. -1.
         -1   -1    0    0    0  501 -0.00000000000E+00 -0.00000000000E+00 -0.66413341074E+02  0.66413341265E+02  0.50400000000E-02 0.  1.
         24    2    1    2    0    0  0.00000000000E+00  0.35527136788E-14 -0.42533042341E+02  0.90293640134E+02  0.79648488735E+02 0.  0.
         66    2    3    3    0    0  0.28374936138E+02  0.27906368518E+02 -0.20995172477E+02  0.45041088747E+02  0.20000008875E+01 0.  0.
        -13    1    3    3    0    0 -0.28374936138E+02 -0.27906368518E+02 -0.21537869865E+02  0.45252551387E+02  0.10566000000E+00 0.  1.
         13    1    4    4    0    0  0.91382004749E+01  0.92848618248E+01 -0.61464800204E+01  0.14405059795E+02  0.10566000000E+00 0. -1.
        -13    1    4    4    0    0  0.22201454891E+01  0.26523622200E+01 -0.18655854790E+01  0.39313667539E+01  0.10566000000E+00 0.  1.
         14    1    4    4    0    0  0.17016590174E+02  0.15969144473E+02 -0.12983106977E+02  0.26704662198E+02  0.00000000000E+00 0. -1.
<mgrwt>
<rscale>  0 0.79648489E+02</rscale>
<asrwt>0</asrwt>
<pdfrwt beam="1">  1        2 0.36738922E-02 0.79648489E+02</pdfrwt>
<pdfrwt beam="2">  1       -1 0.10217437E-01 0.79648489E+02</pdfrwt>
<totfact> 0.13025174E+05</totfact>
</mgrwt>
</event>
<event>
 8    1  0.2676873E-016  0.7751924E+02  0.7818608E-02  0.1336243E+00
          2   -1    0    0  501    0  0.00000000000E+00  0.00000000000E+00  0.47229504863E+02  0.47229504932E+02  0.25500000000E-02 0. -1.
         -1   -1    0    0    0  501 -0.00000000000E+00 -0.00000000000E+00 -0.31808678910E+02  0.31808679309E+02  0.50400000000E-02 0.  1.
         24    2    1    2    0    0  0.00000000000E+00  0.00000000000E+00  0.15420825953E+02  0.79038184241E+02  0.77519240806E+02 0.  0.
         66    2    3    3    0    0 -0.28295709781E+02 -0.13796738417E+02 -0.15294482367E+02  0.35055932000E+02  0.19999986489E+01 0.  0.
        -13    1    3    3    0    0  0.28295709781E+02  0.13796738417E+02  0.30715308320E+02  0.43982252241E+02  0.10566000000E+00 0.  1.
         13    1    4    4    0    0 -0.16272808380E+02 -0.76223455976E+01 -0.89733021300E+01  0.20085710347E+02  0.10566000000E+00 0. -1.
        -13    1    4    4    0    0 -0.25788828683E+01 -0.79466200059E+00 -0.13223103467E+01  0.30069574710E+01  0.10566000000E+00 0.  1.
        -14    1    4    4    0    0 -0.94440185325E+01 -0.53797308184E+01 -0.49988698902E+01  0.11963264183E+02  0.00000000000E+00 0.  1.
<mgrwt>
<rscale>  0 0.77519241E+02</rscale>
<asrwt>0</asrwt>
<pdfrwt beam="1">  1        2 0.72660777E-02 0.77519241E+02</pdfrwt>
<pdfrwt beam="2">  1       -1 0.48936430E-02 0.77519241E+02</pdfrwt>
<totfact> 0.16090361E+05</totfact>
</mgrwt>
</event>
<event>
 8    1  0.2676873E-016  0.7896972E+02  0.7818608E-02  0.1332001E+00
          2   -1    0    0  501    0  0.00000000000E+00  0.00000000000E+00  0.53182198797E+02  0.53182198858E+02  0.25500000000E-02 0. -1.
         -1   -1    0    0    0  501 -0.00000000000E+00 -0.00000000000E+00 -0.29315340643E+02  0.29315341077E+02  0.50400000000E-02 0.  1.
         24    2    1    2    0    0 -0.17763568394E-14  0.00000000000E+00  0.23866858154E+02  0.82497539935E+02  0.78969723168E+02 0.  0.
         66    2    3    3    0    0  0.13665625248E+02  0.55485877439E+01  0.50175427125E+02  0.52336503733E+02  0.19999991244E+01 0.  0.
        -13    1    3    3    0    0 -0.13665625248E+02 -0.55485877439E+01 -0.26308568971E+02  0.30161036201E+02  0.10566000000E+00 0.  1.
         13    1    4    4    0    0  0.98790536793E+01  0.34117855132E+01  0.35603869913E+02  0.37106370057E+02  0.10566000000E+00 0. -1.
        -13    1    4    4    0    0  0.46148403723E+00  0.45237504059E-02  0.18367177667E+01  0.18967562234E+01  0.10566000000E+00 0.  1.
         14    1    4    4    0    0  0.33250875319E+01  0.21322784804E+01  0.12734839445E+02  0.13333377453E+02  0.00000000000E+00 0. -1.
<mgrwt>
<rscale>  0 0.78969723E+02</rscale>
<asrwt>0</asrwt>
<pdfrwt beam="1">  1        2 0.81818767E-02 0.78969723E+02</pdfrwt>
<pdfrwt beam="2">  1       -1 0.45100525E-02 0.78969723E+02</pdfrwt>
<totfact> 0.15692666E+05</totfact>
</mgrwt>
</event>
<event>
 8    1  0.2676873E-016  0.7671373E+02  0.7818608E-02  0.1338645E+00
          2   -1    0    0  501    0  0.00000000000E+00  0.00000000000E+00  0.66641861039E+02  0.66641861088E+02  0.25500000000E-02 0. -1.
         -1   -1    0    0    0  501 -0.00000000000E+00 -0.00000000000E+00 -0.22076949200E+02  0.22076949776E+02  0.50400000000E-02 0.  1.
         24    2    1    2    0    0  0.71054273576E-14 -0.11102230246E-15  0.44564911839E+02  0.88718810864E+02  0.76713727806E+02 0.  0.
         66    2    3    3    0    0 -0.36166115216E+02  0.63567910415E+00  0.36965056026E+02  0.51757196314E+02  0.20000063817E+01 0.  0.
        -13    1    3    3    0    0  0.36166115216E+02 -0.63567910415E+00  0.75998558135E+01  0.36961614550E+02  0.10566000000E+00 0.  1.
         13    1    4    4    0    0 -0.10278685418E+02  0.52235652506E+00  0.10596926774E+02  0.14772618297E+02  0.10566000000E+00 0. -1.
        -13    1    4    4    0    0 -0.50847196887E+01 -0.65698139853E-01  0.43468917688E+01  0.66906892502E+01  0.10566000000E+00 0.  1.
        -14    1    4    4    0    0 -0.20802710110E+02  0.17902071894E+00  0.22021237483E+02  0.30293888767E+02  0.00000000000E+00 0.  1.
<mgrwt>
<rscale>  0 0.76713728E+02</rscale>
<asrwt>0</asrwt>
<pdfrwt beam="1">  1        2 0.10252594E-01 0.76713728E+02</pdfrwt>
<pdfrwt beam="2">  1       -1 0.33964538E-02 0.76713728E+02</pdfrwt>
<totfact> 0.17871666E+05</totfact>
</mgrwt>
</event>
<event>
 8    1  0.2676873E-016  0.8000770E+02  0.7818608E-02  0.1329030E+00
          2   -1    0    0  501    0  0.00000000000E+00  0.00000000000E+00  0.65663774319E+03  0.65663774319E+03  0.25500000000E-02 0. -1.
         -1   -1    0    0    0  501 -0.00000000000E+00 -0.00000000000E+00 -0.24371220434E+01  0.24371272548E+01  0.50400000000E-02 0.  1.
         24    2    1    2    0    0  0.35527136788E-14  0.00000000000E+00  0.65420062115E+03  0.65907487045E+03  0.80007700566E+02 0.  0.
         66    2    3    3    0    0 -0.26488700148E+02 -0.25526950212E+02  0.45625065648E+03  0.45773566389E+03  0.20000089092E+01 0.  0.
        -13    1    3    3    0    0  0.26488700148E+02  0.25526950212E+02  0.19794996467E+03  0.20133920656E+03  0.10566000000E+00 0.  1.
         13    1    4    4    0    0 -0.40619093078E+00 -0.20593287384E+00  0.68745654025E+01  0.68904435946E+01  0.10566000000E+00 0.  1.
        -13    1    4    4    0    0 -0.91703511699E+01 -0.82610300740E+01  0.15056761459E+03  0.15107269007E+03  0.10566000000E+00 0.  1.
         14    1    4    4    0    0 -0.16912158047E+02 -0.17059987264E+02  0.29880847649E+03  0.29977253022E+03  0.00000000000E+00 0. -1.
<mgrwt>
<rscale>  0 0.80007701E+02</rscale>
<asrwt>0</asrwt>
<pdfrwt beam="1">  1        2 0.10102123E+00 0.80007701E+02</pdfrwt>
<pdfrwt beam="2">  1       -1 0.37494211E-03 0.80007701E+02</pdfrwt>
<totfact> 0.32933577E+05</totfact>
</mgrwt>
</event>
<event>
 8    1  0.2676873E-016  0.7965689E+02  0.7818608E-02  0.1330028E+00
         -1   -1    0    0    0  501 -0.00000000000E+00  0.00000000000E+00  0.14630994795E+02  0.14630995663E+02  0.50400000000E-02 0.  1.
          2   -1    0    0  501    0  0.00000000000E+00 -0.00000000000E+00 -0.10842085632E+03  0.10842085635E+03  0.25500000000E-02 0. -1.
         24    2    1    2    0    0  0.22204460493E-15  0.35527136788E-14 -0.93789861523E+02  0.12305185201E+03  0.79656890214E+02 0.  0.
         66    2    3    3    0    0 -0.14144727157E+01 -0.20127647215E+02 -0.99925613006E+02  0.10196200787E+03  0.19999997804E+01 0.  0.
        -13    1    3    3    0    0  0.14144727157E+01  0.20127647215E+02  0.61357514831E+01  0.21089844138E+02  0.10566000000E+00 0.  1.
         13    1    4    4    0    0 -0.19912079103E+00 -0.48497079573E+01 -0.22307291771E+02  0.22829492910E+02  0.10566000000E+00 0. -1.
        -13    1    4    4    0    0 -0.76935440244E+00 -0.24431527138E+01 -0.12829010701E+02  0.13082644266E+02  0.10566000000E+00 0.  1.
         14    1    4    4    0    0 -0.44599752222E+00 -0.12834786544E+02 -0.64789310534E+02  0.66049870696E+02  0.00000000000E+00 0. -1.
<mgrwt>
<rscale>  0 0.79656890E+02</rscale>
<asrwt>0</asrwt>
<pdfrwt beam="1">  1        2 0.16680131E-01 0.79656890E+02</pdfrwt>
<pdfrwt beam="2">  1       -1 0.22509224E-02 0.79656890E+02</pdfrwt>
<totfact> 0.18347343E+05</totfact>
</mgrwt>
</event>
<event>
 8    1  0.2676873E-016  0.8154701E+02  0.7818608E-02  0.1324718E+00
          2   -1    0    0  501    0  0.00000000000E+00  0.00000000000E+00  0.17042685079E+03  0.17042685081E+03  0.25500000000E-02 0. -1.
         -1   -1    0    0    0  501 -0.00000000000E+00 -0.00000000000E+00 -0.97547931942E+01  0.97547944962E+01  0.50400000000E-02 0.  1.
         24    2    1    2    0    0  0.00000000000E+00  0.00000000000E+00  0.16067205759E+03  0.18018164530E+03  0.81547012286E+02 0.  0.
         66    2    3    3    0    0  0.36625033206E+02 -0.34401225356E+00  0.11984559519E+03  0.12533346759E+03  0.20000026725E+01 0.  0.
        -13    1    3    3    0    0 -0.36625033206E+02  0.34401225356E+00  0.40826462408E+02  0.54848177714E+02  0.10566000000E+00 0.  1.
         13    1    4    4    0    0  0.90495669518E+01 -0.20797158113E+00  0.28555569755E+02  0.29956128626E+02  0.10566000000E+00 0. -1.
        -13    1    4    4    0    0  0.10374413590E+02 -0.61849728354E+00  0.36180926412E+02  0.37644144249E+02  0.10566000000E+00 0.  1.
         14    1    4    4    0    0  0.17201052665E+02  0.48245661111E+00  0.55109099018E+02  0.57733194713E+02  0.00000000000E+00 0. -1.
<mgrwt>
<rscale>  0 0.81547012E+02</rscale>
<asrwt>0</asrwt>
<pdfrwt beam="1">  1        2 0.26219515E-01 0.81547012E+02</pdfrwt>
<pdfrwt beam="2">  1       -1 0.15007376E-02 0.81547012E+02</pdfrwt>
<totfact> 0.19853346E+05</totfact>
</mgrwt>
</event>
<event>
 8    1  0.2676873E-016  0.8006780E+02  0.7818608E-02  0.1328859E+00
          2   -1    0    0  501    0  0.00000000000E+00  0.00000000000E+00  0.10170435853E+04  0.10170435853E+04  0.25500000000E-02 0. -1.
         -1   -1    0    0    0  501 -0.00000000000E+00 -0.00000000000E+00 -0.15758507815E+01  0.15758588411E+01  0.50400000000E-02 0.  1.
         24    2    1    2    0    0  0.00000000000E+00  0.17763568394E-14  0.10154677345E+04  0.10186194442E+04  0.80067797152E+02 0.  0.
         66    2    3    3    0    0 -0.18243738540E+02  0.96327734858E+01  0.94415219688E+03  0.94437968799E+03  0.19999743530E+01 0.  0.
        -13    1    3    3    0    0  0.18243738540E+02 -0.96327734858E+01  0.71315537654E+02  0.74239756168E+02  0.10566000000E+00 0.  1.
         13    1    4    4    0    0 -0.85896813649E+01  0.45016968756E+01  0.47711701222E+03  0.47721557227E+03  0.10566000000E+00 0. -1.
        -13    1    4    4    0    0 -0.88510625047E+01  0.46870179163E+01  0.41507002764E+03  0.41519085786E+03  0.10566000000E+00 0.  1.
        -14    1    4    4    0    0 -0.80299467064E+00  0.44405869397E+00  0.51965157017E+02  0.51973257857E+02  0.00000000000E+00 0.  1.
<mgrwt>
<rscale>  0 0.80067797E+02</rscale>
<asrwt>0</asrwt>
<pdfrwt beam="1">  1        2 0.15646864E+00 0.80067797E+02</pdfrwt>
<pdfrwt beam="2">  1       -1 0.24243859E-03 0.80067797E+02</pdfrwt>
<totfact> 0.35175079E+05</totfact>
</mgrwt>
</event>
<event>
 8    1  0.2676873E-016  0.8393379E+02  0.7818608E-02  0.1318245E+00
          2   -1    0    0  501    0  0.00000000000E+00  0.00000000000E+00  0.52529255859E+03  0.52529255859E+03  0.25500000000E-02 0. -1.
         -1   -1    0    0    0  501 -0.00000000000E+00 -0.00000000000E+00 -0.33528346793E+01  0.33528384674E+01  0.50400000000E-02 0.  1.
         24    2    1    2    0    0  0.00000000000E+00  0.00000000000E+00  0.52193972391E+03  0.52864539706E+03  0.83933786049E+02 0.  0.
         66    2    3    3    0    0 -0.37710956976E+02  0.96806078734E+01  0.35937705198E+03  0.36148540211E+03  0.20000003021E+01 0.  0.
        -13    1    3    3    0    0  0.37710956976E+02 -0.96806078734E+01  0.16256267193E+03  0.16715999495E+03  0.10566000000E+00 0.  1.
         13    1    4    4    0    0 -0.12988362594E+02  0.30249143248E+01  0.12298056112E+03  0.12370156526E+03  0.10566000000E+00 0. -1.
        -13    1    4    4    0    0 -0.14444720049E+02  0.38934464153E+01  0.13109030315E+03  0.13194122785E+03  0.10566000000E+00 0.  1.
        -14    1    4    4    0    0 -0.10277874333E+02  0.27622471333E+01  0.10530618771E+03  0.10584260900E+03  0.00000000000E+00 0.  1.
<mgrwt>
<rscale>  0 0.83933786E+02</rscale>
<asrwt>0</asrwt>
<pdfrwt beam="1">  1        2 0.80814268E-01 0.83933786E+02</pdfrwt>
<pdfrwt beam="2">  1       -1 0.51582083E-03 0.83933786E+02</pdfrwt>
<totfact> 0.27283524E+05</totfact>
</mgrwt>
</event>
<event>
 8    1  0.2676873E-016  0.8010971E+02  0.7818608E-02  0.1328740E+00
         -1   -1    0    0    0  501 -0.00000000000E+00  0.00000000000E+00  0.32343289718E+01  0.32343328987E+01  0.50400000000E-02 0.  1.
          2   -1    0    0  501    0  0.00000000000E+00 -0.00000000000E+00 -0.49605048491E+03  0.49605048492E+03  0.25500000000E-02 0. -1.
         24    2    1    2    0    0  0.00000000000E+00  0.00000000000E+00 -0.49281615594E+03  0.49928481782E+03  0.80109710692E+02 0.  0.
         66    2    3    3    0    0 -0.27317253605E+02 -0.29165512855E+02 -0.26121359285E+03  0.26426010023E+03  0.19999993767E+01 0.  0.
        -13    1    3    3    0    0  0.27317253605E+02  0.29165512855E+02 -0.23160256309E+03  0.23502471759E+03  0.10566000000E+00 0.  1.
         13    1    4    4    0    0 -0.13911914336E+02 -0.15366140945E+02 -0.13280835658E+03  0.13441625791E+03  0.10566000000E+00 0. -1.
        -13    1    4    4    0    0 -0.65417355415E+01 -0.63963953145E+01 -0.57454776760E+02  0.58178782331E+02  0.10566000000E+00 0.  1.
        -14    1    4    4    0    0 -0.68636037270E+01 -0.74029765955E+01 -0.70950459506E+02  0.71665059985E+02  0.00000000000E+00 0.  1.
<mgrwt>
<rscale>  0 0.80109711E+02</rscale>
<asrwt>0</asrwt>
<pdfrwt beam="1">  1        2 0.76315399E-01 0.80109711E+02</pdfrwt>
<pdfrwt beam="2">  1       -1 0.49758977E-03 0.80109711E+02</pdfrwt>
<totfact> 0.30265997E+05</totfact>
</mgrwt>
</event>
<event>
 8    1  0.2676873E-016  0.8083550E+02  0.7818608E-02  0.1326697E+00
          2   -1    0    0  501    0  0.00000000000E+00  0.00000000000E+00  0.51727379257E+03  0.51727379258E+03  0.25500000000E-02 0. -1.
         -1   -1    0    0    0  501 -0.00000000000E+00 -0.00000000000E+00 -0.31580824550E+01  0.31580864767E+01  0.50400000000E-02 0.  1.
         24    2    1    2    0    0  0.00000000000E+00  0.35527136788E-14  0.51411571011E+03  0.52043187905E+03  0.80835495592E+02 0.  0.
         66    2    3    3    0    0  0.65374180656E+01  0.20116736750E+02  0.47876312601E+03  0.47923433908E+03  0.19999999955E+01 0.  0.
        -13    1    3    3    0    0 -0.65374180656E+01 -0.20116736750E+02  0.35352584108E+02  0.41197539970E+02  0.10566000000E+00 0.  1.
         13    1    4    4    0    0  0.30192331010E+01  0.10894964970E+02  0.26103225077E+03  0.26127698547E+03  0.10566000000E+00 0. -1.
        -13    1    4    4    0    0  0.26223437322E+01  0.54002633456E+01  0.12856273464E+03  0.12870286490E+03  0.10566000000E+00 0.  1.
        -14    1    4    4    0    0  0.89584123242E+00  0.38215084344E+01  0.89168140601E+02  0.89254488719E+02  0.00000000000E+00 0.  1.
<mgrwt>
<rscale>  0 0.80835496E+02</rscale>
<asrwt>0</asrwt>
<pdfrwt beam="1">  1        2 0.79580534E-01 0.80835496E+02</pdfrwt>
<pdfrwt beam="2">  1       -1 0.48585945E-03 0.80835496E+02</pdfrwt>
<totfact> 0.29956960E+05</totfact>
</mgrwt>
</event>
<event>
 8    1  0.2676873E-016  0.8006562E+02  0.7818608E-02  0.1328865E+00
         -1   -1    0    0    0  501 -0.00000000000E+00  0.00000000000E+00  0.37754893136E+01  0.37754926776E+01  0.50400000000E-02 0.  1.
          2   -1    0    0  501    0  0.00000000000E+00 -0.00000000000E+00 -0.42448142279E+03  0.42448142279E+03  0.25500000000E-02 0. -1.
         24    2    1    2    0    0  0.00000000000E+00  0.00000000000E+00 -0.42070593347E+03  0.42825691547E+03  0.80065618028E+02 0.  0.
         66    2    3    3    0    0 -0.14030437417E+02 -0.17670276502E+02 -0.38719989189E+03  0.38786189310E+03  0.19999987557E+01 0.  0.
        -13    1    3    3    0    0  0.14030437417E+02  0.17670276502E+02 -0.33506041588E+02  0.40395022375E+02  0.10566000000E+00 0.  1.
         13    1    4    4    0    0 -0.65457862822E+01 -0.79529604382E+01 -0.19113918147E+03  0.19141654776E+03  0.10566000000E+00 0. -1.
        -13    1    4    4    0    0 -0.24946246519E+01 -0.32160272834E+01 -0.59905306050E+02  0.60043507897E+02  0.10566000000E+00 0.  1.
        -14    1    4    4    0    0 -0.49900264826E+01 -0.65012887803E+01 -0.13615540436E+03  0.13640183744E+03  0.00000000000E+00 0.  1.
<mgrwt>
<rscale>  0 0.80065618E+02</rscale>
<asrwt>0</asrwt>
<pdfrwt beam="1">  1        2 0.65304797E-01 0.80065618E+02</pdfrwt>
<pdfrwt beam="2">  1       -1 0.58084511E-03 0.80065618E+02</pdfrwt>
<totfact> 0.28779469E+05</totfact>
</mgrwt>
</event>
<event>
 8    1  0.2676873E-016  0.7893606E+02  0.7818608E-02  0.1332098E+00
          2   -1    0    0  501    0  0.00000000000E+00  0.00000000000E+00  0.63540495564E+03  0.63540495565E+03  0.25500000000E-02 0. -1.
         -1   -1    0    0    0  501 -0.00000000000E+00 -0.00000000000E+00 -0.24515449632E+01  0.24515501439E+01  0.50400000000E-02 0.  1.
         24    2    1    2    0    0  0.00000000000E+00  0.00000000000E+00  0.63295341068E+03  0.63785650579E+03  0.78936062038E+02 0.  0.
         66    2    3    3    0    0 -0.33810740227E+02 -0.91287423851E+01  0.46329853150E+03  0.46462461125E+03  0.19999997945E+01 0.  0.
        -13    1    3    3    0    0  0.33810740227E+02  0.91287423851E+01  0.16965487918E+03  0.17323189454E+03  0.10566000000E+00 0.  1.
         13    1    4    4    0    0 -0.19840754820E+02 -0.56746915051E+01  0.27228125363E+03  0.27306217226E+03  0.10566000000E+00 0. -1.
        -13    1    4    4    0    0 -0.90405328717E+01 -0.18813550047E+01  0.12849275632E+03  0.12882418377E+03  0.10566000000E+00 0. -1.
         14    1    4    4    0    0 -0.49294525348E+01 -0.15726958753E+01  0.62524521550E+02  0.62738255233E+02  0.00000000000E+00 0. -1.
<mgrwt>
<rscale>  0 0.78936062E+02</rscale>
<asrwt>0</asrwt>
<pdfrwt beam="1">  1        2 0.97754528E-01 0.78936062E+02</pdfrwt>
<pdfrwt beam="2">  1       -1 0.37716148E-03 0.78936062E+02</pdfrwt>
<totfact> 0.33822222E+05</totfact>
</mgrwt>
</event>
<event>
 8    1  0.2676873E-016  0.8047450E+02  0.7818608E-02  0.1327710E+00
          2   -1    0    0  501    0  0.00000000000E+00  0.00000000000E+00  0.94847672116E+02  0.94847672151E+02  0.25500000000E-02 0. -1.
         -1   -1    0    0    0  501 -0.00000000000E+00 -0.00000000000E+00 -0.17069855543E+02  0.17069856287E+02  0.50400000000E-02 0.  1.
         24    2    1    2    0    0  0.00000000000E+00  0.00000000000E+00  0.77777816573E+02  0.11191752844E+03  0.80474495468E+02 0.  0.
         66    2    3    3    0    0  0.89424052663E+01 -0.10782692748E+02  0.91333948482E+02  0.92423607560E+02  0.20000035443E+01 0.  0.
        -13    1    3    3    0    0 -0.89424052663E+01  0.10782692748E+02 -0.13556131909E+02  0.19493920878E+02  0.10566000000E+00 0.  1.
         13    1    4    4    0    0  0.17130529622E+01 -0.20751774973E+01  0.18986302905E+02  0.19176333699E+02  0.10566000000E+00 0. -1.
        -13    1    4    4    0    0  0.20926932966E+01 -0.14837270562E+01  0.14819424830E+02  0.15040190409E+02  0.10566000000E+00 0.  1.
        -14    1    4    4    0    0  0.51366590075E+01 -0.72237881944E+01  0.57528220747E+02  0.58207083452E+02  0.00000000000E+00 0.  1.
<mgrwt>
<rscale>  0 0.80474495E+02</rscale>
<asrwt>0</asrwt>
<pdfrwt beam="1">  1        2 0.14591950E-01 0.80474495E+02</pdfrwt>
<pdfrwt beam="2">  1       -1 0.26261316E-02 0.80474495E+02</pdfrwt>
<totfact> 0.17192873E+05</totfact>
</mgrwt>
</event>
<event>
 8    1  0.2676873E-016  0.7933620E+02  0.7818608E-02  0.1330946E+00
          2   -1    0    0  501    0  0.00000000000E+00  0.00000000000E+00  0.23766358185E+02  0.23766358322E+02  0.25500000000E-02 0. -1.
         -1   -1    0    0    0  501 -0.00000000000E+00 -0.00000000000E+00 -0.66209478899E+02  0.66209479091E+02  0.50400000000E-02 0.  1.
         24    2    1    2    0    0  0.00000000000E+00  0.35527136788E-14 -0.42443120714E+02  0.89975837413E+02  0.79336201209E+02 0.  0.
         66    2    3    3    0    0 -0.17066171671E+02 -0.30630293365E+02 -0.25909089936E+00  0.35121734353E+02  0.20000021949E+01 0.  0.
        -13    1    3    3    0    0  0.17066171671E+02  0.30630293365E+02 -0.42184029814E+02  0.54854103060E+02  0.10566000000E+00 0.  1.
         13    1    4    4    0    0 -0.55388222144E+01 -0.92627488664E+01 -0.64282355892E+00  0.10812097588E+02  0.10566000000E+00 0. -1.
        -13    1    4    4    0    0 -0.40035218893E+01 -0.73622295065E+01 -0.41452140400E+00  0.83912813595E+01  0.10566000000E+00 0.  1.
        -14    1    4    4    0    0 -0.75238275672E+01 -0.14005314992E+02  0.79825406356E+00  0.15918355406E+02  0.00000000000E+00 0.  1.
<mgrwt>
<rscale>  0 0.79336201E+02</rscale>
<asrwt>0</asrwt>
<pdfrwt beam="1">  1        2 0.36563628E-02 0.79336201E+02</pdfrwt>
<pdfrwt beam="2">  1       -1 0.10186074E-01 0.79336201E+02</pdfrwt>
<totfact> 0.13158736E+05</totfact>
</mgrwt>
</event>
<event>
 8    1  0.2676873E-016  0.8005695E+02  0.7818608E-02  0.1328890E+00
         -1   -1    0    0    0  501 -0.00000000000E+00  0.00000000000E+00  0.16953770209E+01  0.16953845123E+01  0.50400000000E-02 0.  1.
          2   -1    0    0  501    0  0.00000000000E+00 -0.00000000000E+00 -0.94508484454E+03  0.94508484455E+03  0.25500000000E-02 0. -1.
         24    2    1    2    0    0  0.00000000000E+00 -0.17763568394E-14 -0.94338946752E+03  0.94678022906E+03  0.80056946637E+02 0.  0.
         66    2    3    3    0    0 -0.17483675683E+02 -0.14780877778E+02 -0.85994262956E+03  0.86024966108E+03  0.20000014858E+01 0.  0.
        -13    1    3    3    0    0  0.17483675683E+02  0.14780877778E+02 -0.83446837967E+02  0.86530567975E+02  0.10566000000E+00 0.  1.
         13    1    4    4    0    0 -0.59489756177E+01 -0.58854297100E+01 -0.30423687534E+03  0.30435196085E+03  0.10566000000E+00 0. -1.
        -13    1    4    4    0    0 -0.11353786278E+02 -0.88473913782E+01 -0.55144779230E+03  0.55163562574E+03  0.10566000000E+00 0.  1.
        -14    1    4    4    0    0 -0.18091378698E+00 -0.48056690102E-01 -0.42579619200E+01  0.42620744897E+01  0.00000000000E+00 0.  1.
<mgrwt>
<rscale>  0 0.80056947E+02</rscale>
<asrwt>0</asrwt>
<pdfrwt beam="1">  1        2 0.14539725E+00 0.80056947E+02</pdfrwt>
<pdfrwt beam="2">  1       -1 0.26082857E-03 0.80056947E+02</pdfrwt>
<totfact> 0.35044751E+05</totfact>
</mgrwt>
</event>
<event>
 8    1  0.2676873E-016  0.8017419E+02  0.7818608E-02  0.1328558E+00
         -1   -1    0    0    0  501 -0.00000000000E+00  0.00000000000E+00  0.81546110233E+01  0.81546125808E+01  0.50400000000E-02 0.  1.
          2   -1    0    0  501    0  0.00000000000E+00 -0.00000000000E+00 -0.19706333797E+03  0.19706333798E+03  0.25500000000E-02 0. -1.
         24    2    1    2    0    0  0.17763568394E-14  0.00000000000E+00 -0.18890872694E+03  0.20521795056E+03  0.80174186109E+02 0.  0.
         66    2    3    3    0    0  0.15644387684E+02 -0.51133494434E+01 -0.18800427993E+03  0.18873394629E+03  0.20000003893E+01 0.  0.
        -13    1    3    3    0    0 -0.15644387684E+02  0.51133494434E+01 -0.90444701497E+00  0.16484004276E+02  0.10566000000E+00 0.  1.
         13    1    4    4    0    0  0.86481982345E+00 -0.50698881558E+00 -0.82109837955E+01  0.82726277513E+01  0.10566000000E+00 0. -1.
        -13    1    4    4    0    0  0.12762402427E+01 -0.24665038689E+00 -0.12811710957E+02  0.12877916262E+02  0.10566000000E+00 0.  1.
         14    1    4    4    0    0  0.13503327618E+02 -0.43597102409E+01 -0.16698158518E+03  0.16758340227E+03  0.00000000000E+00 0. -1.
<mgrwt>
<rscale>  0 0.80174186E+02</rscale>
<asrwt>0</asrwt>
<pdfrwt beam="1">  1        2 0.30317433E-01 0.80174186E+02</pdfrwt>
<pdfrwt beam="2">  1       -1 0.12545558E-02 0.80174186E+02</pdfrwt>
<totfact> 0.21820065E+05</totfact>
</mgrwt>
</event>
<event>
 8    1  0.2676873E-016  0.8047653E+02  0.7818608E-02  0.1327705E+00
          2   -1    0    0  501    0  0.00000000000E+00  0.00000000000E+00  0.92401639385E+02  0.92401639420E+02  0.25500000000E-02 0. -1.
         -1   -1    0    0    0  501 -0.00000000000E+00 -0.00000000000E+00 -0.17522608731E+02  0.17522609455E+02  0.50400000000E-02 0.  1.
         24    2    1    2    0    0  0.71054273576E-14 -0.55511151231E-16  0.74879030654E+02  0.10992424888E+03  0.80476526137E+02 0.  0.
         66    2    3    3    0    0 -0.37775312770E+02 -0.26765072751E+00  0.18631391819E+02  0.42168408313E+02  0.20000016916E+01 0.  0.
        -13    1    3    3    0    0  0.37775312770E+02  0.26765072751E+00  0.56247638835E+02  0.67755840562E+02  0.10566000000E+00 0.  1.
         13    1    4    4    0    0 -0.17419916862E+02 -0.73625744644E+00  0.86899010589E+01  0.19481301881E+02  0.10566000000E+00 0. -1.
        -13    1    4    4    0    0 -0.10954013510E+02 -0.32756661962E-02  0.47839628832E+01  0.11953572170E+02  0.10566000000E+00 0.  1.
        -14    1    4    4    0    0 -0.94013823975E+01  0.47188238513E+00  0.51575278774E+01  0.10733534263E+02  0.00000000000E+00 0.  1.
<mgrwt>
<rscale>  0 0.80476526E+02</rscale>
<asrwt>0</asrwt>
<pdfrwt beam="1">  1        2 0.14215637E-01 0.80476526E+02</pdfrwt>
<pdfrwt beam="2">  1       -1 0.26957860E-02 0.80476526E+02</pdfrwt>
<totfact> 0.17069321E+05</totfact>
</mgrwt>
</event>
<event>
 8    1  0.2676873E-016  0.8104853E+02  0.7818608E-02  0.1326102E+00
          2   -1    0    0  501    0  0.00000000000E+00  0.00000000000E+00  0.21700216407E+02  0.21700216557E+02  0.25500000000E-02 0. -1.
         -1   -1    0    0    0  501 -0.00000000000E+00 -0.00000000000E+00 -0.75677404158E+02  0.75677404326E+02  0.50400000000E-02 0.  1.
         24    2    1    2    0    0  0.00000000000E+00  0.00000000000E+00 -0.53977187752E+02  0.97377620883E+02  0.81048530223E+02 0.  0.
         66    2    3    3    0    0  0.18424980748E+02  0.32536196934E+02 -0.83095428791E+01  0.38355345607E+02  0.20000018205E+01 0.  0.
        -13    1    3    3    0    0 -0.18424980748E+02 -0.32536196934E+02 -0.45667644872E+02  0.59022275276E+02  0.10566000000E+00 0.  1.
         13    1    4    4    0    0  0.40502831632E+01  0.62188896888E+01 -0.23079656743E+01  0.77728535463E+01  0.10566000000E+00 0. -1.
        -13    1    4    4    0    0  0.70496339876E+01  0.12995851022E+02 -0.30026469921E+01  0.15086965770E+02  0.10566000000E+00 0.  1.
         14    1    4    4    0    0  0.73250635973E+01  0.13321456223E+02 -0.29989302128E+01  0.15495526291E+02  0.00000000000E+00 0. -1.
<mgrwt>
<rscale>  0 0.81048530E+02</rscale>
<asrwt>0</asrwt>
<pdfrwt beam="1">  1        2 0.33384949E-02 0.81048530E+02</pdfrwt>
<pdfrwt beam="2">  1       -1 0.11642677E-01 0.81048530E+02</pdfrwt>
<totfact> 0.12159572E+05</totfact>
</mgrwt>
</event>
<event>
 8    1  0.2676873E-016  0.8029990E+02  0.7818608E-02  0.1328202E+00
          2   -1    0    0  501    0  0.00000000000E+00  0.00000000000E+00  0.94058930364E+02  0.94058930398E+02  0.25500000000E-02 0. -1.
         -1   -1    0    0    0  501 -0.00000000000E+00 -0.00000000000E+00 -0.17138389753E+02  0.17138390494E+02  0.50400000000E-02 0.  1.
         24    2    1    2    0    0 -0.17763568394E-14  0.00000000000E+00  0.76920540611E+02  0.11119732089E+03  0.80299904145E+02 0.  0.
         66    2    3    3    0    0  0.87821135708E+01  0.35318585703E+02  0.61881669739E+02  0.71818305973E+02  0.20000020829E+01 0.  0.
        -13    1    3    3    0    0 -0.87821135708E+01 -0.35318585703E+02  0.15038870872E+02  0.39379014919E+02  0.10566000000E+00 0.  1.
         13    1    4    4    0    0  0.57854819473E+01  0.22472016415E+02  0.40156410327E+02  0.46379001472E+02  0.10566000000E+00 0. -1.
        -13    1    4    4    0    0  0.46599226644E+00  0.40678691249E+01  0.64675009653E+01  0.76553537333E+01  0.10566000000E+00 0.  1.
         14    1    4    4    0    0  0.25306393570E+01  0.87787001632E+01  0.15257758447E+02  0.17783950768E+02  0.00000000000E+00 0. -1.
<mgrwt>
<rscale>  0 0.80299904E+02</rscale>
<asrwt>0</asrwt>
<pdfrwt beam="1">  1        2 0.14470605E-01 0.80299904E+02</pdfrwt>
<pdfrwt beam="2">  1       -1 0.26366754E-02 0.80299904E+02</pdfrwt>
<totfact> 0.17253840E+05</totfact>
</mgrwt>
</event>
<event>
 8    1  0.2676873E-016  0.8367826E+02  0.7818608E-02  0.1318926E+00
          2   -1    0    0  501    0  0.00000000000E+00  0.00000000000E+00  0.52876447175E+02  0.52876447236E+02  0.25500000000E-02 0. -1.
         -1   -1    0    0    0  501 -0.00000000000E+00 -0.00000000000E+00 -0.33105722368E+02  0.33105722752E+02  0.50400000000E-02 0.  1.
         24    2    1    2    0    0  0.35527136788E-14 -0.71054273576E-14  0.19770724806E+02  0.85982169988E+02  0.83678264779E+02 0.  0.
         66    2    3    3    0    0  0.22004332227E+02 -0.35484035608E+02  0.75477321098E+01  0.42476766481E+02  0.20000027354E+01 0.  0.
        -13    1    3    3    0    0 -0.22004332227E+02  0.35484035608E+02  0.12222992697E+02  0.43505403507E+02  0.10566000000E+00 0.  1.
         13    1    4    4    0    0  0.94121222303E+01 -0.14201966880E+02  0.26934923836E+01  0.17249636906E+02  0.10566000000E+00 0. -1.
        -13    1    4    4    0    0  0.50422234410E+01 -0.74356499519E+01  0.17604466672E+01  0.91555034782E+01  0.10566000000E+00 0.  1.
         14    1    4    4    0    0  0.75499865555E+01 -0.13846418776E+02  0.30937930591E+01  0.16071626097E+02  0.00000000000E+00 0. -1.
<mgrwt>
<rscale>  0 0.83678265E+02</rscale>
<asrwt>0</asrwt>
<pdfrwt beam="1">  1        2 0.81348379E-02 0.83678265E+02</pdfrwt>
<pdfrwt beam="2">  1       -1 0.50931882E-02 0.83678265E+02</pdfrwt>
<totfact> 0.13373207E+05</totfact>
</mgrwt>
</event>
<event>
 8    1  0.2676873E-016  0.7941926E+02  0.7818608E-02  0.1330708E+00
         -1   -1    0    0    0  501 -0.00000000000E+00  0.00000000000E+00  0.49540875648E+02  0.49540875905E+02  0.50400000000E-02 0.  1.
          2   -1    0    0  501    0  0.00000000000E+00 -0.00000000000E+00 -0.31829369165E+02  0.31829369267E+02  0.25500000000E-02 0. -1.
         24    2    1    2    0    0  0.17763568394E-14 -0.44408920985E-15  0.17711506483E+02  0.81370245172E+02  0.79419263013E+02 0.  0.
         66    2    3    3    0    0  0.11176223397E+02  0.39538840484E+01 -0.29941269890E+02  0.32264854138E+02  0.20000003654E+01 0.  0.
        -13    1    3    3    0    0 -0.11176223397E+02 -0.39538840484E+01  0.47652776373E+02  0.49105391034E+02  0.10566000000E+00 0.  1.
         13    1    4    4    0    0  0.84581598459E+01  0.31165093100E+01 -0.23481475757E+02  0.25152414716E+02  0.10566000000E+00 0. -1.
        -13    1    4    4    0    0  0.27559342020E+00 -0.13143486955E+00 -0.10445174581E+01  0.10933469779E+01  0.10566000000E+00 0.  1.
         14    1    4    4    0    0  0.24424701304E+01  0.96880960798E+00 -0.54152766750E+01  0.60190924449E+01  0.00000000000E+00 0. -1.
<mgrwt>
<rscale>  0 0.79419263E+02</rscale>
<asrwt>0</asrwt>
<pdfrwt beam="1">  1        2 0.48968260E-02 0.79419263E+02</pdfrwt>
<pdfrwt beam="2">  1       -1 0.76216732E-02 0.79419263E+02</pdfrwt>
<totfact> 0.13893548E+05</totfact>
</mgrwt>
</event>
<event>
 8    1  0.2676873E-016  0.7864538E+02  0.7818608E-02  0.1332940E+00
          2   -1    0    0  501    0  0.00000000000E+00  0.00000000000E+00  0.87761811565E+02  0.87761811602E+02  0.25500000000E-02 0. -1.
         -1   -1    0    0    0  501 -0.00000000000E+00 -0.00000000000E+00 -0.17618981307E+02  0.17618982028E+02  0.50400000000E-02 0.  1.
         24    2    1    2    0    0  0.00000000000E+00  0.00000000000E+00  0.70142830257E+02  0.10538079363E+03  0.78645375131E+02 0.  0.
         66    2    3    3    0    0 -0.15151529011E+02 -0.39154672180E+01  0.83394857588E+02  0.84874036028E+02  0.20000011868E+01 0.  0.
        -13    1    3    3    0    0  0.15151529011E+02  0.39154672180E+01 -0.13252027330E+02  0.20506757601E+02  0.10566000000E+00 0.  1.
         13    1    4    4    0    0 -0.11105578115E+02 -0.32398976996E+01  0.58704051319E+02  0.59833164781E+02  0.10566000000E+00 0. -1.
        -13    1    4    4    0    0 -0.28295008507E+01 -0.17741369002E+00  0.15661736002E+02  0.15916616767E+02  0.10566000000E+00 0.  1.
         14    1    4    4    0    0 -0.12164500454E+01 -0.49815582832E+00  0.90290702665E+01  0.91242544802E+01  0.00000000000E+00 0. -1.
<mgrwt>
<rscale>  0 0.78645375E+02</rscale>
<asrwt>0</asrwt>
<pdfrwt beam="1">  1        2 0.13501817E-01 0.78645375E+02</pdfrwt>
<pdfrwt beam="2">  1       -1 0.27106126E-02 0.78645375E+02</pdfrwt>
<totfact> 0.17907760E+05</totfact>
</mgrwt>
</event>
<event>
 8    1  0.2676873E-016  0.7986516E+02  0.7818608E-02  0.1329435E+00
         -1   -1    0    0    0  501 -0.00000000000E+00  0.00000000000E+00  0.13553413762E+01  0.13553507471E+01  0.50400000000E-02 0.  1.
          2   -1    0    0  501    0  0.00000000000E+00 -0.00000000000E+00 -0.11765341369E+04  0.11765341369E+04  0.25500000000E-02 0. -1.
         24    2    1    2    0    0  0.00000000000E+00 -0.35527136788E-14 -0.11751787956E+04  0.11778894877E+04  0.79865159285E+02 0.  0.
         66    2    3    3    0    0 -0.12428049463E+02  0.22846093747E+02 -0.10343768526E+04  0.10347056942E+04  0.19999983885E+01 0.  0.
        -13    1    3    3    0    0  0.12428049463E+02 -0.22846093747E+02 -0.14080194297E+03  0.14318379350E+03  0.10566000000E+00 0.  1.
         13    1    4    4    0    0 -0.47310676483E+00  0.68834933508E+00 -0.27885086936E+02  0.27897793682E+02  0.10566000000E+00 0. -1.
        -13    1    4    4    0    0 -0.88401936948E+01  0.15883104854E+02 -0.69863915963E+03  0.69887560308E+03  0.10566000000E+00 0. -1.
         14    1    4    4    0    0 -0.31147490037E+01  0.62746395579E+01 -0.30785260603E+03  0.30793229744E+03  0.00000000000E+00 0. -1.
<mgrwt>
<rscale>  0 0.79865159E+02</rscale>
<asrwt>0</asrwt>
<pdfrwt beam="1">  1        2 0.18100444E+00 0.79865159E+02</pdfrwt>
<pdfrwt beam="2">  1       -1 0.20851572E-03 0.79865159E+02</pdfrwt>
<totfact> 0.35261954E+05</totfact>
</mgrwt>
</event>
<event>
 8    1  0.2676873E-016  0.7859336E+02  0.7818608E-02  0.1333091E+00
         -1   -1    0    0    0  501 -0.00000000000E+00  0.00000000000E+00  0.15977619119E+02  0.15977619914E+02  0.50400000000E-02 0.  1.
          2   -1    0    0  501    0  0.00000000000E+00 -0.00000000000E+00 -0.96649505947E+02  0.96649505981E+02  0.25500000000E-02 0. -1.
         24    2    1    2    0    0  0.00000000000E+00  0.71054273576E-14 -0.80671886828E+02  0.11262712589E+03  0.78593359535E+02 0.  0.
         66    2    3    3    0    0 -0.56144309821E+01  0.36468619449E+02 -0.21096203641E+02  0.42550344926E+02  0.20000013759E+01 0.  0.
        -13    1    3    3    0    0  0.56144309821E+01 -0.36468619449E+02 -0.59575683187E+02  0.70076780969E+02  0.10566000000E+00 0.  1.
         13    1    4    4    0    0 -0.28735502831E+01  0.19140569587E+02 -0.11424700324E+02  0.22475623170E+02  0.10566000000E+00 0. -1.
        -13    1    4    4    0    0 -0.23753236622E+00  0.48700908231E+01 -0.24241976686E+01  0.54462927412E+01  0.10566000000E+00 0.  1.
         14    1    4    4    0    0 -0.25033483327E+01  0.12457959039E+02 -0.72473056480E+01  0.14628429015E+02  0.00000000000E+00 0. -1.
<mgrwt>
<rscale>  0 0.78593360E+02</rscale>
<asrwt>0</asrwt>
<pdfrwt beam="1">  1        2 0.14869154E-01 0.78593360E+02</pdfrwt>
<pdfrwt beam="2">  1       -1 0.24580954E-02 0.78593360E+02</pdfrwt>
<totfact> 0.18413053E+05</totfact>
</mgrwt>
</event>
<event>
 8    1  0.2676873E-016  0.7865308E+02  0.7818608E-02  0.1332918E+00
          2   -1    0    0  501    0  0.00000000000E+00  0.00000000000E+00  0.21106806210E+03  0.21106806211E+03  0.25500000000E-02 0. -1.
         -1   -1    0    0    0  501 -0.00000000000E+00 -0.00000000000E+00 -0.73273827854E+01  0.73273845187E+01  0.50400000000E-02 0.  1.
         24    2    1    2    0    0  0.00000000000E+00  0.35527136788E-14  0.20374067931E+03  0.21839544663E+03  0.78653078152E+02 0.  0.
         66    2    3    3    0    0  0.23836996477E+02 -0.31231591147E+02  0.10465243335E+03  0.11180226515E+03  0.19999999574E+01 0.  0.
        -13    1    3    3    0    0 -0.23836996477E+02  0.31231591147E+02  0.99088245964E+02  0.10659318148E+03  0.10566000000E+00 0.  1.
         13    1    4    4    0    0  0.11792703482E+01 -0.15873979780E+01  0.48131826306E+01  0.52046519543E+01  0.10566000000E+00 0.  1.
        -13    1    4    4    0    0  0.16979210218E+02 -0.22348010492E+02  0.72920860934E+02  0.78135717031E+02  0.10566000000E+00 0. -1.
        -14    1    4    4    0    0  0.56785159110E+01 -0.72961826770E+01  0.26918389784E+02  0.28461896163E+02  0.00000000000E+00 0.  1.
<mgrwt>
<rscale>  0 0.78653078E+02</rscale>
<asrwt>0</asrwt>
<pdfrwt beam="1">  1        2 0.32472008E-01 0.78653078E+02</pdfrwt>
<pdfrwt beam="2">  1       -1 0.11272899E-02 0.78653078E+02</pdfrwt>
<totfact> 0.23505190E+05</totfact>
</mgrwt>
</event>
<event>
 8    1  0.2676873E-016  0.7931708E+02  0.7818608E-02  0.1331001E+00
         -1   -1    0    0    0  501 -0.00000000000E+00  0.00000000000E+00  0.41877022339E+02  0.41877022642E+02  0.50400000000E-02 0.  1.
          2   -1    0    0  501    0  0.00000000000E+00 -0.00000000000E+00 -0.37557587567E+02  0.37557587654E+02  0.25500000000E-02 0. -1.
         24    2    1    2    0    0  0.35527136788E-14 -0.71054273576E-14  0.43194347714E+01  0.79434610296E+02  0.79317083885E+02 0.  0.
         66    2    3    3    0    0 -0.20495329578E+02  0.32975613323E+02 -0.58096880672E+01  0.39309058560E+02  0.20000002338E+01 0.  0.
        -13    1    3    3    0    0  0.20495329578E+02 -0.32975613323E+02  0.10129122839E+02  0.40125551735E+02  0.10566000000E+00 0.  1.
         13    1    4    4    0    0 -0.68338619881E+01  0.12063578913E+02 -0.17224213583E+01  0.13971739521E+02  0.10566000000E+00 0. -1.
        -13    1    4    4    0    0 -0.68058191749E+01  0.10165157415E+02 -0.14408642898E+01  0.12318151398E+02  0.10566000000E+00 0.  1.
         14    1    4    4    0    0 -0.68556484150E+01  0.10746876995E+02 -0.26464024192E+01  0.13019167642E+02  0.00000000000E+00 0. -1.
<mgrwt>
<rscale>  0 0.79317084E+02</rscale>
<asrwt>0</asrwt>
<pdfrwt beam="1">  1        2 0.57780904E-02 0.79317084E+02</pdfrwt>
<pdfrwt beam="2">  1       -1 0.64426189E-02 0.79317084E+02</pdfrwt>
<totfact> 0.14411192E+05</totfact>
</mgrwt>
</event>
<event>
 8    1  0.2676873E-016  0.8541553E+02  0.7818608E-02  0.1314349E+00
          2   -1    0    0  501    0  0.00000000000E+00  0.00000000000E+00  0.65564516965E+02  0.65564517014E+02  0.25500000000E-02 0. -1.
         -1   -1    0    0    0  501 -0.00000000000E+00 -0.00000000000E+00 -0.27819209865E+02  0.27819210321E+02  0.50400000000E-02 0.  1.
         24    2    1    2    0    0  0.00000000000E+00  0.00000000000E+00  0.37745307100E+02  0.93383727335E+02  0.85415527411E+02 0.  0.
         66    2    3    3    0    0  0.20408260643E+02  0.20896622776E+02  0.52911834136E+02  0.60471713537E+02  0.20000001442E+01 0.  0.
        -13    1    3    3    0    0 -0.20408260643E+02 -0.20896622776E+02 -0.15166527036E+02  0.32912013798E+02  0.10566000000E+00 0.  1.
         13    1    4    4    0    0  0.86419657835E+01  0.95520563715E+01  0.23730652016E+02  0.27001488156E+02  0.10566000000E+00 0. -1.
        -13    1    4    4    0    0  0.11135736544E+02  0.10286120917E+02  0.27066284899E+02  0.31022634546E+02  0.10566000000E+00 0.  1.
        -14    1    4    4    0    0  0.63055831562E+00  0.10584454876E+01  0.21148972205E+01  0.24475908345E+01  0.00000000000E+00 0.  1.
<mgrwt>
<rscale>  0 0.85415527E+02</rscale>
<asrwt>0</asrwt>
<pdfrwt beam="1">  1        2 0.10086849E-01 0.85415527E+02</pdfrwt>
<pdfrwt beam="2">  1       -1 0.42798786E-02 0.85415527E+02</pdfrwt>
<totfact> 0.13295864E+05</totfact>
</mgrwt>
</event>
<event>
 8    1  0.2676873E-016  0.7918494E+02  0.7818608E-02  0.1331380E+00
          2   -1    0    0  501    0  0.00000000000E+00  0.00000000000E+00  0.62428386328E+02  0.62428386380E+02  0.25500000000E-02 0. -1.
         -1   -1    0    0    0  501 -0.00000000000E+00 -0.00000000000E+00 -0.25109792528E+02  0.25109793034E+02  0.50400000000E-02 0.  1.
         24    2    1    2    0    0  0.44408920985E-15 -0.71054273576E-14  0.37318593800E+02  0.87538179414E+02  0.79184944351E+02 0.  0.
         66    2    3    3    0    0 -0.31555161102E+01 -0.33533793482E+02 -0.42817038569E+01  0.34011844621E+02  0.19999998564E+01 0.  0.
        -13    1    3    3    0    0  0.31555161102E+01  0.33533793482E+02  0.41600297657E+02  0.53526334793E+02  0.10566000000E+00 0.  1.
         13    1    4    4    0    0 -0.24969308170E+00 -0.89802527763E+00 -0.88200464985E-01  0.94219923155E+00  0.10566000000E+00 0. -1.
        -13    1    4    4    0    0 -0.14710308171E+00 -0.37437950157E+01 -0.94173197357E+00  0.38646686251E+01  0.10566000000E+00 0.  1.
         14    1    4    4    0    0 -0.27587199468E+01 -0.28891973188E+02 -0.32517714183E+01  0.29204976765E+02  0.00000000000E+00 0. -1.
<mgrwt>
<rscale>  0 0.79184944E+02</rscale>
<asrwt>0</asrwt>
<pdfrwt beam="1">  1        2 0.96043670E-02 0.79184944E+02</pdfrwt>
<pdfrwt beam="2">  1       -1 0.38630451E-02 0.79184944E+02</pdfrwt>
<totfact> 0.16153438E+05</totfact>
</mgrwt>
</event>
<event>
 8    1  0.2676873E-016  0.8085276E+02  0.7818608E-02  0.1326649E+00
         -1   -1    0    0    0  501 -0.00000000000E+00  0.00000000000E+00  0.38914953561E+01  0.38914986198E+01  0.50400000000E-02 0.  1.
          2   -1    0    0  501    0  0.00000000000E+00 -0.00000000000E+00 -0.41996488166E+03  0.41996488167E+03  0.25500000000E-02 0. -1.
         24    2    1    2    0    0 -0.44408920985E-15  0.71054273576E-14 -0.41607338631E+03  0.42385638029E+03  0.80852757035E+02 0.  0.
         66    2    3    3    0    0 -0.25286742826E+01  0.29422052199E+02 -0.35270695667E+03  0.35394667483E+03  0.19999968604E+01 0.  0.
        -13    1    3    3    0    0  0.25286742826E+01 -0.29422052199E+02 -0.63366429634E+02  0.69909705463E+02  0.10566000000E+00 0.  1.
         13    1    4    4    0    0 -0.23763285456E+01  0.20412399051E+02 -0.24231586320E+03  0.24318573498E+03  0.10566000000E+00 0. -1.
        -13    1    4    4    0    0  0.18209274771E-01  0.23851411407E+00 -0.41685894937E+01  0.41767838061E+01  0.10566000000E+00 0. -1.
         14    1    4    4    0    0 -0.17055501180E+00  0.87711390341E+01 -0.10622250397E+03  0.10658415604E+03  0.00000000000E+00 0. -1.
<mgrwt>
<rscale>  0 0.80852757E+02</rscale>
<asrwt>0</asrwt>
<pdfrwt beam="1">  1        2 0.64609946E-01 0.80852757E+02</pdfrwt>
<pdfrwt beam="2">  1       -1 0.59869218E-03 0.80852757E+02</pdfrwt>
<totfact> 0.27950303E+05</totfact>
</mgrwt>
</event>
<event>
 8    1  0.2676873E-016  0.8198465E+02  0.7818608E-02  0.1323512E+00
          2   -1    0    0  501    0  0.00000000000E+00  0.00000000000E+00  0.18783523523E+04  0.18783523523E+04  0.25500000000E-02 0. -1.
         -1   -1    0    0    0  501 -0.00000000000E+00 -0.00000000000E+00 -0.89459113765E+00  0.89460533487E+00  0.50400000000E-02 0.  1.
         24    2    1    2    0    0  0.00000000000E+00  0.00000000000E+00  0.18774577612E+04  0.18792469576E+04  0.81984650012E+02 0.  0.
         66    2    3    3    0    0  0.53745932250E+01 -0.11959897137E+02  0.18289525426E+04  0.18290006365E+04  0.19999976340E+01 0.  0.
        -13    1    3    3    0    0 -0.53745932250E+01  0.11959897137E+02  0.48505218555E+02  0.50246321089E+02  0.10566000000E+00 0.  1.
         13    1    4    4    0    0  0.23592355869E+01 -0.39068431272E+01  0.55523836878E+03  0.55525713570E+03  0.10566000000E+00 0. -1.
        -13    1    4    4    0    0  0.27028522152E+00 -0.15592029186E+01  0.21436165673E+03  0.21436752368E+03  0.10566000000E+00 0.  1.
         14    1    4    4    0    0  0.27450724166E+01 -0.64938510909E+01  0.10593525171E+04  0.10593759772E+04  0.00000000000E+00 0. -1.
<mgrwt>
<rscale>  0 0.81984650E+02</rscale>
<asrwt>0</asrwt>
<pdfrwt beam="1">  1        2 0.28897661E+00 0.81984650E+02</pdfrwt>
<pdfrwt beam="2">  1       -1 0.13763082E-03 0.81984650E+02</pdfrwt>
<totfact> 0.27473398E+05</totfact>
</mgrwt>
</event>
<event>
 8    1  0.2676873E-016  0.8217213E+02  0.7818608E-02  0.1322998E+00
          2   -1    0    0  501    0  0.00000000000E+00  0.00000000000E+00  0.31017713241E+03  0.31017713242E+03  0.25500000000E-02 0. -1.
         -1   -1    0    0    0  501 -0.00000000000E+00 -0.00000000000E+00 -0.54422592067E+01  0.54422615404E+01  0.50400000000E-02 0.  1.
         24    2    1    2    0    0  0.71054273576E-14  0.00000000000E+00  0.30473487320E+03  0.31561939396E+03  0.82172129691E+02 0.  0.
         66    2    3    3    0    0 -0.33332279490E+02  0.64051306233E+01  0.24121534090E+03  0.24359989173E+03  0.20000020203E+01 0.  0.
        -13    1    3    3    0    0  0.33332279490E+02 -0.64051306233E+01  0.63519532299E+02  0.72019502233E+02  0.10566000000E+00 0.  1.
         13    1    4    4    0    0 -0.79291822426E+01  0.15114418160E+01  0.52399664087E+02  0.53017849333E+02  0.10566000000E+00 0. -1.
        -13    1    4    4    0    0 -0.17519170669E+02  0.37782705734E+01  0.13198274406E+03  0.13319404102E+03  0.10566000000E+00 0.  1.
         14    1    4    4    0    0 -0.78839265787E+01  0.11154182338E+01  0.56832932751E+02  0.57388001370E+02  0.00000000000E+00 0. -1.
<mgrwt>
<rscale>  0 0.82172130E+02</rscale>
<asrwt>0</asrwt>
<pdfrwt beam="1">  1        2 0.47719553E-01 0.82172130E+02</pdfrwt>
<pdfrwt beam="2">  1       -1 0.83727093E-03 0.82172130E+02</pdfrwt>
<totfact> 0.24052385E+05</totfact>
</mgrwt>
</event>
<event>
 8    1  0.2676873E-016  0.8158175E+02  0.7818608E-02  0.1324622E+00
          2   -1    0    0  501    0  0.00000000000E+00  0.00000000000E+00  0.84115927160E+02  0.84115927198E+02  0.25500000000E-02 0. -1.
         -1   -1    0    0    0  501 -0.00000000000E+00 -0.00000000000E+00 -0.19780980852E+02  0.19780981494E+02  0.50400000000E-02 0.  1.
         24    2    1    2    0    0  0.00000000000E+00  0.00000000000E+00  0.64334946307E+02  0.10389690869E+03  0.81581752369E+02 0.  0.
         66    2    3    3    0    0 -0.30574590172E+02 -0.24890993422E+02  0.45392446458E+02  0.60156806015E+02  0.19999991858E+01 0.  0.
        -13    1    3    3    0    0  0.30574590172E+02  0.24890993422E+02  0.18942499849E+02  0.43740102678E+02  0.10566000000E+00 0.  1.
         13    1    4    4    0    0 -0.33260091632E+01 -0.30940391287E+01  0.54135879558E+01  0.70677799679E+01  0.10566000000E+00 0. -1.
        -13    1    4    4    0    0 -0.11530481764E+02 -0.99778328311E+01  0.18255940153E+02  0.23786543940E+02  0.10566000000E+00 0. -1.
         14    1    4    4    0    0 -0.15718099245E+02 -0.11819121462E+02  0.21722918349E+02  0.29302482107E+02  0.00000000000E+00 0. -1.
<mgrwt>
<rscale>  0 0.81581752E+02</rscale>
<asrwt>0</asrwt>
<pdfrwt beam="1">  1        2 0.12940912E-01 0.81581752E+02</pdfrwt>
<pdfrwt beam="2">  1       -1 0.30432279E-02 0.81581752E+02</pdfrwt>
<totfact> 0.16044909E+05</totfact>
</mgrwt>
</event>
<event>
 8    1  0.2676873E-016  0.7914429E+02  0.7818608E-02  0.1331498E+00
          2   -1    0    0  501    0  0.00000000000E+00  0.00000000000E+00  0.77721421791E+03  0.77721421791E+03  0.25500000000E-02 0. -1.
         -1   -1    0    0    0  501 -0.00000000000E+00 -0.00000000000E+00 -0.20148268354E+01  0.20148331390E+01  0.50400000000E-02 0.  1.
         24    2    1    2    0    0 -0.35527136788E-14  0.00000000000E+00  0.77519939107E+03  0.77922905105E+03  0.79144286482E+02 0.  0.
         66    2    3    3    0    0  0.24728324690E+02  0.11784560954E+02  0.66867857437E+03  0.66924240880E+03  0.19999987572E+01 0.  0.
        -13    1    3    3    0    0 -0.24728324690E+02 -0.11784560954E+02  0.10652081670E+03  0.10998664225E+03  0.10566000000E+00 0.  1.
         13    1    4    4    0    0  0.16332656238E+02  0.71493210070E+01  0.42770300361E+03  0.42807445487E+03  0.10566000000E+00 0. -1.
        -13    1    4    4    0    0  0.19215842375E+01  0.11016994541E+01  0.47189590513E+02  0.47241664286E+02  0.10566000000E+00 0.  1.
         14    1    4    4    0    0  0.64740842144E+01  0.35335404924E+01  0.19378598025E+03  0.19392628964E+03  0.00000000000E+00 0. -1.
<mgrwt>
<rscale>  0 0.79144286E+02</rscale>
<asrwt>0</asrwt>
<pdfrwt beam="1">  1        2 0.11957164E+00 0.79144286E+02</pdfrwt>
<pdfrwt beam="2">  1       -1 0.30997327E-03 0.79144286E+02</pdfrwt>
<totfact> 0.35156298E+05</totfact>
</mgrwt>
</event>
<event>
 8    1  0.2676873E-016  0.7810338E+02  0.7818608E-02  0.1334522E+00
          2   -1    0    0  501    0  0.00000000000E+00  0.00000000000E+00  0.48596573477E+03  0.48596573478E+03  0.25500000000E-02 0. -1.
         -1   -1    0    0    0  501 -0.00000000000E+00 -0.00000000000E+00 -0.31381505057E+01  0.31381545529E+01  0.50400000000E-02 0.  1.
         24    2    1    2    0    0  0.71054273576E-14 -0.44408920985E-15  0.48282758426E+03  0.48910388933E+03  0.78103382966E+02 0.  0.
         66    2    3    3    0    0  0.27501761572E+02 -0.38947207723E+01  0.41324377854E+03  0.41418104286E+03  0.20000065226E+01 0.  0.
        -13    1    3    3    0    0 -0.27501761572E+02  0.38947207723E+01  0.69583805725E+02  0.74922846466E+02  0.10566000000E+00 0.  1.
         13    1    4    4    0    0  0.97331341360E+01 -0.21275620231E+01  0.14830307558E+03  0.14863739035E+03  0.10566000000E+00 0. -1.
        -13    1    4    4    0    0  0.10719826037E+01  0.10931155391E+00  0.15921737158E+02  0.15958507884E+02  0.10566000000E+00 0.  1.
         14    1    4    4    0    0  0.16696644832E+02 -0.18764703031E+01  0.24901896580E+03  0.24958514462E+03  0.00000000000E+00 0. -1.
<mgrwt>
<rscale>  0 0.78103383E+02</rscale>
<asrwt>0</asrwt>
<pdfrwt beam="1">  1        2 0.74763955E-01 0.78103383E+02</pdfrwt>
<pdfrwt beam="2">  1       -1 0.48279273E-03 0.78103383E+02</pdfrwt>
<totfact> 0.32119406E+05</totfact>
</mgrwt>
</event>
<event>
 8    1  0.2676873E-016  0.7985487E+02  0.7818608E-02  0.1329464E+00
         -1   -1    0    0    0  501 -0.00000000000E+00  0.00000000000E+00  0.11482346827E+02  0.11482347933E+02  0.50400000000E-02 0.  1.
          2   -1    0    0  501    0  0.00000000000E+00 -0.00000000000E+00 -0.13883920859E+03  0.13883920861E+03  0.25500000000E-02 0. -1.
         24    2    1    2    0    0  0.00000000000E+00  0.00000000000E+00 -0.12735686176E+03  0.15032155655E+03  0.79854869135E+02 0.  0.
         66    2    3    3    0    0  0.39163646450E+02 -0.45017900009E+01 -0.75343384257E+02  0.85056938852E+02  0.19999948017E+01 0.  0.
        -13    1    3    3    0    0 -0.39163646450E+02  0.45017900009E+01 -0.52013477505E+02  0.65264617693E+02  0.10566000000E+00 0.  1.
         13    1    4    4    0    0  0.72119340123E+01 -0.12969819824E+01 -0.14114489066E+02  0.15903588277E+02  0.10566000000E+00 0.  1.
        -13    1    4    4    0    0  0.49340100721E+01 -0.91360724097E+00 -0.89536338964E+01  0.10264397575E+02  0.10566000000E+00 0. -1.
         14    1    4    4    0    0  0.27017702365E+02 -0.22912007775E+01 -0.52275261295E+02  0.58888953001E+02  0.00000000000E+00 0. -1.
<mgrwt>
<rscale>  0 0.79854869E+02</rscale>
<asrwt>0</asrwt>
<pdfrwt beam="1">  1        2 0.21359877E-01 0.79854869E+02</pdfrwt>
<pdfrwt beam="2">  1       -1 0.17665151E-02 0.79854869E+02</pdfrwt>
<totfact> 0.19637325E+05</totfact>
</mgrwt>
</event>
<event>
 8    1  0.2676873E-016  0.8006498E+02  0.7818608E-02  0.1328867E+00
          2   -1    0    0  501    0  0.00000000000E+00  0.00000000000E+00  0.62096087801E+02  0.62096087854E+02  0.25500000000E-02 0. -1.
         -1   -1    0    0    0  501 -0.00000000000E+00 -0.00000000000E+00 -0.25808393742E+02  0.25808394234E+02  0.50400000000E-02 0.  1.
         24    2    1    2    0    0  0.00000000000E+00  0.00000000000E+00  0.36287694059E+02  0.87904482088E+02  0.80064981303E+02 0.  0.
         66    2    3    3    0    0  0.35192424784E+02  0.15647611064E+02  0.30043112237E+02  0.48887044186E+02  0.20000005479E+01 0.  0.
        -13    1    3    3    0    0 -0.35192424784E+02 -0.15647611064E+02  0.62445818227E+01  0.39017437902E+02  0.10566000000E+00 0.  1.
         13    1    4    4    0    0  0.49814693515E+01  0.23906671415E+01  0.38426782596E+01  0.67310969777E+01  0.10566000000E+00 0. -1.
        -13    1    4    4    0    0  0.18716270755E+01  0.10502556275E+01  0.20815389352E+01  0.29916539184E+01  0.10566000000E+00 0.  1.
         14    1    4    4    0    0  0.28339328358E+02  0.12206688295E+02  0.24118895042E+02  0.39164293290E+02  0.00000000000E+00 0. -1.
<mgrwt>
<rscale>  0 0.80064981E+02</rscale>
<asrwt>0</asrwt>
<pdfrwt beam="1">  1        2 0.95532443E-02 0.80064981E+02</pdfrwt>
<pdfrwt beam="2">  1       -1 0.39705222E-02 0.80064981E+02</pdfrwt>
<totfact> 0.15656300E+05</totfact>
</mgrwt>
</event>
<event>
 8    1  0.2676873E-016  0.7954132E+02  0.7818608E-02  0.1330358E+00
         -1   -1    0    0    0  501 -0.00000000000E+00  0.00000000000E+00  0.76427097571E+02  0.76427097737E+02  0.50400000000E-02 0.  1.
          2   -1    0    0  501    0  0.00000000000E+00 -0.00000000000E+00 -0.20695608086E+02  0.20695608244E+02  0.25500000000E-02 0. -1.
         24    2    1    2    0    0  0.71054273576E-14  0.00000000000E+00  0.55731489485E+02  0.97122705981E+02  0.79541316917E+02 0.  0.
         66    2    3    3    0    0  0.33402783415E+02  0.21499845542E+02  0.26286124703E+02  0.47675461675E+02  0.19999989710E+01 0.  0.
        -13    1    3    3    0    0 -0.33402783415E+02 -0.21499845542E+02  0.29445364782E+02  0.49447244305E+02  0.10566000000E+00 0.  1.
         13    1    4    4    0    0  0.23319857254E+02  0.15931706803E+02  0.19081956371E+02  0.34084706937E+02  0.10566000000E+00 0. -1.
        -13    1    4    4    0    0  0.42925547886E+01  0.23502211800E+01  0.28671194651E+01  0.56728391720E+01  0.10566000000E+00 0.  1.
         14    1    4    4    0    0  0.57903713725E+01  0.32179175593E+01  0.43370488667E+01  0.79179155668E+01  0.00000000000E+00 0. -1.
<mgrwt>
<rscale>  0 0.79541317E+02</rscale>
<asrwt>0</asrwt>
<pdfrwt beam="1">  1        2 0.31839398E-02 0.79541317E+02</pdfrwt>
<pdfrwt beam="2">  1       -1 0.11758015E-01 0.79541317E+02</pdfrwt>
<totfact> 0.12709225E+05</totfact>
</mgrwt>
</event>
<event>
 8    1  0.2676873E-016  0.7873782E+02  0.7818608E-02  0.1332672E+00
          2   -1    0    0  501    0  0.00000000000E+00  0.00000000000E+00  0.17250680061E+03  0.17250680063E+03  0.25500000000E-02 0. -1.
         -1   -1    0    0    0  501 -0.00000000000E+00 -0.00000000000E+00 -0.89846361600E+01  0.89846375736E+01  0.50400000000E-02 0.  1.
         24    2    1    2    0    0  0.00000000000E+00  0.00000000000E+00  0.16352216445E+03  0.18149143821E+03  0.78737817309E+02 0.  0.
         66    2    3    3    0    0 -0.18127236159E+02  0.23847308255E+01  0.16211350526E+03  0.16315352348E+03  0.20000005758E+01 0.  0.
        -13    1    3    3    0    0  0.18127236159E+02 -0.23847308255E+01  0.14086591906E+01  0.18337914729E+02  0.10566000000E+00 0.  1.
         13    1    4    4    0    0 -0.14343574706E+02  0.16468312820E+01  0.12172790550E+03  0.12258117445E+03  0.10566000000E+00 0. -1.
        -13    1    4    4    0    0 -0.15410504171E+01  0.42421469859E+00  0.18894286248E+02  0.18962067698E+02  0.10566000000E+00 0.  1.
         14    1    4    4    0    0 -0.22426110356E+01  0.31368484483E+00  0.21491313516E+02  0.21610281328E+02  0.00000000000E+00 0. -1.
<mgrwt>
<rscale>  0 0.78737817E+02</rscale>
<asrwt>0</asrwt>
<pdfrwt beam="1">  1        2 0.26539507E-01 0.78737817E+02</pdfrwt>
<pdfrwt beam="2">  1       -1 0.13822519E-02 0.78737817E+02</pdfrwt>
<totfact> 0.21872224E+05</totfact>
</mgrwt>
</event>
<event>
 8    1  0.2676873E-016  0.7621093E+02  0.7818608E-02  0.1340162E+00
          2   -1    0    0  501    0  0.00000000000E+00  0.00000000000E+00  0.72039138882E+02  0.72039138927E+02  0.25500000000E-02 0. -1.
         -1   -1    0    0    0  501 -0.00000000000E+00 -0.00000000000E+00 -0.20156077015E+02  0.20156077646E+02  0.50400000000E-02 0.  1.
         24    2    1    2    0    0  0.00000000000E+00  0.00000000000E+00  0.51883061867E+02  0.92195216573E+02  0.76210929992E+02 0.  0.
         66    2    3    3    0    0 -0.21774916082E+02 -0.30158852941E+02  0.35810961835E+02  0.51673284924E+02  0.20000015372E+01 0.  0.
        -13    1    3    3    0    0  0.21774916082E+02  0.30158852941E+02  0.16072100031E+02  0.40521931649E+02  0.10566000000E+00 0.  1.
         13    1    4    4    0    0 -0.38865967940E+01 -0.55936148783E+01  0.60614147180E+01  0.91184469328E+01  0.10566000000E+00 0. -1.
        -13    1    4    4    0    0 -0.13684243983E+02 -0.19166866227E+02  0.22177872238E+02  0.32349597762E+02  0.10566000000E+00 0.  1.
         14    1    4    4    0    0 -0.42040753048E+01 -0.53983718362E+01  0.75716748791E+01  0.10205240229E+02  0.00000000000E+00 0. -1.
<mgrwt>
<rscale>  0 0.76210930E+02</rscale>
<asrwt>0</asrwt>
<pdfrwt beam="1">  1        2 0.11082944E-01 0.76210930E+02</pdfrwt>
<pdfrwt beam="2">  1       -1 0.31009350E-02 0.76210930E+02</pdfrwt>
<totfact> 0.18533339E+05</totfact>
</mgrwt>
</event>
<event>
 8    1  0.2676873E-016  0.7836995E+02  0.7818608E-02  0.1333742E+00
         -1   -1    0    0    0  501 -0.00000000000E+00  0.00000000000E+00  0.23454476419E+02  0.23454476961E+02  0.50400000000E-02 0.  1.
          2   -1    0    0  501    0  0.00000000000E+00 -0.00000000000E+00 -0.65465642838E+02  0.65465642888E+02  0.25500000000E-02 0. -1.
         24    2    1    2    0    0  0.00000000000E+00  0.00000000000E+00 -0.42011166419E+02  0.88920119848E+02  0.78369953490E+02 0.  0.
         66    2    3    3    0    0  0.38978043077E+02 -0.19767805155E+01 -0.17384549230E+02  0.42771696890E+02  0.19999999172E+01 0.  0.
        -13    1    3    3    0    0 -0.38978043077E+02  0.19767805155E+01 -0.24626617189E+02  0.46148422958E+02  0.10566000000E+00 0.  1.
         13    1    4    4    0    0  0.11933576542E+02 -0.12814623148E+01 -0.48326720213E+01  0.12939021511E+02  0.10566000000E+00 0. -1.
        -13    1    4    4    0    0  0.30841104307E+01  0.10544472455E+00 -0.13132569958E+01  0.33553932275E+01  0.10566000000E+00 0.  1.
         14    1    4    4    0    0  0.23960356103E+02 -0.80076292527E+00 -0.11238620213E+02  0.26477282152E+02  0.00000000000E+00 0. -1.
<mgrwt>
<rscale>  0 0.78369953E+02</rscale>
<asrwt>0</asrwt>
<pdfrwt beam="1">  1        2 0.10071637E-01 0.78369953E+02</pdfrwt>
<pdfrwt beam="2">  1       -1 0.36083811E-02 0.78369953E+02</pdfrwt>
<totfact> 0.16798984E+05</totfact>
</mgrwt>
</event>
<event>
 8    1  0.2676873E-016  0.8057947E+02  0.7818608E-02  0.1327415E+00
          2   -1    0    0  501    0  0.00000000000E+00  0.00000000000E+00  0.12731224035E+04  0.12731224035E+04  0.25500000000E-02 0. -1.
         -1   -1    0    0    0  501 -0.00000000000E+00 -0.00000000000E+00 -0.12750197995E+01  0.12750297607E+01  0.50400000000E-02 0.  1.
         24    2    1    2    0    0  0.00000000000E+00  0.00000000000E+00  0.12718473837E+04  0.12743974333E+04  0.80579466876E+02 0.  0.
         66    2    3    3    0    0 -0.86186776375E+01  0.19451729861E+02  0.11769623549E+04  0.11771563347E+04  0.20000080095E+01 0.  0.
        -13    1    3    3    0    0  0.86186776375E+01 -0.19451729861E+02  0.94885028821E+02  0.97241098602E+02  0.10566000000E+00 0.  1.
         13    1    4    4    0    0 -0.45647252342E+01  0.10838692944E+02  0.66790754837E+03  0.66801109146E+03  0.10566000000E+00 0. -1.
        -13    1    4    4    0    0 -0.30018190788E+01  0.53565197815E+01  0.30632433546E+03  0.30638588884E+03  0.10566000000E+00 0.  1.
        -14    1    4    4    0    0 -0.10521333246E+01  0.32565171355E+01  0.20273047106E+03  0.20275935437E+03  0.00000000000E+00 0.  1.
<mgrwt>
<rscale>  0 0.80579467E+02</rscale>
<asrwt>0</asrwt>
<pdfrwt beam="1">  1        2 0.19586542E+00 0.80579467E+02</pdfrwt>
<pdfrwt beam="2">  1       -1 0.19615722E-03 0.80579467E+02</pdfrwt>
<totfact> 0.34103584E+05</totfact>
</mgrwt>
</event>
<event>
 8    1  0.2676873E-016  0.7930223E+02  0.7818608E-02  0.1331043E+00
         -1   -1    0    0    0  501 -0.00000000000E+00  0.00000000000E+00  0.14945746501E+01  0.14945831480E+01  0.50400000000E-02 0.  1.
          2   -1    0    0  501    0  0.00000000000E+00 -0.00000000000E+00 -0.10519422723E+04  0.10519422723E+04  0.25500000000E-02 0. -1.
         24    2    1    2    0    0  0.00000000000E+00  0.00000000000E+00 -0.10504476976E+04  0.10534368554E+04  0.79302225217E+02 0.  0.
         66    2    3    3    0    0 -0.21992445984E+02 -0.87370998832E+01 -0.94776558021E+03  0.94806307787E+03  0.20000005291E+01 0.  0.
        -13    1    3    3    0    0  0.21992445984E+02  0.87370998832E+01 -0.10268211741E+03  0.10537377754E+03  0.10566000000E+00 0.  1.
         13    1    4    4    0    0 -0.18185348764E+01 -0.42837404194E+00 -0.74509285306E+02  0.74532780266E+02  0.10566000000E+00 0. -1.
        -13    1    4    4    0    0 -0.46479280434E+01 -0.15982240117E+01 -0.22167143809E+03  0.22172594612E+03  0.10566000000E+00 0.  1.
         14    1    4    4    0    0 -0.15525983064E+02 -0.67105018296E+01 -0.65158485682E+03  0.65180435149E+03  0.00000000000E+00 0. -1.
<mgrwt>
<rscale>  0 0.79302225E+02</rscale>
<asrwt>0</asrwt>
<pdfrwt beam="1">  1        2 0.16183668E+00 0.79302225E+02</pdfrwt>
<pdfrwt beam="2">  1       -1 0.22993606E-03 0.79302225E+02</pdfrwt>
<totfact> 0.36084024E+05</totfact>
</mgrwt>
</event>
<event>
 8    1  0.2676873E-016  0.7945097E+02  0.7818608E-02  0.1330617E+00
         -1   -1    0    0    0  501 -0.00000000000E+00  0.00000000000E+00  0.18743246492E+03  0.18743246499E+03  0.50400000000E-02 0.  1.
          2   -1    0    0  501    0  0.00000000000E+00 -0.00000000000E+00 -0.84196408291E+01  0.84196412153E+01  0.25500000000E-02 0. -1.
         24    2    1    2    0    0  0.71054273576E-14 -0.17763568394E-14  0.17901282409E+03  0.19585210620E+03  0.79450967994E+02 0.  0.
         66    2    3    3    0    0  0.37372807489E+02  0.81868370453E+01  0.63433462941E+02  0.74105028504E+02  0.19999971244E+01 0.  0.
        -13    1    3    3    0    0 -0.37372807489E+02 -0.81868370453E+01  0.11557936115E+03  0.12174707770E+03  0.10566000000E+00 0.  1.
         13    1    4    4    0    0  0.15565956769E+02  0.42745579313E+01  0.27597168768E+02  0.31971639678E+02  0.10566000000E+00 0. -1.
        -13    1    4    4    0    0  0.11133278832E+02  0.20681584089E+01  0.18611721842E+02  0.21786108664E+02  0.10566000000E+00 0. -1.
        -14    1    4    4    0    0  0.10673571888E+02  0.18441207051E+01  0.17224572331E+02  0.20347280162E+02  0.00000000000E+00 0.  1.
<mgrwt>
<rscale>  0 0.79450968E+02</rscale>
<asrwt>0</asrwt>
<pdfrwt beam="1">  1        2 0.12953295E-02 0.79450968E+02</pdfrwt>
<pdfrwt beam="2">  1       -1 0.28835760E-01 0.79450968E+02</pdfrwt>
<totfact> 0.10333127E+05</totfact>
</mgrwt>
</event>
<event>
 8    1  0.2676873E-016  0.7943195E+02  0.7818608E-02  0.1330671E+00
         -1   -1    0    0    0  501 -0.00000000000E+00  0.00000000000E+00  0.11682326525E+03  0.11682326536E+03  0.50400000000E-02 0.  1.
          2   -1    0    0  501    0  0.00000000000E+00 -0.00000000000E+00 -0.13502095101E+02  0.13502095341E+02  0.25500000000E-02 0. -1.
         24    2    1    2    0    0  0.00000000000E+00  0.00000000000E+00  0.10332117015E+03  0.13032536070E+03  0.79431954783E+02 0.  0.
         66    2    3    3    0    0  0.31676135099E+02 -0.58832013926E+00  0.12465685620E+02  0.34104500756E+02  0.19999995966E+01 0.  0.
        -13    1    3    3    0    0 -0.31676135099E+02  0.58832013926E+00  0.90855484531E+02  0.96220859947E+02  0.10566000000E+00 0.  1.
         13    1    4    4    0    0  0.14557342759E+02  0.28709420490E+00  0.49923508697E+01  0.15392640531E+02  0.10566000000E+00 0. -1.
        -13    1    4    4    0    0  0.45363950855E+01 -0.46282799649E+00  0.21746272675E+01  0.50530444204E+01  0.10566000000E+00 0.  1.
         14    1    4    4    0    0  0.12582397255E+02 -0.41258634767E+00  0.52987074828E+01  0.13658815804E+02  0.00000000000E+00 0. -1.
<mgrwt>
<rscale>  0 0.79431955E+02</rscale>
<asrwt>0</asrwt>
<pdfrwt beam="1">  1        2 0.20772454E-02 0.79431955E+02</pdfrwt>
<pdfrwt beam="2">  1       -1 0.17972810E-01 0.79431955E+02</pdfrwt>
<totfact> 0.11660746E+05</totfact>
</mgrwt>
</event>
<event>
 8    1  0.2676873E-016  0.8148460E+02  0.7818608E-02  0.1324890E+00
         -1   -1    0    0    0  501 -0.00000000000E+00  0.00000000000E+00  0.60881510914E+01  0.60881531776E+01  0.50400000000E-02 0.  1.
          2   -1    0    0  501    0  0.00000000000E+00 -0.00000000000E+00 -0.27265002341E+03  0.27265002342E+03  0.25500000000E-02 0. -1.
         24    2    1    2    0    0  0.88817841970E-15  0.00000000000E+00 -0.26656187231E+03  0.27873817659E+03  0.81484595599E+02 0.  0.
         66    2    3    3    0    0  0.34785255275E+01  0.22858228037E+02 -0.24801120979E+03  0.24909467861E+03  0.19999999085E+01 0.  0.
        -13    1    3    3    0    0 -0.34785255275E+01 -0.22858228037E+02 -0.18550662522E+02  0.29643497987E+02  0.10566000000E+00 0.  1.
         13    1    4    4    0    0  0.22987879056E+01  0.13311406503E+02 -0.13900962548E+03  0.13966447332E+03  0.10566000000E+00 0. -1.
        -13    1    4    4    0    0 -0.10466075677E+00  0.25264922724E+01 -0.30566077774E+02  0.30670676412E+02  0.10566000000E+00 0.  1.
        -14    1    4    4    0    0  0.12843983787E+01  0.70203292619E+01 -0.78435506543E+02  0.78759528876E+02  0.00000000000E+00 0.  1.
<mgrwt>
<rscale>  0 0.81484596E+02</rscale>
<asrwt>0</asrwt>
<pdfrwt beam="1">  1        2 0.41946148E-01 0.81484596E+02</pdfrwt>
<pdfrwt beam="2">  1       -1 0.93663901E-03 0.81484596E+02</pdfrwt>
<totfact> 0.23465155E+05</totfact>
</mgrwt>
</event>
<event>
 8    1  0.2676873E-016  0.7337997E+02  0.7818608E-02  0.1348962E+00
         -1   -1    0    0    0  501 -0.00000000000E+00  0.00000000000E+00  0.25299470926E+02  0.25299471428E+02  0.50400000000E-02 0.  1.
          2   -1    0    0  501    0  0.00000000000E+00 -0.00000000000E+00 -0.53208818537E+02  0.53208818599E+02  0.25500000000E-02 0. -1.
         24    2    1    2    0    0 -0.88817841970E-15 -0.17763568394E-14 -0.27909347612E+02  0.78508290026E+02  0.73379969465E+02 0.  0.
         66    2    3    3    0    0 -0.65951372085E+01 -0.15110761665E+02 -0.48999842311E+02  0.51737950402E+02  0.20000031095E+01 0.  0.
        -13    1    3    3    0    0  0.65951372085E+01  0.15110761665E+02  0.21090494699E+02  0.26770339624E+02  0.10566000000E+00 0.  1.
         13    1    4    4    0    0 -0.37682279078E+01 -0.73967178619E+01 -0.24174560047E+02  0.25560350040E+02  0.10566000000E+00 0. -1.
        -13    1    4    4    0    0 -0.27066170034E+01 -0.74558584967E+01 -0.24461387288E+02  0.25715486260E+02  0.10566000000E+00 0.  1.
        -14    1    4    4    0    0 -0.12029229726E+00 -0.25818530615E+00 -0.36389497679E+00  0.46211410195E+00  0.00000000000E+00 0.  1.
<mgrwt>
<rscale>  0 0.73379969E+02</rscale>
<asrwt>0</asrwt>
<pdfrwt beam="1">  1        2 0.81859721E-02 0.73379969E+02</pdfrwt>
<pdfrwt beam="2">  1       -1 0.38922264E-02 0.73379969E+02</pdfrwt>
<totfact> 0.19151240E+05</totfact>
</mgrwt>
</event>
<event>
 8    1  0.2676873E-016  0.7741158E+02  0.7818608E-02  0.1336562E+00
          2   -1    0    0  501    0  0.00000000000E+00  0.00000000000E+00  0.23548658894E+03  0.23548658895E+03  0.25500000000E-02 0. -1.
         -1   -1    0    0    0  501 -0.00000000000E+00 -0.00000000000E+00 -0.63618822952E+01  0.63618842916E+01  0.50400000000E-02 0.  1.
         24    2    1    2    0    0  0.00000000000E+00  0.35527136788E-14  0.22912470664E+03  0.24184847324E+03  0.77411580632E+02 0.  0.
         66    2    3    3    0    0 -0.79408102015E+01  0.28717826059E+02  0.19169681946E+03  0.19400886723E+03  0.19999934626E+01 0.  0.
        -13    1    3    3    0    0  0.79408102015E+01 -0.28717826059E+02  0.37427887183E+02  0.47839606010E+02  0.10566000000E+00 0.  1.
         13    1    4    4    0    0 -0.37863000683E+01  0.10655274780E+02  0.73872749770E+02  0.74733294264E+02  0.10566000000E+00 0. -1.
        -13    1    4    4    0    0 -0.18451819363E+01  0.77206832480E+01  0.48034471697E+02  0.48686089198E+02  0.10566000000E+00 0.  1.
         14    1    4    4    0    0 -0.23093281969E+01  0.10341868030E+02  0.69789597993E+02  0.70589483771E+02  0.00000000000E+00 0. -1.
<mgrwt>
<rscale>  0 0.77411581E+02</rscale>
<asrwt>0</asrwt>
<pdfrwt beam="1">  1        2 0.36228701E-01 0.77411581E+02</pdfrwt>
<pdfrwt beam="2">  1       -1 0.97875141E-03 0.77411581E+02</pdfrwt>
<totfact> 0.25472471E+05</totfact>
</mgrwt>
</event>
<event>
 8    1  0.2676873E-016  0.7928217E+02  0.7818608E-02  0.1331101E+00
          2   -1    0    0  501    0  0.00000000000E+00  0.00000000000E+00  0.25408204356E+02  0.25408204484E+02  0.25500000000E-02 0. -1.
         -1   -1    0    0    0  501 -0.00000000000E+00 -0.00000000000E+00 -0.61846778034E+02  0.61846778239E+02  0.50400000000E-02 0.  1.
         24    2    1    2    0    0  0.00000000000E+00  0.00000000000E+00 -0.36438573678E+02  0.87254982723E+02  0.79282169233E+02 0.  0.
         66    2    3    3    0    0  0.10246450270E+02 -0.40628256745E+01  0.23647172115E+02  0.26166487020E+02  0.19999995813E+01 0.  0.
        -13    1    3    3    0    0 -0.10246450270E+02  0.40628256745E+01 -0.60085745794E+02  0.61088495703E+02  0.10566000000E+00 0.  1.
         13    1    4    4    0    0  0.47377116295E+01 -0.11674210407E+01  0.93625795272E+01  0.10558306815E+02  0.10566000000E+00 0. -1.
        -13    1    4    4    0    0  0.37075981699E+01 -0.20138575199E+01  0.85904737748E+01  0.95712752552E+01  0.10566000000E+00 0.  1.
         14    1    4    4    0    0  0.18011404710E+01 -0.88154711386E+00  0.56941188133E+01  0.60369049496E+01  0.00000000000E+00 0. -1.
<mgrwt>
<rscale>  0 0.79282169E+02</rscale>
<asrwt>0</asrwt>
<pdfrwt beam="1">  1        2 0.39089545E-02 0.79282169E+02</pdfrwt>
<pdfrwt beam="2">  1       -1 0.95148890E-02 0.79282169E+02</pdfrwt>
<totfact> 0.13357957E+05</totfact>
</mgrwt>
</event>
<event>
 8    1  0.2676873E-016  0.8013915E+02  0.7818608E-02  0.1328657E+00
         -1   -1    0    0    0  501 -0.00000000000E+00  0.00000000000E+00  0.31015607367E+02  0.31015607777E+02  0.50400000000E-02 0.  1.
          2   -1    0    0  501    0  0.00000000000E+00 -0.00000000000E+00 -0.51766541095E+02  0.51766541158E+02  0.25500000000E-02 0. -1.
         24    2    1    2    0    0  0.00000000000E+00  0.00000000000E+00 -0.20750933728E+02  0.82782148935E+02  0.80139147311E+02 0.  0.
         66    2    3    3    0    0  0.20525963648E+02  0.10282258023E+02 -0.44274456768E+02  0.49912598983E+02  0.20000003686E+01 0.  0.
        -13    1    3    3    0    0 -0.20525963648E+02 -0.10282258023E+02  0.23523523040E+02  0.32869549951E+02  0.10566000000E+00 0.  1.
         13    1    4    4    0    0  0.89590065909E+01  0.43454191840E+01 -0.19778948625E+02  0.22144173945E+02  0.10566000000E+00 0. -1.
        -13    1    4    4    0    0  0.69188795288E+01  0.38083057516E+01 -0.13460575138E+02  0.15606804084E+02  0.10566000000E+00 0.  1.
        -14    1    4    4    0    0  0.46480775288E+01  0.21285330876E+01 -0.11034933004E+02  0.12161620954E+02  0.00000000000E+00 0.  1.
<mgrwt>
<rscale>  0 0.80139147E+02</rscale>
<asrwt>0</asrwt>
<pdfrwt beam="1">  1        2 0.79640833E-02 0.80139147E+02</pdfrwt>
<pdfrwt beam="2">  1       -1 0.47716319E-02 0.80139147E+02</pdfrwt>
<totfact> 0.14985543E+05</totfact>
</mgrwt>
</event>
<event>
 8    1  0.2676873E-016  0.7977603E+02  0.7818608E-02  0.1329688E+00
          2   -1    0    0  501    0  0.00000000000E+00  0.00000000000E+00  0.45007318957E+03  0.45007318958E+03  0.25500000000E-02 0. -1.
         -1   -1    0    0    0  501 -0.00000000000E+00 -0.00000000000E+00 -0.35350980539E+01  0.35351016467E+01  0.50400000000E-02 0.  1.
         24    2    1    2    0    0  0.00000000000E+00  0.00000000000E+00  0.44653809152E+03  0.45360829123E+03  0.79776028306E+02 0.  0.
         66    2    3    3    0    0 -0.29878066915E+02 -0.11584846350E+02  0.35822182489E+03  0.35965786993E+03  0.20000059125E+01 0.  0.
        -13    1    3    3    0    0  0.29878066915E+02  0.11584846350E+02  0.88316266627E+02  0.93950421300E+02  0.10566000000E+00 0.  1.
         13    1    4    4    0    0 -0.51907625480E+01 -0.21044348973E+01  0.65759679506E+02  0.65997873260E+02  0.10566000000E+00 0. -1.
        -13    1    4    4    0    0 -0.16281780528E+02 -0.70047318206E+01  0.19936615302E+03  0.20015253378E+03  0.10566000000E+00 0.  1.
        -14    1    4    4    0    0 -0.84055238392E+01 -0.24756796326E+01  0.93095992362E+02  0.93507462882E+02  0.00000000000E+00 0.  1.
<mgrwt>
<rscale>  0 0.79776028E+02</rscale>
<asrwt>0</asrwt>
<pdfrwt beam="1">  1        2 0.69242017E-01 0.79776028E+02</pdfrwt>
<pdfrwt beam="2">  1       -1 0.54386162E-03 0.79776028E+02</pdfrwt>
<totfact> 0.29636047E+05</totfact>
</mgrwt>
</event>
<event>
 8    1  0.2676873E-016  0.7923336E+02  0.7818608E-02  0.1331241E+00
          2   -1    0    0  501    0  0.00000000000E+00  0.00000000000E+00  0.41349397273E+03  0.41349397274E+03  0.25500000000E-02 0. -1.
         -1   -1    0    0    0  501 -0.00000000000E+00 -0.00000000000E+00 -0.37956551241E+01  0.37956584703E+01  0.50400000000E-02 0.  1.
         24    2    1    2    0    0  0.00000000000E+00 -0.35527136788E-14  0.40969831761E+03  0.41728963121E+03  0.79233357021E+02 0.  0.
         66    2    3    3    0    0  0.80833524080E+01 -0.24408781881E+02  0.36353316742E+03  0.36444683155E+03  0.19999999718E+01 0.  0.
        -13    1    3    3    0    0 -0.80833524080E+01  0.24408781881E+02  0.46165150189E+02  0.52842799653E+02  0.10566000000E+00 0.  1.
         13    1    4    4    0    0  0.27357836052E+01 -0.95398350841E+01  0.14941258817E+03  0.14974186333E+03  0.10566000000E+00 0. -1.
        -13    1    4    4    0    0  0.74538467687E+00 -0.30115875106E+01  0.44592227772E+02  0.44700147644E+02  0.10566000000E+00 0.  1.
         14    1    4    4    0    0  0.46021841259E+01 -0.11857359287E+02  0.16952835147E+03  0.17000482058E+03  0.00000000000E+00 0. -1.
<mgrwt>
<rscale>  0 0.79233357E+02</rscale>
<asrwt>0</asrwt>
<pdfrwt beam="1">  1        2 0.63614461E-01 0.79233357E+02</pdfrwt>
<pdfrwt beam="2">  1       -1 0.58394717E-03 0.79233357E+02</pdfrwt>
<totfact> 0.29309033E+05</totfact>
</mgrwt>
</event>
<event>
 8    1  0.2676873E-016  0.7969600E+02  0.7818608E-02  0.1329916E+00
          2   -1    0    0  501    0  0.00000000000E+00  0.00000000000E+00  0.18763003907E+03  0.18763003909E+03  0.25500000000E-02 0. -1.
         -1   -1    0    0    0  501 -0.00000000000E+00 -0.00000000000E+00 -0.84627333451E+01  0.84627348459E+01  0.50400000000E-02 0.  1.
         24    2    1    2    0    0  0.00000000000E+00  0.00000000000E+00  0.17916730573E+03  0.19609277394E+03  0.79696000830E+02 0.  0.
         66    2    3    3    0    0 -0.20891009896E+02 -0.10146863378E+02  0.16923521354E+03  0.17083310747E+03  0.19999935665E+01 0.  0.
        -13    1    3    3    0    0  0.20891009896E+02  0.10146863378E+02  0.99320921890E+01  0.25259666470E+02  0.10566000000E+00 0.  1.
         13    1    4    4    0    0 -0.60101756518E+01 -0.23355944116E+01  0.46240611983E+02  0.46688141676E+02  0.10566000000E+00 0. -1.
        -13    1    4    4    0    0 -0.33248018970E+01 -0.21264350548E+01  0.25624633015E+02  0.25926993942E+02  0.10566000000E+00 0.  1.
        -14    1    4    4    0    0 -0.11556032347E+02 -0.56848339112E+01  0.97369968543E+02  0.98217971849E+02  0.00000000000E+00 0.  1.
<mgrwt>
<rscale>  0 0.79696001E+02</rscale>
<asrwt>0</asrwt>
<pdfrwt beam="1">  1        2 0.28866159E-01 0.79696001E+02</pdfrwt>
<pdfrwt beam="2">  1       -1 0.13019592E-02 0.79696001E+02</pdfrwt>
<totfact> 0.21795974E+05</totfact>
</mgrwt>
</event>
<event>
 8    1  0.2676873E-016  0.8028566E+02  0.7818608E-02  0.1328243E+00
          2   -1    0    0  501    0  0.00000000000E+00  0.00000000000E+00  0.13945673715E+04  0.13945673715E+04  0.25500000000E-02 0. -1.
         -1   -1    0    0    0  501 -0.00000000000E+00 -0.00000000000E+00 -0.11555119250E+01  0.11555229164E+01  0.50400000000E-02 0.  1.
         24    2    1    2    0    0  0.00000000000E+00  0.00000000000E+00  0.13934118595E+04  0.13957228944E+04  0.80285662482E+02 0.  0.
         66    2    3    3    0    0  0.10006724909E+02  0.21524684210E+02  0.12593826982E+04  0.12596079657E+04  0.19999997123E+01 0.  0.
        -13    1    3    3    0    0 -0.10006724909E+02 -0.21524684210E+02  0.13402916128E+03  0.13611492869E+03  0.10566000000E+00 0.  1.
         13    1    4    4    0    0  0.66056830311E+01  0.15762613520E+02  0.92019645503E+03  0.92035516082E+03  0.10566000000E+00 0. -1.
        -13    1    4    4    0    0  0.18106012765E+01  0.28672935913E+01  0.15744142675E+03  0.15747797837E+03  0.10566000000E+00 0.  1.
         14    1    4    4    0    0  0.15904406014E+01  0.28947770988E+01  0.18174481646E+03  0.18177482649E+03  0.00000000000E+00 0. -1.
<mgrwt>
<rscale>  0 0.80285662E+02</rscale>
<asrwt>0</asrwt>
<pdfrwt beam="1">  1        2 0.21454924E+00 0.80285662E+02</pdfrwt>
<pdfrwt beam="2">  1       -1 0.17777157E-03 0.80285662E+02</pdfrwt>
<totfact> 0.33736900E+05</totfact>
</mgrwt>
</event>
<event>
 8    1  0.2676873E-016  0.7935689E+02  0.7818608E-02  0.1330886E+00
         -1   -1    0    0    0  501 -0.00000000000E+00  0.00000000000E+00  0.59582837718E+00  0.59584969300E+00  0.50400000000E-02 0.  1.
          2   -1    0    0  501    0  0.00000000000E+00 -0.00000000000E+00 -0.26422891208E+04  0.26422891208E+04  0.25500000000E-02 0. -1.
         24    2    1    2    0    0 -0.22204460493E-15  0.00000000000E+00 -0.26416932924E+04  0.26428849705E+04  0.79356890266E+02 0.  0.
         66    2    3    3    0    0 -0.10218990637E+01 -0.12178817797E+02 -0.25779938359E+04  0.25780235814E+04  0.20000017937E+01 0.  0.
        -13    1    3    3    0    0  0.10218990637E+01  0.12178817797E+02 -0.63699456502E+02  0.64861389157E+02  0.10566000000E+00 0.  1.
         13    1    4    4    0    0  0.45649223840E+00 -0.27145875606E+01 -0.55625374978E+03  0.55626057085E+03  0.10566000000E+00 0. -1.
        -13    1    4    4    0    0 -0.97624092849E+00 -0.71839825516E+01 -0.16059902100E+04  0.16060065780E+04  0.10566000000E+00 0.  1.
        -14    1    4    4    0    0 -0.50215037365E+00 -0.22802476845E+01 -0.41574987612E+03  0.41575643252E+03  0.00000000000E+00 0.  1.
<mgrwt>
<rscale>  0 0.79356890E+02</rscale>
<asrwt>0</asrwt>
<pdfrwt beam="1">  1        2 0.40649664E+00 0.79356890E+02</pdfrwt>
<pdfrwt beam="2">  1       -1 0.91669660E-04 0.79356890E+02</pdfrwt>
<totfact> 0.19458907E+05</totfact>
</mgrwt>
</event>
<event>
 8    1  0.2676873E-016  0.8033646E+02  0.7818608E-02  0.1328099E+00
         -1   -1    0    0    0  501 -0.00000000000E+00  0.00000000000E+00  0.40407413024E+02  0.40407413339E+02  0.50400000000E-02 0.  1.
          2   -1    0    0  501    0  0.00000000000E+00 -0.00000000000E+00 -0.39930463121E+02  0.39930463202E+02  0.25500000000E-02 0. -1.
         24    2    1    2    0    0  0.00000000000E+00  0.00000000000E+00  0.47694990369E+00  0.80337876541E+02  0.80336460750E+02 0.  0.
         66    2    3    3    0    0 -0.22692744947E+02 -0.18213798180E+02 -0.27416496497E+02  0.40029581693E+02  0.20000032543E+01 0.  0.
        -13    1    3    3    0    0  0.22692744947E+02  0.18213798180E+02  0.27893446400E+02  0.40308294847E+02  0.10566000000E+00 0.  1.
         13    1    4    4    0    0 -0.45914339286E+00 -0.59997046652E+00 -0.76133551448E+00  0.10777629689E+01  0.10566000000E+00 0.  1.
        -13    1    4    4    0    0 -0.77736388749E+01 -0.58302561446E+01 -0.10022489697E+02  0.13960043403E+02  0.10566000000E+00 0. -1.
         14    1    4    4    0    0 -0.14459962679E+02 -0.11783571569E+02 -0.16632671286E+02  0.24991775321E+02  0.00000000000E+00 0. -1.
<mgrwt>
<rscale>  0 0.80336461E+02</rscale>
<asrwt>0</asrwt>
<pdfrwt beam="1">  1        2 0.61431482E-02 0.80336461E+02</pdfrwt>
<pdfrwt beam="2">  1       -1 0.62165251E-02 0.80336461E+02</pdfrwt>
<totfact> 0.14085697E+05</totfact>
</mgrwt>
</event>
<event>
 8    1  0.2676873E-016  0.8172547E+02  0.7818608E-02  0.1324225E+00
          2   -1    0    0  501    0  0.00000000000E+00  0.00000000000E+00  0.28007136951E+02  0.28007137067E+02  0.25500000000E-02 0. -1.
         -1   -1    0    0    0  501 -0.00000000000E+00 -0.00000000000E+00 -0.59619203764E+02  0.59619203977E+02  0.50400000000E-02 0.  1.
         24    2    1    2    0    0  0.00000000000E+00  0.35527136788E-14 -0.31612066814E+02  0.87626341044E+02  0.81725472630E+02 0.  0.
         66    2    3    3    0    0  0.31365215120E+02 -0.26137925590E+02 -0.14862261195E+02  0.43495455873E+02  0.20000000144E+01 0.  0.
        -13    1    3    3    0    0 -0.31365215120E+02  0.26137925590E+02 -0.16749805619E+02  0.44130885171E+02  0.10566000000E+00 0.  1.
         13    1    4    4    0    0  0.76073161763E+01 -0.68452887296E+01 -0.32548666140E+01  0.10739392809E+02  0.10566000000E+00 0. -1.
        -13    1    4    4    0    0  0.68001587009E+01 -0.54390144149E+01 -0.39027045279E+01  0.95429189890E+01  0.10566000000E+00 0.  1.
         14    1    4    4    0    0  0.16957740243E+02 -0.13853622446E+02 -0.77046900530E+01  0.23213144075E+02  0.00000000000E+00 0. -1.
<mgrwt>
<rscale>  0 0.81725473E+02</rscale>
<asrwt>0</asrwt>
<pdfrwt beam="1">  1        2 0.43087903E-02 0.81725473E+02</pdfrwt>
<pdfrwt beam="2">  1       -1 0.91721852E-02 0.81725473E+02</pdfrwt>
<totfact> 0.12499318E+05</totfact>
</mgrwt>
</event>
<event>
 8    1  0.2676873E-016  0.7707858E+02  0.7818608E-02  0.1337553E+00
          2   -1    0    0  501    0  0.00000000000E+00  0.00000000000E+00  0.14241376322E+03  0.14241376325E+03  0.25500000000E-02 0. -1.
         -1   -1    0    0    0  501 -0.00000000000E+00 -0.00000000000E+00 -0.10429306029E+02  0.10429307247E+02  0.50400000000E-02 0.  1.
         24    2    1    2    0    0 -0.35527136788E-14 -0.35527136788E-14  0.13198445719E+03  0.15284307049E+03  0.77078578456E+02 0.  0.
         66    2    3    3    0    0  0.28088149427E+02  0.18363824028E+02  0.28564645970E+02  0.44114772940E+02  0.20000052288E+01 0.  0.
        -13    1    3    3    0    0 -0.28088149427E+02 -0.18363824028E+02  0.10341981122E+03  0.10872829755E+03  0.10566000000E+00 0.  1.
         13    1    4    4    0    0  0.11861376892E+02  0.71722364448E+01  0.12625740304E+02  0.18749765856E+02  0.10566000000E+00 0. -1.
        -13    1    4    4    0    0  0.14097479994E+02  0.93905157133E+01  0.13513681245E+02  0.21669136401E+02  0.10566000000E+00 0.  1.
        -14    1    4    4    0    0  0.21292925405E+01  0.18010718704E+01  0.24252244213E+01  0.36958706821E+01  0.00000000000E+00 0.  1.
<mgrwt>
<rscale>  0 0.77078578E+02</rscale>
<asrwt>0</asrwt>
<pdfrwt beam="1">  1        2 0.21909810E-01 0.77078578E+02</pdfrwt>
<pdfrwt beam="2">  1       -1 0.16045087E-02 0.77078578E+02</pdfrwt>
<totfact> 0.21742246E+05</totfact>
</mgrwt>
</event>
<event>
 8    1  0.2676873E-016  0.7704833E+02  0.7818608E-02  0.1337643E+00
         -1   -1    0    0    0  501 -0.00000000000E+00  0.00000000000E+00  0.13250628946E+03  0.13250628955E+03  0.50400000000E-02 0.  1.
          2   -1    0    0  501    0  0.00000000000E+00 -0.00000000000E+00 -0.11200307338E+02  0.11200307628E+02  0.25500000000E-02 0. -1.
         24    2    1    2    0    0  0.00000000000E+00 -0.17763568394E-14  0.12130598212E+03  0.14370659718E+03  0.77048327531E+02 0.  0.
         66    2    3    3    0    0 -0.25062991391E+02  0.14239663371E+02  0.13098277095E+02  0.31725169520E+02  0.19999919604E+01 0.  0.
        -13    1    3    3    0    0  0.25062991391E+02 -0.14239663371E+02  0.10820770503E+03  0.11198142766E+03  0.10566000000E+00 0.  1.
         13    1    4    4    0    0 -0.19490487179E+02  0.10808600122E+02  0.94353103328E+01  0.24202090244E+02  0.10566000000E+00 0. -1.
        -13    1    4    4    0    0 -0.74311196610E+00  0.45180016326E+00  0.70168249941E+00  0.11224353644E+01  0.10566000000E+00 0.  1.
        -14    1    4    4    0    0 -0.48293922461E+01  0.29792630855E+01  0.29612842632E+01  0.64006439119E+01  0.00000000000E+00 0.  1.
<mgrwt>
<rscale>  0 0.77048328E+02</rscale>
<asrwt>0</asrwt>
<pdfrwt beam="1">  1        2 0.17231242E-02 0.77048328E+02</pdfrwt>
<pdfrwt beam="2">  1       -1 0.20385584E-01 0.77048328E+02</pdfrwt>
<totfact> 0.12226934E+05</totfact>
</mgrwt>
</event>
<event>
 8    1  0.2676873E-016  0.8214753E+02  0.7818608E-02  0.1323065E+00
          2   -1    0    0  501    0  0.00000000000E+00  0.00000000000E+00  0.42064111901E+03  0.42064111902E+03  0.25500000000E-02 0. -1.
         -1   -1    0    0    0  501 -0.00000000000E+00 -0.00000000000E+00 -0.40106715864E+01  0.40106747531E+01  0.50400000000E-02 0.  1.
         24    2    1    2    0    0  0.00000000000E+00  0.00000000000E+00  0.41663044743E+03  0.42465179377E+03  0.82147527245E+02 0.  0.
         66    2    3    3    0    0 -0.31372220914E+02  0.20005204141E+02  0.29806781038E+03  0.30038782270E+03  0.20000020613E+01 0.  0.
        -13    1    3    3    0    0  0.31372220914E+02 -0.20005204141E+02  0.11856263705E+03  0.12426397107E+03  0.10566000000E+00 0.  1.
         13    1    4    4    0    0 -0.10202754996E+02  0.66774983809E+01  0.96162001610E+02  0.96932073700E+02  0.10566000000E+00 0. -1.
        -13    1    4    4    0    0 -0.20086083883E+02  0.12626527400E+02  0.19398955403E+03  0.19543499736E+03  0.10566000000E+00 0.  1.
        -14    1    4    4    0    0 -0.10833820346E+01  0.70117835989E+00  0.79162547409E+01  0.80207516386E+01  0.00000000000E+00 0.  1.
<mgrwt>
<rscale>  0 0.82147527E+02</rscale>
<asrwt>0</asrwt>
<pdfrwt beam="1">  1        2 0.64713995E-01 0.82147527E+02</pdfrwt>
<pdfrwt beam="2">  1       -1 0.61702687E-03 0.82147527E+02</pdfrwt>
<totfact> 0.26827566E+05</totfact>
</mgrwt>
</event>
<event>
 8    1  0.2676873E-016  0.8689776E+02  0.7818608E-02  0.1310543E+00
         -1   -1    0    0    0  501 -0.00000000000E+00  0.00000000000E+00  0.30483795255E+01  0.30483836919E+01  0.50400000000E-02 0.  1.
          2   -1    0    0  501    0  0.00000000000E+00 -0.00000000000E+00 -0.61928116717E+03  0.61928116718E+03  0.25500000000E-02 0. -1.
         24    2    1    2    0    0  0.35527136788E-14 -0.35527136788E-14 -0.61623278764E+03  0.62232955087E+03  0.86897763576E+02 0.  0.
         66    2    3    3    0    0 -0.15166593268E+02  0.21469892289E+02 -0.55582906763E+03  0.55645389238E+03  0.20000224266E+01 0.  0.
        -13    1    3    3    0    0  0.15166593268E+02 -0.21469892289E+02 -0.60403720013E+02  0.65875658491E+02  0.10566000000E+00 0.  1.
         13    1    4    4    0    0 -0.25477392196E+01  0.49263135875E+01 -0.11971074571E+03  0.11983919785E+03  0.10566000000E+00 0. -1.
        -13    1    4    4    0    0 -0.60897558360E+01  0.77182128084E+01 -0.20203130736E+03  0.20227040380E+03  0.10566000000E+00 0.  1.
        -14    1    4    4    0    0 -0.65290982125E+01  0.88253658926E+01 -0.23408701456E+03  0.23434429072E+03  0.00000000000E+00 0.  1.
<mgrwt>
<rscale>  0 0.86897764E+02</rscale>
<asrwt>0</asrwt>
<pdfrwt beam="1">  1        2 0.95273926E-01 0.86897764E+02</pdfrwt>
<pdfrwt beam="2">  1       -1 0.46898228E-03 0.86897764E+02</pdfrwt>
<totfact> 0.26139684E+05</totfact>
</mgrwt>
</event>
<event>
 8    1  0.2676873E-016  0.7903291E+02  0.7818608E-02  0.1331819E+00
          2   -1    0    0  501    0  0.00000000000E+00  0.00000000000E+00  0.30215181537E+02  0.30215181645E+02  0.25500000000E-02 0. -1.
         -1   -1    0    0    0  501 -0.00000000000E+00 -0.00000000000E+00 -0.51680974789E+02  0.51680975035E+02  0.50400000000E-02 0.  1.
         24    2    1    2    0    0  0.00000000000E+00 -0.35527136788E-14 -0.21465793252E+02  0.81896156680E+02  0.79032905799E+02 0.  0.
         66    2    3    3    0    0 -0.14376349366E+01 -0.28578030294E+02  0.17463462344E+02  0.33581886377E+02  0.19999914775E+01 0.  0.
        -13    1    3    3    0    0  0.14376349366E+01  0.28578030294E+02 -0.38929255596E+02  0.48314270303E+02  0.10566000000E+00 0.  1.
         13    1    4    4    0    0 -0.56861100760E+00 -0.13462047813E+02  0.87615724265E+01  0.16072534499E+02  0.10566000000E+00 0. -1.
        -13    1    4    4    0    0  0.60333769774E-01 -0.95539484187E+01  0.54894644758E+01  0.11019389948E+02  0.10566000000E+00 0.  1.
         14    1    4    4    0    0 -0.92935769879E+00 -0.55620340616E+01  0.32124254414E+01  0.64899619298E+01  0.00000000000E+00 0. -1.
<mgrwt>
<rscale>  0 0.79032906E+02</rscale>
<asrwt>0</asrwt>
<pdfrwt beam="1">  1        2 0.46484895E-02 0.79032906E+02</pdfrwt>
<pdfrwt beam="2">  1       -1 0.79509192E-02 0.79032906E+02</pdfrwt>
<totfact> 0.13940801E+05</totfact>
</mgrwt>
</event>
<event>
 8    1  0.2676873E-016  0.7859844E+02  0.7818608E-02  0.1333077E+00
         -1   -1    0    0    0  501 -0.00000000000E+00  0.00000000000E+00  0.52446328572E+02  0.52446328814E+02  0.50400000000E-02 0.  1.
          2   -1    0    0  501    0  0.00000000000E+00 -0.00000000000E+00 -0.29447795439E+02  0.29447795549E+02  0.25500000000E-02 0. -1.
         24    2    1    2    0    0  0.35527136788E-14 -0.88817841970E-15  0.22998533133E+02  0.81894124363E+02  0.78598441962E+02 0.  0.
         66    2    3    3    0    0 -0.29555336619E+02  0.49937966492E+01 -0.14933884960E+02  0.33548127279E+02  0.19999990723E+01 0.  0.
        -13    1    3    3    0    0  0.29555336619E+02 -0.49937966492E+01  0.37932418093E+02  0.48345997084E+02  0.10566000000E+00 0.  1.
         13    1    4    4    0    0 -0.59564347012E+01  0.61118215315E+00 -0.26736872458E+01  0.65583858912E+01  0.10566000000E+00 0. -1.
        -13    1    4    4    0    0 -0.18250862505E+02  0.34969860029E+01 -0.88260132298E+01  0.20572616918E+02  0.10566000000E+00 0.  1.
        -14    1    4    4    0    0 -0.53480394127E+01  0.88562849310E+00 -0.34341844845E+01  0.64171244698E+01  0.00000000000E+00 0.  1.
<mgrwt>
<rscale>  0 0.78598442E+02</rscale>
<asrwt>0</asrwt>
<pdfrwt beam="1">  1        2 0.45304301E-02 0.78598442E+02</pdfrwt>
<pdfrwt beam="2">  1       -1 0.80686659E-02 0.78598442E+02</pdfrwt>
<totfact> 0.14086474E+05</totfact>
</mgrwt>
</event>
<event>
 8    1  0.2676873E-016  0.7817550E+02  0.7818608E-02  0.1334310E+00
          2   -1    0    0  501    0  0.00000000000E+00  0.00000000000E+00  0.42278566627E+03  0.42278566628E+03  0.25500000000E-02 0. -1.
         -1   -1    0    0    0  501 -0.00000000000E+00 -0.00000000000E+00 -0.36137730707E+01  0.36137765853E+01  0.50400000000E-02 0.  1.
         24    2    1    2    0    0  0.00000000000E+00  0.35527136788E-14  0.41917189320E+03  0.42639944287E+03  0.78175500162E+02 0.  0.
         66    2    3    3    0    0  0.19314771595E+02 -0.30253034266E+02  0.29378771017E+03  0.29597892683E+03  0.19999993005E+01 0.  0.
        -13    1    3    3    0    0 -0.19314771595E+02  0.30253034266E+02  0.12538418303E+03  0.13042051603E+03  0.10566000000E+00 0.  1.
         13    1    4    4    0    0  0.13766491408E+02 -0.22880011889E+02  0.21857160996E+03  0.22019666454E+03  0.10566000000E+00 0. -1.
        -13    1    4    4    0    0  0.17814585606E+01 -0.22390904468E+01  0.21367916211E+02  0.21558899041E+02  0.10566000000E+00 0.  1.
         14    1    4    4    0    0  0.37668216261E+01 -0.51339319300E+01  0.53848184005E+02  0.54223363256E+02  0.00000000000E+00 0. -1.
<mgrwt>
<rscale>  0 0.78175500E+02</rscale>
<asrwt>0</asrwt>
<pdfrwt beam="1">  1        2 0.65043965E-01 0.78175500E+02</pdfrwt>
<pdfrwt beam="2">  1       -1 0.55596522E-03 0.78175500E+02</pdfrwt>
<totfact> 0.30587384E+05</totfact>
</mgrwt>
</event>
<event>
 8    1  0.2676873E-016  0.7226638E+02  0.7818608E-02  0.1352551E+00
          2   -1    0    0  501    0  0.00000000000E+00  0.00000000000E+00  0.62159209902E+01  0.62159215132E+01  0.25500000000E-02 0. -1.
         -1   -1    0    0    0  501 -0.00000000000E+00 -0.00000000000E+00 -0.21004246864E+03  0.21004246870E+03  0.50400000000E-02 0.  1.
         24    2    1    2    0    0  0.00000000000E+00  0.00000000000E+00 -0.20382654765E+03  0.21625839021E+03  0.72266380918E+02 0.  0.
         66    2    3    3    0    0 -0.64601256247E+01  0.35250076889E+02 -0.88843949917E+02  0.95820397499E+02  0.19999990648E+01 0.  0.
        -13    1    3    3    0    0  0.64601256247E+01 -0.35250076889E+02 -0.11498259773E+03  0.12043799272E+03  0.10566000000E+00 0.  1.
         13    1    4    4    0    0 -0.16704144619E+01  0.74733787879E+01 -0.18794822949E+02  0.20295275527E+02  0.10566000000E+00 0. -1.
        -13    1    4    4    0    0 -0.26810745363E+01  0.11415243678E+02 -0.30146744430E+02  0.32347075798E+02  0.10566000000E+00 0.  1.
        -14    1    4    4    0    0 -0.21086366265E+01  0.16361454423E+02 -0.39902382538E+02  0.43178046174E+02  0.00000000000E+00 0.  1.
<mgrwt>
<rscale>  0 0.72266381E+02</rscale>
<asrwt>0</asrwt>
<pdfrwt beam="1">  1        2 0.95629574E-03 0.72266381E+02</pdfrwt>
<pdfrwt beam="2">  1       -1 0.32314221E-01 0.72266381E+02</pdfrwt>
<totfact> 0.12703205E+05</totfact>
</mgrwt>
</event>
<event>
 8    1  0.2676873E-016  0.8931707E+02  0.7818608E-02  0.1304514E+00
         -1   -1    0    0    0  501 -0.00000000000E+00  0.00000000000E+00  0.68025911934E+01  0.68025930604E+01  0.50400000000E-02 0.  1.
          2   -1    0    0  501    0  0.00000000000E+00 -0.00000000000E+00 -0.29318010018E+03  0.29318010019E+03  0.25500000000E-02 0. -1.
         24    2    1    2    0    0  0.00000000000E+00  0.00000000000E+00 -0.28637750899E+03  0.29998269325E+03  0.89317067781E+02 0.  0.
         66    2    3    3    0    0 -0.94791386220E+01 -0.58763561531E+01 -0.28842119045E+03  0.28864367087E+03  0.20000000430E+01 0.  0.
        -13    1    3    3    0    0  0.94791386220E+01  0.58763561531E+01  0.20436814644E+01  0.11339022384E+02  0.10566000000E+00 0.  1.
         13    1    4    4    0    0 -0.40612680763E+01 -0.24222765313E+01 -0.13608973260E+03  0.13617190534E+03  0.10566000000E+00 0.  1.
        -13    1    4    4    0    0 -0.18247718338E+01 -0.18492617199E+01 -0.57936377221E+02  0.57994693987E+02  0.10566000000E+00 0. -1.
         14    1    4    4    0    0 -0.35930987120E+01 -0.16048179019E+01 -0.94395080630E+02  0.94477071535E+02  0.00000000000E+00 0. -1.
<mgrwt>
<rscale>  0 0.89317068E+02</rscale>
<asrwt>0</asrwt>
<pdfrwt beam="1">  1        2 0.45104621E-01 0.89317068E+02</pdfrwt>
<pdfrwt beam="2">  1       -1 0.10465529E-02 0.89317068E+02</pdfrwt>
<totfact> 0.18908580E+05</totfact>
</mgrwt>
</event>
<event>
 8    1  0.2676873E-016  0.7376925E+02  0.7818608E-02  0.1347725E+00
          2   -1    0    0  501    0  0.00000000000E+00  0.00000000000E+00  0.16551674365E+02  0.16551674561E+02  0.25500000000E-02 0. -1.
         -1   -1    0    0    0  501 -0.00000000000E+00 -0.00000000000E+00 -0.82195643561E+02  0.82195643716E+02  0.50400000000E-02 0.  1.
         24    2    1    2    0    0  0.00000000000E+00  0.35527136788E-14 -0.65643969196E+02  0.98747318277E+02  0.73769249522E+02 0.  0.
         66    2    3    3    0    0 -0.18102444785E+01  0.28917862803E+02 -0.63339950691E+02  0.69681196426E+02  0.20000019123E+01 0.  0.
        -13    1    3    3    0    0  0.18102444785E+01 -0.28917862803E+02 -0.23040185058E+01  0.29066121851E+02  0.10566000000E+00 0.  1.
         13    1    4    4    0    0 -0.10110746748E+01  0.19361583858E+02 -0.44182677098E+02  0.48249490371E+02  0.10566000000E+00 0. -1.
        -13    1    4    4    0    0 -0.27482113126E+00  0.25829600720E+01 -0.57465594867E+01  0.63072434040E+01  0.10566000000E+00 0.  1.
        -14    1    4    4    0    0 -0.52434867248E+00  0.69733188735E+01 -0.13410714106E+02  0.15124462651E+02  0.00000000000E+00 0.  1.
<mgrwt>
<rscale>  0 0.73769250E+02</rscale>
<asrwt>0</asrwt>
<pdfrwt beam="1">  1        2 0.25464115E-02 0.73769250E+02</pdfrwt>
<pdfrwt beam="2">  1       -1 0.12645484E-01 0.73769250E+02</pdfrwt>
<totfact> 0.15086444E+05</totfact>
</mgrwt>
</event>
<event>
 8    1  0.2676873E-016  0.8126339E+02  0.7818608E-02  0.1325504E+00
         -1   -1    0    0    0  501 -0.00000000000E+00  0.00000000000E+00  0.37982793932E+02  0.37982794266E+02  0.50400000000E-02 0.  1.
          2   -1    0    0  501    0  0.00000000000E+00 -0.00000000000E+00 -0.43465325656E+02  0.43465325731E+02  0.25500000000E-02 0. -1.
         24    2    1    2    0    0  0.00000000000E+00  0.17763568394E-14 -0.54825317244E+01  0.81448119997E+02  0.81263387186E+02 0.  0.
         66    2    3    3    0    0 -0.91981816683E+01  0.15097820129E+02 -0.39382539773E+02  0.43214987397E+02  0.19999945308E+01 0.  0.
        -13    1    3    3    0    0  0.91981816683E+01 -0.15097820129E+02  0.33900008049E+02  0.38233132600E+02  0.10566000000E+00 0.  1.
         13    1    4    4    0    0 -0.24134140244E+01  0.40418833561E+01 -0.10197480375E+02  0.11232148430E+02  0.10566000000E+00 0. -1.
        -13    1    4    4    0    0 -0.47104580584E+01  0.65662815163E+01 -0.19489885886E+02  0.21099082539E+02  0.10566000000E+00 0.  1.
        -14    1    4    4    0    0 -0.20743095855E+01  0.44896552569E+01 -0.96951735120E+01  0.10883756429E+02  0.00000000000E+00 0.  1.
<mgrwt>
<rscale>  0 0.81263387E+02</rscale>
<asrwt>0</asrwt>
<pdfrwt beam="1">  1        2 0.66869732E-02 0.81263387E+02</pdfrwt>
<pdfrwt beam="2">  1       -1 0.58435068E-02 0.81263387E+02</pdfrwt>
<totfact> 0.13889640E+05</totfact>
</mgrwt>
</event>
<event>
 8    1  0.2676873E-016  0.7902720E+02  0.7818608E-02  0.1331835E+00
          2   -1    0    0  501    0  0.00000000000E+00  0.00000000000E+00  0.38277325512E+02  0.38277325597E+02  0.25500000000E-02 0. -1.
         -1   -1    0    0    0  501 -0.00000000000E+00 -0.00000000000E+00 -0.40789800081E+02  0.40789800392E+02  0.50400000000E-02 0.  1.
         24    2    1    2    0    0  0.00000000000E+00  0.00000000000E+00 -0.25124745686E+01  0.79067125990E+02  0.79027197115E+02 0.  0.
         66    2    3    3    0    0 -0.67820778887E+00 -0.10615560271E+02  0.36790709022E+02  0.38349789509E+02  0.19999998400E+01 0.  0.
        -13    1    3    3    0    0  0.67820778887E+00  0.10615560271E+02 -0.39303183591E+02  0.40717336481E+02  0.10566000000E+00 0.  1.
         13    1    4    4    0    0 -0.22770764582E+00 -0.27134628299E+01  0.75416321345E+01  0.80188596814E+01  0.10566000000E+00 0. -1.
        -13    1    4    4    0    0  0.21885201959E+00 -0.59035241943E+01  0.20798538510E+02  0.21621513877E+02  0.10566000000E+00 0.  1.
         14    1    4    4    0    0 -0.66935216263E+00 -0.19985732470E+01  0.84505383775E+01  0.87094159512E+01  0.00000000000E+00 0. -1.
<mgrwt>
<rscale>  0 0.79027197E+02</rscale>
<asrwt>0</asrwt>
<pdfrwt beam="1">  1        2 0.58888193E-02 0.79027197E+02</pdfrwt>
<pdfrwt beam="2">  1       -1 0.62753539E-02 0.79027197E+02</pdfrwt>
<totfact> 0.14613894E+05</totfact>
</mgrwt>
</event>
<event>
 8    1  0.2676873E-016  0.8189689E+02  0.7818608E-02  0.1323753E+00
         -1   -1    0    0    0  501 -0.00000000000E+00  0.00000000000E+00  0.20644302482E+01  0.20644364004E+01  0.50400000000E-02 0.  1.
          2   -1    0    0  501    0  0.00000000000E+00 -0.00000000000E+00 -0.81222055697E+03  0.81222055698E+03  0.25500000000E-02 0. -1.
         24    2    1    2    0    0 -0.44408920985E-15  0.00000000000E+00 -0.81015612673E+03  0.81428499338E+03  0.81896891088E+02 0.  0.
         66    2    3    3    0    0 -0.39836536625E+01 -0.95754002200E+01 -0.79893515549E+03  0.79900496899E+03  0.20000005056E+01 0.  0.
        -13    1    3    3    0    0  0.39836536625E+01  0.95754002200E+01 -0.11220971234E+02  0.15280024389E+02  0.10566000000E+00 0.  1.
         13    1    4    4    0    0 -0.38689275040E+01 -0.73053807480E+01 -0.62046765084E+03  0.62052272649E+03  0.10566000000E+00 0. -1.
        -13    1    4    4    0    0  0.84241175003E-02 -0.51593139809E+00 -0.35015715683E+02  0.35019676826E+02  0.10566000000E+00 0.  1.
         14    1    4    4    0    0 -0.12315027605E+00 -0.17540880740E+01 -0.14345178897E+03  0.14346256567E+03  0.00000000000E+00 0. -1.
<mgrwt>
<rscale>  0 0.81896891E+02</rscale>
<asrwt>0</asrwt>
<pdfrwt beam="1">  1        2 0.12495675E+00 0.81896891E+02</pdfrwt>
<pdfrwt beam="2">  1       -1 0.31760578E-03 0.81896891E+02</pdfrwt>
<totfact> 0.32416673E+05</totfact>
</mgrwt>
</event>
<event>
 8    1  0.2676873E-016  0.7136591E+02  0.7818608E-02  0.1355509E+00
          2   -1    0    0  501    0  0.00000000000E+00  0.00000000000E+00  0.12720358841E+03  0.12720358843E+03  0.25500000000E-02 0. -1.
         -1   -1    0    0    0  501 -0.00000000000E+00 -0.00000000000E+00 -0.10009726514E+02  0.10009727783E+02  0.50400000000E-02 0.  1.
         24    2    1    2    0    0  0.00000000000E+00 -0.88817841970E-15  0.11719386189E+03  0.13721331622E+03  0.71365908398E+02 0.  0.
         66    2    3    3    0    0 -0.17260526541E+02  0.56129470800E+01  0.11764845220E+03  0.11905708401E+03  0.19999994593E+01 0.  0.
        -13    1    3    3    0    0  0.17260526541E+02 -0.56129470800E+01 -0.45459030435E+00  0.18156232203E+02  0.10566000000E+00 0.  1.
         13    1    4    4    0    0 -0.18938474141E+01  0.43357813878E+00  0.11901343496E+02  0.12059344471E+02  0.10566000000E+00 0. -1.
        -13    1    4    4    0    0 -0.65315782152E+01  0.23877104331E+01  0.39847882922E+02  0.40450310413E+02  0.10566000000E+00 0.  1.
         14    1    4    4    0    0 -0.88351009121E+01  0.27916585081E+01  0.65899225781E+02  0.66547429131E+02  0.00000000000E+00 0. -1.
<mgrwt>
<rscale>  0 0.71365908E+02</rscale>
<asrwt>0</asrwt>
<pdfrwt beam="1">  1        2 0.19569782E-01 0.71365908E+02</pdfrwt>
<pdfrwt beam="2">  1       -1 0.15399581E-02 0.71365908E+02</pdfrwt>
<totfact> 0.25722348E+05</totfact>
</mgrwt>
</event>
<event>
 8    1  0.2676873E-016  0.7565111E+02  0.7818608E-02  0.1341867E+00
          2   -1    0    0  501    0  0.00000000000E+00  0.00000000000E+00  0.28037270408E+03  0.28037270409E+03  0.25500000000E-02 0. -1.
         -1   -1    0    0    0  501 -0.00000000000E+00 -0.00000000000E+00 -0.51031088306E+01  0.51031113195E+01  0.50400000000E-02 0.  1.
         24    2    1    2    0    0  0.35527136788E-14  0.00000000000E+00  0.27526959525E+03  0.28547581541E+03  0.75651114439E+02 0.  0.
         66    2    3    3    0    0  0.27146604977E+02  0.10103490273E+01  0.23691274816E+03  0.23847349792E+03  0.20000004111E+01 0.  0.
        -13    1    3    3    0    0 -0.27146604977E+02 -0.10103490273E+01  0.38356847085E+02  0.47002317488E+02  0.10566000000E+00 0.  1.
         13    1    4    4    0    0  0.19918854522E+02  0.11867344874E+01  0.17127463193E+03  0.17243311692E+03  0.10566000000E+00 0. -1.
        -13    1    4    4    0    0  0.79342820334E+00  0.12977701051E+00  0.57662950720E+01  0.58230312793E+01  0.10566000000E+00 0.  1.
         14    1    4    4    0    0  0.64343222515E+01 -0.30616247062E+00  0.59871821159E+02  0.60217349719E+02  0.00000000000E+00 0. -1.
<mgrwt>
<rscale>  0 0.75651114E+02</rscale>
<asrwt>0</asrwt>
<pdfrwt beam="1">  1        2 0.43134252E-01 0.75651114E+02</pdfrwt>
<pdfrwt beam="2">  1       -1 0.78509405E-03 0.75651114E+02</pdfrwt>
<totfact> 0.28795614E+05</totfact>
</mgrwt>
</event>
<event>
 8    1  0.2676873E-016  0.7680419E+02  0.7818608E-02  0.1338373E+00
          2   -1    0    0  501    0  0.00000000000E+00  0.00000000000E+00  0.57722606670E+02  0.57722606726E+02  0.25500000000E-02 0. -1.
         -1   -1    0    0    0  501 -0.00000000000E+00 -0.00000000000E+00 -0.25548407838E+02  0.25548408335E+02  0.50400000000E-02 0.  1.
         24    2    1    2    0    0 -0.35527136788E-14  0.35527136788E-14  0.32174198832E+02  0.83271015061E+02  0.76804185295E+02 0.  0.
         66    2    3    3    0    0  0.22950702551E+02 -0.29747392417E+02  0.24570956232E+02  0.44937445370E+02  0.20000007726E+01 0.  0.
        -13    1    3    3    0    0 -0.22950702551E+02  0.29747392417E+02  0.76032426001E+01  0.38333569691E+02  0.10566000000E+00 0.  1.
         13    1    4    4    0    0  0.14889838819E+02 -0.20117839445E+02  0.15954808089E+02  0.29681674973E+02  0.10566000000E+00 0. -1.
        -13    1    4    4    0    0  0.53530358430E+01 -0.63754951810E+01  0.51997836678E+01  0.98158466658E+01  0.10566000000E+00 0.  1.
         14    1    4    4    0    0  0.27078278883E+01 -0.32540577904E+01  0.34163644754E+01  0.54399237315E+01  0.00000000000E+00 0. -1.
<mgrwt>
<rscale>  0 0.76804185E+02</rscale>
<asrwt>0</asrwt>
<pdfrwt beam="1">  1        2 0.88804010E-02 0.76804185E+02</pdfrwt>
<pdfrwt beam="2">  1       -1 0.39305243E-02 0.76804185E+02</pdfrwt>
<totfact> 0.17235685E+05</totfact>
</mgrwt>
</event>
<event>
 8    1  0.2676873E-016  0.7893639E+02  0.7818608E-02  0.1332097E+00
          2   -1    0    0  501    0  0.00000000000E+00  0.00000000000E+00  0.15931887539E+03  0.15931887541E+03  0.25500000000E-02 0. -1.
         -1   -1    0    0    0  501 -0.00000000000E+00 -0.00000000000E+00 -0.97774876821E+01  0.97774889811E+01  0.50400000000E-02 0.  1.
         24    2    1    2    0    0  0.00000000000E+00  0.00000000000E+00  0.14954138770E+03  0.16909636439E+03  0.78936390928E+02 0.  0.
         66    2    3    3    0    0 -0.37098509745E+02 -0.45650121686E+01  0.10179604105E+03  0.10846000522E+03  0.19999996844E+01 0.  0.
        -13    1    3    3    0    0  0.37098509745E+02  0.45650121686E+01  0.47745346659E+02  0.60636359167E+02  0.10566000000E+00 0.  1.
         13    1    4    4    0    0 -0.24827871717E+02 -0.24264199787E+01  0.65975859040E+02  0.70534643034E+02  0.10566000000E+00 0. -1.
        -13    1    4    4    0    0 -0.44431604184E+01 -0.76289799465E+00  0.13367632752E+02  0.14107744585E+02  0.10566000000E+00 0.  1.
         14    1    4    4    0    0 -0.78274776096E+01 -0.13756941952E+01  0.22452549254E+02  0.23817617602E+02  0.00000000000E+00 0. -1.
<mgrwt>
<rscale>  0 0.78936391E+02</rscale>
<asrwt>0</asrwt>
<pdfrwt beam="1">  1        2 0.24510596E-01 0.78936391E+02</pdfrwt>
<pdfrwt beam="2">  1       -1 0.15042290E-02 0.78936391E+02</pdfrwt>
<totfact> 0.21163284E+05</totfact>
</mgrwt>
</event>
<event>
 8    1  0.2676873E-016  0.8923917E+02  0.7818608E-02  0.1304705E+00
          2   -1    0    0  501    0  0.00000000000E+00  0.00000000000E+00  0.37777322043E+02  0.37777322130E+02  0.25500000000E-02 0. -1.
         -1   -1    0    0    0  501 -0.00000000000E+00 -0.00000000000E+00 -0.52701125241E+02  0.52701125482E+02  0.50400000000E-02 0.  1.
         24    2    1    2    0    0  0.17763568394E-14  0.00000000000E+00 -0.14923803198E+02  0.90478447612E+02  0.89239170661E+02 0.  0.
         66    2    3    3    0    0  0.13751191292E+02  0.39507300424E+02  0.82080285013E+01  0.42676618666E+02  0.20000000244E+01 0.  0.
        -13    1    3    3    0    0 -0.13751191292E+02 -0.39507300424E+02 -0.23131831699E+02  0.47801828946E+02  0.10566000000E+00 0.  1.
         13    1    4    4    0    0  0.33142732025E+01  0.10457883295E+02  0.28603926096E+01  0.11337757265E+02  0.10566000000E+00 0. -1.
        -13    1    4    4    0    0  0.33921854572E+00  0.11075187648E+01  0.31642940170E+00  0.12053873394E+01  0.10566000000E+00 0.  1.
         14    1    4    4    0    0  0.10097699544E+02  0.27941898364E+02  0.50312064900E+01  0.30133474062E+02  0.00000000000E+00 0. -1.
<mgrwt>
<rscale>  0 0.89239171E+02</rscale>
<asrwt>0</asrwt>
<pdfrwt beam="1">  1        2 0.58118958E-02 0.89239171E+02</pdfrwt>
<pdfrwt beam="2">  1       -1 0.81078654E-02 0.89239171E+02</pdfrwt>
<totfact> 0.10379612E+05</totfact>
</mgrwt>
</event>
<event>
 8    1  0.2676873E-016  0.7937780E+02  0.7818608E-02  0.1330826E+00
         -1   -1    0    0    0  501 -0.00000000000E+00  0.00000000000E+00  0.26862056902E+01  0.26862104183E+01  0.50400000000E-02 0.  1.
          2   -1    0    0  501    0  0.00000000000E+00 -0.00000000000E+00 -0.58640607292E+03  0.58640607292E+03  0.25500000000E-02 0. -1.
         24    2    1    2    0    0  0.00000000000E+00  0.00000000000E+00 -0.58371986723E+03  0.58909228334E+03  0.79377798511E+02 0.  0.
         66    2    3    3    0    0 -0.14933566853E+02  0.62170536118E+01 -0.56081121068E+03  0.56104801684E+03  0.20000015073E+01 0.  0.
        -13    1    3    3    0    0  0.14933566853E+02 -0.62170536118E+01 -0.22908656551E+02  0.28044266501E+02  0.10566000000E+00 0.  1.
         13    1    4    4    0    0 -0.52474128793E+01  0.17930325884E+01 -0.20241039012E+03  0.20248636373E+03  0.10566000000E+00 0. -1.
        -13    1    4    4    0    0 -0.62549995950E+01  0.29925860555E+01 -0.21089166105E+03  0.21100565029E+03  0.10566000000E+00 0.  1.
        -14    1    4    4    0    0 -0.34311543785E+01  0.14314349679E+01 -0.14750915951E+03  0.14755600281E+03  0.00000000000E+00 0.  1.
<mgrwt>
<rscale>  0 0.79377799E+02</rscale>
<asrwt>0</asrwt>
<pdfrwt beam="1">  1        2 0.90216217E-01 0.79377799E+02</pdfrwt>
<pdfrwt beam="2">  1       -1 0.41326325E-03 0.79377799E+02</pdfrwt>
<totfact> 0.32612528E+05</totfact>
</mgrwt>
</event>
<event>
 8    1  0.2676873E-016  0.8595401E+02  0.7818608E-02  0.1312956E+00
          2   -1    0    0  501    0  0.00000000000E+00  0.00000000000E+00  0.45795276152E+03  0.45795276152E+03  0.25500000000E-02 0. -1.
         -1   -1    0    0    0  501 -0.00000000000E+00 -0.00000000000E+00 -0.40332154924E+01  0.40332186415E+01  0.50400000000E-02 0.  1.
         24    2    1    2    0    0 -0.44408920985E-15  0.00000000000E+00  0.45391954602E+03  0.46198598016E+03  0.85954008669E+02 0.  0.
         66    2    3    3    0    0 -0.36176395554E+01  0.17739500150E+02  0.43644047183E+03  0.43682040089E+03  0.20000003656E+01 0.  0.
        -13    1    3    3    0    0  0.36176395554E+01 -0.17739500150E+02  0.17479074195E+02  0.25165579276E+02  0.10566000000E+00 0.  1.
         13    1    4    4    0    0 -0.48564799502E+00  0.38666102798E+01  0.90162367711E+02  0.90246607938E+02  0.10566000000E+00 0. -1.
        -13    1    4    4    0    0 -0.25119468824E+01  0.81277618829E+01  0.19564637149E+03  0.19583126469E+03  0.10566000000E+00 0.  1.
        -14    1    4    4    0    0 -0.62004467799E+00  0.57451279872E+01  0.15063173263E+03  0.15074252826E+03  0.00000000000E+00 0.  1.
<mgrwt>
<rscale>  0 0.85954009E+02</rscale>
<asrwt>0</asrwt>
<pdfrwt beam="1">  1        2 0.70454268E-01 0.85954009E+02</pdfrwt>
<pdfrwt beam="2">  1       -1 0.62049497E-03 0.85954009E+02</pdfrwt>
<totfact> 0.24522130E+05</totfact>
</mgrwt>
</event>
<event>
 8    1  0.2676873E-016  0.7565028E+02  0.7818608E-02  0.1341869E+00
          2   -1    0    0  501    0  0.00000000000E+00  0.00000000000E+00  0.49833509552E+02  0.49833509617E+02  0.25500000000E-02 0. -1.
         -1   -1    0    0    0  501 -0.00000000000E+00 -0.00000000000E+00 -0.28710421284E+02  0.28710421726E+02  0.50400000000E-02 0.  1.
         24    2    1    2    0    0  0.35527136788E-14  0.00000000000E+00  0.21123088268E+02  0.78543931343E+02  0.75650276225E+02 0.  0.
         66    2    3    3    0    0 -0.30309927675E+02  0.96518272038E+01  0.31767698612E+02  0.45000401752E+02  0.19999996650E+01 0.  0.
        -13    1    3    3    0    0  0.30309927675E+02 -0.96518272038E+01 -0.10644610344E+02  0.33543529592E+02  0.10566000000E+00 0.  1.
         13    1    4    4    0    0 -0.32859950138E+01  0.85823256153E+00  0.28630968261E+01  0.44432886280E+01  0.10566000000E+00 0.  1.
        -13    1    4    4    0    0 -0.57285276854E+01  0.16353234736E+01  0.53762495681E+01  0.80253059605E+01  0.10566000000E+00 0. -1.
         14    1    4    4    0    0 -0.21295404976E+02  0.71582711687E+01  0.23528352218E+02  0.32531807163E+02  0.00000000000E+00 0. -1.
<mgrwt>
<rscale>  0 0.75650276E+02</rscale>
<asrwt>0</asrwt>
<pdfrwt beam="1">  1        2 0.76666937E-02 0.75650276E+02</pdfrwt>
<pdfrwt beam="2">  1       -1 0.44169880E-02 0.75650276E+02</pdfrwt>
<totfact> 0.17393042E+05</totfact>
</mgrwt>
</event>
<event>
 8    1  0.2676873E-016  0.7939943E+02  0.7818608E-02  0.1330764E+00
         -1   -1    0    0    0  501 -0.00000000000E+00  0.00000000000E+00  0.23227961607E+01  0.23228016285E+01  0.50400000000E-02 0.  1.
          2   -1    0    0  501    0  0.00000000000E+00 -0.00000000000E+00 -0.67852085355E+03  0.67852085355E+03  0.25500000000E-02 0. -1.
         24    2    1    2    0    0 -0.35527136788E-14  0.00000000000E+00 -0.67619805739E+03  0.68084365518E+03  0.79399433161E+02 0.  0.
         66    2    3    3    0    0  0.27866526130E+02 -0.24788871046E+02 -0.45432216212E+03  0.45585486553E+03  0.20000057892E+01 0.  0.
        -13    1    3    3    0    0 -0.27866526130E+02  0.24788871046E+02 -0.22187589526E+03  0.22498878965E+03  0.10566000000E+00 0.  1.
         13    1    4    4    0    0  0.49946701576E+01 -0.40275795078E+01 -0.81742657650E+02  0.81994154490E+02  0.10566000000E+00 0. -1.
        -13    1    4    4    0    0  0.16820016983E+01 -0.20149273335E+01 -0.29658757373E+02  0.29774857091E+02  0.10566000000E+00 0.  1.
         14    1    4    4    0    0  0.21189854274E+02 -0.18746364205E+02 -0.34292074710E+03  0.34408585395E+03  0.00000000000E+00 0. -1.
<mgrwt>
<rscale>  0 0.79399433E+02</rscale>
<asrwt>0</asrwt>
<pdfrwt beam="1">  1        2 0.10438767E+00 0.79399433E+02</pdfrwt>
<pdfrwt beam="2">  1       -1 0.35735422E-03 0.79399433E+02</pdfrwt>
<totfact> 0.33864909E+05</totfact>
</mgrwt>
</event>
<event>
 8    1  0.2676873E-016  0.8157044E+02  0.7818608E-02  0.1324653E+00
          2   -1    0    0  501    0  0.00000000000E+00  0.00000000000E+00  0.46588729013E+03  0.46588729014E+03  0.25500000000E-02 0. -1.
         -1   -1    0    0    0  501 -0.00000000000E+00 -0.00000000000E+00 -0.35704629384E+01  0.35704664956E+01  0.50400000000E-02 0.  1.
         24    2    1    2    0    0  0.00000000000E+00 -0.35527136788E-14  0.46231682719E+03  0.46945775663E+03  0.81570439241E+02 0.  0.
         66    2    3    3    0    0 -0.20979803367E+02  0.27061302994E+02  0.35855984858E+03  0.36019665631E+03  0.19999834991E+01 0.  0.
        -13    1    3    3    0    0  0.20979803367E+02 -0.27061302994E+02  0.10375697861E+03  0.10926110032E+03  0.10566000000E+00 0.  1.
         13    1    4    4    0    0 -0.14693220078E+02  0.17945805394E+02  0.24284255143E+03  0.24394765544E+03  0.10566000000E+00 0. -1.
        -13    1    4    4    0    0 -0.50600775180E+01  0.69368785443E+01  0.86701084401E+02  0.87125276865E+02  0.10566000000E+00 0.  1.
         14    1    4    4    0    0 -0.12265057705E+01  0.21786190555E+01  0.29016212753E+02  0.29123724005E+02  0.00000000000E+00 0. -1.
<mgrwt>
<rscale>  0 0.81570439E+02</rscale>
<asrwt>0</asrwt>
<pdfrwt beam="1">  1        2 0.71674917E-01 0.81570439E+02</pdfrwt>
<pdfrwt beam="2">  1       -1 0.54930265E-03 0.81570439E+02</pdfrwt>
<totfact> 0.28287863E+05</totfact>
</mgrwt>
</event>
<event>
 8    1  0.2676873E-016  0.8800757E+02  0.7818608E-02  0.1307750E+00
          2   -1    0    0  501    0  0.00000000000E+00  0.00000000000E+00  0.35824944417E+03  0.35824944418E+03  0.25500000000E-02 0. -1.
         -1   -1    0    0    0  501 -0.00000000000E+00 -0.00000000000E+00 -0.54049840122E+01  0.54049863620E+01  0.50400000000E-02 0.  1.
         24    2    1    2    0    0  0.00000000000E+00 -0.71054273576E-14  0.35284446016E+03  0.36365443054E+03  0.88007566653E+02 0.  0.
         66    2    3    3    0    0  0.13760788618E+02  0.41772085345E+02  0.17548867363E+03  0.18092689404E+03  0.19999991190E+01 0.  0.
        -13    1    3    3    0    0 -0.13760788618E+02 -0.41772085345E+02  0.17735578653E+03  0.18272753650E+03  0.10566000000E+00 0.  1.
         13    1    4    4    0    0  0.52796769251E+01  0.15602597183E+02  0.66248921100E+02  0.68265999870E+02  0.10566000000E+00 0. -1.
        -13    1    4    4    0    0  0.35288086694E+01  0.13197658065E+02  0.52998607208E+02  0.54731108148E+02  0.10566000000E+00 0.  1.
         14    1    4    4    0    0  0.49523030235E+01  0.12971830097E+02  0.56241145323E+02  0.57929786022E+02  0.00000000000E+00 0. -1.
<mgrwt>
<rscale>  0 0.88007567E+02</rscale>
<asrwt>0</asrwt>
<pdfrwt beam="1">  1        2 0.55115308E-01 0.88007567E+02</pdfrwt>
<pdfrwt beam="2">  1       -1 0.83153605E-03 0.88007567E+02</pdfrwt>
<totfact> 0.21148532E+05</totfact>
</mgrwt>
</event>
<event>
 8    1  0.2676873E-016  0.8073578E+02  0.7818608E-02  0.1326976E+00
         -1   -1    0    0    0  501 -0.00000000000E+00  0.00000000000E+00  0.37881306840E+01  0.37881340368E+01  0.50400000000E-02 0.  1.
          2   -1    0    0  501    0  0.00000000000E+00 -0.00000000000E+00 -0.43017675038E+03  0.43017675039E+03  0.25500000000E-02 0. -1.
         24    2    1    2    0    0  0.00000000000E+00  0.35527136788E-14 -0.42638861970E+03  0.43396488443E+03  0.80735778359E+02 0.  0.
         66    2    3    3    0    0 -0.10098987240E+02 -0.27823151152E+02 -0.36067029051E+03  0.36188834706E+03  0.19999998145E+01 0.  0.
        -13    1    3    3    0    0  0.10098987240E+02  0.27823151152E+02 -0.65718329196E+02  0.72076537372E+02  0.10566000000E+00 0.  1.
         13    1    4    4    0    0 -0.58964758061E+01 -0.16047992142E+02 -0.19970915838E+03  0.20043968066E+03  0.10566000000E+00 0. -1.
        -13    1    4    4    0    0 -0.24797150114E+00 -0.11466653830E+01 -0.12735068497E+02  0.12789427861E+02  0.10566000000E+00 0.  1.
         14    1    4    4    0    0 -0.39545399327E+01 -0.10628493627E+02 -0.14822606363E+03  0.14865923854E+03  0.00000000000E+00 0. -1.
<mgrwt>
<rscale>  0 0.80735778E+02</rscale>
<asrwt>0</asrwt>
<pdfrwt beam="1">  1        2 0.66181000E-01 0.80735778E+02</pdfrwt>
<pdfrwt beam="2">  1       -1 0.58278994E-03 0.80735778E+02</pdfrwt>
<totfact> 0.28288601E+05</totfact>
</mgrwt>
</event>
<event>
 8    1  0.2676873E-016  0.8034040E+02  0.7818608E-02  0.1328088E+00
          2   -1    0    0  501    0  0.00000000000E+00  0.00000000000E+00  0.46246332722E+03  0.46246332723E+03  0.25500000000E-02 0. -1.
         -1   -1    0    0    0  501 -0.00000000000E+00 -0.00000000000E+00 -0.34892373228E+01  0.34892409628E+01  0.50400000000E-02 0.  1.
         24    2    1    2    0    0  0.35527136788E-14  0.17763568394E-14  0.45897408990E+03  0.46595256819E+03  0.80340404566E+02 0.  0.
         66    2    3    3    0    0  0.20481198756E+02  0.58614135807E+01  0.42697349524E+03  0.42750929968E+03  0.20000000240E+01 0.  0.
        -13    1    3    3    0    0 -0.20481198756E+02 -0.58614135807E+01  0.32000594659E+02  0.38443268516E+02  0.10566000000E+00 0.  1.
         13    1    4    4    0    0  0.48303828782E+01  0.14598040389E+01  0.95184847404E+02  0.95318570939E+02  0.10566000000E+00 0. -1.
        -13    1    4    4    0    0  0.22983730368E+01  0.59439939244E+00  0.61144196426E+02  0.61190356673E+02  0.10566000000E+00 0.  1.
         14    1    4    4    0    0  0.13352442841E+02  0.38072101494E+01  0.27064445141E+03  0.27100037207E+03  0.00000000000E+00 0. -1.
<mgrwt>
<rscale>  0 0.80340405E+02</rscale>
<asrwt>0</asrwt>
<pdfrwt beam="1">  1        2 0.71148164E-01 0.80340405E+02</pdfrwt>
<pdfrwt beam="2">  1       -1 0.53680633E-03 0.80340405E+02</pdfrwt>
<totfact> 0.29360857E+05</totfact>
</mgrwt>
</event>
<event>
 8    1  0.2676873E-016  0.7944097E+02  0.7818608E-02  0.1330645E+00
         -1   -1    0    0    0  501 -0.00000000000E+00  0.00000000000E+00  0.20764144600E+01  0.20764205767E+01  0.50400000000E-02 0.  1.
          2   -1    0    0  501    0  0.00000000000E+00 -0.00000000000E+00 -0.75982639346E+03  0.75982639347E+03  0.25500000000E-02 0. -1.
         24    2    1    2    0    0  0.00000000000E+00  0.00000000000E+00 -0.75774997900E+03  0.76190281405E+03  0.79440967826E+02 0.  0.
         66    2    3    3    0    0  0.12808831513E+02 -0.20562932867E+02 -0.68070089955E+03  0.68113479945E+03  0.20000002525E+01 0.  0.
        -13    1    3    3    0    0 -0.12808831513E+02  0.20562932867E+02 -0.77049079450E+02  0.80768014591E+02  0.10566000000E+00 0.  1.
         13    1    4    4    0    0  0.22940946277E+01 -0.36670648823E+01 -0.12826827200E+03  0.12834122876E+03  0.10566000000E+00 0.  1.
        -13    1    4    4    0    0  0.78501857352E+01 -0.11256142372E+02 -0.37080966134E+03  0.37106352861E+03  0.10566000000E+00 0. -1.
        -14    1    4    4    0    0  0.26645511504E+01 -0.56397256125E+01 -0.18162296622E+03  0.18173004209E+03  0.00000000000E+00 0.  1.
<mgrwt>
<rscale>  0 0.79440968E+02</rscale>
<asrwt>0</asrwt>
<pdfrwt beam="1">  1        2 0.11689615E+00 0.79440968E+02</pdfrwt>
<pdfrwt beam="2">  1       -1 0.31944946E-03 0.79440968E+02</pdfrwt>
<totfact> 0.34666438E+05</totfact>
</mgrwt>
</event>
<event>
 8    1  0.2676873E-016  0.7714938E+02  0.7818608E-02  0.1337341E+00
          2   -1    0    0  501    0  0.00000000000E+00  0.00000000000E+00  0.96340212138E+02  0.96340212171E+02  0.25500000000E-02 0. -1.
         -1   -1    0    0    0  501 -0.00000000000E+00 -0.00000000000E+00 -0.15445331522E+02  0.15445332344E+02  0.50400000000E-02 0.  1.
         24    2    1    2    0    0  0.00000000000E+00  0.00000000000E+00  0.80894880616E+02  0.11178554452E+03  0.77149376230E+02 0.  0.
         66    2    3    3    0    0 -0.84782125309E+01 -0.21763155898E+02  0.84909991974E+02  0.88086444836E+02  0.19999961502E+01 0.  0.
        -13    1    3    3    0    0  0.84782125309E+01  0.21763155898E+02 -0.40151113576E+01  0.23699099679E+02  0.10566000000E+00 0.  1.
         13    1    4    4    0    0 -0.29792542718E+01 -0.78497790534E+01  0.28866478627E+02  0.30062929657E+02  0.10566000000E+00 0. -1.
        -13    1    4    4    0    0 -0.26118284324E+01 -0.50933934725E+01  0.19846088458E+02  0.20655330933E+02  0.10566000000E+00 0.  1.
         14    1    4    4    0    0 -0.28871298267E+01 -0.88199833717E+01  0.36197424889E+02  0.37368184246E+02  0.00000000000E+00 0. -1.
<mgrwt>
<rscale>  0 0.77149376E+02</rscale>
<asrwt>0</asrwt>
<pdfrwt beam="1">  1        2 0.14821571E-01 0.77149376E+02</pdfrwt>
<pdfrwt beam="2">  1       -1 0.23762049E-02 0.77149376E+02</pdfrwt>
<totfact> 0.19331651E+05</totfact>
</mgrwt>
</event>
<event>
 8    1  0.2676873E-016  0.8011269E+02  0.7818608E-02  0.1328732E+00
         -1   -1    0    0    0  501 -0.00000000000E+00  0.00000000000E+00  0.27176605369E+02  0.27176605836E+02  0.50400000000E-02 0.  1.
          2   -1    0    0  501    0  0.00000000000E+00 -0.00000000000E+00 -0.59040147504E+02  0.59040147559E+02  0.25500000000E-02 0. -1.
         24    2    1    2    0    0 -0.35527136788E-14  0.71054273576E-14 -0.31863542135E+02  0.86216753395E+02  0.80112690933E+02 0.  0.
         66    2    3    3    0    0 -0.22228313134E+02  0.29801905911E+02 -0.31913425856E+02  0.49037926717E+02  0.20000015336E+01 0.  0.
        -13    1    3    3    0    0  0.22228313134E+02 -0.29801905911E+02  0.49883721570E-01  0.37178826678E+02  0.10566000000E+00 0.  1.
         13    1    4    4    0    0 -0.32425256764E+01  0.37194655995E+01 -0.46347648962E+01  0.67705691627E+01  0.10566000000E+00 0. -1.
        -13    1    4    4    0    0 -0.91936208870E+01  0.11726746109E+02 -0.12137218377E+02  0.19218805199E+02  0.10566000000E+00 0.  1.
        -14    1    4    4    0    0 -0.97921665706E+01  0.14355694203E+02 -0.15141442583E+02  0.23048552356E+02  0.00000000000E+00 0.  1.
<mgrwt>
<rscale>  0 0.80112691E+02</rscale>
<asrwt>0</asrwt>
<pdfrwt beam="1">  1        2 0.90830996E-02 0.80112691E+02</pdfrwt>
<pdfrwt beam="2">  1       -1 0.41810163E-02 0.80112691E+02</pdfrwt>
<totfact> 0.15449170E+05</totfact>
</mgrwt>
</event>
<event>
 8    1  0.2676873E-016  0.7940194E+02  0.7818608E-02  0.1330757E+00
         -1   -1    0    0    0  501 -0.00000000000E+00  0.00000000000E+00  0.35479661820E+01  0.35479697618E+01  0.50400000000E-02 0.  1.
          2   -1    0    0  501    0  0.00000000000E+00 -0.00000000000E+00 -0.44424497083E+03  0.44424497084E+03  0.25500000000E-02 0. -1.
         24    2    1    2    0    0  0.00000000000E+00  0.00000000000E+00 -0.44069700465E+03  0.44779294060E+03  0.79401937915E+02 0.  0.
         66    2    3    3    0    0 -0.12224695729E+02 -0.83664890064E+01 -0.42806098677E+03  0.42832189964E+03  0.19999994433E+01 0.  0.
        -13    1    3    3    0    0  0.12224695729E+02  0.83664890064E+01 -0.12636017879E+02  0.19471040955E+02  0.10566000000E+00 0.  1.
         13    1    4    4    0    0 -0.51460530637E+01 -0.30448412572E+01 -0.15861166852E+03  0.15872436951E+03  0.10566000000E+00 0. -1.
        -13    1    4    4    0    0 -0.23916580104E+01 -0.24000887232E+01 -0.11252389635E+03  0.11257494779E+03  0.10566000000E+00 0.  1.
        -14    1    4    4    0    0 -0.46869846554E+01 -0.29215590259E+01 -0.15692542189E+03  0.15702258235E+03  0.00000000000E+00 0.  1.
<mgrwt>
<rscale>  0 0.79401938E+02</rscale>
<asrwt>0</asrwt>
<pdfrwt beam="1">  1        2 0.68345336E-01 0.79401938E+02</pdfrwt>
<pdfrwt beam="2">  1       -1 0.54584158E-03 0.79401938E+02</pdfrwt>
<totfact> 0.29870282E+05</totfact>
</mgrwt>
</event>
<event>
 8    1  0.2676873E-016  0.7804737E+02  0.7818608E-02  0.1334686E+00
         -1   -1    0    0    0  501 -0.00000000000E+00  0.00000000000E+00  0.11235439091E+02  0.11235440221E+02  0.50400000000E-02 0.  1.
          2   -1    0    0  501    0  0.00000000000E+00 -0.00000000000E+00 -0.13553968890E+03  0.13553968892E+03  0.25500000000E-02 0. -1.
         24    2    1    2    0    0  0.00000000000E+00 -0.35527136788E-14 -0.12430424981E+03  0.14677512914E+03  0.78047370328E+02 0.  0.
         66    2    3    3    0    0 -0.24706482476E+02  0.24290467574E+02 -0.95855179353E+02  0.10194435997E+03  0.20000072220E+01 0.  0.
        -13    1    3    3    0    0  0.24706482476E+02 -0.24290467574E+02 -0.28449070455E+02  0.44830769178E+02  0.10566000000E+00 0.  1.
         13    1    4    4    0    0 -0.67290880389E+01  0.73308611198E+01 -0.28117907694E+02  0.29827001990E+02  0.10566000000E+00 0. -1.
        -13    1    4    4    0    0 -0.94853200826E+00  0.12982456532E+01 -0.47068889386E+01  0.49750499759E+01  0.10566000000E+00 0.  1.
        -14    1    4    4    0    0 -0.17028862429E+02  0.15661360801E+02 -0.63030382721E+02  0.67142308001E+02  0.00000000000E+00 0.  1.
<mgrwt>
<rscale>  0 0.78047370E+02</rscale>
<asrwt>0</asrwt>
<pdfrwt beam="1">  1        2 0.20852259E-01 0.78047370E+02</pdfrwt>
<pdfrwt beam="2">  1       -1 0.17285293E-02 0.78047370E+02</pdfrwt>
<totfact> 0.20711445E+05</totfact>
</mgrwt>
</event>
<event>
 8    1  0.2676873E-016  0.7991820E+02  0.7818608E-02  0.1329284E+00
          2   -1    0    0  501    0  0.00000000000E+00  0.00000000000E+00  0.30442396159E+02  0.30442396266E+02  0.25500000000E-02 0. -1.
         -1   -1    0    0    0  501 -0.00000000000E+00 -0.00000000000E+00 -0.52450852777E+02  0.52450853019E+02  0.50400000000E-02 0.  1.
         24    2    1    2    0    0  0.00000000000E+00  0.00000000000E+00 -0.22008456618E+02  0.82893249285E+02  0.79918199519E+02 0.  0.
         66    2    3    3    0    0 -0.38234439394E+02 -0.21300104947E+01  0.73822247698E+00  0.38353021688E+02  0.19999999237E+01 0.  0.
        -13    1    3    3    0    0  0.38234439394E+02  0.21300104947E+01 -0.22746679095E+02  0.44540227597E+02  0.10566000000E+00 0.  1.
         13    1    4    4    0    0 -0.11231866647E+02 -0.10235022029E+01 -0.28695290260E+00  0.11282548078E+02  0.10566000000E+00 0. -1.
        -13    1    4    4    0    0 -0.16760454441E+02 -0.59611051839E+00  0.11988173001E+01  0.16814175798E+02  0.10566000000E+00 0. -1.
        -14    1    4    4    0    0 -0.10242118307E+02 -0.51039777337E+00 -0.17364192053E+00  0.10256297813E+02  0.00000000000E+00 0.  1.
<mgrwt>
<rscale>  0 0.79918200E+02</rscale>
<asrwt>0</asrwt>
<pdfrwt beam="1">  1        2 0.46834456E-02 0.79918200E+02</pdfrwt>
<pdfrwt beam="2">  1       -1 0.80693620E-02 0.79918200E+02</pdfrwt>
<totfact> 0.13532895E+05</totfact>
</mgrwt>
</event>
<event>
 8    1  0.2676873E-016  0.8232945E+02  0.7818608E-02  0.1322568E+00
         -1   -1    0    0    0  501 -0.00000000000E+00  0.00000000000E+00  0.20003854659E+01  0.20003918151E+01  0.50400000000E-02 0.  1.
          2   -1    0    0  501    0  0.00000000000E+00 -0.00000000000E+00 -0.84710275393E+03  0.84710275393E+03  0.25500000000E-02 0. -1.
         24    2    1    2    0    0  0.00000000000E+00  0.00000000000E+00 -0.84510236846E+03  0.84910314575E+03  0.82329453642E+02 0.  0.
         66    2    3    3    0    0 -0.20983652115E+02  0.24724554058E+02 -0.68389847803E+03  0.68466980763E+03  0.20000001119E+01 0.  0.
        -13    1    3    3    0    0  0.20983652115E+02 -0.24724554058E+02 -0.16120389044E+03  0.16443333812E+03  0.10566000000E+00 0.  1.
         13    1    4    4    0    0 -0.64432230138E+01  0.66533953416E+01 -0.18324558717E+03  0.18347953339E+03  0.10566000000E+00 0. -1.
        -13    1    4    4    0    0 -0.10871513381E+02  0.13917252253E+02 -0.38207788455E+03  0.38248581769E+03  0.10566000000E+00 0.  1.
         14    1    4    4    0    0 -0.36689157209E+01  0.41539064633E+01 -0.11857500631E+03  0.11870445655E+03  0.00000000000E+00 0. -1.
<mgrwt>
<rscale>  0 0.82329454E+02</rscale>
<asrwt>0</asrwt>
<pdfrwt beam="1">  1        2 0.13032321E+00 0.82329454E+02</pdfrwt>
<pdfrwt beam="2">  1       -1 0.30775278E-03 0.82329454E+02</pdfrwt>
<totfact> 0.32183884E+05</totfact>
</mgrwt>
</event>
<event>
 8    1  0.2676873E-016  0.7504246E+02  0.7818608E-02  0.1343740E+00
          2   -1    0    0  501    0  0.00000000000E+00  0.00000000000E+00  0.36788162148E+03  0.36788162149E+03  0.25500000000E-02 0. -1.
         -1   -1    0    0    0  501 -0.00000000000E+00 -0.00000000000E+00 -0.38268890373E+01  0.38268923561E+01  0.50400000000E-02 0.  1.
         24    2    1    2    0    0  0.00000000000E+00  0.00000000000E+00  0.36405473244E+03  0.37170851385E+03  0.75042461653E+02 0.  0.
         66    2    3    3    0    0  0.54128424239E+01 -0.26206206456E+02  0.31224775635E+03  0.31339866857E+03  0.19999993120E+01 0.  0.
        -13    1    3    3    0    0 -0.54128424239E+01  0.26206206456E+02  0.51806976098E+02  0.58309845278E+02  0.10566000000E+00 0.  1.
         13    1    4    4    0    0  0.25352652514E+01 -0.11829730030E+02  0.14049935738E+03  0.14101932729E+03  0.10566000000E+00 0. -1.
        -13    1    4    4    0    0  0.18369446311E+01 -0.77314904904E+01  0.10081848776E+03  0.10113124615E+03  0.10566000000E+00 0.  1.
        -14    1    4    4    0    0  0.10406325413E+01 -0.66449859351E+01  0.70929911215E+02  0.71248095126E+02  0.00000000000E+00 0.  1.
<mgrwt>
<rscale>  0 0.75042462E+02</rscale>
<asrwt>0</asrwt>
<pdfrwt beam="1">  1        2 0.56597179E-01 0.75042462E+02</pdfrwt>
<pdfrwt beam="2">  1       -1 0.58875236E-03 0.75042462E+02</pdfrwt>
<totfact> 0.32408387E+05</totfact>
</mgrwt>
</event>
<event>
 8    1  0.2676873E-016  0.7874708E+02  0.7818608E-02  0.1332645E+00
          2   -1    0    0  501    0  0.00000000000E+00  0.00000000000E+00  0.83432105876E+03  0.83432105876E+03  0.25500000000E-02 0. -1.
         -1   -1    0    0    0  501 -0.00000000000E+00 -0.00000000000E+00 -0.18581249503E+01  0.18581317856E+01  0.50400000000E-02 0.  1.
         24    2    1    2    0    0  0.35527136788E-14  0.00000000000E+00  0.83246293381E+03  0.83617919055E+03  0.78747079571E+02 0.  0.
         66    2    3    3    0    0  0.16761487656E+02 -0.99811294894E+01  0.77935210016E+03  0.77959878556E+03  0.20000001115E+01 0.  0.
        -13    1    3    3    0    0 -0.16761487656E+02  0.99811294894E+01  0.53110833644E+02  0.56580404989E+02  0.10566000000E+00 0.  1.
         13    1    4    4    0    0  0.33536412809E+01 -0.23497866645E+01  0.15780610391E+03  0.15785926011E+03  0.10566000000E+00 0. -1.
        -13    1    4    4    0    0  0.20224537382E+01 -0.56614477388E+00  0.77167381947E+02  0.77196028652E+02  0.10566000000E+00 0.  1.
        -14    1    4    4    0    0  0.11385392637E+02 -0.70651980510E+01  0.54437861430E+03  0.54454349679E+03  0.00000000000E+00 0.  1.
<mgrwt>
<rscale>  0 0.78747080E+02</rscale>
<asrwt>0</asrwt>
<pdfrwt beam="1">  1        2 0.12835719E+00 0.78747080E+02</pdfrwt>
<pdfrwt beam="2">  1       -1 0.28586567E-03 0.78747080E+02</pdfrwt>
<totfact> 0.36047444E+05</totfact>
</mgrwt>
</event>
<event>
 8    1  0.2676873E-016  0.8365914E+02  0.7818608E-02  0.1318977E+00
          2   -1    0    0  501    0  0.00000000000E+00  0.00000000000E+00  0.14428817916E+02  0.14428818141E+02  0.25500000000E-02 0. -1.
         -1   -1    0    0    0  501 -0.00000000000E+00 -0.00000000000E+00 -0.12126515291E+03  0.12126515302E+03  0.50400000000E-02 0.  1.
         24    2    1    2    0    0  0.17763568394E-14  0.00000000000E+00 -0.10683633499E+03  0.13569397116E+03  0.83659137774E+02 0.  0.
         66    2    3    3    0    0 -0.10300923096E+02 -0.35559982867E+02 -0.84945497668E+02  0.92684189466E+02  0.20000011648E+01 0.  0.
        -13    1    3    3    0    0  0.10300923096E+02  0.35559982867E+02 -0.21890837326E+02  0.43009781690E+02  0.10566000000E+00 0.  1.
         13    1    4    4    0    0 -0.47823806467E+01 -0.17878248724E+02 -0.42738119754E+02  0.46573178829E+02  0.10566000000E+00 0. -1.
        -13    1    4    4    0    0 -0.37649687984E+01 -0.13824149951E+02 -0.32873934170E+02  0.35860686326E+02  0.10566000000E+00 0.  1.
        -14    1    4    4    0    0 -0.17535736513E+01 -0.38575841920E+01 -0.93334437444E+01  0.10250324311E+02  0.00000000000E+00 0.  1.
<mgrwt>
<rscale>  0 0.83659138E+02</rscale>
<asrwt>0</asrwt>
<pdfrwt beam="1">  1        2 0.22198182E-02 0.83659138E+02</pdfrwt>
<pdfrwt beam="2">  1       -1 0.18656177E-01 0.83659138E+02</pdfrwt>
<totfact> 0.10150565E+05</totfact>
</mgrwt>
</event>
<event>
 8    1  0.2676873E-016  0.7772356E+02  0.7818608E-02  0.1335639E+00
          2   -1    0    0  501    0  0.00000000000E+00  0.00000000000E+00  0.18662009177E+04  0.18662009177E+04  0.25500000000E-02 0. -1.
         -1   -1    0    0    0  501 -0.00000000000E+00 -0.00000000000E+00 -0.80925016950E+00  0.80926586388E+00  0.50400000000E-02 0.  1.
         24    2    1    2    0    0  0.17763568394E-14  0.00000000000E+00  0.18653916676E+04  0.18670101836E+04  0.77723563001E+02 0.  0.
         66    2    3    3    0    0 -0.10110229350E+02  0.11730687414E+02  0.17888182927E+04  0.17888864442E+04  0.19999916364E+01 0.  0.
        -13    1    3    3    0    0  0.10110229350E+02 -0.11730687414E+02  0.76573374804E+02  0.78123739398E+02  0.10566000000E+00 0.  1.
         13    1    4    4    0    0 -0.27775271861E+01  0.25472193012E+01  0.47762032007E+03  0.47763520001E+03  0.10566000000E+00 0. -1.
        -13    1    4    4    0    0 -0.26602458374E+01  0.31282053505E+01  0.39556919555E+03  0.39559052340E+03  0.10566000000E+00 0.  1.
        -14    1    4    4    0    0 -0.46724563266E+01  0.60552627625E+01  0.91562877713E+03  0.91566072077E+03  0.00000000000E+00 0.  1.
<mgrwt>
<rscale>  0 0.77723563E+02</rscale>
<asrwt>0</asrwt>
<pdfrwt beam="1">  1        2 0.28710961E+00 0.77723563E+02</pdfrwt>
<pdfrwt beam="2">  1       -1 0.12450047E-03 0.77723563E+02</pdfrwt>
<totfact> 0.31729892E+05</totfact>
</mgrwt>
</event>
<event>
 8    1  0.2676873E-016  0.8295660E+02  0.7818608E-02  0.1320864E+00
         -1   -1    0    0    0  501 -0.00000000000E+00  0.00000000000E+00  0.84494510072E+02  0.84494510222E+02  0.50400000000E-02 0.  1.
          2   -1    0    0  501    0  0.00000000000E+00 -0.00000000000E+00 -0.20361668438E+02  0.20361668598E+02  0.25500000000E-02 0. -1.
         24    2    1    2    0    0  0.00000000000E+00  0.00000000000E+00  0.64132841633E+02  0.10485617882E+03  0.82956596246E+02 0.  0.
         66    2    3    3    0    0  0.17154755126E+02  0.37465002133E+02  0.37812451735E+02  0.55961535998E+02  0.19999991890E+01 0.  0.
        -13    1    3    3    0    0 -0.17154755126E+02 -0.37465002133E+02  0.26320389898E+02  0.48894642822E+02  0.10566000000E+00 0.  1.
         13    1    4    4    0    0  0.54561819578E+01  0.12355354301E+02  0.11301620041E+02  0.17611430409E+02  0.10566000000E+00 0. -1.
        -13    1    4    4    0    0  0.10773538863E+02  0.23492222968E+02  0.24588077497E+02  0.35672656176E+02  0.10566000000E+00 0.  1.
         14    1    4    4    0    0  0.92503430576E+00  0.16174248641E+01  0.19227541976E+01  0.26774494135E+01  0.00000000000E+00 0. -1.
<mgrwt>
<rscale>  0 0.82956596E+02</rscale>
<asrwt>0</asrwt>
<pdfrwt beam="1">  1        2 0.31325644E-02 0.82956596E+02</pdfrwt>
<pdfrwt beam="2">  1       -1 0.12999156E-01 0.82956596E+02</pdfrwt>
<totfact> 0.11224377E+05</totfact>
</mgrwt>
</event>
<event>
 8    1  0.2676873E-016  0.7823295E+02  0.7818608E-02  0.1334142E+00
         -1   -1    0    0    0  501 -0.00000000000E+00  0.00000000000E+00  0.88243518096E+01  0.88243532489E+01  0.50400000000E-02 0.  1.
          2   -1    0    0  501    0  0.00000000000E+00 -0.00000000000E+00 -0.17339498677E+03  0.17339498679E+03  0.25500000000E-02 0. -1.
         24    2    1    2    0    0  0.00000000000E+00  0.00000000000E+00 -0.16457063496E+03  0.18221934004E+03  0.78232946975E+02 0.  0.
         66    2    3    3    0    0  0.82700187625E+00  0.17028072220E+02 -0.16427393039E+03  0.16516828807E+03  0.20000001565E+01 0.  0.
        -13    1    3    3    0    0 -0.82700187625E+00 -0.17028072220E+02 -0.29670456668E+00  0.17051051970E+02  0.10566000000E+00 0.  1.
         13    1    4    4    0    0  0.12948239447E+01  0.13193269605E+02 -0.12609572857E+03  0.12679070494E+03  0.10566000000E+00 0. -1.
        -13    1    4    4    0    0 -0.31100217566E+00  0.28031180579E+01 -0.30159188616E+02  0.30290955997E+02  0.10566000000E+00 0.  1.
         14    1    4    4    0    0 -0.15681989277E+00  0.10316845573E+01 -0.80190132056E+01  0.80866271273E+01  0.00000000000E+00 0. -1.
<mgrwt>
<rscale>  0 0.78232947E+02</rscale>
<asrwt>0</asrwt>
<pdfrwt beam="1">  1        2 0.26676149E-01 0.78232947E+02</pdfrwt>
<pdfrwt beam="2">  1       -1 0.13575928E-02 0.78232947E+02</pdfrwt>
<totfact> 0.22285065E+05</totfact>
</mgrwt>
</event>
<event>
 8    1  0.2676873E-016  0.8043722E+02  0.7818608E-02  0.1327815E+00
         -1   -1    0    0    0  501 -0.00000000000E+00  0.00000000000E+00  0.74885321468E+01  0.74885338428E+01  0.50400000000E-02 0.  1.
          2   -1    0    0  501    0  0.00000000000E+00 -0.00000000000E+00 -0.21600177592E+03  0.21600177594E+03  0.25500000000E-02 0. -1.
         24    2    1    2    0    0  0.00000000000E+00 -0.44408920985E-15 -0.20851324378E+03  0.22349030978E+03  0.80437216112E+02 0.  0.
         66    2    3    3    0    0 -0.36562985470E+02 -0.29375702190E+01 -0.14997963905E+03  0.15441299606E+03  0.19999989326E+01 0.  0.
        -13    1    3    3    0    0  0.36562985470E+02  0.29375702190E+01 -0.58533604724E+02  0.69077313724E+02  0.10566000000E+00 0.  1.
         13    1    4    4    0    0 -0.32910949540E+02 -0.28282400151E+01 -0.13557477896E+03  0.13954089506E+03  0.10566000000E+00 0. -1.
        -13    1    4    4    0    0 -0.10863271108E+01 -0.20694658399E+00 -0.36695480193E+01  0.38340161948E+01  0.10566000000E+00 0.  1.
        -14    1    4    4    0    0 -0.25657088198E+01  0.97616380061E-01 -0.10735312073E+02  0.11038084798E+02  0.00000000000E+00 0.  1.
<mgrwt>
<rscale>  0 0.80437216E+02</rscale>
<asrwt>0</asrwt>
<pdfrwt beam="1">  1        2 0.33231038E-01 0.80437216E+02</pdfrwt>
<pdfrwt beam="2">  1       -1 0.11520822E-02 0.80437216E+02</pdfrwt>
<totfact> 0.22337060E+05</totfact>
</mgrwt>
</event>
<event>
 8    1  0.2676873E-016  0.7908404E+02  0.7818608E-02  0.1331671E+00
         -1   -1    0    0    0  501 -0.00000000000E+00  0.00000000000E+00  0.72606293906E+02  0.72606294081E+02  0.50400000000E-02 0.  1.
          2   -1    0    0  501    0  0.00000000000E+00 -0.00000000000E+00 -0.21534930651E+02  0.21534930802E+02  0.25500000000E-02 0. -1.
         24    2    1    2    0    0  0.17763568394E-14  0.00000000000E+00  0.51071363255E+02  0.94141224883E+02  0.79084044394E+02 0.  0.
         66    2    3    3    0    0 -0.14932837638E+02  0.21884095291E+02 -0.93504231616E+01  0.28166178809E+02  0.19999872008E+01 0.  0.
        -13    1    3    3    0    0  0.14932837638E+02 -0.21884095291E+02  0.60421786416E+02  0.65975046073E+02  0.10566000000E+00 0.  1.
         13    1    4    4    0    0 -0.26259187409E+01  0.36548056995E+01 -0.21723479210E+01  0.49983310675E+01  0.10566000000E+00 0. -1.
        -13    1    4    4    0    0 -0.10924111285E+01  0.21813943642E+01 -0.60394028462E+00  0.25155022061E+01  0.10566000000E+00 0.  1.
         14    1    4    4    0    0 -0.11214507768E+02  0.16047895227E+02 -0.65741349559E+01  0.20652345536E+02  0.00000000000E+00 0. -1.
<mgrwt>
<rscale>  0 0.79084044E+02</rscale>
<asrwt>0</asrwt>
<pdfrwt beam="1">  1        2 0.33130662E-02 0.79084044E+02</pdfrwt>
<pdfrwt beam="2">  1       -1 0.11170199E-01 0.79084044E+02</pdfrwt>
<totfact> 0.13022873E+05</totfact>
</mgrwt>
</event>
<event>
 8    1  0.2676873E-016  0.8194883E+02  0.7818608E-02  0.1323610E+00
         -1   -1    0    0    0  501 -0.00000000000E+00  0.00000000000E+00  0.25992185738E+01  0.25992234602E+01  0.50400000000E-02 0.  1.
          2   -1    0    0  501    0  0.00000000000E+00 -0.00000000000E+00 -0.64592533089E+03  0.64592533089E+03  0.25500000000E-02 0. -1.
         24    2    1    2    0    0  0.00000000000E+00 -0.88817841970E-15 -0.64332611231E+03  0.64852455435E+03  0.81948830460E+02 0.  0.
         66    2    3    3    0    0  0.23280682557E+02 -0.44768696678E+01 -0.58609184814E+03  0.58657453658E+03  0.19999918338E+01 0.  0.
        -13    1    3    3    0    0 -0.23280682557E+02  0.44768696678E+01 -0.57234264177E+02  0.61950017774E+02  0.10566000000E+00 0.  1.
         13    1    4    4    0    0  0.12701143150E+02 -0.20882617990E+01 -0.30164991705E+03  0.30192443342E+03  0.10566000000E+00 0. -1.
        -13    1    4    4    0    0  0.76942678277E+01 -0.16981381612E+01 -0.19567214103E+03  0.19583075185E+03  0.10566000000E+00 0.  1.
         14    1    4    4    0    0  0.28852715789E+01 -0.69046970755E+00 -0.88769790062E+02  0.88819351316E+02  0.00000000000E+00 0. -1.
<mgrwt>
<rscale>  0 0.81948830E+02</rscale>
<asrwt>0</asrwt>
<pdfrwt beam="1">  1        2 0.99373000E-01 0.81948830E+02</pdfrwt>
<pdfrwt beam="2">  1       -1 0.39988067E-03 0.81948830E+02</pdfrwt>
<totfact> 0.30811773E+05</totfact>
</mgrwt>
</event>
<event>
 8    1  0.2676873E-016  0.8156273E+02  0.7818608E-02  0.1324674E+00
          2   -1    0    0  501    0  0.00000000000E+00  0.00000000000E+00  0.19300941368E+03  0.19300941369E+03  0.25500000000E-02 0. -1.
         -1   -1    0    0    0  501 -0.00000000000E+00 -0.00000000000E+00 -0.86167797230E+01  0.86167811970E+01  0.50400000000E-02 0.  1.
         24    2    1    2    0    0  0.35527136788E-14  0.00000000000E+00  0.18439263395E+03  0.20162619489E+03  0.81562730519E+02 0.  0.
         66    2    3    3    0    0 -0.27417776173E+02  0.29335756578E+02  0.10951940133E+03  0.11666542046E+03  0.19999997801E+01 0.  0.
        -13    1    3    3    0    0  0.27417776173E+02 -0.29335756578E+02  0.74873232625E+02  0.84960774432E+02  0.10566000000E+00 0.  1.
         13    1    4    4    0    0 -0.15045818331E+01  0.21012258973E+01  0.72361324901E+01  0.76845100178E+01  0.10566000000E+00 0. -1.
        -13    1    4    4    0    0 -0.13359034831E+02  0.14848043632E+02  0.55333349595E+02  0.58827875644E+02  0.10566000000E+00 0.  1.
        -14    1    4    4    0    0 -0.12554159509E+02  0.12386487049E+02  0.46949919245E+02  0.50153034799E+02  0.00000000000E+00 0.  1.
<mgrwt>
<rscale>  0 0.81562731E+02</rscale>
<asrwt>0</asrwt>
<pdfrwt beam="1">  1        2 0.29693755E-01 0.81562731E+02</pdfrwt>
<pdfrwt beam="2">  1       -1 0.13256586E-02 0.81562731E+02</pdfrwt>
<totfact> 0.20702562E+05</totfact>
</mgrwt>
</event>
<event>
 8    1  0.2676873E-016  0.7978861E+02  0.7818608E-02  0.1329652E+00
          2   -1    0    0  501    0  0.00000000000E+00  0.00000000000E+00  0.36678756455E+03  0.36678756456E+03  0.25500000000E-02 0. -1.
         -1   -1    0    0    0  501 -0.00000000000E+00 -0.00000000000E+00 -0.43391743943E+01  0.43391773213E+01  0.50400000000E-02 0.  1.
         24    2    1    2    0    0  0.00000000000E+00 -0.17763568394E-14  0.36244839016E+03  0.37112674188E+03  0.79788614552E+02 0.  0.
         66    2    3    3    0    0  0.44034009550E+01 -0.94659210793E+01  0.36031338138E+03  0.36047014635E+03  0.20000013640E+01 0.  0.
        -13    1    3    3    0    0 -0.44034009550E+01  0.94659210793E+01  0.21350087781E+01  0.10656595534E+02  0.10566000000E+00 0.  1.
         13    1    4    4    0    0  0.16696371323E+00 -0.26571420445E+00  0.19914877554E+02  0.19917630204E+02  0.10566000000E+00 0. -1.
        -13    1    4    4    0    0  0.17283651919E+01 -0.22611143498E+01  0.86912963252E+02  0.86959612635E+02  0.10566000000E+00 0.  1.
        -14    1    4    4    0    0  0.25080720499E+01 -0.69390925250E+01  0.25348554057E+03  0.25359290351E+03  0.00000000000E+00 0.  1.
<mgrwt>
<rscale>  0 0.79788615E+02</rscale>
<asrwt>0</asrwt>
<pdfrwt beam="1">  1        2 0.56428861E-01 0.79788615E+02</pdfrwt>
<pdfrwt beam="2">  1       -1 0.66756546E-03 0.79788615E+02</pdfrwt>
<totfact> 0.27592707E+05</totfact>
</mgrwt>
</event>
<event>
 8    1  0.2676873E-016  0.8092540E+02  0.7818608E-02  0.1326446E+00
          2   -1    0    0  501    0  0.00000000000E+00  0.00000000000E+00  0.24589420992E+02  0.24589421124E+02  0.25500000000E-02 0. -1.
         -1   -1    0    0    0  501 -0.00000000000E+00 -0.00000000000E+00 -0.66582706879E+02  0.66582707070E+02  0.50400000000E-02 0.  1.
         24    2    1    2    0    0  0.00000000000E+00  0.00000000000E+00 -0.41993285887E+02  0.91172128193E+02  0.80925403303E+02 0.  0.
         66    2    3    3    0    0  0.14364268302E+02 -0.27737759377E+02  0.79231928737E+01  0.32287652183E+02  0.19999997666E+01 0.  0.
        -13    1    3    3    0    0 -0.14364268302E+02  0.27737759377E+02 -0.49916478761E+02  0.58884476011E+02  0.10566000000E+00 0.  1.
         13    1    4    4    0    0  0.69128754294E+01 -0.13833355828E+02  0.41295421827E+01  0.16006681819E+02  0.10566000000E+00 0. -1.
        -13    1    4    4    0    0  0.22496977394E+01 -0.50263035547E+01  0.80738840382E+00  0.55666783105E+01  0.10566000000E+00 0.  1.
        -14    1    4    4    0    0  0.52016951334E+01 -0.88780999940E+01  0.29862622872E+01  0.10714292054E+02  0.00000000000E+00 0.  1.
<mgrwt>
<rscale>  0 0.80925403E+02</rscale>
<asrwt>0</asrwt>
<pdfrwt beam="1">  1        2 0.37829879E-02 0.80925403E+02</pdfrwt>
<pdfrwt beam="2">  1       -1 0.10243493E-01 0.80925403E+02</pdfrwt>
<totfact> 0.12522603E+05</totfact>
</mgrwt>
</event>
<event>
 8    1  0.2676873E-016  0.7811765E+02  0.7818608E-02  0.1334480E+00
         -1   -1    0    0    0  501 -0.00000000000E+00  0.00000000000E+00  0.48298011845E+01  0.48298038141E+01  0.50400000000E-02 0.  1.
          2   -1    0    0  501    0  0.00000000000E+00 -0.00000000000E+00 -0.31587041779E+03  0.31587041780E+03  0.25500000000E-02 0. -1.
         24    2    1    2    0    0  0.17763568394E-14  0.00000000000E+00 -0.31104061660E+03  0.32070022161E+03  0.78117648231E+02 0.  0.
         66    2    3    3    0    0 -0.91514631739E+01 -0.11445957305E+02 -0.30414414684E+03  0.30450356529E+03  0.19999999893E+01 0.  0.
        -13    1    3    3    0    0  0.91514631739E+01  0.11445957305E+02 -0.68964697655E+01  0.16196656325E+02  0.10566000000E+00 0.  1.
         13    1    4    4    0    0 -0.51765564485E+00 -0.32571227466E+00 -0.16649378667E+02  0.16660943247E+02  0.10566000000E+00 0. -1.
        -13    1    4    4    0    0 -0.46462376780E+01 -0.51150158241E+01 -0.14965913586E+03  0.14981862041E+03  0.10566000000E+00 0.  1.
         14    1    4    4    0    0 -0.39875698510E+01 -0.60052292063E+01 -0.13783563231E+03  0.13802400162E+03  0.00000000000E+00 0. -1.
<mgrwt>
<rscale>  0 0.78117648E+02</rscale>
<asrwt>0</asrwt>
<pdfrwt beam="1">  1        2 0.48595433E-01 0.78117648E+02</pdfrwt>
<pdfrwt beam="2">  1       -1 0.74304679E-03 0.78117648E+02</pdfrwt>
<totfact> 0.27644114E+05</totfact>
</mgrwt>
</event>
<event>
 8    1  0.2676873E-016  0.7898630E+02  0.7818608E-02  0.1331953E+00
          2   -1    0    0  501    0  0.00000000000E+00  0.00000000000E+00  0.28112265027E+02  0.28112265142E+02  0.25500000000E-02 0. -1.
         -1   -1    0    0    0  501 -0.00000000000E+00 -0.00000000000E+00 -0.55481436462E+02  0.55481436691E+02  0.50400000000E-02 0.  1.
         24    2    1    2    0    0 -0.71054273576E-14  0.88817841970E-15 -0.27369171435E+02  0.83593701833E+02  0.78986299072E+02 0.  0.
         66    2    3    3    0    0 -0.33646109384E+02  0.71319341456E+01  0.67951229668E+01  0.35115507381E+02  0.20000002875E+01 0.  0.
        -13    1    3    3    0    0  0.33646109384E+02 -0.71319341456E+01 -0.34164294402E+02  0.48478194452E+02  0.10566000000E+00 0.  1.
         13    1    4    4    0    0 -0.15719207918E+02  0.28891273790E+01  0.36551966552E+01  0.16395492710E+02  0.10566000000E+00 0. -1.
        -13    1    4    4    0    0 -0.27915102866E+00  0.91038976631E-01 -0.36946622984E-01  0.31423316282E+00  0.10566000000E+00 0.  1.
        -14    1    4    4    0    0 -0.17647750438E+02  0.41517677900E+01  0.31768729345E+01  0.18405781508E+02  0.00000000000E+00 0.  1.
<mgrwt>
<rscale>  0 0.78986299E+02</rscale>
<asrwt>0</asrwt>
<pdfrwt beam="1">  1        2 0.43249639E-02 0.78986299E+02</pdfrwt>
<pdfrwt beam="2">  1       -1 0.85356056E-02 0.78986299E+02</pdfrwt>
<totfact> 0.13768541E+05</totfact>
</mgrwt>
</event>
<event>
 8    1  0.2676873E-016  0.8062332E+02  0.7818608E-02  0.1327292E+00
         -1   -1    0    0    0  501 -0.00000000000E+00  0.00000000000E+00  0.28956560186E+02  0.28956560625E+02  0.50400000000E-02 0.  1.
          2   -1    0    0  501    0  0.00000000000E+00 -0.00000000000E+00 -0.56119571194E+02  0.56119571252E+02  0.25500000000E-02 0. -1.
         24    2    1    2    0    0  0.00000000000E+00  0.35527136788E-14 -0.27163011008E+02  0.85076131877E+02  0.80623315785E+02 0.  0.
         66    2    3    3    0    0  0.19336684456E+02 -0.21445470001E+02 -0.43234273837E+02  0.52029010939E+02  0.19999989474E+01 0.  0.
        -13    1    3    3    0    0 -0.19336684456E+02  0.21445470001E+02  0.16071262829E+02  0.33047120938E+02  0.10566000000E+00 0.  1.
         13    1    4    4    0    0  0.73511995949E+01 -0.86600732651E+01 -0.17515972555E+02  0.20877199597E+02  0.10566000000E+00 0. -1.
        -13    1    4    4    0    0  0.26984839548E+01 -0.22105155077E+01 -0.56308686937E+01  0.66246540095E+01  0.10566000000E+00 0.  1.
        -14    1    4    4    0    0  0.92870009064E+01 -0.10574881228E+02 -0.20087432588E+02  0.24527157332E+02  0.00000000000E+00 0.  1.
<mgrwt>
<rscale>  0 0.80623316E+02</rscale>
<asrwt>0</asrwt>
<pdfrwt beam="1">  1        2 0.86337802E-02 0.80623316E+02</pdfrwt>
<pdfrwt beam="2">  1       -1 0.44548555E-02 0.80623316E+02</pdfrwt>
<totfact> 0.15009044E+05</totfact>
</mgrwt>
</event>
<event>
 8    1  0.2676873E-016  0.7953637E+02  0.7818608E-02  0.1330372E+00
         -1   -1    0    0    0  501 -0.00000000000E+00  0.00000000000E+00  0.13588315649E+02  0.13588316584E+02  0.50400000000E-02 0.  1.
          2   -1    0    0  501    0  0.00000000000E+00 -0.00000000000E+00 -0.11638738971E+03  0.11638738974E+03  0.25500000000E-02 0. -1.
         24    2    1    2    0    0  0.00000000000E+00  0.00000000000E+00 -0.10279907406E+03  0.12997570632E+03  0.79536372849E+02 0.  0.
         66    2    3    3    0    0  0.32924255865E+02  0.17017560187E+02 -0.27982948808E+02  0.46482786017E+02  0.19999982262E+01 0.  0.
        -13    1    3    3    0    0 -0.32924255865E+02 -0.17017560187E+02 -0.74816125251E+02  0.83492920302E+02  0.10566000000E+00 0.  1.
         13    1    4    4    0    0  0.16312185087E+02  0.82104279886E+01 -0.13321387255E+02  0.22604624139E+02  0.10566000000E+00 0. -1.
        -13    1    4    4    0    0  0.10898990272E+02  0.64526566089E+01 -0.97206072298E+01  0.15966406459E+02  0.10566000000E+00 0.  1.
        -14    1    4    4    0    0  0.57130805073E+01  0.23544755899E+01 -0.49409543236E+01  0.79117554193E+01  0.00000000000E+00 0.  1.
<mgrwt>
<rscale>  0 0.79536373E+02</rscale>
<asrwt>0</asrwt>
<pdfrwt beam="1">  1        2 0.17905752E-01 0.79536373E+02</pdfrwt>
<pdfrwt beam="2">  1       -1 0.20905103E-02 0.79536373E+02</pdfrwt>
<totfact> 0.18806774E+05</totfact>
</mgrwt>
</event>
<event>
 8    1  0.2676873E-016  0.7890891E+02  0.7818608E-02  0.1332177E+00
          2   -1    0    0  501    0  0.00000000000E+00  0.00000000000E+00  0.63422040643E+03  0.63422040643E+03  0.25500000000E-02 0. -1.
         -1   -1    0    0    0  501 -0.00000000000E+00 -0.00000000000E+00 -0.24544343498E+01  0.24544395244E+01  0.50400000000E-02 0.  1.
         24    2    1    2    0    0 -0.35527136788E-14 -0.71054273576E-14  0.63176597208E+03  0.63667484595E+03  0.78908909504E+02 0.  0.
         66    2    3    3    0    0  0.19643202047E+02  0.17730170050E+02  0.55193274734E+03  0.55257033209E+03  0.20000009443E+01 0.  0.
        -13    1    3    3    0    0 -0.19643202047E+02 -0.17730170050E+02  0.79833224738E+02  0.84104513867E+02  0.10566000000E+00 0.  1.
         13    1    4    4    0    0  0.10888586262E+02  0.87184031624E+01  0.29396871137E+03  0.29429948401E+03  0.10566000000E+00 0. -1.
        -13    1    4    4    0    0  0.54447137478E+01  0.60955206753E+01  0.16778683685E+03  0.16798581507E+03  0.10566000000E+00 0.  1.
        -14    1    4    4    0    0  0.33099020375E+01  0.29162462120E+01  0.90177199122E+02  0.90285033007E+02  0.00000000000E+00 0.  1.
<mgrwt>
<rscale>  0 0.78908910E+02</rscale>
<asrwt>0</asrwt>
<pdfrwt beam="1">  1        2 0.97572234E-01 0.78908910E+02</pdfrwt>
<pdfrwt beam="2">  1       -1 0.37760621E-03 0.78908910E+02</pdfrwt>
<totfact> 0.33835938E+05</totfact>
</mgrwt>
</event>
<event>
 8    1  0.2676873E-016  0.7904713E+02  0.7818608E-02  0.1331777E+00
          2   -1    0    0  501    0  0.00000000000E+00  0.00000000000E+00  0.63258754031E+03  0.63258754031E+03  0.25500000000E-02 0. -1.
         -1   -1    0    0    0  501 -0.00000000000E+00 -0.00000000000E+00 -0.24693985254E+01  0.24694036687E+01  0.50400000000E-02 0.  1.
         24    2    1    2    0    0 -0.35527136788E-14  0.00000000000E+00  0.63011814178E+03  0.63505694398E+03  0.79047134648E+02 0.  0.
         66    2    3    3    0    0  0.19576268672E+02  0.26497274692E+02  0.49031292615E+03  0.49142252839E+03  0.19999987646E+01 0.  0.
        -13    1    3    3    0    0 -0.19576268672E+02 -0.26497274692E+02  0.13980521563E+03  0.14363441560E+03  0.10566000000E+00 0.  1.
         13    1    4    4    0    0  0.88468627319E+01  0.10403198992E+02  0.20269780442E+03  0.20315733954E+03  0.10566000000E+00 0. -1.
        -13    1    4    4    0    0  0.50859577604E+01  0.78947009050E+01  0.14211593903E+03  0.14242592657E+03  0.10566000000E+00 0.  1.
         14    1    4    4    0    0  0.56434481798E+01  0.81993747958E+01  0.14549918270E+03  0.14583926227E+03  0.00000000000E+00 0. -1.
<mgrwt>
<rscale>  0 0.79047135E+02</rscale>
<asrwt>0</asrwt>
<pdfrwt beam="1">  1        2 0.97321122E-01 0.79047135E+02</pdfrwt>
<pdfrwt beam="2">  1       -1 0.37990801E-03 0.79047135E+02</pdfrwt>
<totfact> 0.33659691E+05</totfact>
</mgrwt>
</event>
<event>
 8    1  0.2676873E-016  0.7727993E+02  0.7818608E-02  0.1336953E+00
         -1   -1    0    0    0  501 -0.00000000000E+00  0.00000000000E+00  0.97322919692E+01  0.97322932742E+01  0.50400000000E-02 0.  1.
          2   -1    0    0  501    0  0.00000000000E+00 -0.00000000000E+00 -0.15341164353E+03  0.15341164355E+03  0.25500000000E-02 0. -1.
         24    2    1    2    0    0  0.00000000000E+00  0.17763568394E-14 -0.14367935156E+03  0.16314393683E+03  0.77279933087E+02 0.  0.
         66    2    3    3    0    0 -0.21199731054E+01  0.12593820377E+02 -0.14881735068E+03  0.14937771742E+03  0.20000003519E+01 0.  0.
        -13    1    3    3    0    0  0.21199731054E+01 -0.12593820377E+02  0.51379991194E+01  0.13766219402E+02  0.10566000000E+00 0.  1.
         13    1    4    4    0    0 -0.57313664976E+00  0.35425724998E+01 -0.44686953283E+02  0.44830940914E+02  0.10566000000E+00 0. -1.
        -13    1    4    4    0    0 -0.16255469179E+01  0.79254524579E+01 -0.85409371199E+02  0.85791765643E+02  0.10566000000E+00 0.  1.
        -14    1    4    4    0    0  0.78710462303E-01  0.11257954189E+01 -0.18721026199E+02  0.18755010867E+02  0.00000000000E+00 0.  1.
<mgrwt>
<rscale>  0 0.77279933E+02</rscale>
<asrwt>0</asrwt>
<pdfrwt beam="1">  1        2 0.23601790E-01 0.77279933E+02</pdfrwt>
<pdfrwt beam="2">  1       -1 0.14972759E-02 0.77279933E+02</pdfrwt>
<totfact> 0.22111068E+05</totfact>
</mgrwt>
</event>
<event>
 8    1  0.2676873E-016  0.8816070E+02  0.7818608E-02  0.1307368E+00
          2   -1    0    0  501    0  0.00000000000E+00  0.00000000000E+00  0.38532336699E+03  0.38532336699E+03  0.25500000000E-02 0. -1.
         -1   -1    0    0    0  501 -0.00000000000E+00 -0.00000000000E+00 -0.50427166235E+01  0.50427191422E+01  0.50400000000E-02 0.  1.
         24    2    1    2    0    0  0.00000000000E+00  0.00000000000E+00  0.38028065036E+03  0.39036608614E+03  0.88160695128E+02 0.  0.
         66    2    3    3    0    0 -0.35563620556E+02 -0.25103250603E+02  0.22031098317E+03  0.22457932586E+03  0.19999999357E+01 0.  0.
        -13    1    3    3    0    0  0.35563620556E+02  0.25103250603E+02  0.15996966719E+03  0.16578676028E+03  0.10566000000E+00 0.  1.
         13    1    4    4    0    0 -0.23277413099E+02 -0.16139624053E+02  0.14628518129E+03  0.14900231829E+03  0.10566000000E+00 0. -1.
        -13    1    4    4    0    0 -0.94086761019E+01 -0.72691591870E+01  0.57050560044E+02  0.58276422563E+02  0.10566000000E+00 0.  1.
        -14    1    4    4    0    0 -0.28775313551E+01 -0.16944673637E+01  0.16975241830E+02  0.17300585006E+02  0.00000000000E+00 0.  1.
<mgrwt>
<rscale>  0 0.88160695E+02</rscale>
<asrwt>0</asrwt>
<pdfrwt beam="1">  1        2 0.59280527E-01 0.88160695E+02</pdfrwt>
<pdfrwt beam="2">  1       -1 0.77580264E-03 0.88160695E+02</pdfrwt>
<totfact> 0.21607233E+05</totfact>
</mgrwt>
</event>
<event>
 8    1  0.2676873E-016  0.8142979E+02  0.7818608E-02  0.1325042E+00
         -1   -1    0    0    0  501 -0.00000000000E+00  0.00000000000E+00  0.26295386707E+01  0.26295435007E+01  0.50400000000E-02 0.  1.
          2   -1    0    0  501    0  0.00000000000E+00 -0.00000000000E+00 -0.63041526522E+03  0.63041526522E+03  0.25500000000E-02 0. -1.
         24    2    1    2    0    0  0.00000000000E+00 -0.35527136788E-14 -0.62778572654E+03  0.63304480872E+03  0.81429794275E+02 0.  0.
         66    2    3    3    0    0  0.96990089137E+01 -0.19917138737E+02 -0.57942118559E+03  0.57984797446E+03  0.19999971486E+01 0.  0.
        -13    1    3    3    0    0 -0.96990089137E+01  0.19917138737E+02 -0.48364540959E+02  0.53196834263E+02  0.10566000000E+00 0.  1.
         13    1    4    4    0    0  0.55008976267E+01 -0.10416773313E+02 -0.29338244595E+03  0.29361886826E+03  0.10566000000E+00 0.  1.
        -13    1    4    4    0    0  0.19451138631E+01 -0.41456356908E+01 -0.11270381461E+03  0.11279685614E+03  0.10566000000E+00 0. -1.
        -14    1    4    4    0    0  0.22529974240E+01 -0.53547297332E+01 -0.17333492502E+03  0.17343225005E+03  0.00000000000E+00 0.  1.
<mgrwt>
<rscale>  0 0.81429794E+02</rscale>
<asrwt>0</asrwt>
<pdfrwt beam="1">  1        2 0.96986844E-01 0.81429794E+02</pdfrwt>
<pdfrwt beam="2">  1       -1 0.40454529E-03 0.81429794E+02</pdfrwt>
<totfact> 0.31128532E+05</totfact>
</mgrwt>
</event>
<event>
 8    1  0.2676873E-016  0.7638963E+02  0.7818608E-02  0.1339621E+00
          2   -1    0    0  501    0  0.00000000000E+00  0.00000000000E+00  0.76697618754E+03  0.76697618755E+03  0.25500000000E-02 0. -1.
         -1   -1    0    0    0  501 -0.00000000000E+00 -0.00000000000E+00 -0.19020684746E+01  0.19020751519E+01  0.50400000000E-02 0.  1.
         24    2    1    2    0    0  0.00000000000E+00 -0.35527136788E-14  0.76507411907E+03  0.76887826270E+03  0.76389627457E+02 0.  0.
         66    2    3    3    0    0 -0.86013182481E+01 -0.16901847034E+02  0.71619646360E+03  0.71645029805E+03  0.19999997297E+01 0.  0.
        -13    1    3    3    0    0  0.86013182481E+01  0.16901847034E+02  0.48877655468E+02  0.52427964645E+02  0.10566000000E+00 0.  1.
         13    1    4    4    0    0 -0.23774979192E+01 -0.39524134712E+01  0.19576946146E+03  0.19582381692E+03  0.10566000000E+00 0. -1.
        -13    1    4    4    0    0 -0.25572558999E+01 -0.45664802806E+01  0.17456879916E+03  0.17464727053E+03  0.10566000000E+00 0.  1.
        -14    1    4    4    0    0 -0.36665644290E+01 -0.83829532824E+01  0.34585820298E+03  0.34597921060E+03  0.00000000000E+00 0.  1.
<mgrwt>
<rscale>  0 0.76389627E+02</rscale>
<asrwt>0</asrwt>
<pdfrwt beam="1">  1        2 0.11799653E+00 0.76389627E+02</pdfrwt>
<pdfrwt beam="2">  1       -1 0.29262596E-03 0.76389627E+02</pdfrwt>
<totfact> 0.38439176E+05</totfact>
</mgrwt>
</event>
<event>
 8    1  0.2676873E-016  0.8001801E+02  0.7818608E-02  0.1329000E+00
          2   -1    0    0  501    0  0.00000000000E+00  0.00000000000E+00  0.95065726943E+03  0.95065726943E+03  0.25500000000E-02 0. -1.
         -1   -1    0    0    0  501 -0.00000000000E+00 -0.00000000000E+00 -0.16838003961E+01  0.16838079390E+01  0.50400000000E-02 0.  1.
         24    2    1    2    0    0  0.11102230246E-15  0.00000000000E+00  0.94897346904E+03  0.95234107737E+03  0.80018014976E+02 0.  0.
         66    2    3    3    0    0 -0.80936623680E+00 -0.10838293816E+02  0.93273695105E+03  0.93280241399E+03  0.20000006427E+01 0.  0.
        -13    1    3    3    0    0  0.80936623680E+00  0.10838293816E+02  0.16236517985E+02  0.19538663385E+02  0.10566000000E+00 0.  1.
         13    1    4    4    0    0  0.46410946170E-01 -0.89440366538E+00  0.86223183872E+02  0.86227899853E+02  0.10566000000E+00 0. -1.
        -13    1    4    4    0    0 -0.80862271025E+00 -0.27411490102E+01  0.19584120767E+03  0.19586208810E+03  0.10566000000E+00 0.  1.
        -14    1    4    4    0    0 -0.47154472720E-01 -0.72027411407E+01  0.65067255951E+03  0.65071242604E+03  0.00000000000E+00 0.  1.
<mgrwt>
<rscale>  0 0.80018015E+02</rscale>
<asrwt>0</asrwt>
<pdfrwt beam="1">  1        2 0.14625497E+00 0.80018015E+02</pdfrwt>
<pdfrwt beam="2">  1       -1 0.25904678E-03 0.80018015E+02</pdfrwt>
<totfact> 0.35105156E+05</totfact>
</mgrwt>
</event>
<event>
 8    1  0.2676873E-016  0.7958392E+02  0.7818608E-02  0.1330236E+00
         -1   -1    0    0    0  501 -0.00000000000E+00  0.00000000000E+00  0.64142954545E+01  0.64142974346E+01  0.50400000000E-02 0.  1.
          2   -1    0    0  501    0  0.00000000000E+00 -0.00000000000E+00 -0.24685482904E+03  0.24685482905E+03  0.25500000000E-02 0. -1.
         24    2    1    2    0    0  0.00000000000E+00  0.00000000000E+00 -0.24044053359E+03  0.25326912649E+03  0.79583919488E+02 0.  0.
         66    2    3    3    0    0 -0.29891146808E+02  0.21909553249E+02 -0.74411113954E+02  0.83153611239E+02  0.20000002973E+01 0.  0.
        -13    1    3    3    0    0  0.29891146808E+02 -0.21909553249E+02 -0.16602941963E+03  0.17011551525E+03  0.10566000000E+00 0.  1.
         13    1    4    4    0    0 -0.82307338736E+01  0.54102079257E+01 -0.21261501403E+02  0.23432412079E+02  0.10566000000E+00 0. -1.
        -13    1    4    4    0    0 -0.13553412765E+02  0.10142005981E+02 -0.32527584646E+02  0.36668927034E+02  0.10566000000E+00 0.  1.
         14    1    4    4    0    0 -0.81070001692E+01  0.63573393423E+01 -0.20622027905E+02  0.23052272126E+02  0.00000000000E+00 0. -1.
<mgrwt>
<rscale>  0 0.79583919E+02</rscale>
<asrwt>0</asrwt>
<pdfrwt beam="1">  1        2 0.37977659E-01 0.79583919E+02</pdfrwt>
<pdfrwt beam="2">  1       -1 0.98681503E-03 0.79583919E+02</pdfrwt>
<totfact> 0.24088386E+05</totfact>
</mgrwt>
</event>
<event>
 8    1  0.2676873E-016  0.8014162E+02  0.7818608E-02  0.1328650E+00
          2   -1    0    0  501    0  0.00000000000E+00  0.00000000000E+00  0.14587229140E+03  0.14587229142E+03  0.25500000000E-02 0. -1.
         -1   -1    0    0    0  501 -0.00000000000E+00 -0.00000000000E+00 -0.11007367255E+02  0.11007368409E+02  0.50400000000E-02 0.  1.
         24    2    1    2    0    0  0.35527136788E-14 -0.35527136788E-14  0.13486492414E+03  0.15687965983E+03  0.80141624042E+02 0.  0.
         66    2    3    3    0    0 -0.23776541223E+02  0.23816729615E+02  0.24986259772E+02  0.41962765640E+02  0.20000001813E+01 0.  0.
        -13    1    3    3    0    0  0.23776541223E+02 -0.23816729615E+02  0.10987866437E+03  0.11491689419E+03  0.10566000000E+00 0.  1.
         13    1    4    4    0    0 -0.12215706847E+02  0.11743548360E+02  0.12015636194E+02  0.20773085930E+02  0.10566000000E+00 0. -1.
        -13    1    4    4    0    0 -0.43997390475E+01  0.49173885830E+01  0.44714784551E+01  0.79714300958E+01  0.10566000000E+00 0.  1.
        -14    1    4    4    0    0 -0.71610953289E+01  0.71557926713E+01  0.84991451227E+01  0.13218249615E+02  0.00000000000E+00 0.  1.
<mgrwt>
<rscale>  0 0.80141624E+02</rscale>
<asrwt>0</asrwt>
<pdfrwt beam="1">  1        2 0.22441890E-01 0.80141624E+02</pdfrwt>
<pdfrwt beam="2">  1       -1 0.16934413E-02 0.80141624E+02</pdfrwt>
<totfact> 0.19758455E+05</totfact>
</mgrwt>
</event>
<event>
 8    1  0.2676873E-016  0.8206153E+02  0.7818608E-02  0.1323301E+00
          2   -1    0    0  501    0  0.00000000000E+00  0.00000000000E+00  0.25938127302E+02  0.25938127427E+02  0.25500000000E-02 0. -1.
         -1   -1    0    0    0  501 -0.00000000000E+00 -0.00000000000E+00 -0.64905368086E+02  0.64905368282E+02  0.50400000000E-02 0.  1.
         24    2    1    2    0    0 -0.71054273576E-14 -0.35527136788E-14 -0.38967240784E+02  0.90843495709E+02  0.82061530929E+02 0.  0.
         66    2    3    3    0    0  0.37670327861E+02  0.16197911797E+02 -0.19832348526E+02  0.45593288930E+02  0.19999999143E+01 0.  0.
        -13    1    3    3    0    0 -0.37670327861E+02 -0.16197911797E+02 -0.19134892258E+02  0.45250206779E+02  0.10566000000E+00 0.  1.
         13    1    4    4    0    0  0.13628524885E+02  0.54284683287E+01 -0.77296750594E+01  0.16582038461E+02  0.10566000000E+00 0.  1.
        -13    1    4    4    0    0  0.30790166396E+01  0.15677832769E+01 -0.19345700107E+01  0.39613145586E+01  0.10566000000E+00 0. -1.
         14    1    4    4    0    0  0.20962786336E+02  0.92016601917E+01 -0.10168103456E+02  0.25049935911E+02  0.00000000000E+00 0. -1.
<mgrwt>
<rscale>  0 0.82061531E+02</rscale>
<asrwt>0</asrwt>
<pdfrwt beam="1">  1        2 0.39904812E-02 0.82061531E+02</pdfrwt>
<pdfrwt beam="2">  1       -1 0.99854412E-02 0.82061531E+02</pdfrwt>
<totfact> 0.12166002E+05</totfact>
</mgrwt>
</event>
<event>
 8    1  0.2676873E-016  0.7765548E+02  0.7818608E-02  0.1335840E+00
          2   -1    0    0  501    0  0.00000000000E+00  0.00000000000E+00  0.10727338113E+04  0.10727338113E+04  0.25500000000E-02 0. -1.
         -1   -1    0    0    0  501 -0.00000000000E+00 -0.00000000000E+00 -0.14053704319E+01  0.14053794692E+01  0.50400000000E-02 0.  1.
         24    2    1    2    0    0  0.00000000000E+00  0.00000000000E+00  0.10713284409E+04  0.10741391908E+04  0.77655475918E+02 0.  0.
         66    2    3    3    0    0 -0.26788971795E+02 -0.68253083398E+01  0.91263685075E+03  0.91305764068E+03  0.20000007355E+01 0.  0.
        -13    1    3    3    0    0  0.26788971795E+02  0.68253083398E+01  0.15869159012E+03  0.16108155010E+03  0.10566000000E+00 0.  1.
         13    1    4    4    0    0 -0.13303193965E+02 -0.35365581123E+01  0.44045932903E+03  0.44067438535E+03  0.10566000000E+00 0. -1.
        -13    1    4    4    0    0 -0.32876885051E+01 -0.13689392345E+01  0.12129668990E+03  0.12134900508E+03  0.10566000000E+00 0.  1.
         14    1    4    4    0    0 -0.10198089325E+02 -0.19198109931E+01  0.35088083183E+03  0.35103425024E+03  0.00000000000E+00 0. -1.
<mgrwt>
<rscale>  0 0.77655476E+02</rscale>
<asrwt>0</asrwt>
<pdfrwt beam="1">  1        2 0.16503587E+00 0.77655476E+02</pdfrwt>
<pdfrwt beam="2">  1       -1 0.21621167E-03 0.77655476E+02</pdfrwt>
<totfact> 0.38097732E+05</totfact>
</mgrwt>
</event>
<event>
 8    1  0.2676873E-016  0.8046906E+02  0.7818608E-02  0.1327726E+00
         -1   -1    0    0    0  501 -0.00000000000E+00  0.00000000000E+00  0.16797236124E+01  0.16797311736E+01  0.50400000000E-02 0.  1.
          2   -1    0    0  501    0  0.00000000000E+00 -0.00000000000E+00 -0.96373812998E+03  0.96373812998E+03  0.25500000000E-02 0. -1.
         24    2    1    2    0    0 -0.35527136788E-14  0.00000000000E+00 -0.96205840637E+03  0.96541786116E+03  0.80469058515E+02 0.  0.
         66    2    3    3    0    0 -0.24425821968E+02  0.16905248449E+02 -0.80645322662E+03  0.80700261147E+03  0.19999988075E+01 0.  0.
        -13    1    3    3    0    0  0.24425821968E+02 -0.16905248449E+02 -0.15560517975E+03  0.15841524968E+03  0.10566000000E+00 0.  1.
         13    1    4    4    0    0 -0.18865782767E+02  0.12248467685E+02 -0.62209828499E+03  0.62250480325E+03  0.10566000000E+00 0. -1.
        -13    1    4    4    0    0 -0.31337366099E+01  0.27784592203E+01 -0.10821902546E+03  0.10830008669E+03  0.10566000000E+00 0.  1.
         14    1    4    4    0    0 -0.24263025912E+01  0.18783215439E+01 -0.76135916172E+02  0.76197721537E+02  0.00000000000E+00 0. -1.
<mgrwt>
<rscale>  0 0.80469059E+02</rscale>
<asrwt>0</asrwt>
<pdfrwt beam="1">  1        2 0.14826696E+00 0.80469059E+02</pdfrwt>
<pdfrwt beam="2">  1       -1 0.25842037E-03 0.80469059E+02</pdfrwt>
<totfact> 0.34630319E+05</totfact>
</mgrwt>
</event>
<event>
 8    1  0.2676873E-016  0.7596163E+02  0.7818608E-02  0.1340919E+00
         -1   -1    0    0    0  501 -0.00000000000E+00  0.00000000000E+00  0.26575105130E+02  0.26575105608E+02  0.50400000000E-02 0.  1.
          2   -1    0    0  501    0  0.00000000000E+00 -0.00000000000E+00 -0.54281719570E+02  0.54281719630E+02  0.25500000000E-02 0. -1.
         24    2    1    2    0    0 -0.35527136788E-14  0.00000000000E+00 -0.27706614440E+02  0.80856825237E+02  0.75961633104E+02 0.  0.
         66    2    3    3    0    0  0.26317450020E+02  0.18842920576E+02 -0.34961252190E+02  0.47685983157E+02  0.20000009019E+01 0.  0.
        -13    1    3    3    0    0 -0.26317450020E+02 -0.18842920576E+02  0.72546377501E+01  0.33170842080E+02  0.10566000000E+00 0.  1.
         13    1    4    4    0    0  0.49203258932E+01  0.34345300989E+01 -0.55608247816E+01  0.81816587672E+01  0.10566000000E+00 0. -1.
        -13    1    4    4    0    0  0.63725312549E+00  0.60696279423E+00 -0.88039308391E+00  0.12493003631E+01  0.10566000000E+00 0. -1.
         14    1    4    4    0    0  0.20759871001E+02  0.14801427683E+02 -0.28520034325E+02  0.38255024027E+02  0.00000000000E+00 0. -1.
<mgrwt>
<rscale>  0 0.75961633E+02</rscale>
<asrwt>0</asrwt>
<pdfrwt beam="1">  1        2 0.83510338E-02 0.75961633E+02</pdfrwt>
<pdfrwt beam="2">  1       -1 0.40884778E-02 0.75961633E+02</pdfrwt>
<totfact> 0.17519160E+05</totfact>
</mgrwt>
</event>
<event>
 8    1  0.2676873E-016  0.8214454E+02  0.7818608E-02  0.1323073E+00
         -1   -1    0    0    0  501 -0.00000000000E+00  0.00000000000E+00  0.28760637798E+02  0.28760638239E+02  0.50400000000E-02 0.  1.
          2   -1    0    0  501    0  0.00000000000E+00 -0.00000000000E+00 -0.58654170446E+02  0.58654170502E+02  0.25500000000E-02 0. -1.
         24    2    1    2    0    0  0.00000000000E+00  0.00000000000E+00 -0.29893532648E+02  0.87414808741E+02  0.82144540251E+02 0.  0.
         66    2    3    3    0    0  0.21699870043E+02 -0.32504050874E+02 -0.28311901368E+02  0.48300739601E+02  0.20000009694E+01 0.  0.
        -13    1    3    3    0    0 -0.21699870043E+02  0.32504050874E+02 -0.15816312809E+01  0.39114069140E+02  0.10566000000E+00 0.  1.
         13    1    4    4    0    0  0.49482537011E+01 -0.84600640269E+01 -0.67035686006E+01  0.11874632375E+02  0.10566000000E+00 0. -1.
        -13    1    4    4    0    0  0.36783030135E+01 -0.48890913157E+01 -0.40502593855E+01  0.73381804338E+01  0.10566000000E+00 0.  1.
        -14    1    4    4    0    0  0.13073313329E+02 -0.19154895531E+02 -0.17558073381E+02  0.29087926792E+02  0.00000000000E+00 0.  1.
<mgrwt>
<rscale>  0 0.82144540E+02</rscale>
<asrwt>0</asrwt>
<pdfrwt beam="1">  1        2 0.90237185E-02 0.82144540E+02</pdfrwt>
<pdfrwt beam="2">  1       -1 0.44247136E-02 0.82144540E+02</pdfrwt>
<totfact> 0.14406980E+05</totfact>
</mgrwt>
</event>
<event>
 8    1  0.2676873E-016  0.8065935E+02  0.7818608E-02  0.1327191E+00
         -1   -1    0    0    0  501 -0.00000000000E+00  0.00000000000E+00  0.42649798761E+02  0.42649799059E+02  0.50400000000E-02 0.  1.
          2   -1    0    0  501    0  0.00000000000E+00 -0.00000000000E+00 -0.38135768338E+02  0.38135768423E+02  0.25500000000E-02 0. -1.
         24    2    1    2    0    0  0.00000000000E+00  0.00000000000E+00  0.45140304231E+01  0.80785567482E+02  0.80659354341E+02 0.  0.
         66    2    3    3    0    0  0.43011319313E+01 -0.35557012422E+02 -0.16255032561E+02  0.39383079518E+02  0.20000001174E+01 0.  0.
        -13    1    3    3    0    0 -0.43011319313E+01  0.35557012422E+02  0.20769062984E+02  0.41402487964E+02  0.10566000000E+00 0.  1.
         13    1    4    4    0    0  0.20237916945E+01 -0.16236755166E+02 -0.69957432394E+01  0.17795492087E+02  0.10566000000E+00 0. -1.
        -13    1    4    4    0    0  0.22401738971E+01 -0.16466300855E+02 -0.83057320812E+01  0.18578315112E+02  0.10566000000E+00 0.  1.
        -14    1    4    4    0    0  0.37166339678E-01 -0.28539564016E+01 -0.95355724024E+00  0.30092723189E+01  0.00000000000E+00 0.  1.
<mgrwt>
<rscale>  0 0.80659354E+02</rscale>
<asrwt>0</asrwt>
<pdfrwt beam="1">  1        2 0.58670413E-02 0.80659354E+02</pdfrwt>
<pdfrwt beam="2">  1       -1 0.65615075E-02 0.80659354E+02</pdfrwt>
<totfact> 0.13799108E+05</totfact>
</mgrwt>
</event>
<event>
 8    1  0.2676873E-016  0.7949803E+02  0.7818608E-02  0.1330482E+00
          2   -1    0    0  501    0  0.00000000000E+00  0.00000000000E+00  0.27147332094E+03  0.27147332095E+03  0.25500000000E-02 0. -1.
         -1   -1    0    0    0  501 -0.00000000000E+00 -0.00000000000E+00 -0.58200331263E+01  0.58200353085E+01  0.50400000000E-02 0.  1.
         24    2    1    2    0    0  0.00000000000E+00  0.00000000000E+00  0.26565328781E+03  0.27729335626E+03  0.79498025762E+02 0.  0.
         66    2    3    3    0    0  0.17576552731E+02 -0.18899112906E+02  0.23823972117E+03  0.23964197548E+03  0.19999986658E+01 0.  0.
        -13    1    3    3    0    0 -0.17576552731E+02  0.18899112906E+02  0.27413566649E+02  0.37651380785E+02  0.10566000000E+00 0.  1.
         13    1    4    4    0    0  0.97482510000E+01 -0.11047108107E+02  0.13172670198E+03  0.13254811267E+03  0.10566000000E+00 0. -1.
        -13    1    4    4    0    0  0.33380110840E+01 -0.39891006922E+01  0.47234443470E+02  0.47520091080E+02  0.10566000000E+00 0.  1.
         14    1    4    4    0    0  0.44902906474E+01 -0.38629041067E+01  0.59278575716E+02  0.59573771722E+02  0.00000000000E+00 0. -1.
<mgrwt>
<rscale>  0 0.79498026E+02</rscale>
<asrwt>0</asrwt>
<pdfrwt beam="1">  1        2 0.41765120E-01 0.79498026E+02</pdfrwt>
<pdfrwt beam="2">  1       -1 0.89539002E-03 0.79498026E+02</pdfrwt>
<totfact> 0.24997837E+05</totfact>
</mgrwt>
</event>
<event>
 8    1  0.2676873E-016  0.8095497E+02  0.7818608E-02  0.1326363E+00
         -1   -1    0    0    0  501 -0.00000000000E+00  0.00000000000E+00  0.78265664874E+01  0.78265681102E+01  0.50400000000E-02 0.  1.
          2   -1    0    0  501    0  0.00000000000E+00 -0.00000000000E+00 -0.20934165998E+03  0.20934165999E+03  0.25500000000E-02 0. -1.
         24    2    1    2    0    0  0.00000000000E+00  0.00000000000E+00 -0.20151509349E+03  0.21716822810E+03  0.80954965217E+02 0.  0.
         66    2    3    3    0    0 -0.36269426068E+02  0.88495419093E+01 -0.14260483149E+03  0.14742429796E+03  0.20000011174E+01 0.  0.
        -13    1    3    3    0    0  0.36269426068E+02 -0.88495419093E+01 -0.58910262000E+02  0.69743930147E+02  0.10566000000E+00 0.  1.
         13    1    4    4    0    0 -0.31161408469E+01  0.90555768258E+00 -0.11179875869E+02  0.11641784957E+02  0.10566000000E+00 0. -1.
        -13    1    4    4    0    0 -0.74690236412E+01  0.22732653194E+01 -0.31624729443E+02  0.32574356874E+02  0.10566000000E+00 0.  1.
         14    1    4    4    0    0 -0.25684261580E+02  0.56707189073E+01 -0.99800226179E+02  0.10320815613E+03  0.00000000000E+00 0. -1.
<mgrwt>
<rscale>  0 0.80954965E+02</rscale>
<asrwt>0</asrwt>
<pdfrwt beam="1">  1        2 0.32206405E-01 0.80954965E+02</pdfrwt>
<pdfrwt beam="2">  1       -1 0.12040874E-02 0.80954965E+02</pdfrwt>
<totfact> 0.21721751E+05</totfact>
</mgrwt>
</event>
<event>
 8    1  0.2676873E-016  0.7973470E+02  0.7818608E-02  0.1329806E+00
         -1   -1    0    0    0  501 -0.00000000000E+00  0.00000000000E+00  0.10744039530E+01  0.10744157742E+01  0.50400000000E-02 0.  1.
          2   -1    0    0  501    0  0.00000000000E+00 -0.00000000000E+00 -0.14793288529E+04  0.14793288529E+04  0.25500000000E-02 0. -1.
         24    2    1    2    0    0  0.00000000000E+00 -0.17763568394E-14 -0.14782544490E+04  0.14804032687E+04  0.79734698069E+02 0.  0.
         66    2    3    3    0    0  0.17299774908E+02  0.11239889142E+02 -0.13724328744E+04  0.13725893822E+04  0.19999985620E+01 0.  0.
        -13    1    3    3    0    0 -0.17299774908E+02 -0.11239889142E+02 -0.10582157455E+03  0.10781388651E+03  0.10566000000E+00 0.  1.
         13    1    4    4    0    0  0.13211990719E+02  0.84498123292E+01 -0.10501301840E+04  0.10502472902E+04  0.10566000000E+00 0. -1.
        -13    1    4    4    0    0  0.13578481211E+01  0.85576410208E+00 -0.13430904746E+03  0.13431867881E+03  0.10566000000E+00 0.  1.
         14    1    4    4    0    0  0.27299360683E+01  0.19343127112E+01 -0.18799364295E+03  0.18802341319E+03  0.00000000000E+00 0. -1.
<mgrwt>
<rscale>  0 0.79734698E+02</rscale>
<asrwt>0</asrwt>
<pdfrwt beam="1">  1        2 0.22758743E+00 0.79734698E+02</pdfrwt>
<pdfrwt beam="2">  1       -1 0.16529501E-03 0.79734698E+02</pdfrwt>
<totfact> 0.33710937E+05</totfact>
</mgrwt>
</event>
<event>
 8    1  0.2676873E-016  0.7883940E+02  0.7818608E-02  0.1332378E+00
          2   -1    0    0  501    0  0.00000000000E+00  0.00000000000E+00  0.75822837935E+02  0.75822837978E+02  0.25500000000E-02 0. -1.
         -1   -1    0    0    0  501 -0.00000000000E+00 -0.00000000000E+00 -0.20493991152E+02  0.20493991772E+02  0.50400000000E-02 0.  1.
         24    2    1    2    0    0 -0.22204460493E-15  0.00000000000E+00  0.55328846783E+02  0.96316829749E+02  0.78839396285E+02 0.  0.
         66    2    3    3    0    0  0.17428380327E+01  0.35141439815E+02  0.49328727629E+02  0.60624101210E+02  0.20000003577E+01 0.  0.
        -13    1    3    3    0    0 -0.17428380327E+01 -0.35141439815E+02  0.60001191542E+01  0.35692728539E+02  0.10566000000E+00 0.  1.
         13    1    4    4    0    0 -0.63074181590E-01  0.91133547602E+01  0.13409400616E+02  0.16213586965E+02  0.10566000000E+00 0. -1.
        -13    1    4    4    0    0  0.16465251362E+00  0.10695483463E+01  0.18414306749E+01  0.21384749429E+01  0.10566000000E+00 0. -1.
        -14    1    4    4    0    0  0.16412597007E+01  0.24958536708E+02  0.34077896337E+02  0.42272039303E+02  0.00000000000E+00 0.  1.
<mgrwt>
<rscale>  0 0.78839396E+02</rscale>
<asrwt>0</asrwt>
<pdfrwt beam="1">  1        2 0.11665052E-01 0.78839396E+02</pdfrwt>
<pdfrwt beam="2">  1       -1 0.31529218E-02 0.78839396E+02</pdfrwt>
<totfact> 0.17131803E+05</totfact>
</mgrwt>
</event>
<event>
 8    1  0.2676873E-016  0.7948521E+02  0.7818608E-02  0.1330519E+00
         -1   -1    0    0    0  501 -0.00000000000E+00  0.00000000000E+00  0.67222243867E+02  0.67222244055E+02  0.50400000000E-02 0.  1.
          2   -1    0    0  501    0  0.00000000000E+00 -0.00000000000E+00 -0.23496310249E+02  0.23496310388E+02  0.25500000000E-02 0. -1.
         24    2    1    2    0    0  0.00000000000E+00  0.00000000000E+00  0.43725933617E+02  0.90718554443E+02  0.79485211515E+02 0.  0.
         66    2    3    3    0    0 -0.14910588775E+02  0.77942923372E+01 -0.19185493148E+02  0.25596089561E+02  0.20000007000E+01 0.  0.
        -13    1    3    3    0    0  0.14910588775E+02 -0.77942923372E+01  0.62911426766E+02  0.65122464882E+02  0.10566000000E+00 0.  1.
         13    1    4    4    0    0 -0.53318119010E+01  0.31945348490E+01 -0.70653310126E+01  0.94108096040E+01  0.10566000000E+00 0. -1.
        -13    1    4    4    0    0 -0.32425129510E+01  0.23377773493E+01 -0.44783151688E+01  0.60037957959E+01  0.10566000000E+00 0.  1.
         14    1    4    4    0    0 -0.63362639231E+01  0.22619801389E+01 -0.76418469667E+01  0.10181484161E+02  0.00000000000E+00 0. -1.
<mgrwt>
<rscale>  0 0.79485212E+02</rscale>
<asrwt>0</asrwt>
<pdfrwt beam="1">  1        2 0.36148170E-02 0.79485212E+02</pdfrwt>
<pdfrwt beam="2">  1       -1 0.10341884E-01 0.79485212E+02</pdfrwt>
<totfact> 0.13059469E+05</totfact>
</mgrwt>
</event>
<event>
 8    1  0.2676873E-016  0.8048293E+02  0.7818608E-02  0.1327687E+00
          2   -1    0    0  501    0  0.00000000000E+00  0.00000000000E+00  0.25108797787E+02  0.25108797916E+02  0.25500000000E-02 0. -1.
         -1   -1    0    0    0  501 -0.00000000000E+00 -0.00000000000E+00 -0.64494351940E+02  0.64494352137E+02  0.50400000000E-02 0.  1.
         24    2    1    2    0    0  0.00000000000E+00  0.00000000000E+00 -0.39385554153E+02  0.89603150053E+02  0.80482933741E+02 0.  0.
         66    2    3    3    0    0 -0.24702751098E+02  0.15892912197E+02  0.10877132576E+02  0.31386662602E+02  0.20000015672E+01 0.  0.
        -13    1    3    3    0    0  0.24702751098E+02 -0.15892912197E+02 -0.50262686729E+02  0.58216487452E+02  0.10566000000E+00 0.  1.
         13    1    4    4    0    0 -0.13036965501E+02  0.82268667618E+01  0.57164619730E+01  0.16441803663E+02  0.10566000000E+00 0. -1.
        -13    1    4    4    0    0 -0.44247324382E+01  0.21409175324E+01  0.18818331908E+01  0.52644320894E+01  0.10566000000E+00 0.  1.
        -14    1    4    4    0    0 -0.72410531594E+01  0.55251279031E+01  0.32788374119E+01  0.96804268489E+01  0.00000000000E+00 0.  1.
<mgrwt>
<rscale>  0 0.80482934E+02</rscale>
<asrwt>0</asrwt>
<pdfrwt beam="1">  1        2 0.38628920E-02 0.80482934E+02</pdfrwt>
<pdfrwt beam="2">  1       -1 0.99222080E-02 0.80482934E+02</pdfrwt>
<totfact> 0.12771911E+05</totfact>
</mgrwt>
</event>
<event>
 8    1  0.2676873E-016  0.7879536E+02  0.7818608E-02  0.1332505E+00
          2   -1    0    0  501    0  0.00000000000E+00  0.00000000000E+00  0.16022022600E+04  0.16022022600E+04  0.25500000000E-02 0. -1.
         -1   -1    0    0    0  501 -0.00000000000E+00 -0.00000000000E+00 -0.96877062914E+00  0.96878373928E+00  0.50400000000E-02 0.  1.
         24    2    1    2    0    0  0.00000000000E+00  0.00000000000E+00  0.16012334894E+04  0.16031710437E+04  0.78795355243E+02 0.  0.
         66    2    3    3    0    0 -0.13198399418E+02  0.11201604886E+02  0.15206145529E+04  0.15207144019E+04  0.20000015765E+01 0.  0.
        -13    1    3    3    0    0  0.13198399418E+02 -0.11201604886E+02  0.80618936457E+02  0.82456641811E+02  0.10566000000E+00 0.  1.
         13    1    4    4    0    0 -0.58471280067E+01  0.45674774947E+01  0.66157325660E+03  0.66161486967E+03  0.10566000000E+00 0. -1.
        -13    1    4    4    0    0 -0.38007571164E+01  0.42607714677E+01  0.51910670639E+03  0.51913811622E+03  0.10566000000E+00 0.  1.
         14    1    4    4    0    0 -0.35505142946E+01  0.23733559239E+01  0.33993458994E+03  0.33996141605E+03  0.00000000000E+00 0. -1.
<mgrwt>
<rscale>  0 0.78795355E+02</rscale>
<asrwt>0</asrwt>
<pdfrwt beam="1">  1        2 0.24648940E+00 0.78795355E+02</pdfrwt>
<pdfrwt beam="2">  1       -1 0.14904461E-03 0.78795355E+02</pdfrwt>
<totfact> 0.33631155E+05</totfact>
</mgrwt>
</event>
<event>
 8    1  0.2700106E-016  0.7745157E+02  0.7818608E-02  0.1336443E+00
         -1   -1    0    0    0  501 -0.00000000000E+00  0.00000000000E+00  0.12084334162E+02  0.12084335213E+02  0.50400000000E-02 0.  1.
          2   -1    0    0  501    0  0.00000000000E+00 -0.00000000000E+00 -0.12410168490E+03  0.12410168493E+03  0.25500000000E-02 0. -1.
         24    2    1    2    0    0  0.17763568394E-14  0.35527136788E-14 -0.11201735074E+03  0.13618602014E+03  0.77451566901E+02 0.  0.
         66    2    3    3    0    0 -0.95890166400E+01 -0.23498011470E+02 -0.10741754456E+03  0.11039309158E+03  0.20000013858E+01 0.  0.
        -13    1    3    3    0    0  0.95890166400E+01  0.23498011470E+02 -0.45998061839E+01  0.25792928568E+02  0.10566000000E+00 0.  1.
         13    1    4    4    0    0 -0.63488028146E+01 -0.14756108313E+02 -0.66005344777E+02  0.67932074405E+02  0.10566000000E+00 0. -1.
        -13    1    4    4    0    0 -0.16004330349E+01 -0.38623003842E+01 -0.16423967253E+02  0.16948056364E+02  0.10566000000E+00 0.  1.
        -14    1    4    4    0    0 -0.16397807906E+01 -0.48796027729E+01 -0.24988232528E+02  0.25512960807E+02  0.00000000000E+00 0.  1.
<mgrwt>
<rscale>  0 0.77451567E+02</rscale>
<asrwt>0</asrwt>
<pdfrwt beam="1">  1        2 0.19092566E-01 0.77451567E+02</pdfrwt>
<pdfrwt beam="2">  1       -1 0.18591285E-02 0.77451567E+02</pdfrwt>
<totfact> 0.20574023E+05</totfact>
</mgrwt>
</event>
<event>
 8    1  0.2676873E-016  0.7823638E+02  0.7818608E-02  0.1334132E+00
          2   -1    0    0  501    0  0.00000000000E+00  0.00000000000E+00  0.91102563716E+03  0.91102563716E+03  0.25500000000E-02 0. -1.
         -1   -1    0    0    0  501 -0.00000000000E+00 -0.00000000000E+00 -0.16796776979E+01  0.16796852594E+01  0.50400000000E-02 0.  1.
         24    2    1    2    0    0  0.00000000000E+00  0.00000000000E+00  0.90934595946E+03  0.91270532242E+03  0.78236382772E+02 0.  0.
         66    2    3    3    0    0 -0.69844760457E+01  0.25602852003E+02  0.78983396882E+03  0.79028222000E+03  0.20000012580E+01 0.  0.
        -13    1    3    3    0    0  0.69844760457E+01 -0.25602852003E+02  0.11951199064E+03  0.12242310243E+03  0.10566000000E+00 0.  1.
         13    1    4    4    0    0 -0.16681576710E+01  0.87365148766E+01  0.27809536293E+03  0.27823758102E+03  0.10566000000E+00 0. -1.
        -13    1    4    4    0    0 -0.46231689832E+01  0.15314642094E+02  0.45949603899E+03  0.45977443705E+03  0.10566000000E+00 0.  1.
        -14    1    4    4    0    0 -0.69314939145E+00  0.15516950332E+01  0.52242566896E+02  0.52270201926E+02  0.00000000000E+00 0.  1.
<mgrwt>
<rscale>  0 0.78236383E+02</rscale>
<asrwt>0</asrwt>
<pdfrwt beam="1">  1        2 0.14015793E+00 0.78236383E+02</pdfrwt>
<pdfrwt beam="2">  1       -1 0.25841229E-03 0.78236383E+02</pdfrwt>
<totfact> 0.37074599E+05</totfact>
</mgrwt>
</event>
<event>
 8    1  0.2676873E-016  0.7513725E+02  0.7818608E-02  0.1343447E+00
         -1   -1    0    0    0  501 -0.00000000000E+00  0.00000000000E+00  0.38570040074E+02  0.38570040403E+02  0.50400000000E-02 0.  1.
          2   -1    0    0  501    0  0.00000000000E+00 -0.00000000000E+00 -0.36593209154E+02  0.36593209242E+02  0.25500000000E-02 0. -1.
         24    2    1    2    0    0  0.00000000000E+00  0.00000000000E+00  0.19768309203E+01  0.75163249646E+02  0.75137249329E+02 0.  0.
         66    2    3    3    0    0 -0.16330259084E+02 -0.10390263752E+02 -0.31189730060E+02  0.36761858084E+02  0.20000014968E+01 0.  0.
        -13    1    3    3    0    0  0.16330259084E+02  0.10390263752E+02  0.33166560980E+02  0.38401391562E+02  0.10566000000E+00 0.  1.
         13    1    4    4    0    0 -0.97541778214E+01 -0.56310664573E+01 -0.17918002005E+02  0.21164093515E+02  0.10566000000E+00 0. -1.
        -13    1    4    4    0    0 -0.38182966158E+01 -0.28193325475E+01 -0.66996035345E+01  0.82112043340E+01  0.10566000000E+00 0.  1.
        -14    1    4    4    0    0 -0.27577846473E+01 -0.19398647469E+01 -0.65721245202E+01  0.73865602350E+01  0.00000000000E+00 0.  1.
<mgrwt>
<rscale>  0 0.75137249E+02</rscale>
<asrwt>0</asrwt>
<pdfrwt beam="1">  1        2 0.56297245E-02 0.75137249E+02</pdfrwt>
<pdfrwt beam="2">  1       -1 0.59338523E-02 0.75137249E+02</pdfrwt>
<totfact> 0.16645926E+05</totfact>
</mgrwt>
</event>
<event>
 8    1  0.2676873E-016  0.7750239E+02  0.7818608E-02  0.1336292E+00
          2   -1    0    0  501    0  0.00000000000E+00  0.00000000000E+00  0.64624109354E+03  0.64624109355E+03  0.25500000000E-02 0. -1.
         -1   -1    0    0    0  501 -0.00000000000E+00 -0.00000000000E+00 -0.23236737542E+01  0.23236792200E+01  0.50400000000E-02 0.  1.
         24    2    1    2    0    0  0.17763568394E-14  0.00000000000E+00  0.64391741979E+03  0.64856477277E+03  0.77502393306E+02 0.  0.
         66    2    3    3    0    0 -0.12138623498E+02  0.44491508356E+01  0.62764587970E+03  0.62778220063E+03  0.20000013984E+01 0.  0.
        -13    1    3    3    0    0  0.12138623498E+02 -0.44491508356E+01  0.16271540090E+02  0.20782572135E+02  0.10566000000E+00 0.  1.
         13    1    4    4    0    0 -0.47183404749E+01  0.22128566177E+01  0.22712788799E+03  0.22718769364E+03  0.10566000000E+00 0. -1.
        -13    1    4    4    0    0 -0.11065257192E+00 -0.60476267452E-01  0.10090186241E+02  0.10091527326E+02  0.10566000000E+00 0. -1.
         14    1    4    4    0    0 -0.73096304516E+01  0.22967704853E+01  0.39042780546E+03  0.39050297967E+03  0.00000000000E+00 0. -1.
<mgrwt>
<rscale>  0 0.77502393E+02</rscale>
<asrwt>0</asrwt>
<pdfrwt beam="1">  1        2 0.99421654E-01 0.77502393E+02</pdfrwt>
<pdfrwt beam="2">  1       -1 0.35748888E-03 0.77502393E+02</pdfrwt>
<totfact> 0.35625279E+05</totfact>
</mgrwt>
</event>
<event>
 8    1  0.2676873E-016  0.7745583E+02  0.7818608E-02  0.1336430E+00
          2   -1    0    0  501    0  0.00000000000E+00  0.00000000000E+00  0.98742868490E+01  0.98742871783E+01  0.25500000000E-02 0. -1.
         -1   -1    0    0    0  501 -0.00000000000E+00 -0.00000000000E+00 -0.15189463406E+03  0.15189463414E+03  0.50400000000E-02 0.  1.
         24    2    1    2    0    0  0.71054273576E-14  0.44408920985E-15 -0.14202034721E+03  0.16176892132E+03  0.77455825369E+02 0.  0.
         66    2    3    3    0    0  0.35012260344E+02  0.22229215442E+01 -0.10518724475E+03  0.11090156091E+03  0.19999996504E+01 0.  0.
        -13    1    3    3    0    0 -0.35012260344E+02 -0.22229215442E+01 -0.36833102451E+02  0.50867360407E+02  0.10566000000E+00 0.  1.
         13    1    4    4    0    0  0.15052154416E+02  0.15687900021E+01 -0.47374137420E+02  0.49732771036E+02  0.10566000000E+00 0. -1.
        -13    1    4    4    0    0  0.24845345338E+01  0.34810744223E-01 -0.77901200971E+01  0.81774848701E+01  0.10566000000E+00 0.  1.
         14    1    4    4    0    0  0.17475571394E+02  0.61932079797E+00 -0.50022987238E+02  0.52991305004E+02  0.00000000000E+00 0. -1.
<mgrwt>
<rscale>  0 0.77455825E+02</rscale>
<asrwt>0</asrwt>
<pdfrwt beam="1">  1        2 0.15191212E-02 0.77455825E+02</pdfrwt>
<pdfrwt beam="2">  1       -1 0.23368404E-01 0.77455825E+02</pdfrwt>
<totfact> 0.11667857E+05</totfact>
</mgrwt>
</event>
<event>
 8    1  0.2676873E-016  0.7858604E+02  0.7818608E-02  0.1333113E+00
          2   -1    0    0  501    0  0.00000000000E+00  0.00000000000E+00  0.88600176115E+03  0.88600176116E+03  0.25500000000E-02 0. -1.
         -1   -1    0    0    0  501 -0.00000000000E+00 -0.00000000000E+00 -0.17425905905E+01  0.17425978790E+01  0.50400000000E-02 0.  1.
         24    2    1    2    0    0  0.00000000000E+00  0.00000000000E+00  0.88425917056E+03  0.88774435904E+03  0.78586043773E+02 0.  0.
         66    2    3    3    0    0 -0.74733189103E+01  0.13210023784E+02  0.85152517474E+03  0.85166277273E+03  0.20000028127E+01 0.  0.
        -13    1    3    3    0    0  0.74733189103E+01 -0.13210023784E+02  0.32733995821E+02  0.36081586306E+02  0.10566000000E+00 0.  1.
         13    1    4    4    0    0 -0.50940518384E+01  0.82416507182E+01  0.49371948552E+03  0.49381455600E+03  0.10566000000E+00 0. -1.
        -13    1    4    4    0    0 -0.66847750248E+00  0.14110319538E+01  0.10823371465E+03  0.10824502771E+03  0.10566000000E+00 0.  1.
         14    1    4    4    0    0 -0.17107895695E+01  0.35573411119E+01  0.24957197457E+03  0.24960318902E+03  0.00000000000E+00 0. -1.
<mgrwt>
<rscale>  0 0.78586044E+02</rscale>
<asrwt>0</asrwt>
<pdfrwt beam="1">  1        2 0.13630799E+00 0.78586044E+02</pdfrwt>
<pdfrwt beam="2">  1       -1 0.26809136E-03 0.78586044E+02</pdfrwt>
<totfact> 0.36535653E+05</totfact>
</mgrwt>
</event>
<event>
 8    1  0.2676873E-016  0.8072765E+02  0.7818608E-02  0.1326999E+00
         -1   -1    0    0    0  501 -0.00000000000E+00  0.00000000000E+00  0.46963536049E+01  0.46963563093E+01  0.50400000000E-02 0.  1.
          2   -1    0    0  501    0  0.00000000000E+00 -0.00000000000E+00 -0.34691547387E+03  0.34691547388E+03  0.25500000000E-02 0. -1.
         24    2    1    2    0    0  0.00000000000E+00  0.00000000000E+00 -0.34221912027E+03  0.35161183019E+03  0.80727646154E+02 0.  0.
         66    2    3    3    0    0 -0.29796851622E+02  0.69311638161E+01 -0.28573577926E+03  0.28737576265E+03  0.20000018921E+01 0.  0.
        -13    1    3    3    0    0  0.29796851622E+02 -0.69311638161E+01 -0.56483341006E+02  0.64236067545E+02  0.10566000000E+00 0.  1.
         13    1    4    4    0    0 -0.16305242879E+02  0.42729691141E+01 -0.15495543127E+03  0.15586954820E+03  0.10566000000E+00 0. -1.
        -13    1    4    4    0    0 -0.85984807293E+01  0.22102792634E+01 -0.85995045456E+02  0.86452172976E+02  0.10566000000E+00 0.  1.
        -14    1    4    4    0    0 -0.48931280141E+01  0.44791543861E+00 -0.44785302534E+02  0.45054041473E+02  0.00000000000E+00 0.  1.
<mgrwt>
<rscale>  0 0.80727646E+02</rscale>
<asrwt>0</asrwt>
<pdfrwt beam="1">  1        2 0.53371591E-01 0.80727646E+02</pdfrwt>
<pdfrwt beam="2">  1       -1 0.72251642E-03 0.80727646E+02</pdfrwt>
<totfact> 0.26235172E+05</totfact>
</mgrwt>
</event>
<event>
 8    1  0.2676873E-016  0.7928134E+02  0.7818608E-02  0.1331103E+00
         -1   -1    0    0    0  501 -0.00000000000E+00  0.00000000000E+00  0.38586126779E+02  0.38586127108E+02  0.50400000000E-02 0.  1.
          2   -1    0    0  501    0  0.00000000000E+00 -0.00000000000E+00 -0.40724030144E+02  0.40724030223E+02  0.25500000000E-02 0. -1.
         24    2    1    2    0    0  0.00000000000E+00 -0.17763568394E-14 -0.21379033642E+01  0.79310157332E+02  0.79281337181E+02 0.  0.
         66    2    3    3    0    0  0.17276121933E+02  0.10931969031E+02 -0.35014328985E+02  0.40595265344E+02  0.19999995381E+01 0.  0.
        -13    1    3    3    0    0 -0.17276121933E+02 -0.10931969031E+02  0.32876425621E+02  0.38714891987E+02  0.10566000000E+00 0.  1.
         13    1    4    4    0    0  0.36157411480E+01  0.25571648535E+01 -0.82738669340E+01  0.93851326157E+01  0.10566000000E+00 0. -1.
        -13    1    4    4    0    0  0.12754538563E+02  0.81804852638E+01 -0.25490578686E+02  0.29654331199E+02  0.10566000000E+00 0.  1.
        -14    1    4    4    0    0  0.90584222212E+00  0.19431891384E+00 -0.12498833652E+01  0.15558015292E+01  0.00000000000E+00 0.  1.
<mgrwt>
<rscale>  0 0.79281337E+02</rscale>
<asrwt>0</asrwt>
<pdfrwt beam="1">  1        2 0.62652354E-02 0.79281337E+02</pdfrwt>
<pdfrwt beam="2">  1       -1 0.59363272E-02 0.79281337E+02</pdfrwt>
<totfact> 0.14668855E+05</totfact>
</mgrwt>
</event>
<event>
 8    1  0.2676873E-016  0.7962409E+02  0.7818608E-02  0.1330122E+00
         -1   -1    0    0    0  501 -0.00000000000E+00  0.00000000000E+00  0.10447813002E+02  0.10447814217E+02  0.50400000000E-02 0.  1.
          2   -1    0    0  501    0  0.00000000000E+00 -0.00000000000E+00 -0.15170626200E+03  0.15170626202E+03  0.25500000000E-02 0. -1.
         24    2    1    2    0    0  0.35527136788E-14 -0.35527136788E-14 -0.14125844900E+03  0.16215407624E+03  0.79624085723E+02 0.  0.
         66    2    3    3    0    0 -0.18087654332E+02  0.30692532901E+02 -0.10674889718E+03  0.11255452840E+03  0.19999997570E+01 0.  0.
        -13    1    3    3    0    0  0.18087654332E+02 -0.30692532901E+02 -0.34509551819E+02  0.49599547839E+02  0.10566000000E+00 0.  1.
         13    1    4    4    0    0 -0.65230044897E+01  0.10743829381E+02 -0.38821750014E+02  0.40805868396E+02  0.10566000000E+00 0.  1.
        -13    1    4    4    0    0 -0.95797213886E+01  0.15395922804E+02 -0.52798966131E+02  0.55826046693E+02  0.10566000000E+00 0. -1.
        -14    1    4    4    0    0 -0.19849284532E+01  0.45527807156E+01 -0.15128181033E+02  0.15922613308E+02  0.00000000000E+00 0.  1.
<mgrwt>
<rscale>  0 0.79624086E+02</rscale>
<asrwt>0</asrwt>
<pdfrwt beam="1">  1        2 0.23339423E-01 0.79624086E+02</pdfrwt>
<pdfrwt beam="2">  1       -1 0.16073561E-02 0.79624086E+02</pdfrwt>
<totfact> 0.20355966E+05</totfact>
</mgrwt>
</event>
<event>
 8    1  0.2676873E-016  0.8213025E+02  0.7818608E-02  0.1323113E+00
          2   -1    0    0  501    0  0.00000000000E+00  0.00000000000E+00  0.13072825164E+03  0.13072825167E+03  0.25500000000E-02 0. -1.
         -1   -1    0    0    0  501 -0.00000000000E+00 -0.00000000000E+00 -0.12899617719E+02  0.12899618703E+02  0.50400000000E-02 0.  1.
         24    2    1    2    0    0  0.00000000000E+00 -0.35527136788E-14  0.11782863392E+03  0.14362787037E+03  0.82130251276E+02 0.  0.
         66    2    3    3    0    0 -0.45768870495E+01  0.20025760597E+02  0.12108286465E+03  0.12282930878E+03  0.20000000970E+01 0.  0.
        -13    1    3    3    0    0  0.45768870495E+01 -0.20025760597E+02 -0.32542307289E+01  0.20798561590E+02  0.10566000000E+00 0.  1.
         13    1    4    4    0    0 -0.74323201490E+00  0.40425048919E+01  0.27225372757E+02  0.27534093873E+02  0.10566000000E+00 0. -1.
        -13    1    4    4    0    0 -0.48880539059E+00  0.18540621489E+01  0.87725481589E+01  0.89802696172E+01  0.10566000000E+00 0.  1.
         14    1    4    4    0    0 -0.33448496440E+01  0.14129193556E+02  0.85084943735E+02  0.86314945288E+02  0.00000000000E+00 0. -1.
<mgrwt>
<rscale>  0 0.82130251E+02</rscale>
<asrwt>0</asrwt>
<pdfrwt beam="1">  1        2 0.20112039E-01 0.82130251E+02</pdfrwt>
<pdfrwt beam="2">  1       -1 0.19845566E-02 0.82130251E+02</pdfrwt>
<totfact> 0.17882159E+05</totfact>
</mgrwt>
</event>
<event>
 8    1  0.2676873E-016  0.7931015E+02  0.7818608E-02  0.1331021E+00
          2   -1    0    0  501    0  0.00000000000E+00  0.00000000000E+00  0.27929766036E+02  0.27929766153E+02  0.25500000000E-02 0. -1.
         -1   -1    0    0    0  501 -0.00000000000E+00 -0.00000000000E+00 -0.56302840209E+02  0.56302840435E+02  0.50400000000E-02 0.  1.
         24    2    1    2    0    0  0.00000000000E+00  0.00000000000E+00 -0.28373074173E+02  0.84232606587E+02  0.79310154927E+02 0.  0.
         66    2    3    3    0    0  0.50946550450E+01  0.36404366449E+02  0.15318942743E+01  0.36845353993E+02  0.20000010583E+01 0.  0.
        -13    1    3    3    0    0 -0.50946550450E+01 -0.36404366449E+02 -0.29904968447E+02  0.47387252594E+02  0.10566000000E+00 0.  1.
         13    1    4    4    0    0  0.29333776736E+00  0.10148556914E+01 -0.83144520340E-01  0.10649207327E+01  0.10566000000E+00 0. -1.
        -13    1    4    4    0    0  0.43909733190E+00  0.28536628200E+01  0.51717764449E+00  0.29351038667E+01  0.10566000000E+00 0.  1.
         14    1    4    4    0    0  0.43622199457E+01  0.32535847938E+02  0.10978611501E+01  0.32845329394E+02  0.00000000000E+00 0. -1.
<mgrwt>
<rscale>  0 0.79310155E+02</rscale>
<asrwt>0</asrwt>
<pdfrwt beam="1">  1        2 0.42968871E-02 0.79310155E+02</pdfrwt>
<pdfrwt beam="2">  1       -1 0.86619754E-02 0.79310155E+02</pdfrwt>
<totfact> 0.13593970E+05</totfact>
</mgrwt>
</event>
<event>
 8    1  0.2676873E-016  0.7233684E+02  0.7818608E-02  0.1352322E+00
          2   -1    0    0  501    0  0.00000000000E+00  0.00000000000E+00  0.13791564554E+03  0.13791564556E+03  0.25500000000E-02 0. -1.
         -1   -1    0    0    0  501 -0.00000000000E+00 -0.00000000000E+00 -0.94851773544E+01  0.94851786934E+01  0.50400000000E-02 0.  1.
         24    2    1    2    0    0  0.00000000000E+00  0.00000000000E+00  0.12843046818E+03  0.14740082425E+03  0.72336835936E+02 0.  0.
         66    2    3    3    0    0  0.20703499029E+02 -0.24274286930E+02  0.98861545355E+02  0.10390130427E+03  0.20000000236E+01 0.  0.
        -13    1    3    3    0    0 -0.20703499029E+02  0.24274286930E+02  0.29568922827E+02  0.43499519988E+02  0.10566000000E+00 0.  1.
         13    1    4    4    0    0  0.55262659550E+01 -0.58742150977E+01  0.23110166612E+02  0.24477274834E+02  0.10566000000E+00 0. -1.
        -13    1    4    4    0    0  0.50666403942E+01 -0.68726713029E+01  0.26854054392E+02  0.28178996736E+02  0.10566000000E+00 0.  1.
         14    1    4    4    0    0  0.10110592680E+02 -0.11527400529E+02  0.48897324351E+02  0.51245032695E+02  0.00000000000E+00 0. -1.
<mgrwt>
<rscale>  0 0.72336836E+02</rscale>
<asrwt>0</asrwt>
<pdfrwt beam="1">  1        2 0.21217793E-01 0.72336836E+02</pdfrwt>
<pdfrwt beam="2">  1       -1 0.14592581E-02 0.72336836E+02</pdfrwt>
<totfact> 0.25444145E+05</totfact>
</mgrwt>
</event>
<event>
 8    1  0.2676873E-016  0.7897108E+02  0.7818608E-02  0.1331997E+00
         -1   -1    0    0    0  501 -0.00000000000E+00  0.00000000000E+00  0.13651423647E+01  0.13651516683E+01  0.50400000000E-02 0.  1.
          2   -1    0    0  501    0  0.00000000000E+00 -0.00000000000E+00 -0.11420806174E+04  0.11420806174E+04  0.25500000000E-02 0. -1.
         24    2    1    2    0    0  0.17763568394E-14  0.00000000000E+00 -0.11407154750E+04  0.11434457690E+04  0.78971082186E+02 0.  0.
         66    2    3    3    0    0  0.11181435143E+02  0.10966755039E+02 -0.10951467741E+04  0.10952605859E+04  0.20000007151E+01 0.  0.
        -13    1    3    3    0    0 -0.11181435143E+02 -0.10966755039E+02 -0.45568700931E+02  0.48185183164E+02  0.10566000000E+00 0.  1.
         13    1    4    4    0    0  0.11927101393E+01  0.17004793059E+01 -0.17951032507E+03  0.17952237230E+03  0.10566000000E+00 0. -1.
        -13    1    4    4    0    0  0.71058304924E+01  0.70699120974E+01 -0.66376142871E+03  0.66383712000E+03  0.10566000000E+00 0.  1.
        -14    1    4    4    0    0  0.28828945117E+01  0.21963636362E+01 -0.25187502030E+03  0.25190109358E+03  0.00000000000E+00 0.  1.
<mgrwt>
<rscale>  0 0.78971082E+02</rscale>
<asrwt>0</asrwt>
<pdfrwt beam="1">  1        2 0.17570395E+00 0.78971082E+02</pdfrwt>
<pdfrwt beam="2">  1       -1 0.21002353E-03 0.78971082E+02</pdfrwt>
<totfact> 0.36390735E+05</totfact>
</mgrwt>
</event>
<event>
 8    1  0.2676873E-016  0.8003920E+02  0.7818608E-02  0.1328940E+00
         -1   -1    0    0    0  501 -0.00000000000E+00  0.00000000000E+00  0.59822983315E+02  0.59822983527E+02  0.50400000000E-02 0.  1.
          2   -1    0    0  501    0  0.00000000000E+00 -0.00000000000E+00 -0.26771790099E+02  0.26771790220E+02  0.25500000000E-02 0. -1.
         24    2    1    2    0    0 -0.17763568394E-14  0.00000000000E+00  0.33051193216E+02  0.86594773748E+02  0.80039199568E+02 0.  0.
         66    2    3    3    0    0 -0.12846310638E+02 -0.32103967145E+02 -0.52066540695E+01  0.35025728319E+02  0.19999985666E+01 0.  0.
        -13    1    3    3    0    0  0.12846310638E+02  0.32103967145E+02  0.38257847286E+02  0.51569045429E+02  0.10566000000E+00 0.  1.
         13    1    4    4    0    0 -0.60490275224E+01 -0.16356292315E+02 -0.24635471638E+01  0.17612474582E+02  0.10566000000E+00 0. -1.
        -13    1    4    4    0    0 -0.17046515466E+01 -0.41074726239E+01 -0.18144115839E+00  0.44521066004E+01  0.10566000000E+00 0.  1.
        -14    1    4    4    0    0 -0.50926315691E+01 -0.11640202206E+02 -0.25616657473E+01  0.12961147137E+02  0.00000000000E+00 0.  1.
<mgrwt>
<rscale>  0 0.80039200E+02</rscale>
<asrwt>0</asrwt>
<pdfrwt beam="1">  1        2 0.41187370E-02 0.80039200E+02</pdfrwt>
<pdfrwt beam="2">  1       -1 0.92035359E-02 0.80039200E+02</pdfrwt>
<totfact> 0.13138625E+05</totfact>
</mgrwt>
</event>
<event>
 8    1  0.2676873E-016  0.8005712E+02  0.7818608E-02  0.1328889E+00
          2   -1    0    0  501    0  0.00000000000E+00  0.00000000000E+00  0.14306340007E+02  0.14306340234E+02  0.25500000000E-02 0. -1.
         -1   -1    0    0    0  501 -0.00000000000E+00 -0.00000000000E+00 -0.11199828368E+03  0.11199828380E+03  0.50400000000E-02 0.  1.
         24    2    1    2    0    0  0.88817841970E-15 -0.71054273576E-14 -0.97691943676E+02  0.12630462403E+03  0.80057118310E+02 0.  0.
         66    2    3    3    0    0 -0.40048551960E+01  0.26406622614E+02 -0.18908062551E+01  0.26850022939E+02  0.20000001197E+01 0.  0.
        -13    1    3    3    0    0  0.40048551960E+01 -0.26406622614E+02 -0.95801137421E+02  0.99454601091E+02  0.10566000000E+00 0.  1.
         13    1    4    4    0    0 -0.91821138466E+00  0.52208314842E+01 -0.12889401749E+00  0.53035809824E+01  0.10566000000E+00 0. -1.
        -13    1    4    4    0    0 -0.21601075032E+00  0.62475086016E+01 -0.20676937998E+00  0.62555528919E+01  0.10566000000E+00 0.  1.
        -14    1    4    4    0    0 -0.28706330610E+01  0.14938282528E+02 -0.15551428577E+01  0.15290889064E+02  0.00000000000E+00 0.  1.
<mgrwt>
<rscale>  0 0.80057118E+02</rscale>
<asrwt>0</asrwt>
<pdfrwt beam="1">  1        2 0.22009755E-02 0.80057118E+02</pdfrwt>
<pdfrwt beam="2">  1       -1 0.17230505E-01 0.80057118E+02</pdfrwt>
<totfact> 0.11542635E+05</totfact>
</mgrwt>
</event>
<event>
 8    1  0.2676873E-016  0.8628290E+02  0.7818608E-02  0.1312111E+00
          2   -1    0    0  501    0  0.00000000000E+00  0.00000000000E+00  0.26509107213E+02  0.26509107336E+02  0.25500000000E-02 0. -1.
         -1   -1    0    0    0  501 -0.00000000000E+00 -0.00000000000E+00 -0.70209250331E+02  0.70209250512E+02  0.50400000000E-02 0.  1.
         24    2    1    2    0    0 -0.88817841970E-15  0.00000000000E+00 -0.43700143118E+02  0.96718357848E+02  0.86282896545E+02 0.  0.
         66    2    3    3    0    0 -0.44143034258E+01  0.24910700757E+02  0.17277502492E+02  0.30700833545E+02  0.20000002647E+01 0.  0.
        -13    1    3    3    0    0  0.44143034258E+01 -0.24910700757E+02 -0.60977645610E+02  0.66017524303E+02  0.10566000000E+00 0.  1.
         13    1    4    4    0    0 -0.15706030965E+01  0.62669611718E+01  0.50133344765E+01  0.81784034520E+01  0.10566000000E+00 0.  1.
        -13    1    4    4    0    0 -0.14766540899E+00  0.27917793640E+01  0.21229968740E+01  0.35119961351E+01  0.10566000000E+00 0. -1.
        -14    1    4    4    0    0 -0.26960349203E+01  0.15851960221E+02  0.10141171141E+02  0.19010433958E+02  0.00000000000E+00 0.  1.
<mgrwt>
<rscale>  0 0.86282897E+02</rscale>
<asrwt>0</asrwt>
<pdfrwt beam="1">  1        2 0.40783242E-02 0.86282897E+02</pdfrwt>
<pdfrwt beam="2">  1       -1 0.10801423E-01 0.86282897E+02</pdfrwt>
<totfact> 0.10592501E+05</totfact>
</mgrwt>
</event>
<event>
 8    1  0.2676873E-016  0.8304461E+02  0.7818608E-02  0.1320627E+00
          2   -1    0    0  501    0  0.00000000000E+00  0.00000000000E+00  0.25097275175E+02  0.25097275305E+02  0.25500000000E-02 0. -1.
         -1   -1    0    0    0  501 -0.00000000000E+00 -0.00000000000E+00 -0.68696766331E+02  0.68696766516E+02  0.50400000000E-02 0.  1.
         24    2    1    2    0    0  0.00000000000E+00  0.00000000000E+00 -0.43599491156E+02  0.93794041821E+02  0.83044606399E+02 0.  0.
         66    2    3    3    0    0  0.40978348298E+02  0.60853707209E+01 -0.19082959964E+02  0.45655406279E+02  0.19999988581E+01 0.  0.
        -13    1    3    3    0    0 -0.40978348298E+02 -0.60853707209E+01 -0.24516531192E+02  0.48138635542E+02  0.10566000000E+00 0.  1.
         13    1    4    4    0    0  0.77327905744E+01  0.83908634513E+00 -0.38291663959E+01  0.86702823071E+01  0.10566000000E+00 0.  1.
        -13    1    4    4    0    0  0.32156889280E+02  0.53497499973E+01 -0.14792124792E+02  0.35798093149E+02  0.10566000000E+00 0. -1.
        -14    1    4    4    0    0  0.10886684436E+01 -0.10346562153E+00 -0.46166877659E+00  0.11870308228E+01  0.00000000000E+00 0.  1.
<mgrwt>
<rscale>  0 0.83044606E+02</rscale>
<asrwt>0</asrwt>
<pdfrwt beam="1">  1        2 0.38611193E-02 0.83044606E+02</pdfrwt>
<pdfrwt beam="2">  1       -1 0.10568733E-01 0.83044606E+02</pdfrwt>
<totfact> 0.11682534E+05</totfact>
</mgrwt>
</event>
<event>
 8    1  0.2676873E-016  0.8016767E+02  0.7818608E-02  0.1328576E+00
          2   -1    0    0  501    0  0.00000000000E+00  0.00000000000E+00  0.28501445131E+02  0.28501445246E+02  0.25500000000E-02 0. -1.
         -1   -1    0    0    0  501 -0.00000000000E+00 -0.00000000000E+00 -0.56373070273E+02  0.56373070499E+02  0.50400000000E-02 0.  1.
         24    2    1    2    0    0  0.71054273576E-14  0.17763568394E-14 -0.27871625142E+02  0.84874515744E+02  0.80167673876E+02 0.  0.
         66    2    3    3    0    0 -0.37375623519E+02 -0.13685870493E+02 -0.91545940829E+01  0.40890669843E+02  0.20000006976E+01 0.  0.
        -13    1    3    3    0    0  0.37375623519E+02  0.13685870493E+02 -0.18717031059E+02  0.43983845901E+02  0.10566000000E+00 0.  1.
         13    1    4    4    0    0 -0.22235828441E+02 -0.82888583041E+01 -0.57735253921E+01  0.24422980938E+02  0.10566000000E+00 0. -1.
        -13    1    4    4    0    0 -0.81166475576E+00 -0.38678271716E-01 -0.15666696325E+00  0.83426869618E+00  0.10566000000E+00 0.  1.
        -14    1    4    4    0    0 -0.14328130323E+02 -0.53583339170E+01 -0.32244017275E+01  0.15633420208E+02  0.00000000000E+00 0.  1.
<mgrwt>
<rscale>  0 0.80167674E+02</rscale>
<asrwt>0</asrwt>
<pdfrwt beam="1">  1        2 0.43848377E-02 0.80167674E+02</pdfrwt>
<pdfrwt beam="2">  1       -1 0.86727801E-02 0.80167674E+02</pdfrwt>
<totfact> 0.13241832E+05</totfact>
</mgrwt>
</event>
<event>
 8    1  0.2676873E-016  0.7863596E+02  0.7818608E-02  0.1332968E+00
          2   -1    0    0  501    0  0.00000000000E+00  0.00000000000E+00  0.49640470786E+03  0.49640470787E+03  0.25500000000E-02 0. -1.
         -1   -1    0    0    0  501 -0.00000000000E+00 -0.00000000000E+00 -0.31141978731E+01  0.31142019515E+01  0.50400000000E-02 0.  1.
         24    2    1    2    0    0 -0.35527136788E-14  0.00000000000E+00  0.49329050999E+03  0.49951890982E+03  0.78635958840E+02 0.  0.
         66    2    3    3    0    0 -0.16073701899E+02  0.10590472966E+02  0.46439962719E+03  0.46480268475E+03  0.20000008735E+01 0.  0.
        -13    1    3    3    0    0  0.16073701899E+02 -0.10590472966E+02  0.28890882797E+02  0.34716225071E+02  0.10566000000E+00 0.  1.
         13    1    4    4    0    0 -0.17923400437E+01  0.17352729759E+01  0.69224401385E+02  0.69269420138E+02  0.10566000000E+00 0. -1.
        -13    1    4    4    0    0 -0.46804456504E+00  0.36757873698E+00  0.16767422326E+02  0.16778313245E+02  0.10566000000E+00 0. -1.
         14    1    4    4    0    0 -0.13813317290E+02  0.84876212526E+01  0.37840780348E+03  0.37875495136E+03  0.00000000000E+00 0. -1.
<mgrwt>
<rscale>  0 0.78635959E+02</rscale>
<asrwt>0</asrwt>
<pdfrwt beam="1">  1        2 0.76369913E-01 0.78635959E+02</pdfrwt>
<pdfrwt beam="2">  1       -1 0.47910794E-03 0.78635959E+02</pdfrwt>
<totfact> 0.31772821E+05</totfact>
</mgrwt>
</event>
<event>
 8    1  0.2676873E-016  0.7976052E+02  0.7818608E-02  0.1329732E+00
         -1   -1    0    0    0  501 -0.00000000000E+00  0.00000000000E+00  0.36160283453E+01  0.36160318576E+01  0.50400000000E-02 0.  1.
          2   -1    0    0  501    0  0.00000000000E+00 -0.00000000000E+00 -0.43982908994E+03  0.43982908995E+03  0.25500000000E-02 0. -1.
         24    2    1    2    0    0  0.35527136788E-14  0.00000000000E+00 -0.43621306160E+03  0.44344512181E+03  0.79760522484E+02 0.  0.
         66    2    3    3    0    0  0.18731893156E+02  0.23896863452E+02 -0.36177488555E+03  0.36305235396E+03  0.20000002878E+01 0.  0.
        -13    1    3    3    0    0 -0.18731893156E+02 -0.23896863452E+02 -0.74438176052E+02  0.80392767847E+02  0.10566000000E+00 0.  1.
         13    1    4    4    0    0  0.28736147380E+01  0.42249087476E+01 -0.58991821578E+02  0.59212783187E+02  0.10566000000E+00 0.  1.
        -13    1    4    4    0    0  0.14973115310E+02  0.18740844752E+02 -0.29085627842E+03  0.29184379265E+03  0.10566000000E+00 0. -1.
         14    1    4    4    0    0  0.88516310838E+00  0.93110995215E+00 -0.11926785542E+02  0.11995778126E+02  0.00000000000E+00 0. -1.
<mgrwt>
<rscale>  0 0.79760522E+02</rscale>
<asrwt>0</asrwt>
<pdfrwt beam="1">  1        2 0.67665972E-01 0.79760522E+02</pdfrwt>
<pdfrwt beam="2">  1       -1 0.55631267E-03 0.79760522E+02</pdfrwt>
<totfact> 0.29421818E+05</totfact>
</mgrwt>
</event>
<event>
 8    1  0.2676873E-016  0.7994848E+02  0.7818608E-02  0.1329198E+00
          2   -1    0    0  501    0  0.00000000000E+00  0.00000000000E+00  0.17569940458E+03  0.17569940460E+03  0.25500000000E-02 0. -1.
         -1   -1    0    0    0  501 -0.00000000000E+00 -0.00000000000E+00 -0.90947372203E+01  0.90947386168E+01  0.50400000000E-02 0.  1.
         24    2    1    2    0    0  0.35527136788E-14  0.00000000000E+00  0.16660466736E+03  0.18479414321E+03  0.79948484542E+02 0.  0.
         66    2    3    3    0    0 -0.18786413665E+02  0.19236327089E+02  0.15164752413E+03  0.15402576796E+03  0.20000004467E+01 0.  0.
        -13    1    3    3    0    0  0.18786413665E+02 -0.19236327089E+02  0.14957143226E+02  0.30768375254E+02  0.10566000000E+00 0.  1.
         13    1    4    4    0    0 -0.46838543241E+01  0.50503862065E+01  0.41593572576E+02  0.42160186620E+02  0.10566000000E+00 0. -1.
        -13    1    4    4    0    0 -0.61997043368E+01  0.72093930559E+01  0.52315745739E+02  0.53172926366E+02  0.10566000000E+00 0.  1.
         14    1    4    4    0    0 -0.79028550040E+01  0.69765478265E+01  0.57738205816E+02  0.58692654972E+02  0.00000000000E+00 0. -1.
<mgrwt>
<rscale>  0 0.79948485E+02</rscale>
<asrwt>0</asrwt>
<pdfrwt beam="1">  1        2 0.27030677E-01 0.79948485E+02</pdfrwt>
<pdfrwt beam="2">  1       -1 0.13991905E-02 0.79948485E+02</pdfrwt>
<totfact> 0.21137089E+05</totfact>
</mgrwt>
</event>
<event>
 8    1  0.2676873E-016  0.8014847E+02  0.7818608E-02  0.1328631E+00
         -1   -1    0    0    0  501 -0.00000000000E+00  0.00000000000E+00  0.51386422817E+01  0.51386447533E+01  0.50400000000E-02 0.  1.
          2   -1    0    0  501    0  0.00000000000E+00 -0.00000000000E+00 -0.31252301906E+03  0.31252301907E+03  0.25500000000E-02 0. -1.
         24    2    1    2    0    0  0.00000000000E+00  0.00000000000E+00 -0.30738437678E+03  0.31766166382E+03  0.80148472074E+02 0.  0.
         66    2    3    3    0    0 -0.32203662955E+02  0.14114283460E+01 -0.24798620190E+03  0.25008043580E+03  0.20000004302E+01 0.  0.
        -13    1    3    3    0    0  0.32203662955E+02 -0.14114283460E+01 -0.59398174881E+02  0.67581228022E+02  0.10566000000E+00 0.  1.
         13    1    4    4    0    0 -0.19775889577E+01 -0.23410576708E-01 -0.14429407953E+02  0.14564696497E+02  0.10566000000E+00 0. -1.
        -13    1    4    4    0    0 -0.24131286704E+02  0.17126458280E+01 -0.18301024737E+03  0.18460231299E+03  0.10566000000E+00 0.  1.
        -14    1    4    4    0    0 -0.60947872934E+01 -0.27780690531E+00 -0.50546546574E+02  0.50913426317E+02  0.00000000000E+00 0.  1.
<mgrwt>
<rscale>  0 0.80148472E+02</rscale>
<asrwt>0</asrwt>
<pdfrwt beam="1">  1        2 0.48080450E-01 0.80148472E+02</pdfrwt>
<pdfrwt beam="2">  1       -1 0.79056079E-03 0.80148472E+02</pdfrwt>
<totfact> 0.25749011E+05</totfact>
</mgrwt>
</event>
<event>
 8    1  0.2676873E-016  0.7939348E+02  0.7818608E-02  0.1330781E+00
         -1   -1    0    0    0  501 -0.00000000000E+00  0.00000000000E+00  0.62500069290E+01  0.62500089612E+01  0.50400000000E-02 0.  1.
          2   -1    0    0  501    0  0.00000000000E+00 -0.00000000000E+00 -0.25213269434E+03  0.25213269435E+03  0.25500000000E-02 0. -1.
         24    2    1    2    0    0  0.11102230246E-15  0.00000000000E+00 -0.24588268741E+03  0.25838270331E+03  0.79393484641E+02 0.  0.
         66    2    3    3    0    0  0.90480174845E+00 -0.13953635610E+02 -0.24384254163E+03  0.24425132080E+03  0.19999976558E+01 0.  0.
        -13    1    3    3    0    0 -0.90480174845E+00  0.13953635610E+02 -0.20401457815E+01  0.14131382515E+02  0.10566000000E+00 0.  1.
         13    1    4    4    0    0  0.67088105330E+00 -0.13679867584E+02 -0.23791582343E+03  0.23830975444E+03  0.10566000000E+00 0. -1.
        -13    1    4    4    0    0  0.15967206469E+00 -0.22534234989E+00 -0.53408865198E+01  0.53490660115E+01  0.10566000000E+00 0. -1.
         14    1    4    4    0    0  0.74248630459E-01 -0.48425676898E-01 -0.58583167978E+00  0.59250034797E+00  0.00000000000E+00 0. -1.
<mgrwt>
<rscale>  0 0.79393485E+02</rscale>
<asrwt>0</asrwt>
<pdfrwt beam="1">  1        2 0.38789637E-01 0.79393485E+02</pdfrwt>
<pdfrwt beam="2">  1       -1 0.96153988E-03 0.79393485E+02</pdfrwt>
<totfact> 0.24424700E+05</totfact>
</mgrwt>
</event>
<event>
 8    1  0.2676873E-016  0.7880047E+02  0.7818608E-02  0.1332490E+00
          2   -1    0    0  501    0  0.00000000000E+00  0.00000000000E+00  0.16093372146E+02  0.16093372348E+02  0.25500000000E-02 0. -1.
         -1   -1    0    0    0  501 -0.00000000000E+00 -0.00000000000E+00 -0.96460740912E+02  0.96460741043E+02  0.50400000000E-02 0.  1.
         24    2    1    2    0    0  0.00000000000E+00 -0.71054273576E-14 -0.80367368766E+02  0.11255411339E+03  0.78800472580E+02 0.  0.
         66    2    3    3    0    0  0.96048464993E+01  0.38182616911E+02 -0.39557504745E+02  0.55847663353E+02  0.20000024731E+01 0.  0.
        -13    1    3    3    0    0 -0.96048464993E+01 -0.38182616911E+02 -0.40809864021E+02  0.56706450038E+02  0.10566000000E+00 0.  1.
         13    1    4    4    0    0  0.45791914473E+01  0.20488072785E+02 -0.21090130654E+02  0.29757938366E+02  0.10566000000E+00 0. -1.
        -13    1    4    4    0    0  0.47925771335E+01  0.15583131649E+02 -0.16425013509E+02  0.23142925925E+02  0.10566000000E+00 0.  1.
        -14    1    4    4    0    0  0.23307791852E+00  0.21114124772E+01 -0.20423605815E+01  0.29467990617E+01  0.00000000000E+00 0.  1.
<mgrwt>
<rscale>  0 0.78800473E+02</rscale>
<asrwt>0</asrwt>
<pdfrwt beam="1">  1        2 0.24759035E-02 0.78800473E+02</pdfrwt>
<pdfrwt beam="2">  1       -1 0.14840114E-01 0.78800473E+02</pdfrwt>
<totfact> 0.12402051E+05</totfact>
</mgrwt>
</event>
<event>
 8    1  0.2676873E-016  0.8116975E+02  0.7818608E-02  0.1325764E+00
          2   -1    0    0  501    0  0.00000000000E+00  0.00000000000E+00  0.10264729651E+04  0.10264729651E+04  0.25500000000E-02 0. -1.
         -1   -1    0    0    0  501 -0.00000000000E+00 -0.00000000000E+00 -0.16046483957E+01  0.16046563107E+01  0.50400000000E-02 0.  1.
         24    2    1    2    0    0  0.35527136788E-14  0.00000000000E+00  0.10248683167E+04  0.10280776214E+04  0.81169754637E+02 0.  0.
         66    2    3    3    0    0  0.21685280339E+02  0.18488165041E+01  0.94625027847E+03  0.94650264605E+03  0.19999922707E+01 0.  0.
        -13    1    3    3    0    0 -0.21685280339E+02 -0.18488165041E+01  0.78618038243E+02  0.81574975372E+02  0.10566000000E+00 0.  1.
         13    1    4    4    0    0  0.15319432398E+02  0.13479116288E+01  0.64194461878E+03  0.64212880843E+03  0.10566000000E+00 0. -1.
        -13    1    4    4    0    0  0.20268844772E+01  0.45188201317E+00  0.86843334283E+02  0.86868223946E+02  0.10566000000E+00 0. -1.
         14    1    4    4    0    0  0.43389634640E+01  0.49022862189E-01  0.21746232540E+03  0.21750561367E+03  0.00000000000E+00 0. -1.
<mgrwt>
<rscale>  0 0.81169755E+02</rscale>
<asrwt>0</asrwt>
<pdfrwt beam="1">  1        2 0.15791884E+00 0.81169755E+02</pdfrwt>
<pdfrwt beam="2">  1       -1 0.24686972E-03 0.81169755E+02</pdfrwt>
<totfact> 0.33956036E+05</totfact>
</mgrwt>
</event>
<event>
 8    1  0.2676873E-016  0.7875181E+02  0.7818608E-02  0.1332631E+00
         -1   -1    0    0    0  501 -0.00000000000E+00  0.00000000000E+00  0.10534835098E+02  0.10534836304E+02  0.50400000000E-02 0.  1.
          2   -1    0    0  501    0  0.00000000000E+00 -0.00000000000E+00 -0.14717476669E+03  0.14717476671E+03  0.25500000000E-02 0. -1.
         24    2    1    2    0    0  0.00000000000E+00  0.00000000000E+00 -0.13663993159E+03  0.15770960302E+03  0.78751812538E+02 0.  0.
         66    2    3    3    0    0  0.21304687437E+02  0.26669339810E+02 -0.10757191067E+03  0.11287541520E+03  0.19999997311E+01 0.  0.
        -13    1    3    3    0    0 -0.21304687437E+02 -0.26669339810E+02 -0.29068020921E+02  0.44834187814E+02  0.10566000000E+00 0.  1.
         13    1    4    4    0    0  0.21798630557E+01  0.26092694436E+01 -0.95216229852E+01  0.10111011734E+02  0.10566000000E+00 0. -1.
        -13    1    4    4    0    0  0.21380922157E+01  0.21324189364E+01 -0.10386390735E+02  0.10816973947E+02  0.10566000000E+00 0.  1.
         14    1    4    4    0    0  0.16986732165E+02  0.21927651430E+02 -0.87663896951E+02  0.91947429521E+02  0.00000000000E+00 0. -1.
<mgrwt>
<rscale>  0 0.78751813E+02</rscale>
<asrwt>0</asrwt>
<pdfrwt beam="1">  1        2 0.22642270E-01 0.78751813E+02</pdfrwt>
<pdfrwt beam="2">  1       -1 0.16207441E-02 0.78751813E+02</pdfrwt>
<totfact> 0.20755884E+05</totfact>
</mgrwt>
</event>
<event>
 8    1  0.2676873E-016  0.7917657E+02  0.7818608E-02  0.1331405E+00
          2   -1    0    0  501    0  0.00000000000E+00  0.00000000000E+00  0.15335318262E+02  0.15335318474E+02  0.25500000000E-02 0. -1.
         -1   -1    0    0    0  501 -0.00000000000E+00 -0.00000000000E+00 -0.10219757245E+03  0.10219757257E+03  0.50400000000E-02 0.  1.
         24    2    1    2    0    0  0.00000000000E+00  0.71054273576E-14 -0.86862254188E+02  0.11753289105E+03  0.79176570243E+02 0.  0.
         66    2    3    3    0    0  0.52891519205E+00  0.38346371122E+02 -0.29028090527E+02  0.48138902980E+02  0.20000027478E+01 0.  0.
        -13    1    3    3    0    0 -0.52891519205E+00 -0.38346371122E+02 -0.57834163661E+02  0.69393988067E+02  0.10566000000E+00 0.  1.
         13    1    4    4    0    0  0.30227394089E+00  0.27689586429E+01 -0.16422527459E+01  0.32352217263E+01  0.10566000000E+00 0. -1.
        -13    1    4    4    0    0  0.38803992971E+00  0.25596364061E+02 -0.19398023562E+02  0.32118824858E+02  0.10566000000E+00 0.  1.
        -14    1    4    4    0    0 -0.16139867856E+00  0.99810484183E+01 -0.79878142196E+01  0.12784856396E+02  0.00000000000E+00 0.  1.
<mgrwt>
<rscale>  0 0.79176570E+02</rscale>
<asrwt>0</asrwt>
<pdfrwt beam="1">  1        2 0.23592798E-02 0.79176570E+02</pdfrwt>
<pdfrwt beam="2">  1       -1 0.15722703E-01 0.79176570E+02</pdfrwt>
<totfact> 0.12106216E+05</totfact>
</mgrwt>
</event>
<event>
 8    1  0.2676873E-016  0.8020109E+02  0.7818608E-02  0.1328482E+00
         -1   -1    0    0    0  501 -0.00000000000E+00  0.00000000000E+00  0.67398976878E+02  0.67398977066E+02  0.50400000000E-02 0.  1.
          2   -1    0    0  501    0  0.00000000000E+00 -0.00000000000E+00 -0.23858727490E+02  0.23858727626E+02  0.25500000000E-02 0. -1.
         24    2    1    2    0    0  0.00000000000E+00  0.00000000000E+00  0.43540249388E+02  0.91257704692E+02  0.80201093191E+02 0.  0.
         66    2    3    3    0    0  0.13304137360E+02 -0.80811541032E+01 -0.20236335354E+02  0.25608873416E+02  0.20000016352E+01 0.  0.
        -13    1    3    3    0    0 -0.13304137360E+02  0.80811541032E+01  0.63776584742E+02  0.65648831276E+02  0.10566000000E+00 0.  1.
         13    1    4    4    0    0  0.60486887849E+01 -0.37675773057E+01 -0.79165615840E+01  0.10651966303E+02  0.10566000000E+00 0. -1.
        -13    1    4    4    0    0  0.39704586590E+01 -0.27205558291E+01 -0.74601916029E+01  0.88787154910E+01  0.10566000000E+00 0.  1.
         14    1    4    4    0    0  0.32849899162E+01 -0.15930209683E+01 -0.48595821674E+01  0.60781916222E+01  0.00000000000E+00 0. -1.
<mgrwt>
<rscale>  0 0.80201093E+02</rscale>
<asrwt>0</asrwt>
<pdfrwt beam="1">  1        2 0.36705735E-02 0.80201093E+02</pdfrwt>
<pdfrwt beam="2">  1       -1 0.10369073E-01 0.80201093E+02</pdfrwt>
<totfact> 0.12769710E+05</totfact>
</mgrwt>
</event>
<event>
 8    1  0.2676873E-016  0.7968395E+02  0.7818608E-02  0.1329951E+00
          2   -1    0    0  501    0  0.00000000000E+00  0.00000000000E+00  0.57666177162E+03  0.57666177163E+03  0.25500000000E-02 0. -1.
         -1   -1    0    0    0  501 -0.00000000000E+00 -0.00000000000E+00 -0.27527084285E+01  0.27527130424E+01  0.50400000000E-02 0.  1.
         24    2    1    2    0    0  0.00000000000E+00  0.00000000000E+00  0.57390906319E+03  0.57941448467E+03  0.79683952147E+02 0.  0.
         66    2    3    3    0    0 -0.20967120061E+02  0.13083339431E+02  0.51413600625E+03  0.51473354935E+03  0.20000006347E+01 0.  0.
        -13    1    3    3    0    0  0.20967120061E+02 -0.13083339431E+02  0.59773056942E+02  0.64680935325E+02  0.10566000000E+00 0.  1.
         13    1    4    4    0    0 -0.78644067257E+01  0.53329840615E+01  0.20305930195E+03  0.20328153110E+03  0.10566000000E+00 0. -1.
        -13    1    4    4    0    0 -0.72568707606E+01  0.47600081874E+01  0.16586387991E+03  0.16609081153E+03  0.10566000000E+00 0.  1.
        -14    1    4    4    0    0 -0.58458425745E+01  0.29903471822E+01  0.14521282439E+03  0.14536120672E+03  0.00000000000E+00 0.  1.
<mgrwt>
<rscale>  0 0.79683952E+02</rscale>
<asrwt>0</asrwt>
<pdfrwt beam="1">  1        2 0.88717274E-01 0.79683952E+02</pdfrwt>
<pdfrwt beam="2">  1       -1 0.42349359E-03 0.79683952E+02</pdfrwt>
<totfact> 0.32132944E+05</totfact>
</mgrwt>
</event>
<event>
 8    1  0.2676873E-016  0.7869757E+02  0.7818608E-02  0.1332789E+00
          2   -1    0    0  501    0  0.00000000000E+00  0.00000000000E+00  0.36178492677E+03  0.36178492678E+03  0.25500000000E-02 0. -1.
         -1   -1    0    0    0  501 -0.00000000000E+00 -0.00000000000E+00 -0.42796871080E+01  0.42796900757E+01  0.50400000000E-02 0.  1.
         24    2    1    2    0    0  0.00000000000E+00  0.00000000000E+00  0.35750523966E+03  0.36606461685E+03  0.78697568750E+02 0.  0.
         66    2    3    3    0    0 -0.10475413876E+02 -0.37728638779E+02  0.16200798676E+03  0.16668464912E+03  0.19999990657E+01 0.  0.
        -13    1    3    3    0    0  0.10475413876E+02  0.37728638779E+02  0.19549725290E+03  0.19937996773E+03  0.10566000000E+00 0.  1.
         13    1    4    4    0    0 -0.13374431477E+01 -0.36026257822E+01  0.17273297826E+02  0.17695921805E+02  0.10566000000E+00 0.  1.
        -13    1    4    4    0    0 -0.26195376514E+01 -0.11949730506E+02  0.49986894242E+02  0.51462207460E+02  0.10566000000E+00 0. -1.
         14    1    4    4    0    0 -0.65184330766E+01 -0.22176282491E+02  0.94747794694E+02  0.97526519852E+02  0.00000000000E+00 0. -1.
<mgrwt>
<rscale>  0 0.78697569E+02</rscale>
<asrwt>0</asrwt>
<pdfrwt beam="1">  1        2 0.55659231E-01 0.78697569E+02</pdfrwt>
<pdfrwt beam="2">  1       -1 0.65841349E-03 0.78697569E+02</pdfrwt>
<totfact> 0.28464504E+05</totfact>
</mgrwt>
</event>
<event>
 8    1  0.2676873E-016  0.8165816E+02  0.7818608E-02  0.1324411E+00
          2   -1    0    0  501    0  0.00000000000E+00  0.00000000000E+00  0.45921195714E+02  0.45921195785E+02  0.25500000000E-02 0. -1.
         -1   -1    0    0    0  501 -0.00000000000E+00 -0.00000000000E+00 -0.36301616104E+02  0.36301616454E+02  0.50400000000E-02 0.  1.
         24    2    1    2    0    0  0.00000000000E+00  0.00000000000E+00  0.96195796099E+01  0.82222812239E+02  0.81658156608E+02 0.  0.
         66    2    3    3    0    0  0.89825418732E+01 -0.16113901648E+02 -0.31834950557E+02  0.36848445905E+02  0.20000009649E+01 0.  0.
        -13    1    3    3    0    0 -0.89825418732E+01  0.16113901648E+02  0.41454530166E+02  0.45374366334E+02  0.10566000000E+00 0.  1.
         13    1    4    4    0    0  0.53141549789E+01 -0.96177009568E+01 -0.20382911169E+02  0.23156309002E+02  0.10566000000E+00 0. -1.
        -13    1    4    4    0    0  0.24594305596E+01 -0.48580954076E+01 -0.78438230235E+01  0.95491682008E+01  0.10566000000E+00 0.  1.
        -14    1    4    4    0    0  0.12089563347E+01 -0.16381052834E+01 -0.36082163638E+01  0.41429687021E+01  0.00000000000E+00 0.  1.
<mgrwt>
<rscale>  0 0.81658157E+02</rscale>
<asrwt>0</asrwt>
<pdfrwt beam="1">  1        2 0.70647993E-02 0.81658157E+02</pdfrwt>
<pdfrwt beam="2">  1       -1 0.55848641E-02 0.81658157E+02</pdfrwt>
<totfact> 0.13866532E+05</totfact>
</mgrwt>
</event>
<event>
 8    1  0.2676873E-016  0.8018248E+02  0.7818608E-02  0.1328534E+00
          2   -1    0    0  501    0  0.00000000000E+00  0.00000000000E+00  0.84965039273E+01  0.84965043099E+01  0.25500000000E-02 0. -1.
         -1   -1    0    0    0  501 -0.00000000000E+00 -0.00000000000E+00 -0.18917281193E+03  0.18917281199E+03  0.50400000000E-02 0.  1.
         24    2    1    2    0    0  0.35527136788E-14  0.00000000000E+00 -0.18067630800E+03  0.19766931630E+03  0.80182481476E+02 0.  0.
         66    2    3    3    0    0 -0.25166590370E+02  0.24211377370E+02 -0.41975259898E+02  0.54639459374E+02  0.20000030369E+01 0.  0.
        -13    1    3    3    0    0  0.25166590370E+02 -0.24211377370E+02 -0.13870104810E+03  0.14302985693E+03  0.10566000000E+00 0.  1.
         13    1    4    4    0    0 -0.11761667463E+02  0.11543323586E+02 -0.19655996846E+02  0.25650624104E+02  0.10566000000E+00 0. -1.
        -13    1    4    4    0    0 -0.63681997704E+01  0.57939528445E+01 -0.93436042612E+01  0.12705823960E+02  0.10566000000E+00 0.  1.
        -14    1    4    4    0    0 -0.70367231369E+01  0.68741009394E+01 -0.12975658791E+02  0.16283011309E+02  0.00000000000E+00 0.  1.
<mgrwt>
<rscale>  0 0.80182481E+02</rscale>
<asrwt>0</asrwt>
<pdfrwt beam="1">  1        2 0.13071546E-02 0.80182481E+02</pdfrwt>
<pdfrwt beam="2">  1       -1 0.29103507E-01 0.80182481E+02</pdfrwt>
<totfact> 0.10068073E+05</totfact>
</mgrwt>
</event>
<event>
 8    1  0.2676873E-016  0.7957542E+02  0.7818608E-02  0.1330261E+00
         -1   -1    0    0    0  501 -0.00000000000E+00  0.00000000000E+00  0.51667396025E+02  0.51667396271E+02  0.50400000000E-02 0.  1.
          2   -1    0    0  501    0  0.00000000000E+00 -0.00000000000E+00 -0.30639473504E+02  0.30639473610E+02  0.25500000000E-02 0. -1.
         24    2    1    2    0    0  0.53290705182E-14  0.71054273576E-14  0.21027922521E+02  0.82306869881E+02  0.79575418969E+02 0.  0.
         66    2    3    3    0    0  0.11231817149E+02  0.32014074662E+02  0.31968864763E+02  0.46659007755E+02  0.19999993849E+01 0.  0.
        -13    1    3    3    0    0 -0.11231817149E+02 -0.32014074662E+02 -0.10940942242E+02  0.35647862126E+02  0.10566000000E+00 0.  1.
         13    1    4    4    0    0  0.71239966044E+00  0.19551040905E+01  0.16112131742E+01  0.26338407714E+01  0.10566000000E+00 0.  1.
        -13    1    4    4    0    0  0.15306058474E+01  0.53735012332E+01  0.46737147289E+01  0.72850561539E+01  0.10566000000E+00 0. -1.
         14    1    4    4    0    0  0.89888116411E+01  0.24685469339E+02  0.25683936859E+02  0.36740110830E+02  0.00000000000E+00 0. -1.
<mgrwt>
<rscale>  0 0.79575419E+02</rscale>
<asrwt>0</asrwt>
<pdfrwt beam="1">  1        2 0.47137652E-02 0.79575419E+02</pdfrwt>
<pdfrwt beam="2">  1       -1 0.79488302E-02 0.79575419E+02</pdfrwt>
<totfact> 0.13714119E+05</totfact>
</mgrwt>
</event>
<event>
 8    1  0.2676873E-016  0.7978602E+02  0.7818608E-02  0.1329660E+00
          2   -1    0    0  501    0  0.00000000000E+00  0.00000000000E+00  0.33893454882E+02  0.33893454978E+02  0.25500000000E-02 0. -1.
         -1   -1    0    0    0  501 -0.00000000000E+00 -0.00000000000E+00 -0.46954556745E+02  0.46954557015E+02  0.50400000000E-02 0.  1.
         24    2    1    2    0    0  0.00000000000E+00  0.35527136788E-14 -0.13061101862E+02  0.80848011993E+02  0.79786017957E+02 0.  0.
         66    2    3    3    0    0  0.22982025864E+02 -0.19152348967E+02  0.20168756666E+02  0.36135366739E+02  0.20000000414E+01 0.  0.
        -13    1    3    3    0    0 -0.22982025864E+02  0.19152348967E+02 -0.33229858528E+02  0.44712645254E+02  0.10566000000E+00 0.  1.
         13    1    4    4    0    0  0.83007290154E+01 -0.66369323120E+01  0.63691156494E+01  0.12390632385E+02  0.10566000000E+00 0. -1.
        -13    1    4    4    0    0  0.57025039945E+01 -0.49431482237E+01  0.60494290896E+01  0.96726429953E+01  0.10566000000E+00 0.  1.
        -14    1    4    4    0    0  0.89787928544E+01 -0.75722684308E+01  0.77502119270E+01  0.14072091359E+02  0.00000000000E+00 0.  1.
<mgrwt>
<rscale>  0 0.79786018E+02</rscale>
<asrwt>0</asrwt>
<pdfrwt beam="1">  1        2 0.52143777E-02 0.79786018E+02</pdfrwt>
<pdfrwt beam="2">  1       -1 0.72237780E-02 0.79786018E+02</pdfrwt>
<totfact> 0.13888257E+05</totfact>
</mgrwt>
</event>
<event>
 8    1  0.2676873E-016  0.7989135E+02  0.7818608E-02  0.1329360E+00
         -1   -1    0    0    0  501 -0.00000000000E+00  0.00000000000E+00  0.26452956319E+01  0.26453004332E+01  0.50400000000E-02 0.  1.
          2   -1    0    0  501    0  0.00000000000E+00 -0.00000000000E+00 -0.60320504792E+03  0.60320504793E+03  0.25500000000E-02 0. -1.
         24    2    1    2    0    0  0.00000000000E+00 -0.22204460493E-15 -0.60055975229E+03  0.60585034836E+03  0.79891354588E+02 0.  0.
         66    2    3    3    0    0 -0.16478568504E+02  0.19384026746E+01 -0.57581507252E+03  0.57605754779E+03  0.20000001756E+01 0.  0.
        -13    1    3    3    0    0  0.16478568504E+02 -0.19384026746E+01 -0.24744679775E+02  0.29792800575E+02  0.10566000000E+00 0.  1.
         13    1    4    4    0    0 -0.45606993132E+01  0.72800248320E+00 -0.17552959769E+03  0.17559037785E+03  0.10566000000E+00 0. -1.
        -13    1    4    4    0    0 -0.45196449149E+01  0.37008090511E+00 -0.12980518154E+03  0.12988441195E+03  0.10566000000E+00 0.  1.
        -14    1    4    4    0    0 -0.73982242762E+01  0.84031928626E+00 -0.27048029329E+03  0.27058275798E+03  0.00000000000E+00 0.  1.
<mgrwt>
<rscale>  0 0.79891355E+02</rscale>
<asrwt>0</asrwt>
<pdfrwt beam="1">  1        2 0.92800667E-01 0.79891355E+02</pdfrwt>
<pdfrwt beam="2">  1       -1 0.40696941E-03 0.79891355E+02</pdfrwt>
<totfact> 0.32325210E+05</totfact>
</mgrwt>
</event>
<event>
 8    1  0.2676873E-016  0.8247056E+02  0.7818608E-02  0.1322183E+00
         -1   -1    0    0    0  501 -0.00000000000E+00  0.00000000000E+00  0.27500252932E+02  0.27500253394E+02  0.50400000000E-02 0.  1.
          2   -1    0    0  501    0  0.00000000000E+00 -0.00000000000E+00 -0.61830282752E+02  0.61830282805E+02  0.25500000000E-02 0. -1.
         24    2    1    2    0    0 -0.35527136788E-14  0.00000000000E+00 -0.34330029820E+02  0.89330536199E+02  0.82470562931E+02 0.  0.
         66    2    3    3    0    0 -0.23875485943E+02  0.13570611850E+02 -0.50457884829E+02  0.57482157806E+02  0.19999974125E+01 0.  0.
        -13    1    3    3    0    0  0.23875485943E+02 -0.13570611850E+02  0.16127855009E+02  0.31848378392E+02  0.10566000000E+00 0.  1.
         13    1    4    4    0    0 -0.16517461441E+02  0.88432893545E+01 -0.33889597031E+02  0.38723975132E+02  0.10566000000E+00 0. -1.
        -13    1    4    4    0    0 -0.28029760567E+01  0.19136235397E+01 -0.55156277871E+01  0.64770320168E+01  0.10566000000E+00 0.  1.
         14    1    4    4    0    0 -0.45550484446E+01  0.28136989562E+01 -0.11052660011E+02  0.12281150657E+02  0.00000000000E+00 0. -1.
<mgrwt>
<rscale>  0 0.82470563E+02</rscale>
<asrwt>0</asrwt>
<pdfrwt beam="1">  1        2 0.95123512E-02 0.82470563E+02</pdfrwt>
<pdfrwt beam="2">  1       -1 0.42308082E-02 0.82470563E+02</pdfrwt>
<totfact> 0.14429062E+05</totfact>
</mgrwt>
</event>
<event>
 8    1  0.2676873E-016  0.8054669E+02  0.7818608E-02  0.1327507E+00
         -1   -1    0    0    0  501 -0.00000000000E+00  0.00000000000E+00  0.13204173750E+01  0.13204269937E+01  0.50400000000E-02 0.  1.
          2   -1    0    0  501    0  0.00000000000E+00 -0.00000000000E+00 -0.12283511764E+04  0.12283511764E+04  0.25500000000E-02 0. -1.
         24    2    1    2    0    0  0.00000000000E+00  0.00000000000E+00 -0.12270307590E+04  0.12296716034E+04  0.80546685876E+02 0.  0.
         66    2    3    3    0    0 -0.12356737541E+02  0.13689954590E+02 -0.11600504357E+04  0.11601987404E+04  0.19999960128E+01 0.  0.
        -13    1    3    3    0    0  0.12356737541E+02 -0.13689954590E+02 -0.66980323309E+02  0.69472863004E+02  0.10566000000E+00 0.  1.
         13    1    4    4    0    0 -0.54518843280E+01  0.58947168688E+01 -0.46844862443E+03  0.46851744431E+03  0.10566000000E+00 0. -1.
        -13    1    4    4    0    0 -0.31730461011E+01  0.44933881317E+01 -0.35799721371E+03  0.35803948798E+03  0.10566000000E+00 0.  1.
         14    1    4    4    0    0 -0.37318071120E+01  0.33018495895E+01 -0.33360459753E+03  0.33364180807E+03  0.00000000000E+00 0. -1.
<mgrwt>
<rscale>  0 0.80546686E+02</rscale>
<asrwt>0</asrwt>
<pdfrwt beam="1">  1        2 0.18897619E+00 0.80546686E+02</pdfrwt>
<pdfrwt beam="2">  1       -1 0.20314286E-03 0.80546686E+02</pdfrwt>
<totfact> 0.34325988E+05</totfact>
</mgrwt>
</event>
<event>
 8    1  0.2676873E-016  0.8181294E+02  0.7818608E-02  0.1323984E+00
          2   -1    0    0  501    0  0.00000000000E+00  0.00000000000E+00  0.14026590923E+03  0.14026590925E+03  0.25500000000E-02 0. -1.
         -1   -1    0    0    0  501 -0.00000000000E+00 -0.00000000000E+00 -0.11929764034E+02  0.11929765098E+02  0.50400000000E-02 0.  1.
         24    2    1    2    0    0 -0.71054273576E-14  0.55511151231E-16  0.12833614520E+03  0.15219567435E+03  0.81812939853E+02 0.  0.
         66    2    3    3    0    0  0.40611092716E+02 -0.41088530525E+00  0.72912903528E+02  0.83484855994E+02  0.20000002909E+01 0.  0.
        -13    1    3    3    0    0 -0.40611092716E+02  0.41088530525E+00  0.55423241670E+02  0.68710818359E+02  0.10566000000E+00 0.  1.
         13    1    4    4    0    0  0.22647250956E+02 -0.53807065645E+00  0.40696274339E+02  0.46576661592E+02  0.10566000000E+00 0. -1.
        -13    1    4    4    0    0  0.17457262201E+02  0.28965666693E+00  0.31505403224E+02  0.36020015281E+02  0.10566000000E+00 0.  1.
        -14    1    4    4    0    0  0.50657955842E+00 -0.16247131573E+00  0.71122596446E+00  0.88817912043E+00  0.00000000000E+00 0.  1.
<mgrwt>
<rscale>  0 0.81812940E+02</rscale>
<asrwt>0</asrwt>
<pdfrwt beam="1">  1        2 0.21579370E-01 0.81812940E+02</pdfrwt>
<pdfrwt beam="2">  1       -1 0.18353484E-02 0.81812940E+02</pdfrwt>
<totfact> 0.18471168E+05</totfact>
</mgrwt>
</event>
<event>
 8    1  0.2676873E-016  0.7930037E+02  0.7818608E-02  0.1331049E+00
         -1   -1    0    0    0  501 -0.00000000000E+00  0.00000000000E+00  0.61857539848E+02  0.61857540054E+02  0.50400000000E-02 0.  1.
          2   -1    0    0  501    0  0.00000000000E+00 -0.00000000000E+00 -0.25415448446E+02  0.25415448574E+02  0.25500000000E-02 0. -1.
         24    2    1    2    0    0 -0.71054273576E-14 -0.88817841970E-15  0.36442091402E+02  0.87272988627E+02  0.79300368966E+02 0.  0.
         66    2    3    3    0    0 -0.34555614612E+02 -0.58590512501E+01 -0.21113578041E+01  0.35169259466E+02  0.19999992079E+01 0.  0.
        -13    1    3    3    0    0  0.34555614612E+02  0.58590512501E+01  0.38553449206E+02  0.52103729161E+02  0.10566000000E+00 0.  1.
         13    1    4    4    0    0 -0.15830166959E+02 -0.34389574156E+01 -0.90360550803E+00  0.16224927766E+02  0.10566000000E+00 0. -1.
        -13    1    4    4    0    0 -0.22978106099E+01 -0.19915341338E+00  0.13617603839E+00  0.23128561628E+01  0.10566000000E+00 0.  1.
         14    1    4    4    0    0 -0.16427637043E+02 -0.22209404211E+01 -0.13439283344E+01  0.16631475537E+02  0.00000000000E+00 0. -1.
<mgrwt>
<rscale>  0 0.79300369E+02</rscale>
<asrwt>0</asrwt>
<pdfrwt beam="1">  1        2 0.39100691E-02 0.79300369E+02</pdfrwt>
<pdfrwt beam="2">  1       -1 0.95165445E-02 0.79300369E+02</pdfrwt>
<totfact> 0.13350045E+05</totfact>
</mgrwt>
</event>
<event>
 8    1  0.2676873E-016  0.8059882E+02  0.7818608E-02  0.1327361E+00
         -1   -1    0    0    0  501 -0.00000000000E+00  0.00000000000E+00  0.69620449979E+02  0.69620450161E+02  0.50400000000E-02 0.  1.
          2   -1    0    0  501    0  0.00000000000E+00 -0.00000000000E+00 -0.23327090060E+02  0.23327090199E+02  0.25500000000E-02 0. -1.
         24    2    1    2    0    0  0.00000000000E+00 -0.71054273576E-14  0.46293359919E+02  0.92947540360E+02  0.80598821867E+02 0.  0.
         66    2    3    3    0    0  0.20274194197E+02 -0.32463516480E+02  0.87059086091E+01  0.39302871356E+02  0.19999998716E+01 0.  0.
        -13    1    3    3    0    0 -0.20274194197E+02  0.32463516480E+02  0.37587451310E+02  0.53644669005E+02  0.10566000000E+00 0.  1.
         13    1    4    4    0    0  0.11350172713E+02 -0.18722433037E+02  0.50660658021E+01  0.22472919396E+02  0.10566000000E+00 0.  1.
        -13    1    4    4    0    0  0.67781331755E+01 -0.10925192068E+02  0.24051210323E+01  0.13080469498E+02  0.10566000000E+00 0. -1.
        -14    1    4    4    0    0  0.21458883080E+01 -0.28158913754E+01  0.12347217746E+01  0.37494824615E+01  0.00000000000E+00 0.  1.
<mgrwt>
<rscale>  0 0.80598822E+02</rscale>
<asrwt>0</asrwt>
<pdfrwt beam="1">  1        2 0.35887831E-02 0.80598822E+02</pdfrwt>
<pdfrwt beam="2">  1       -1 0.10710838E-01 0.80598822E+02</pdfrwt>
<totfact> 0.12534980E+05</totfact>
</mgrwt>
</event>
<event>
 8    1  0.2676873E-016  0.8047204E+02  0.7818608E-02  0.1327717E+00
         -1   -1    0    0    0  501 -0.00000000000E+00  0.00000000000E+00  0.31226384892E+03  0.31226384896E+03  0.50400000000E-02 0.  1.
          2   -1    0    0  501    0  0.00000000000E+00 -0.00000000000E+00 -0.51845172415E+01  0.51845178686E+01  0.25500000000E-02 0. -1.
         24    2    1    2    0    0  0.00000000000E+00  0.71054273576E-14  0.30707933167E+03  0.31744836683E+03  0.80472042713E+02 0.  0.
         66    2    3    3    0    0 -0.12607581310E+02 -0.35570302333E+02  0.98868587474E+02  0.10584514691E+03  0.20000051134E+01 0.  0.
        -13    1    3    3    0    0  0.12607581310E+02  0.35570302333E+02  0.20821074420E+03  0.21160321992E+03  0.10566000000E+00 0.  1.
         13    1    4    4    0    0 -0.17021510710E+01 -0.31924476322E+01  0.94679761015E+01  0.10136211109E+02  0.10566000000E+00 0. -1.
        -13    1    4    4    0    0 -0.55368927888E+01 -0.15500544201E+02  0.43495348861E+02  0.46505704906E+02  0.10566000000E+00 0.  1.
        -14    1    4    4    0    0 -0.53685374502E+01 -0.16877310499E+02  0.45905262512E+02  0.49203230894E+02  0.00000000000E+00 0.  1.
<mgrwt>
<rscale>  0 0.80472043E+02</rscale>
<asrwt>0</asrwt>
<pdfrwt beam="1">  1        2 0.79761797E-03 0.80472043E+02</pdfrwt>
<pdfrwt beam="2">  1       -1 0.48040599E-01 0.80472043E+02</pdfrwt>
<totfact> 0.83744424E+04</totfact>
</mgrwt>
</event>
<event>
 8    1  0.2676873E-016  0.8023936E+02  0.7818608E-02  0.1328374E+00
         -1   -1    0    0    0  501 -0.00000000000E+00  0.00000000000E+00  0.10865723685E+02  0.10865724854E+02  0.50400000000E-02 0.  1.
          2   -1    0    0  501    0  0.00000000000E+00 -0.00000000000E+00 -0.14813450275E+03  0.14813450277E+03  0.25500000000E-02 0. -1.
         24    2    1    2    0    0 -0.17763568394E-14 -0.35527136788E-14 -0.13726877906E+03  0.15900022762E+03  0.80239358664E+02 0.  0.
         66    2    3    3    0    0  0.15274553900E+02 -0.24582780244E+02 -0.12366188129E+03  0.12701923464E+03  0.20000004787E+01 0.  0.
        -13    1    3    3    0    0 -0.15274553900E+02  0.24582780244E+02 -0.13606897772E+02  0.31980992987E+02  0.10566000000E+00 0.  1.
         13    1    4    4    0    0  0.55991206510E+01 -0.95147906906E+01 -0.49415844424E+02  0.50634160783E+02  0.10566000000E+00 0. -1.
        -13    1    4    4    0    0  0.43118810398E+01 -0.78530032138E+01 -0.37299689637E+02  0.38360656781E+02  0.10566000000E+00 0.  1.
        -14    1    4    4    0    0  0.53635522093E+01 -0.72149863398E+01 -0.36946347230E+02  0.38024417074E+02  0.00000000000E+00 0.  1.
<mgrwt>
<rscale>  0 0.80239359E+02</rscale>
<asrwt>0</asrwt>
<pdfrwt beam="1">  1        2 0.22789922E-01 0.80239359E+02</pdfrwt>
<pdfrwt beam="2">  1       -1 0.16716500E-02 0.80239359E+02</pdfrwt>
<totfact> 0.19791968E+05</totfact>
</mgrwt>
</event>
<event>
 8    1  0.2676873E-016  0.8061736E+02  0.7818608E-02  0.1327309E+00
          2   -1    0    0  501    0  0.00000000000E+00  0.00000000000E+00  0.30300498645E+03  0.30300498646E+03  0.25500000000E-02 0. -1.
         -1   -1    0    0    0  501 -0.00000000000E+00 -0.00000000000E+00 -0.53622526561E+01  0.53622550246E+01  0.50400000000E-02 0.  1.
         24    2    1    2    0    0 -0.71054273576E-14 -0.44408920985E-15  0.29764273379E+03  0.30836724148E+03  0.80617359426E+02 0.  0.
         66    2    3    3    0    0  0.34754524494E+02  0.29780695132E+01  0.22598946439E+03  0.22867440585E+03  0.20000014724E+01 0.  0.
        -13    1    3    3    0    0 -0.34754524494E+02 -0.29780695132E+01  0.71653269399E+02  0.79692835628E+02  0.10566000000E+00 0.  1.
         13    1    4    4    0    0  0.24244853298E+02  0.20850780886E+01  0.15676324251E+03  0.15864074454E+03  0.10566000000E+00 0. -1.
        -13    1    4    4    0    0  0.31686734817E+00  0.19563325323E+00  0.26156034562E+01  0.26440920486E+01  0.10566000000E+00 0. -1.
         14    1    4    4    0    0  0.10192803848E+02  0.69735817130E+00  0.66610618429E+02  0.67389569268E+02  0.00000000000E+00 0. -1.
<mgrwt>
<rscale>  0 0.80617359E+02</rscale>
<asrwt>0</asrwt>
<pdfrwt beam="1">  1        2 0.46616139E-01 0.80617359E+02</pdfrwt>
<pdfrwt beam="2">  1       -1 0.82496236E-03 0.80617359E+02</pdfrwt>
<totfact> 0.25075980E+05</totfact>
</mgrwt>
</event>
<event>
 8    1  0.2676873E-016  0.7985600E+02  0.7818608E-02  0.1329461E+00
          2   -1    0    0  501    0  0.00000000000E+00  0.00000000000E+00  0.85148285142E+02  0.85148285180E+02  0.25500000000E-02 0. -1.
         -1   -1    0    0    0  501 -0.00000000000E+00 -0.00000000000E+00 -0.18723163048E+02  0.18723163726E+02  0.50400000000E-02 0.  1.
         24    2    1    2    0    0  0.22204460493E-15  0.17763568394E-14  0.66425122094E+02  0.10387144891E+03  0.79856001983E+02 0.  0.
         66    2    3    3    0    0  0.12285213772E+01  0.11036601994E+02  0.83085998150E+02  0.83848666798E+02  0.19999967240E+01 0.  0.
        -13    1    3    3    0    0 -0.12285213772E+01 -0.11036601994E+02 -0.16660876056E+02  0.20022782108E+02  0.10566000000E+00 0.  1.
         13    1    4    4    0    0  0.41829683497E+00  0.16686589791E+01  0.12590317286E+02  0.12707739705E+02  0.10566000000E+00 0. -1.
        -13    1    4    4    0    0  0.77006468829E+00  0.91094827811E+01  0.69825757664E+02  0.70421752844E+02  0.10566000000E+00 0.  1.
        -14    1    4    4    0    0  0.40159853941E-01  0.25846023418E+00  0.66992320040E+00  0.71917424937E+00  0.00000000000E+00 0.  1.
<mgrwt>
<rscale>  0 0.79856002E+02</rscale>
<asrwt>0</asrwt>
<pdfrwt beam="1">  1        2 0.13099736E-01 0.79856002E+02</pdfrwt>
<pdfrwt beam="2">  1       -1 0.28804867E-02 0.79856002E+02</pdfrwt>
<totfact> 0.17051069E+05</totfact>
</mgrwt>
</event>
<event>
 8    1  0.2676873E-016  0.7660994E+02  0.7818608E-02  0.1338957E+00
          2   -1    0    0  501    0  0.00000000000E+00  0.00000000000E+00  0.57386786003E+02  0.57386786060E+02  0.25500000000E-02 0. -1.
         -1   -1    0    0    0  501 -0.00000000000E+00 -0.00000000000E+00 -0.25568090576E+02  0.25568091073E+02  0.50400000000E-02 0.  1.
         24    2    1    2    0    0  0.71054273576E-14  0.27755575616E-16  0.31818695428E+02  0.82954877133E+02  0.76609935788E+02 0.  0.
         66    2    3    3    0    0  0.32499737530E+02 -0.14678339319E+00  0.37819166818E+02  0.49905349060E+02  0.20000002816E+01 0.  0.
        -13    1    3    3    0    0 -0.32499737530E+02  0.14678339319E+00 -0.60004713910E+01  0.33049528072E+02  0.10566000000E+00 0.  1.
         13    1    4    4    0    0  0.99443575233E+01 -0.56161330389E+00  0.12475457018E+02  0.15964142567E+02  0.10566000000E+00 0. -1.
        -13    1    4    4    0    0  0.34976318600E+00 -0.17775699285E-01  0.37252781891E+00  0.52210274202E+00  0.10566000000E+00 0. -1.
        -14    1    4    4    0    0  0.22205616820E+02  0.43260560998E+00  0.24971181982E+02  0.33419103751E+02  0.00000000000E+00 0.  1.
<mgrwt>
<rscale>  0 0.76609936E+02</rscale>
<asrwt>0</asrwt>
<pdfrwt beam="1">  1        2 0.88287363E-02 0.76609936E+02</pdfrwt>
<pdfrwt beam="2">  1       -1 0.39335525E-02 0.76609936E+02</pdfrwt>
<totfact> 0.17331714E+05</totfact>
</mgrwt>
</event>
<event>
 8    1  0.2676873E-016  0.8267881E+02  0.7818608E-02  0.1321617E+00
         -1   -1    0    0    0  501 -0.00000000000E+00  0.00000000000E+00  0.39738274732E+02  0.39738275052E+02  0.50400000000E-02 0.  1.
          2   -1    0    0  501    0  0.00000000000E+00 -0.00000000000E+00 -0.43005048224E+02  0.43005048299E+02  0.25500000000E-02 0. -1.
         24    2    1    2    0    0  0.00000000000E+00  0.22204460493E-15 -0.32667734917E+01  0.82743323351E+02  0.82678810769E+02 0.  0.
         66    2    3    3    0    0  0.15106781844E+02 -0.13383107876E+01 -0.40095245361E+02  0.42914270667E+02  0.19999982168E+01 0.  0.
        -13    1    3    3    0    0 -0.15106781844E+02  0.13383107876E+01  0.36828471869E+02  0.39829052684E+02  0.10566000000E+00 0.  1.
         13    1    4    4    0    0  0.34984156667E+01 -0.34633365698E+00 -0.91016039840E+01  0.97575211143E+01  0.10566000000E+00 0. -1.
        -13    1    4    4    0    0  0.68784590634E+01  0.10415154262E+00 -0.19568804753E+02  0.20743030881E+02  0.10566000000E+00 0.  1.
         14    1    4    4    0    0  0.47299071139E+01 -0.10961286732E+01 -0.11424836624E+02  0.12413718672E+02  0.00000000000E+00 0. -1.
<mgrwt>
<rscale>  0 0.82678811E+02</rscale>
<asrwt>0</asrwt>
<pdfrwt beam="1">  1        2 0.66161613E-02 0.82678811E+02</pdfrwt>
<pdfrwt beam="2">  1       -1 0.61135807E-02 0.82678811E+02</pdfrwt>
<totfact> 0.13212142E+05</totfact>
</mgrwt>
</event>
<event>
 8    1  0.2676873E-016  0.7746707E+02  0.7818608E-02  0.1336397E+00
         -1   -1    0    0    0  501 -0.00000000000E+00  0.00000000000E+00  0.12044568977E+03  0.12044568988E+03  0.50400000000E-02 0.  1.
          2   -1    0    0  501    0  0.00000000000E+00 -0.00000000000E+00 -0.12456124943E+02  0.12456125204E+02  0.25500000000E-02 0. -1.
         24    2    1    2    0    0  0.17763568394E-14 -0.71054273576E-14  0.10798956483E+03  0.13290181508E+03  0.77467066165E+02 0.  0.
         66    2    3    3    0    0 -0.14886010341E+02  0.34522032835E+02  0.38221369883E+02  0.53649204746E+02  0.19999998195E+01 0.  0.
        -13    1    3    3    0    0  0.14886010341E+02 -0.34522032835E+02  0.69768194948E+02  0.79252610338E+02  0.10566000000E+00 0.  1.
         13    1    4    4    0    0 -0.46780807506E+01  0.92390190737E+01  0.10299218415E+02  0.14605785736E+02  0.10566000000E+00 0. -1.
        -13    1    4    4    0    0 -0.31559469599E+01  0.88263698489E+01  0.90542877388E+01  0.13032885191E+02  0.10566000000E+00 0.  1.
         14    1    4    4    0    0 -0.70519826303E+01  0.16456643912E+02  0.18867863729E+02  0.26010533819E+02  0.00000000000E+00 0. -1.
<mgrwt>
<rscale>  0 0.77467066E+02</rscale>
<asrwt>0</asrwt>
<pdfrwt beam="1">  1        2 0.19163268E-02 0.77467066E+02</pdfrwt>
<pdfrwt beam="2">  1       -1 0.18530107E-01 0.77467066E+02</pdfrwt>
<totfact> 0.12331346E+05</totfact>
</mgrwt>
</event>
<event>
 8    1  0.2676873E-016  0.7992330E+02  0.7818608E-02  0.1329269E+00
         -1   -1    0    0    0  501 -0.00000000000E+00  0.00000000000E+00  0.41635210426E+01  0.41635240931E+01  0.50400000000E-02 0.  1.
          2   -1    0    0  501    0  0.00000000000E+00 -0.00000000000E+00 -0.38355348707E+03  0.38355348708E+03  0.25500000000E-02 0. -1.
         24    2    1    2    0    0  0.00000000000E+00  0.00000000000E+00 -0.37938996602E+03  0.38771701117E+03  0.79923303420E+02 0.  0.
         66    2    3    3    0    0 -0.19528525021E+02  0.27380121420E+02 -0.29429771810E+03  0.29621981909E+03  0.20000001686E+01 0.  0.
        -13    1    3    3    0    0  0.19528525021E+02 -0.27380121420E+02 -0.85092247922E+02  0.91497192083E+02  0.10566000000E+00 0.  1.
         13    1    4    4    0    0 -0.15967880397E+02  0.22706253971E+02 -0.24812196521E+03  0.24966991800E+03  0.10566000000E+00 0. -1.
        -13    1    4    4    0    0 -0.14613166968E+01  0.19986961743E+01 -0.18052560850E+02  0.18221864618E+02  0.10566000000E+00 0.  1.
         14    1    4    4    0    0 -0.20993279276E+01  0.26751712751E+01 -0.28123192047E+02  0.28328036466E+02  0.00000000000E+00 0. -1.
<mgrwt>
<rscale>  0 0.79923303E+02</rscale>
<asrwt>0</asrwt>
<pdfrwt beam="1">  1        2 0.59008201E-01 0.79923303E+02</pdfrwt>
<pdfrwt beam="2">  1       -1 0.64054224E-03 0.79923303E+02</pdfrwt>
<totfact> 0.27909657E+05</totfact>
</mgrwt>
</event>
<event>
 8    1  0.2676873E-016  0.7838088E+02  0.7818608E-02  0.1333710E+00
          2   -1    0    0  501    0  0.00000000000E+00  0.00000000000E+00  0.24307270860E+03  0.24307270861E+03  0.25500000000E-02 0. -1.
         -1   -1    0    0    0  501 -0.00000000000E+00 -0.00000000000E+00 -0.63186453124E+01  0.63186473224E+01  0.50400000000E-02 0.  1.
         24    2    1    2    0    0  0.00000000000E+00  0.00000000000E+00  0.23675406328E+03  0.24939135593E+03  0.78380877338E+02 0.  0.
         66    2    3    3    0    0 -0.39122015132E+02 -0.16705594553E+01  0.11606709824E+03  0.12251079189E+03  0.19999995050E+01 0.  0.
        -13    1    3    3    0    0  0.39122015132E+02  0.16705594553E+01  0.12068696504E+03  0.12688056404E+03  0.10566000000E+00 0.  1.
         13    1    4    4    0    0 -0.33848659161E+02 -0.18905627733E+01  0.10125369672E+03  0.10677840707E+03  0.10566000000E+00 0. -1.
        -13    1    4    4    0    0 -0.28847713598E+01  0.22801913613E+00  0.86809275234E+01  0.91511510329E+01  0.10566000000E+00 0.  1.
         14    1    4    4    0    0 -0.23885846109E+01 -0.80158181695E-02  0.61324740038E+01  0.65812337828E+01  0.00000000000E+00 0. -1.
<mgrwt>
<rscale>  0 0.78380877E+02</rscale>
<asrwt>0</asrwt>
<pdfrwt beam="1">  1        2 0.37395799E-01 0.78380877E+02</pdfrwt>
<pdfrwt beam="2">  1       -1 0.97209949E-03 0.78380877E+02</pdfrwt>
<totfact> 0.24933780E+05</totfact>
</mgrwt>
</event>
<event>
 8    1  0.2676873E-016  0.7936823E+02  0.7818608E-02  0.1330854E+00
          2   -1    0    0  501    0  0.00000000000E+00  0.00000000000E+00  0.23528977978E+02  0.23528978116E+02  0.25500000000E-02 0. -1.
         -1   -1    0    0    0  501 -0.00000000000E+00 -0.00000000000E+00 -0.66931459206E+02  0.66931459396E+02  0.50400000000E-02 0.  1.
         24    2    1    2    0    0  0.17763568394E-14  0.00000000000E+00 -0.43402481228E+02  0.90460437512E+02  0.79368226502E+02 0.  0.
         66    2    3    3    0    0 -0.12902107629E+02  0.37427466811E+02 -0.19031287855E+02  0.43971235716E+02  0.19999999641E+01 0.  0.
        -13    1    3    3    0    0  0.12902107629E+02 -0.37427466811E+02 -0.24371193373E+02  0.46489201796E+02  0.10566000000E+00 0.  1.
         13    1    4    4    0    0 -0.64269215405E+01  0.16573424181E+02 -0.84199130167E+01  0.19669514708E+02  0.10566000000E+00 0. -1.
        -13    1    4    4    0    0 -0.70985584722E+00  0.35239905166E+01 -0.16140939812E+01  0.39419370747E+01  0.10566000000E+00 0.  1.
         14    1    4    4    0    0 -0.57653302411E+01  0.17330052113E+02 -0.89972808572E+01  0.20359783934E+02  0.00000000000E+00 0. -1.
<mgrwt>
<rscale>  0 0.79368227E+02</rscale>
<asrwt>0</asrwt>
<pdfrwt beam="1">  1        2 0.36198428E-02 0.79368227E+02</pdfrwt>
<pdfrwt beam="2">  1       -1 0.10297148E-01 0.79368227E+02</pdfrwt>
<totfact> 0.13117765E+05</totfact>
</mgrwt>
</event>
<event>
 8    1  0.2676873E-016  0.7850831E+02  0.7818608E-02  0.1333339E+00
         -1   -1    0    0    0  501 -0.00000000000E+00  0.00000000000E+00  0.77877270457E+01  0.77877286766E+01  0.50400000000E-02 0.  1.
          2   -1    0    0  501    0  0.00000000000E+00 -0.00000000000E+00 -0.19786112573E+03  0.19786112575E+03  0.25500000000E-02 0. -1.
         24    2    1    2    0    0  0.00000000000E+00  0.00000000000E+00 -0.19007339869E+03  0.20564885442E+03  0.78508308084E+02 0.  0.
         66    2    3    3    0    0 -0.11194803738E+01 -0.38743009335E+02 -0.79248959981E+02  0.88242119580E+02  0.20000003184E+01 0.  0.
        -13    1    3    3    0    0  0.11194803738E+01  0.38743009335E+02 -0.11082443870E+03  0.11740673484E+03  0.10566000000E+00 0.  1.
         13    1    4    4    0    0 -0.21091260532E+00 -0.40330068735E+01 -0.74927841468E+01  0.85124970999E+01  0.10566000000E+00 0. -1.
        -13    1    4    4    0    0 -0.84658281699E+00 -0.20393669041E+02 -0.43693801863E+02  0.48226319833E+02  0.10566000000E+00 0.  1.
        -14    1    4    4    0    0 -0.61984951456E-01 -0.14316333420E+02 -0.28062373971E+02  0.31503302647E+02  0.00000000000E+00 0.  1.
<mgrwt>
<rscale>  0 0.78508308E+02</rscale>
<asrwt>0</asrwt>
<pdfrwt beam="1">  1        2 0.30440169E-01 0.78508308E+02</pdfrwt>
<pdfrwt beam="2">  1       -1 0.11981121E-02 0.78508308E+02</pdfrwt>
<totfact> 0.23094561E+05</totfact>
</mgrwt>
</event>
<event>
 8    1  0.2676873E-016  0.7976464E+02  0.7818608E-02  0.1329721E+00
          2   -1    0    0  501    0  0.00000000000E+00  0.00000000000E+00  0.26748015356E+01  0.26748027511E+01  0.25500000000E-02 0. -1.
         -1   -1    0    0    0  501 -0.00000000000E+00 -0.00000000000E+00 -0.59466063029E+03  0.59466063031E+03  0.50400000000E-02 0.  1.
         24    2    1    2    0    0  0.00000000000E+00  0.00000000000E+00 -0.59198582875E+03  0.59733543306E+03  0.79764642204E+02 0.  0.
         66    2    3    3    0    0  0.35114802517E+02  0.10845338898E+02 -0.41169041371E+03  0.41333239346E+03  0.20000034655E+01 0.  0.
        -13    1    3    3    0    0 -0.35114802517E+02 -0.10845338898E+02 -0.18029541504E+03  0.18400303960E+03  0.10566000000E+00 0.  1.
         13    1    4    4    0    0  0.75548918842E+01  0.21993718327E+01 -0.81011848447E+02  0.81393147013E+02  0.10566000000E+00 0. -1.
        -13    1    4    4    0    0  0.16239549531E+02  0.48706007037E+01 -0.19923528374E+03  0.19995538295E+03  0.10566000000E+00 0.  1.
        -14    1    4    4    0    0  0.11320361102E+02  0.37753663617E+01 -0.13144328152E+03  0.13198386350E+03  0.00000000000E+00 0.  1.
<mgrwt>
<rscale>  0 0.79764642E+02</rscale>
<asrwt>0</asrwt>
<pdfrwt beam="1">  1        2 0.41150850E-03 0.79764642E+02</pdfrwt>
<pdfrwt beam="2">  1       -1 0.91486146E-01 0.79764642E+02</pdfrwt>
<totfact> 0.59856595E+04</totfact>
</mgrwt>
</event>
<event>
 8    1  0.2676873E-016  0.8034201E+02  0.7818608E-02  0.1328084E+00
          2   -1    0    0  501    0  0.00000000000E+00  0.00000000000E+00  0.17002028034E+03  0.17002028035E+03  0.25500000000E-02 0. -1.
         -1   -1    0    0    0  501 -0.00000000000E+00 -0.00000000000E+00 -0.94912766082E+01  0.94912779464E+01  0.50400000000E-02 0.  1.
         24    2    1    2    0    0  0.00000000000E+00  0.00000000000E+00  0.16052900373E+03  0.17951155830E+03  0.80342009721E+02 0.  0.
         66    2    3    3    0    0 -0.37483548561E+02 -0.90772909329E+01  0.10522386738E+03  0.11208691226E+03  0.20000024985E+01 0.  0.
        -13    1    3    3    0    0  0.37483548561E+02  0.90772909329E+01  0.55305136347E+02  0.67424646042E+02  0.10566000000E+00 0.  1.
         13    1    4    4    0    0 -0.94488475708E+01 -0.23562354033E+01  0.26147611390E+02  0.27902353147E+02  0.10566000000E+00 0. -1.
        -13    1    4    4    0    0 -0.91873035543E+01 -0.15203391667E+01  0.24293211916E+02  0.26017096052E+02  0.10566000000E+00 0.  1.
        -14    1    4    4    0    0 -0.18847397436E+02 -0.52007163628E+01  0.54783044073E+02  0.58167463059E+02  0.00000000000E+00 0.  1.
<mgrwt>
<rscale>  0 0.80342010E+02</rscale>
<asrwt>0</asrwt>
<pdfrwt beam="1">  1        2 0.26156964E-01 0.80342010E+02</pdfrwt>
<pdfrwt beam="2">  1       -1 0.14601966E-02 0.80342010E+02</pdfrwt>
<totfact> 0.20635776E+05</totfact>
</mgrwt>
</event>
<event>
 8    1  0.2676873E-016  0.7995657E+02  0.7818608E-02  0.1329175E+00
          2   -1    0    0  501    0  0.00000000000E+00  0.00000000000E+00  0.60718005255E+03  0.60718005256E+03  0.25500000000E-02 0. -1.
         -1   -1    0    0    0  501 -0.00000000000E+00 -0.00000000000E+00 -0.26322696163E+01  0.26322744413E+01  0.50400000000E-02 0.  1.
         24    2    1    2    0    0 -0.88817841970E-15  0.17763568394E-14  0.60454778294E+03  0.60981232700E+03  0.79956565128E+02 0.  0.
         66    2    3    3    0    0  0.60198124795E+01 -0.15603023135E+02  0.57919700535E+03  0.57944185513E+03  0.19999997484E+01 0.  0.
        -13    1    3    3    0    0 -0.60198124795E+01  0.15603023135E+02  0.25350777590E+02  0.30370471871E+02  0.10566000000E+00 0.  1.
         13    1    4    4    0    0  0.25047281337E+01 -0.65167524541E+01  0.23885093285E+03  0.23895296821E+03  0.10566000000E+00 0. -1.
        -13    1    4    4    0    0  0.25113879324E+01 -0.58751355179E+01  0.19812893651E+03  0.19823196244E+03  0.10566000000E+00 0.  1.
         14    1    4    4    0    0  0.10036964134E+01 -0.32111351626E+01  0.14221713598E+03  0.14225692448E+03  0.00000000000E+00 0. -1.
<mgrwt>
<rscale>  0 0.79956565E+02</rscale>
<asrwt>0</asrwt>
<pdfrwt beam="1">  1        2 0.93412337E-01 0.79956565E+02</pdfrwt>
<pdfrwt beam="2">  1       -1 0.40496484E-03 0.79956565E+02</pdfrwt>
<totfact> 0.32315179E+05</totfact>
</mgrwt>
</event>
<event>
 8    1  0.2676873E-016  0.7975452E+02  0.7818608E-02  0.1329750E+00
         -1   -1    0    0    0  501 -0.00000000000E+00  0.00000000000E+00  0.11525830630E+03  0.11525830641E+03  0.50400000000E-02 0.  1.
          2   -1    0    0  501    0  0.00000000000E+00 -0.00000000000E+00 -0.13796798838E+02  0.13796799074E+02  0.25500000000E-02 0. -1.
         24    2    1    2    0    0  0.00000000000E+00  0.35527136788E-14  0.10146150746E+03  0.12905510549E+03  0.79754515579E+02 0.  0.
         66    2    3    3    0    0 -0.11464399589E+02  0.29561719900E+02  0.11696188767E+02  0.33854520687E+02  0.19999994826E+01 0.  0.
        -13    1    3    3    0    0  0.11464399589E+02 -0.29561719900E+02  0.89765318696E+02  0.95200584798E+02  0.10566000000E+00 0.  1.
         13    1    4    4    0    0 -0.30223129707E+01  0.83166833635E+01  0.26953071689E+01  0.92508076746E+01  0.10566000000E+00 0. -1.
        -13    1    4    4    0    0 -0.40444592628E+01  0.11673946928E+02  0.44961879177E+01  0.13147834705E+02  0.10566000000E+00 0.  1.
        -14    1    4    4    0    0 -0.43976273550E+01  0.95710896089E+01  0.45046936807E+01  0.11455878308E+02  0.00000000000E+00 0.  1.
<mgrwt>
<rscale>  0 0.79754516E+02</rscale>
<asrwt>0</asrwt>
<pdfrwt beam="1">  1        2 0.21225844E-02 0.79754516E+02</pdfrwt>
<pdfrwt beam="2">  1       -1 0.17732047E-01 0.79754516E+02</pdfrwt>
<totfact> 0.11578026E+05</totfact>
</mgrwt>
</event>
<event>
 8    1  0.2676873E-016  0.7963131E+02  0.7818608E-02  0.1330101E+00
         -1   -1    0    0    0  501 -0.00000000000E+00  0.00000000000E+00  0.17684831386E+03  0.17684831393E+03  0.50400000000E-02 0.  1.
          2   -1    0    0  501    0  0.00000000000E+00 -0.00000000000E+00 -0.89641016799E+01  0.89641020426E+01  0.25500000000E-02 0. -1.
         24    2    1    2    0    0  0.00000000000E+00  0.00000000000E+00  0.16788421218E+03  0.18581241597E+03  0.79631308107E+02 0.  0.
         66    2    3    3    0    0  0.99403358628E+01 -0.29485337507E+02  0.26124202767E+02  0.40677627458E+02  0.20000001010E+01 0.  0.
        -13    1    3    3    0    0 -0.99403358628E+01  0.29485337507E+02  0.14176000941E+03  0.14513478852E+03  0.10566000000E+00 0.  1.
         13    1    4    4    0    0  0.37300776286E+01 -0.13538272867E+02  0.11243572962E+02  0.17989647254E+02  0.10566000000E+00 0. -1.
        -13    1    4    4    0    0  0.31466660606E+01 -0.89350482039E+01  0.81262042182E+01  0.12481304128E+02  0.10566000000E+00 0.  1.
        -14    1    4    4    0    0  0.30635921736E+01 -0.70120164363E+01  0.67544255866E+01  0.10206676076E+02  0.00000000000E+00 0.  1.
<mgrwt>
<rscale>  0 0.79631308E+02</rscale>
<asrwt>0</asrwt>
<pdfrwt beam="1">  1        2 0.13790926E-02 0.79631308E+02</pdfrwt>
<pdfrwt beam="2">  1       -1 0.27207433E-01 0.79631308E+02</pdfrwt>
<totfact> 0.10445395E+05</totfact>
</mgrwt>
</event>
<event>
 8    1  0.2676873E-016  0.7933952E+02  0.7818608E-02  0.1330936E+00
         -1   -1    0    0    0  501 -0.00000000000E+00  0.00000000000E+00  0.28887922044E+02  0.28887922484E+02  0.50400000000E-02 0.  1.
          2   -1    0    0  501    0  0.00000000000E+00 -0.00000000000E+00 -0.54475702135E+02  0.54475702194E+02  0.25500000000E-02 0. -1.
         24    2    1    2    0    0  0.00000000000E+00 -0.71054273576E-14 -0.25587780091E+02  0.83363624678E+02  0.79339519973E+02 0.  0.
         66    2    3    3    0    0  0.94678797292E+01  0.38165388668E+02 -0.18102384446E+02  0.43335135439E+02  0.20000005292E+01 0.  0.
        -13    1    3    3    0    0 -0.94678797292E+01 -0.38165388668E+02 -0.74853956442E+01  0.40028489239E+02  0.10566000000E+00 0.  1.
         13    1    4    4    0    0  0.27935988148E+01  0.11849495785E+02 -0.61689007215E+01  0.13648488738E+02  0.10566000000E+00 0. -1.
        -13    1    4    4    0    0  0.16700249128E+01  0.79294366424E+01 -0.41253039039E+01  0.90936376116E+01  0.10566000000E+00 0.  1.
        -14    1    4    4    0    0  0.50042560017E+01  0.18386456241E+02 -0.78081798210E+01  0.20593009089E+02  0.00000000000E+00 0.  1.
<mgrwt>
<rscale>  0 0.79339520E+02</rscale>
<asrwt>0</asrwt>
<pdfrwt beam="1">  1        2 0.83808773E-02 0.79339520E+02</pdfrwt>
<pdfrwt beam="2">  1       -1 0.44442958E-02 0.79339520E+02</pdfrwt>
<totfact> 0.15576716E+05</totfact>
</mgrwt>
</event>
<event>
 8    1  0.2676873E-016  0.8813396E+02  0.7818608E-02  0.1307435E+00
         -1   -1    0    0    0  501 -0.00000000000E+00  0.00000000000E+00  0.23119364331E+01  0.23119419267E+01  0.50400000000E-02 0.  1.
          2   -1    0    0  501    0  0.00000000000E+00 -0.00000000000E+00 -0.83994362749E+03  0.83994362750E+03  0.25500000000E-02 0. -1.
         24    2    1    2    0    0 -0.35527136788E-14  0.00000000000E+00 -0.83763169106E+03  0.84225556942E+03  0.88133956891E+02 0.  0.
         66    2    3    3    0    0  0.28762451828E+02  0.25340970233E+02 -0.62631092191E+03  0.62748610687E+03  0.20000008542E+01 0.  0.
        -13    1    3    3    0    0 -0.28762451828E+02 -0.25340970233E+02 -0.21132076915E+03  0.21476946255E+03  0.10566000000E+00 0.  1.
         13    1    4    4    0    0  0.17424425453E+01  0.17478647585E+01 -0.37412731645E+02  0.37494196757E+02  0.10566000000E+00 0. -1.
        -13    1    4    4    0    0  0.12968796056E+02  0.10309672280E+02 -0.26736424332E+03  0.26787707775E+03  0.10566000000E+00 0.  1.
        -14    1    4    4    0    0  0.14051213227E+02  0.13283433194E+02 -0.32153394694E+03  0.32211483236E+03  0.00000000000E+00 0.  1.
<mgrwt>
<rscale>  0 0.88133957E+02</rscale>
<asrwt>0</asrwt>
<pdfrwt beam="1">  1        2 0.12922185E+00 0.88133957E+02</pdfrwt>
<pdfrwt beam="2">  1       -1 0.35568362E-03 0.88133957E+02</pdfrwt>
<totfact> 0.26901072E+05</totfact>
</mgrwt>
</event>
<event>
 8    1  0.2676873E-016  0.8011231E+02  0.7818608E-02  0.1328733E+00
         -1   -1    0    0    0  501 -0.00000000000E+00  0.00000000000E+00  0.48872721488E+01  0.48872747476E+01  0.50400000000E-02 0.  1.
          2   -1    0    0  501    0  0.00000000000E+00 -0.00000000000E+00 -0.32830077079E+03  0.32830077080E+03  0.25500000000E-02 0. -1.
         24    2    1    2    0    0  0.00000000000E+00 -0.35527136788E-14 -0.32341349864E+03  0.33318804555E+03  0.80112312365E+02 0.  0.
         66    2    3    3    0    0 -0.90161988530E+01 -0.17489957523E+02 -0.30679520964E+03  0.30743209188E+03  0.20000012473E+01 0.  0.
        -13    1    3    3    0    0  0.90161988530E+01  0.17489957523E+02 -0.16618289005E+02  0.25755953670E+02  0.10566000000E+00 0.  1.
         13    1    4    4    0    0 -0.64412451859E-01 -0.52549225488E+00 -0.81481304251E+01  0.81659956242E+01  0.10566000000E+00 0. -1.
        -13    1    4    4    0    0 -0.35699422885E+01 -0.77977746822E+01 -0.12485028388E+03  0.12514453375E+03  0.10566000000E+00 0.  1.
         14    1    4    4    0    0 -0.53818441126E+01 -0.91666905863E+01 -0.17379679533E+03  0.17412156251E+03  0.00000000000E+00 0. -1.
<mgrwt>
<rscale>  0 0.80112312E+02</rscale>
<asrwt>0</asrwt>
<pdfrwt beam="1">  1        2 0.50507794E-01 0.80112312E+02</pdfrwt>
<pdfrwt beam="2">  1       -1 0.75188848E-03 0.80112312E+02</pdfrwt>
<totfact> 0.26241567E+05</totfact>
</mgrwt>
</event>
<event>
 8    1  0.2676873E-016  0.7659909E+02  0.7818608E-02  0.1338989E+00
         -1   -1    0    0    0  501 -0.00000000000E+00  0.00000000000E+00  0.63886456629E+01  0.63886476509E+01  0.50400000000E-02 0.  1.
          2   -1    0    0  501    0  0.00000000000E+00 -0.00000000000E+00 -0.22960344429E+03  0.22960344430E+03  0.25500000000E-02 0. -1.
         24    2    1    2    0    0  0.00000000000E+00  0.00000000000E+00 -0.22321479863E+03  0.23599209195E+03  0.76599093592E+02 0.  0.
         66    2    3    3    0    0 -0.35072449600E+02  0.13761006161E+02 -0.13244396236E+03  0.13771290854E+03  0.20000005688E+01 0.  0.
        -13    1    3    3    0    0  0.35072449600E+02 -0.13761006161E+02 -0.90770836271E+02  0.98279183415E+02  0.10566000000E+00 0.  1.
         13    1    4    4    0    0 -0.19579478994E+02  0.84102780279E+01 -0.74576884380E+02  0.77561663353E+02  0.10566000000E+00 0. -1.
        -13    1    4    4    0    0 -0.64917970559E+01  0.25669409569E+01 -0.25917187978E+02  0.26841095574E+02  0.10566000000E+00 0.  1.
        -14    1    4    4    0    0 -0.90011735496E+01  0.27837871761E+01 -0.31949889998E+02  0.33310149612E+02  0.00000000000E+00 0.  1.
<mgrwt>
<rscale>  0 0.76599094E+02</rscale>
<asrwt>0</asrwt>
<pdfrwt beam="1">  1        2 0.35323600E-01 0.76599094E+02</pdfrwt>
<pdfrwt beam="2">  1       -1 0.98286890E-03 0.76599094E+02</pdfrwt>
<totfact> 0.25953524E+05</totfact>
</mgrwt>
</event>
<event>
 8    1  0.2676873E-016  0.7584780E+02  0.7818608E-02  0.1341266E+00
          2   -1    0    0  501    0  0.00000000000E+00  0.00000000000E+00  0.49061418577E+02  0.49061418643E+02  0.25500000000E-02 0. -1.
         -1   -1    0    0    0  501 -0.00000000000E+00 -0.00000000000E+00 -0.29314727079E+02  0.29314727512E+02  0.50400000000E-02 0.  1.
         24    2    1    2    0    0  0.71054273576E-14  0.00000000000E+00  0.19746691498E+02  0.78376146155E+02  0.75847797997E+02 0.  0.
         66    2    3    3    0    0 -0.35393059228E+02  0.12494863816E+02  0.44685403132E+01  0.37851791367E+02  0.19999984660E+01 0.  0.
        -13    1    3    3    0    0  0.35393059228E+02 -0.12494863816E+02  0.15278151185E+02  0.40524354788E+02  0.10566000000E+00 0.  1.
         13    1    4    4    0    0 -0.96162007789E+01  0.39247765612E+01  0.15344634671E+01  0.10499568117E+02  0.10566000000E+00 0. -1.
        -13    1    4    4    0    0 -0.61836925566E+01  0.25100078320E+01  0.38729749569E+00  0.66857577234E+01  0.10566000000E+00 0.  1.
        -14    1    4    4    0    0 -0.19593165893E+02  0.60600794232E+01  0.25467793504E+01  0.20666465527E+02  0.00000000000E+00 0.  1.
<mgrwt>
<rscale>  0 0.75847798E+02</rscale>
<asrwt>0</asrwt>
<pdfrwt beam="1">  1        2 0.75479106E-02 0.75847798E+02</pdfrwt>
<pdfrwt beam="2">  1       -1 0.45099581E-02 0.75847798E+02</pdfrwt>
<totfact> 0.17213239E+05</totfact>
</mgrwt>
</event>
