<event>
 8    1  0.1673046E-013  0.7729765E+02  0.7818608E-02  0.1336900E+00
         -1   -1    0    0    0  501 -0.00000000000E+00  0.00000000000E+00  0.33736297203E+01  0.33736334850E+01  0.50400000000E-02 0.  1.
          2   -1    0    0  501    0  0.00000000000E+00 -0.00000000000E+00 -0.44276673670E+03  0.44276673671E+03  0.25500000000E-02 0. -1.
         24    2    1    2    0    0  0.00000000000E+00  0.35527136788E-14 -0.43939310698E+03  0.44614037020E+03  0.77297654907E+02 0.  0.
         66    2    3    3    0    0  0.25899825855E+02  0.28514015666E+02 -0.23604200166E+03  0.23917290109E+03  0.19999996118E+01 0.  0.
        -13    1    3    3    0    0 -0.25899825855E+02 -0.28514015666E+02 -0.20335110532E+03  0.20696746911E+03  0.10566000000E+00 0.  1.
         13    1    4    4    0    0  0.12749431516E+02  0.14973421005E+02 -0.12341189628E+03  0.12496903076E+03  0.10566000000E+00 0.  1.
        -13    1    4    4    0    0  0.11059042331E+02  0.11787793258E+02 -0.95842941384E+02  0.97196373721E+02  0.10566000000E+00 0. -1.
        -14    1    4    4    0    0  0.20913520082E+01  0.17528014024E+01 -0.16787163997E+02  0.17007496612E+02  0.00000000000E+00 0.  1.
<mgrwt>
<rscale>  0 0.77297655E+02</rscale>
<asrwt>0</asrwt>
<pdfrwt beam="1">  1        2 0.68117913E-01 0.77297655E+02</pdfrwt>
<pdfrwt beam="2">  1       -1 0.51902060E-03 0.77297655E+02</pdfrwt>
<totfact> 0.31998196E+05</totfact>
</mgrwt>
</event>
<event>
 8    1  0.1673046E-013  0.7902405E+02  0.7818608E-02  0.1331844E+00
          2   -1    0    0  501    0  0.00000000000E+00  0.00000000000E+00  0.63572906027E+02  0.63572906078E+02  0.25500000000E-02 0. -1.
         -1   -1    0    0    0  501 -0.00000000000E+00 -0.00000000000E+00 -0.24557631402E+02  0.24557631919E+02  0.50400000000E-02 0.  1.
         24    2    1    2    0    0  0.00000000000E+00  0.00000000000E+00  0.39015274625E+02  0.88130537998E+02  0.79024047440E+02 0.  0.
         66    2    3    3    0    0 -0.64575248941E+01  0.32063386217E+02  0.44192675963E+02  0.55015933786E+02  0.19999995317E+01 0.  0.
        -13    1    3    3    0    0  0.64575248941E+01 -0.32063386217E+02 -0.51774013383E+01  0.33114604212E+02  0.10566000000E+00 0.  1.
         13    1    4    4    0    0 -0.28255471092E+01  0.14619631383E+02  0.20557889689E+02  0.25384155112E+02  0.10566000000E+00 0. -1.
        -13    1    4    4    0    0 -0.31193101128E+01  0.11915070272E+02  0.16022172720E+02  0.20209408152E+02  0.10566000000E+00 0.  1.
        -14    1    4    4    0    0 -0.51266767212E+00  0.55286845625E+01  0.76126135542E+01  0.94223705223E+01  0.00000000000E+00 0.  1.
<mgrwt>
<rscale>  0 0.79024047E+02</rscale>
<asrwt>0</asrwt>
<pdfrwt beam="1">  1        2 0.97804472E-02 0.79024047E+02</pdfrwt>
<pdfrwt beam="2">  1       -1 0.37780971E-02 0.79024047E+02</pdfrwt>
<totfact> 0.16311975E+05</totfact>
</mgrwt>
</event>
<event>
 8    1  0.1673046E-013  0.8005115E+02  0.7818608E-02  0.1328906E+00
         -1   -1    0    0    0  501 -0.00000000000E+00  0.00000000000E+00  0.16843749115E+02  0.16843749869E+02  0.50400000000E-02 0.  1.
          2   -1    0    0  501    0  0.00000000000E+00 -0.00000000000E+00 -0.95112240243E+02  0.95112240278E+02  0.25500000000E-02 0. -1.
         24    2    1    2    0    0  0.00000000000E+00  0.00000000000E+00 -0.78268491128E+02  0.11195599015E+03  0.80051152561E+02 0.  0.
         66    2    3    3    0    0  0.26494231160E+01  0.12389891665E+02 -0.92221083607E+02  0.93108845556E+02  0.20000001615E+01 0.  0.
        -13    1    3    3    0    0 -0.26494231160E+01 -0.12389891665E+02  0.13952592479E+02  0.18847144591E+02  0.10566000000E+00 0.  1.
         13    1    4    4    0    0  0.36121589903E+00  0.24521128389E+01 -0.13915676278E+02  0.14135082052E+02  0.10566000000E+00 0. -1.
        -13    1    4    4    0    0  0.42593296871E+00  0.68792054705E+00 -0.59015402582E+01  0.59576836965E+01  0.10566000000E+00 0.  1.
         14    1    4    4    0    0  0.18622742483E+01  0.92498582788E+01 -0.72403867071E+02  0.73016079807E+02  0.00000000000E+00 0. -1.
<mgrwt>
<rscale>  0 0.80051153E+02</rscale>
<asrwt>0</asrwt>
<pdfrwt beam="1">  1        2 0.14632652E-01 0.80051153E+02</pdfrwt>
<pdfrwt beam="2">  1       -1 0.25913461E-02 0.80051153E+02</pdfrwt>
<totfact> 0.17451305E+05</totfact>
</mgrwt>
</event>
<event>
 8    1  0.1673046E-013  0.7998080E+02  0.7818608E-02  0.1329106E+00
          2   -1    0    0  501    0  0.00000000000E+00  0.00000000000E+00  0.26271206557E+03  0.26271206559E+03  0.25500000000E-02 0. -1.
         -1   -1    0    0    0  501 -0.00000000000E+00 -0.00000000000E+00 -0.60873938534E+01  0.60873959398E+01  0.50400000000E-02 0.  1.
         24    2    1    2    0    0 -0.35527136788E-14  0.00000000000E+00  0.25662467172E+03  0.26879946153E+03  0.79980800078E+02 0.  0.
         66    2    3    3    0    0 -0.30761056751E+02  0.53881672970E+01  0.21220722913E+03  0.21450217495E+03  0.20000008767E+01 0.  0.
        -13    1    3    3    0    0  0.30761056751E+02 -0.53881672970E+01  0.44417442589E+02  0.54297286575E+02  0.10566000000E+00 0.  1.
         13    1    4    4    0    0 -0.21199248347E+02  0.32154997586E+01  0.14689373306E+03  0.14845042117E+03  0.10566000000E+00 0. -1.
        -13    1    4    4    0    0 -0.89689590217E+01  0.22532239112E+01  0.61598566358E+02  0.62288953959E+02  0.10566000000E+00 0.  1.
        -14    1    4    4    0    0 -0.59284938310E+00 -0.80556372766E-01  0.37149297187E+01  0.37627998266E+01  0.00000000000E+00 0.  1.
<mgrwt>
<rscale>  0 0.79980800E+02</rscale>
<asrwt>0</asrwt>
<pdfrwt beam="1">  1        2 0.40417244E-01 0.79980800E+02</pdfrwt>
<pdfrwt beam="2">  1       -1 0.93652223E-03 0.79980800E+02</pdfrwt>
<totfact> 0.24313512E+05</totfact>
</mgrwt>
</event>
<event>
 8    1  0.1673046E-013  0.8320923E+02  0.7818608E-02  0.1320183E+00
          2   -1    0    0  501    0  0.00000000000E+00  0.00000000000E+00  0.15818705724E+03  0.15818705726E+03  0.25500000000E-02 0. -1.
         -1   -1    0    0    0  501 -0.00000000000E+00 -0.00000000000E+00 -0.10942387244E+02  0.10942388404E+02  0.50400000000E-02 0.  1.
         24    2    1    2    0    0  0.00000000000E+00  0.00000000000E+00  0.14724467000E+03  0.16912944566E+03  0.83209233554E+02 0.  0.
         66    2    3    3    0    0  0.37955475376E+02  0.81802770584E+00  0.10813792470E+03  0.11462590476E+03  0.20000002685E+01 0.  0.
        -13    1    3    3    0    0 -0.37955475376E+02 -0.81802770584E+00  0.39106745291E+02  0.54503540909E+02  0.10566000000E+00 0.  1.
         13    1    4    4    0    0  0.61550031188E+01 -0.38998173526E+00  0.16896857269E+02  0.17987526199E+02  0.10566000000E+00 0. -1.
        -13    1    4    4    0    0  0.27204630801E+02  0.83873250670E+00  0.79058486403E+02  0.83612504122E+02  0.10566000000E+00 0.  1.
        -14    1    4    4    0    0  0.45958414568E+01  0.36927693441E+00  0.12182581033E+02  0.13025874434E+02  0.00000000000E+00 0.  1.
<mgrwt>
<rscale>  0 0.83209234E+02</rscale>
<asrwt>0</asrwt>
<pdfrwt beam="1">  1        2 0.24336470E-01 0.83209234E+02</pdfrwt>
<pdfrwt beam="2">  1       -1 0.16834443E-02 0.83209234E+02</pdfrwt>
<totfact> 0.18357037E+05</totfact>
</mgrwt>
</event>
<event>
 8    1  0.1673046E-013  0.7981234E+02  0.7818608E-02  0.1329585E+00
         -1   -1    0    0    0  501 -0.00000000000E+00  0.00000000000E+00  0.20087289220E+01  0.20087352448E+01  0.50400000000E-02 0.  1.
          2   -1    0    0  501    0  0.00000000000E+00 -0.00000000000E+00 -0.79278991811E+03  0.79278991811E+03  0.25500000000E-02 0. -1.
         24    2    1    2    0    0  0.35527136788E-14  0.17763568394E-14 -0.79078118918E+03  0.79479865335E+03  0.79812343704E+02 0.  0.
         66    2    3    3    0    0 -0.14780373988E+02 -0.10480123200E+02 -0.74943346342E+03  0.74965512638E+03  0.19999955924E+01 0.  0.
        -13    1    3    3    0    0  0.14780373988E+02  0.10480123200E+02 -0.41347725767E+02  0.45143526974E+02  0.10566000000E+00 0.  1.
         13    1    4    4    0    0 -0.73344318349E+00 -0.36408043323E+00 -0.28119948161E+02  0.28132066082E+02  0.10566000000E+00 0. -1.
        -13    1    4    4    0    0 -0.10219496915E+01 -0.12976687396E+01 -0.64616777750E+02  0.64637972246E+02  0.10566000000E+00 0.  1.
        -14    1    4    4    0    0 -0.13024981113E+02 -0.88183740276E+01 -0.65669673751E+03  0.65688508805E+03  0.00000000000E+00 0.  1.
<mgrwt>
<rscale>  0 0.79812344E+02</rscale>
<asrwt>0</asrwt>
<pdfrwt beam="1">  1        2 0.12196743E+00 0.79812344E+02</pdfrwt>
<pdfrwt beam="2">  1       -1 0.30903634E-03 0.79812344E+02</pdfrwt>
<totfact> 0.34521305E+05</totfact>
</mgrwt>
</event>
<event>
 8    1  0.1673046E-013  0.7981791E+02  0.7818608E-02  0.1329569E+00
          2   -1    0    0  501    0  0.00000000000E+00  0.00000000000E+00  0.18761186834E+02  0.18761187008E+02  0.25500000000E-02 0. -1.
         -1   -1    0    0    0  501 -0.00000000000E+00 -0.00000000000E+00 -0.84894660497E+02  0.84894660647E+02  0.50400000000E-02 0.  1.
         24    2    1    2    0    0  0.00000000000E+00 -0.13877787808E-16 -0.66133473663E+02  0.10365584765E+03  0.79817907855E+02 0.  0.
         66    2    3    3    0    0  0.20329447341E+02  0.22602787941E-01  0.11474235809E+02  0.23429575938E+02  0.20000002986E+01 0.  0.
        -13    1    3    3    0    0 -0.20329447341E+02 -0.22602787941E-01 -0.77607709471E+02  0.80226271716E+02  0.10566000000E+00 0.  1.
         13    1    4    4    0    0  0.38411514507E+01 -0.31906606919E+00  0.20306837755E+01  0.43578765765E+01  0.10566000000E+00 0. -1.
        -13    1    4    4    0    0  0.15696700909E+02  0.40471221019E+00  0.93419917578E+01  0.18271129835E+02  0.10566000000E+00 0.  1.
        -14    1    4    4    0    0  0.79159498070E+00 -0.63043353064E-01  0.10156027522E+00  0.80056952686E+00  0.00000000000E+00 0.  1.
<mgrwt>
<rscale>  0 0.79817908E+02</rscale>
<asrwt>0</asrwt>
<pdfrwt beam="1">  1        2 0.28863365E-02 0.79817908E+02</pdfrwt>
<pdfrwt beam="2">  1       -1 0.13060717E-01 0.79817908E+02</pdfrwt>
<totfact> 0.12335911E+05</totfact>
</mgrwt>
</event>
<event>
 8    1  0.1673046E-013  0.7957247E+02  0.7818608E-02  0.1330269E+00
          2   -1    0    0  501    0  0.00000000000E+00  0.00000000000E+00  0.16282118197E+03  0.16282118199E+03  0.25500000000E-02 0. -1.
         -1   -1    0    0    0  501 -0.00000000000E+00 -0.00000000000E+00 -0.97219805340E+01  0.97219818404E+01  0.50400000000E-02 0.  1.
         24    2    1    2    0    0  0.00000000000E+00  0.00000000000E+00  0.15309920144E+03  0.17254316383E+03  0.79572469512E+02 0.  0.
         66    2    3    3    0    0  0.12832787203E+02 -0.37102796535E+02  0.90250268771E+02  0.98439874840E+02  0.20000017721E+01 0.  0.
        -13    1    3    3    0    0 -0.12832787203E+02  0.37102796535E+02  0.62848932667E+02  0.74103288992E+02  0.10566000000E+00 0.  1.
         13    1    4    4    0    0  0.90847640983E+01 -0.26873526107E+02  0.66241010342E+02  0.72059711069E+02  0.10566000000E+00 0. -1.
        -13    1    4    4    0    0  0.35634734481E+01 -0.92903787925E+01  0.22342156196E+02  0.24457975972E+02  0.10566000000E+00 0.  1.
        -14    1    4    4    0    0  0.18454965710E+00 -0.93889163578E+00  0.16671022330E+01  0.19221877990E+01  0.00000000000E+00 0.  1.
<mgrwt>
<rscale>  0 0.79572470E+02</rscale>
<asrwt>0</asrwt>
<pdfrwt beam="1">  1        2 0.25049410E-01 0.79572470E+02</pdfrwt>
<pdfrwt beam="2">  1       -1 0.14956896E-02 0.79572470E+02</pdfrwt>
<totfact> 0.20866854E+05</totfact>
</mgrwt>
</event>
<event>
 8    1  0.1673046E-013  0.8197898E+02  0.7818608E-02  0.1323527E+00
         -1   -1    0    0    0  501 -0.00000000000E+00  0.00000000000E+00  0.22935187693E+01  0.22935243069E+01  0.50400000000E-02 0.  1.
          2   -1    0    0  501    0  0.00000000000E+00 -0.00000000000E+00 -0.73255840771E+03  0.73255840772E+03  0.25500000000E-02 0. -1.
         24    2    1    2    0    0 -0.35527136788E-14  0.00000000000E+00 -0.73026488894E+03  0.73485193202E+03  0.81978984965E+02 0.  0.
         66    2    3    3    0    0 -0.25981162883E+02 -0.24327135657E+02 -0.54714264819E+03  0.54830275198E+03  0.20000004909E+01 0.  0.
        -13    1    3    3    0    0  0.25981162883E+02  0.24327135657E+02 -0.18312224075E+03  0.18654918005E+03  0.10566000000E+00 0.  1.
         13    1    4    4    0    0 -0.87853876205E+01 -0.77076076656E+01 -0.18110887240E+03  0.18148560571E+03  0.10566000000E+00 0. -1.
        -13    1    4    4    0    0 -0.14356137899E+01 -0.16891625057E+01 -0.28870782437E+02  0.28955957927E+02  0.10566000000E+00 0.  1.
         14    1    4    4    0    0 -0.15760161473E+02 -0.14930365486E+02 -0.33716299335E+03  0.33786118835E+03  0.00000000000E+00 0. -1.
<mgrwt>
<rscale>  0 0.81978985E+02</rscale>
<asrwt>0</asrwt>
<pdfrwt beam="1">  1        2 0.11270111E+00 0.81978985E+02</pdfrwt>
<pdfrwt beam="2">  1       -1 0.35285005E-03 0.81978985E+02</pdfrwt>
<totfact> 0.31706706E+05</totfact>
</mgrwt>
</event>
<event>
 8    1  0.1673046E-013  0.7979739E+02  0.7818608E-02  0.1329627E+00
          2   -1    0    0  501    0  0.00000000000E+00  0.00000000000E+00  0.24277696537E+03  0.24277696538E+03  0.25500000000E-02 0. -1.
         -1   -1    0    0    0  501 -0.00000000000E+00 -0.00000000000E+00 -0.65570703641E+01  0.65570723010E+01  0.50400000000E-02 0.  1.
         24    2    1    2    0    0  0.00000000000E+00  0.35527136788E-14  0.23621989501E+03  0.24933403769E+03  0.79797390630E+02 0.  0.
         66    2    3    3    0    0  0.10255568348E+02  0.28806926043E+02  0.19814443198E+03  0.20049995411E+03  0.20000005384E+01 0.  0.
        -13    1    3    3    0    0 -0.10255568348E+02 -0.28806926043E+02  0.38075463029E+02  0.48834083580E+02  0.10566000000E+00 0.  1.
         13    1    4    4    0    0  0.20497394753E+01  0.47454554697E+01  0.31672602231E+02  0.32091831915E+02  0.10566000000E+00 0. -1.
        -13    1    4    4    0    0  0.51338355403E+01  0.12809119085E+02  0.90287811971E+02  0.91336356144E+02  0.10566000000E+00 0.  1.
         14    1    4    4    0    0  0.30719933327E+01  0.11252351488E+02  0.76184017776E+02  0.77071766047E+02  0.00000000000E+00 0. -1.
<mgrwt>
<rscale>  0 0.79797391E+02</rscale>
<asrwt>0</asrwt>
<pdfrwt beam="1">  1        2 0.37350298E-01 0.79797391E+02</pdfrwt>
<pdfrwt beam="2">  1       -1 0.10087803E-02 0.79797391E+02</pdfrwt>
<totfact> 0.23777402E+05</totfact>
</mgrwt>
</event>
<event>
 8    1  0.1673046E-013  0.7944379E+02  0.7818608E-02  0.1330637E+00
         -1   -1    0    0    0  501 -0.00000000000E+00  0.00000000000E+00  0.53818505962E+01  0.53818529561E+01  0.50400000000E-02 0.  1.
          2   -1    0    0  501    0  0.00000000000E+00 -0.00000000000E+00 -0.29317580760E+03  0.29317580761E+03  0.25500000000E-02 0. -1.
         24    2    1    2    0    0  0.00000000000E+00  0.17763568394E-14 -0.28779395700E+03  0.29855766056E+03  0.79443785128E+02 0.  0.
         66    2    3    3    0    0  0.33077225444E+02  0.15961045838E+02 -0.87370687078E+02  0.94797124351E+02  0.19999993482E+01 0.  0.
        -13    1    3    3    0    0 -0.33077225444E+02 -0.15961045838E+02 -0.20042326992E+03  0.20376053621E+03  0.10566000000E+00 0.  1.
         13    1    4    4    0    0  0.27681996442E+02  0.13300305679E+02 -0.74059674989E+02  0.80175044008E+02  0.10566000000E+00 0. -1.
        -13    1    4    4    0    0  0.24034544097E+01  0.15167004215E+01 -0.65457018520E+01  0.71368305317E+01  0.10566000000E+00 0.  1.
         14    1    4    4    0    0  0.29917745923E+01  0.11440397380E+01 -0.67653102370E+01  0.74852498112E+01  0.00000000000E+00 0. -1.
<mgrwt>
<rscale>  0 0.79443785E+02</rscale>
<asrwt>0</asrwt>
<pdfrwt beam="1">  1        2 0.45103958E-01 0.79443785E+02</pdfrwt>
<pdfrwt beam="2">  1       -1 0.82797743E-03 0.79443785E+02</pdfrwt>
<totfact> 0.25749633E+05</totfact>
</mgrwt>
</event>
<event>
 8    1  0.1673046E-013  0.7836767E+02  0.7818608E-02  0.1333749E+00
         -1   -1    0    0    0  501 -0.00000000000E+00  0.00000000000E+00  0.31212227258E+02  0.31212227665E+02  0.50400000000E-02 0.  1.
          2   -1    0    0  501    0  0.00000000000E+00 -0.00000000000E+00 -0.49191390506E+02  0.49191390572E+02  0.25500000000E-02 0. -1.
         24    2    1    2    0    0  0.00000000000E+00 -0.35527136788E-14 -0.17979163248E+02  0.80403618236E+02  0.78367668808E+02 0.  0.
         66    2    3    3    0    0 -0.14719248983E+02  0.28914200491E+02 -0.31489436064E+02  0.45257837320E+02  0.19999936563E+01 0.  0.
        -13    1    3    3    0    0  0.14719248983E+02 -0.28914200491E+02  0.13510272816E+02  0.35145780916E+02  0.10566000000E+00 0.  1.
         13    1    4    4    0    0 -0.54359953442E+01  0.12066143079E+02 -0.12130399914E+02  0.17952705097E+02  0.10566000000E+00 0. -1.
        -13    1    4    4    0    0 -0.85453146524E+01  0.15825250898E+02 -0.17868883216E+02  0.25352891746E+02  0.10566000000E+00 0.  1.
        -14    1    4    4    0    0 -0.73793898597E+00  0.10228065136E+01 -0.14901529340E+01  0.19522404765E+01  0.00000000000E+00 0.  1.
<mgrwt>
<rscale>  0 0.78367669E+02</rscale>
<asrwt>0</asrwt>
<pdfrwt beam="1">  1        2 0.75679062E-02 0.78367669E+02</pdfrwt>
<pdfrwt beam="2">  1       -1 0.48018812E-02 0.78367669E+02</pdfrwt>
<totfact> 0.15754482E+05</totfact>
</mgrwt>
</event>
<event>
 8    1  0.1673046E-013  0.7692477E+02  0.7818608E-02  0.1338012E+00
         -1   -1    0    0    0  501 -0.00000000000E+00  0.00000000000E+00  0.32231893218E+01  0.32231932622E+01  0.50400000000E-02 0.  1.
          2   -1    0    0  501    0  0.00000000000E+00 -0.00000000000E+00 -0.45897217214E+03  0.45897217215E+03  0.25500000000E-02 0. -1.
         24    2    1    2    0    0  0.00000000000E+00  0.00000000000E+00 -0.45574898282E+03  0.46219536541E+03  0.76924771472E+02 0.  0.
         66    2    3    3    0    0  0.82560525976E+01 -0.36491130978E+02 -0.28095161504E+03  0.28343883828E+03  0.20000020746E+01 0.  0.
        -13    1    3    3    0    0 -0.82560525976E+01  0.36491130978E+02 -0.17479736778E+03  0.17875652713E+03  0.10566000000E+00 0.  1.
         13    1    4    4    0    0  0.91961583678E+00 -0.22146378233E+01 -0.17735567810E+02  0.17897257990E+02  0.10566000000E+00 0. -1.
        -13    1    4    4    0    0  0.32029099955E+01 -0.14021482050E+02 -0.11124445536E+03  0.11217040877E+03  0.10566000000E+00 0.  1.
         14    1    4    4    0    0  0.41335267653E+01 -0.20255011105E+02 -0.15197159187E+03  0.15337117152E+03  0.00000000000E+00 0. -1.
<mgrwt>
<rscale>  0 0.76924771E+02</rscale>
<asrwt>0</asrwt>
<pdfrwt beam="1">  1        2 0.70611051E-01 0.76924771E+02</pdfrwt>
<pdfrwt beam="2">  1       -1 0.49587595E-03 0.76924771E+02</pdfrwt>
<totfact> 0.32794776E+05</totfact>
</mgrwt>
</event>
<event>
 8    1  0.1673046E-013  0.7902507E+02  0.7818608E-02  0.1331841E+00
          2   -1    0    0  501    0  0.00000000000E+00  0.00000000000E+00  0.21864239207E+03  0.21864239209E+03  0.25500000000E-02 0. -1.
         -1   -1    0    0    0  501 -0.00000000000E+00 -0.00000000000E+00 -0.71406110143E+01  0.71406127930E+01  0.50400000000E-02 0.  1.
         24    2    1    2    0    0  0.00000000000E+00  0.00000000000E+00  0.21150178106E+03  0.22578300488E+03  0.79025071351E+02 0.  0.
         66    2    3    3    0    0 -0.24867535009E+02  0.18516974691E+02  0.17568404773E+03  0.17841008188E+03  0.20000098915E+01 0.  0.
        -13    1    3    3    0    0  0.24867535009E+02 -0.18516974691E+02  0.35817733331E+02  0.47372923006E+02  0.10566000000E+00 0.  1.
         13    1    4    4    0    0 -0.93918621014E+01  0.72203382082E+01  0.67374237975E+02  0.68407890366E+02  0.10566000000E+00 0. -1.
        -13    1    4    4    0    0 -0.13166062876E+02  0.95160264064E+01  0.94716805239E+02  0.96099866436E+02  0.10566000000E+00 0.  1.
        -14    1    4    4    0    0 -0.23096100313E+01  0.17806100761E+01  0.13593004515E+02  0.13902325075E+02  0.00000000000E+00 0.  1.
<mgrwt>
<rscale>  0 0.79025071E+02</rscale>
<asrwt>0</asrwt>
<pdfrwt beam="1">  1        2 0.33637289E-01 0.79025071E+02</pdfrwt>
<pdfrwt beam="2">  1       -1 0.10985557E-02 0.79025071E+02</pdfrwt>
<totfact> 0.23504181E+05</totfact>
</mgrwt>
</event>
<event>
 8    1  0.1673046E-013  0.7970173E+02  0.7818608E-02  0.1329900E+00
          2   -1    0    0  501    0  0.00000000000E+00  0.00000000000E+00  0.42674089836E+02  0.42674089912E+02  0.25500000000E-02 0. -1.
         -1   -1    0    0    0  501 -0.00000000000E+00 -0.00000000000E+00 -0.37214422732E+02  0.37214423073E+02  0.50400000000E-02 0.  1.
         24    2    1    2    0    0  0.00000000000E+00  0.00000000000E+00  0.54596671043E+01  0.79888512985E+02  0.79701734875E+02 0.  0.
         66    2    3    3    0    0 -0.43146080852E+01  0.11505145000E+02  0.40703070883E+02  0.42564353539E+02  0.20000021035E+01 0.  0.
        -13    1    3    3    0    0  0.43146080852E+01 -0.11505145000E+02 -0.35243403779E+02  0.37324159446E+02  0.10566000000E+00 0.  1.
         13    1    4    4    0    0 -0.38563100217E+01  0.85974966063E+01  0.30740407302E+02  0.32152323089E+02  0.10566000000E+00 0. -1.
        -13    1    4    4    0    0  0.60658959869E-01  0.41521835582E+00  0.90101523523E+00  0.99953903482E+00  0.10566000000E+00 0.  1.
         14    1    4    4    0    0 -0.51895702339E+00  0.24924300379E+01  0.90616483465E+01  0.94124914152E+01  0.00000000000E+00 0. -1.
<mgrwt>
<rscale>  0 0.79701735E+02</rscale>
<asrwt>0</asrwt>
<pdfrwt beam="1">  1        2 0.65652446E-02 0.79701735E+02</pdfrwt>
<pdfrwt beam="2">  1       -1 0.57252958E-02 0.79701735E+02</pdfrwt>
<totfact> 0.14596917E+05</totfact>
</mgrwt>
</event>
<event>
 8    1  0.1673046E-013  0.7941033E+02  0.7818608E-02  0.1330733E+00
         -1   -1    0    0    0  501 -0.00000000000E+00  0.00000000000E+00  0.33135176605E+01  0.33135214936E+01  0.50400000000E-02 0.  1.
          2   -1    0    0  501    0  0.00000000000E+00 -0.00000000000E+00 -0.47577815118E+03  0.47577815118E+03  0.25500000000E-02 0. -1.
         24    2    1    2    0    0  0.00000000000E+00 -0.71054273576E-14 -0.47246463352E+03  0.47909167268E+03  0.79410332483E+02 0.  0.
         66    2    3    3    0    0 -0.53124514908E+01  0.37421902646E+02 -0.30924877144E+03  0.31155645328E+03  0.20000024333E+01 0.  0.
        -13    1    3    3    0    0  0.53124514908E+01 -0.37421902646E+02 -0.16321586208E+03  0.16753521939E+03  0.10566000000E+00 0.  1.
         13    1    4    4    0    0 -0.13635283676E+01  0.79936547232E+01 -0.65293390099E+02  0.65795103770E+02  0.10566000000E+00 0. -1.
        -13    1    4    4    0    0 -0.19797043576E+01  0.12679914717E+02 -0.11189511575E+03  0.11262871552E+03  0.10566000000E+00 0.  1.
        -14    1    4    4    0    0 -0.19692187656E+01  0.16748333206E+02 -0.13206026559E+03  0.13313263400E+03  0.00000000000E+00 0.  1.
<mgrwt>
<rscale>  0 0.79410332E+02</rscale>
<asrwt>0</asrwt>
<pdfrwt beam="1">  1        2 0.73196584E-01 0.79410332E+02</pdfrwt>
<pdfrwt beam="2">  1       -1 0.50977262E-03 0.79410332E+02</pdfrwt>
<totfact> 0.30550277E+05</totfact>
</mgrwt>
</event>
<event>
 8    1  0.1673046E-013  0.8077882E+02  0.7818608E-02  0.1326856E+00
         -1   -1    0    0    0  501 -0.00000000000E+00  0.00000000000E+00  0.40019348404E+02  0.40019348721E+02  0.50400000000E-02 0.  1.
          2   -1    0    0  501    0  0.00000000000E+00 -0.00000000000E+00 -0.40762896571E+02  0.40762896651E+02  0.25500000000E-02 0. -1.
         24    2    1    2    0    0  0.00000000000E+00  0.00000000000E+00 -0.74354816734E+00  0.80782245372E+02  0.80778823360E+02 0.  0.
         66    2    3    3    0    0 -0.27740846399E+02 -0.17997062864E+02 -0.23521432395E+02  0.40628889290E+02  0.20000080989E+01 0.  0.
        -13    1    3    3    0    0  0.27740846399E+02  0.17997062864E+02  0.22777884228E+02  0.40153356081E+02  0.10566000000E+00 0.  1.
         13    1    4    4    0    0 -0.17258595328E+02 -0.11518810899E+02 -0.15173266745E+02  0.25705666787E+02  0.10566000000E+00 0. -1.
        -13    1    4    4    0    0 -0.69387587475E+01 -0.40422631524E+01 -0.48670100312E+01  0.93906983249E+01  0.10566000000E+00 0.  1.
        -14    1    4    4    0    0 -0.35434923237E+01 -0.24359888127E+01 -0.34811556191E+01  0.55325241787E+01  0.00000000000E+00 0.  1.
<mgrwt>
<rscale>  0 0.80778823E+02</rscale>
<asrwt>0</asrwt>
<pdfrwt beam="1">  1        2 0.62712148E-02 0.80778823E+02</pdfrwt>
<pdfrwt beam="2">  1       -1 0.61568229E-02 0.80778823E+02</pdfrwt>
<totfact> 0.13932655E+05</totfact>
</mgrwt>
</event>
<event>
 8    1  0.1673046E-013  0.8051587E+02  0.7818608E-02  0.1327594E+00
         -1   -1    0    0    0  501 -0.00000000000E+00  0.00000000000E+00  0.74446186182E+02  0.74446186353E+02  0.50400000000E-02 0.  1.
          2   -1    0    0  501    0  0.00000000000E+00 -0.00000000000E+00 -0.21770106933E+02  0.21770107083E+02  0.25500000000E-02 0. -1.
         24    2    1    2    0    0  0.00000000000E+00  0.00000000000E+00  0.52676079249E+02  0.96216293435E+02  0.80515872953E+02 0.  0.
         66    2    3    3    0    0  0.11032142472E+02 -0.34317044509E+02  0.49999057546E+01  0.36446766129E+02  0.19999980825E+01 0.  0.
        -13    1    3    3    0    0 -0.11032142472E+02  0.34317044509E+02  0.47676173494E+02  0.59769527306E+02  0.10566000000E+00 0.  1.
         13    1    4    4    0    0  0.47910053402E+01 -0.14830702742E+02  0.21623037018E+01  0.15734999121E+02  0.10566000000E+00 0. -1.
        -13    1    4    4    0    0  0.24323165881E+01 -0.68592262271E+01  0.32656943230E+00  0.72858053809E+01  0.10566000000E+00 0.  1.
        -14    1    4    4    0    0  0.38088205437E+01 -0.12627115540E+02  0.25110326205E+01  0.13425961627E+02  0.00000000000E+00 0.  1.
<mgrwt>
<rscale>  0 0.80515873E+02</rscale>
<asrwt>0</asrwt>
<pdfrwt beam="1">  1        2 0.33492473E-02 0.80515873E+02</pdfrwt>
<pdfrwt beam="2">  1       -1 0.11453259E-01 0.80515873E+02</pdfrwt>
<totfact> 0.12399232E+05</totfact>
</mgrwt>
</event>
<event>
 8    1  0.1673046E-013  0.7730622E+02  0.7818608E-02  0.1336875E+00
         -1   -1    0    0    0  501 -0.00000000000E+00  0.00000000000E+00  0.12908808374E+01  0.12908906762E+01  0.50400000000E-02 0.  1.
          2   -1    0    0  501    0  0.00000000000E+00 -0.00000000000E+00 -0.11573936393E+04  0.11573936393E+04  0.25500000000E-02 0. -1.
         24    2    1    2    0    0  0.17763568394E-14 -0.35527136788E-14 -0.11561027585E+04  0.11586845300E+04  0.77306221534E+02 0.  0.
         66    2    3    3    0    0  0.47634462310E+01 -0.23254079580E+02 -0.10351768398E+04  0.10354508836E+04  0.20000009902E+01 0.  0.
        -13    1    3    3    0    0 -0.47634462310E+01  0.23254079580E+02 -0.12092591863E+03  0.12323364637E+03  0.10566000000E+00 0.  1.
         13    1    4    4    0    0  0.51156705643E+00 -0.35489713097E+01 -0.16656668056E+03  0.16660530344E+03  0.10566000000E+00 0.  1.
        -13    1    4    4    0    0  0.19690078346E+01 -0.12638618701E+02 -0.53848610819E+03  0.53863801532E+03  0.10566000000E+00 0. -1.
         14    1    4    4    0    0  0.22828713399E+01 -0.70664895692E+01 -0.33012405108E+03  0.33020756484E+03  0.00000000000E+00 0. -1.
<mgrwt>
<rscale>  0 0.77306222E+02</rscale>
<asrwt>0</asrwt>
<pdfrwt beam="1">  1        2 0.17805973E+00 0.77306222E+02</pdfrwt>
<pdfrwt beam="2">  1       -1 0.19859873E-03 0.77306222E+02</pdfrwt>
<totfact> 0.38419319E+05</totfact>
</mgrwt>
</event>
<event>
 8    1  0.1673046E-013  0.7953056E+02  0.7818608E-02  0.1330389E+00
         -1   -1    0    0    0  501 -0.00000000000E+00  0.00000000000E+00  0.96603430704E+01  0.96603443851E+01  0.50400000000E-02 0.  1.
          2   -1    0    0  501    0  0.00000000000E+00 -0.00000000000E+00 -0.16368750635E+03  0.16368750637E+03  0.25500000000E-02 0. -1.
         24    2    1    2    0    0  0.00000000000E+00  0.00000000000E+00 -0.15402716328E+03  0.17334785076E+03  0.79530562261E+02 0.  0.
         66    2    3    3    0    0 -0.20345838041E+02  0.13832089308E+02 -0.14508616761E+03  0.14717090694E+03  0.19999989574E+01 0.  0.
        -13    1    3    3    0    0  0.20345838041E+02 -0.13832089308E+02 -0.89409956699E+01  0.26176943821E+02  0.10566000000E+00 0.  1.
         13    1    4    4    0    0 -0.10560856686E+02  0.68150216904E+01 -0.70526083702E+02  0.71637391500E+02  0.10566000000E+00 0. -1.
        -13    1    4    4    0    0 -0.82226697218E+01  0.63405184802E+01 -0.64391657215E+02  0.65223547549E+02  0.10566000000E+00 0.  1.
         14    1    4    4    0    0 -0.15623116333E+01  0.67654913715E+00 -0.10168426697E+02  0.10309967889E+02  0.00000000000E+00 0. -1.
<mgrwt>
<rscale>  0 0.79530562E+02</rscale>
<asrwt>0</asrwt>
<pdfrwt beam="1">  1        2 0.25182691E-01 0.79530562E+02</pdfrwt>
<pdfrwt beam="2">  1       -1 0.14862069E-02 0.79530562E+02</pdfrwt>
<totfact> 0.20932567E+05</totfact>
</mgrwt>
</event>
<event>
 8    1  0.1673046E-013  0.7973691E+02  0.7818608E-02  0.1329800E+00
         -1   -1    0    0    0  501 -0.00000000000E+00  0.00000000000E+00  0.17125683271E+01  0.17125757433E+01  0.50400000000E-02 0.  1.
          2   -1    0    0  501    0  0.00000000000E+00 -0.00000000000E+00 -0.92813239315E+03  0.92813239315E+03  0.25500000000E-02 0. -1.
         24    2    1    2    0    0  0.88817841970E-15  0.35527136788E-14 -0.92641982482E+03  0.92984496889E+03  0.79736907125E+02 0.  0.
         66    2    3    3    0    0  0.38963159646E+01  0.19248343789E+02 -0.86776800729E+03  0.86799250831E+03  0.19999971833E+01 0.  0.
        -13    1    3    3    0    0 -0.38963159646E+01 -0.19248343789E+02 -0.58651817528E+02  0.61852460583E+02  0.10566000000E+00 0.  1.
         13    1    4    4    0    0  0.10581481975E+01  0.42034108259E+01 -0.16887088142E+03  0.16892653461E+03  0.10566000000E+00 0. -1.
        -13    1    4    4    0    0  0.11318593927E+01  0.32029023773E+01 -0.15184471171E+03  0.15188274203E+03  0.10566000000E+00 0.  1.
         14    1    4    4    0    0  0.17063083744E+01  0.11842030586E+02 -0.54705241416E+03  0.54718323167E+03  0.00000000000E+00 0. -1.
<mgrwt>
<rscale>  0 0.79736907E+02</rscale>
<asrwt>0</asrwt>
<pdfrwt beam="1">  1        2 0.14278920E+00 0.79736907E+02</pdfrwt>
<pdfrwt beam="2">  1       -1 0.26347336E-03 0.79736907E+02</pdfrwt>
<totfact> 0.35356193E+05</totfact>
</mgrwt>
</event>
<event>
 8    1  0.1673046E-013  0.7958493E+02  0.7818608E-02  0.1330233E+00
         -1   -1    0    0    0  501 -0.00000000000E+00  0.00000000000E+00  0.19214242526E+03  0.19214242532E+03  0.50400000000E-02 0.  1.
          2   -1    0    0  501    0  0.00000000000E+00 -0.00000000000E+00 -0.82409720679E+01  0.82409724624E+01  0.25500000000E-02 0. -1.
         24    2    1    2    0    0  0.00000000000E+00  0.17763568394E-14  0.18390145319E+03  0.20038339778E+03  0.79584933392E+02 0.  0.
         66    2    3    3    0    0  0.34509118868E+02  0.11304029028E+02  0.13282393295E+03  0.13771295343E+03  0.20000055377E+01 0.  0.
        -13    1    3    3    0    0 -0.34509118868E+02 -0.11304029028E+02  0.51077520239E+02  0.62670444350E+02  0.10566000000E+00 0.  1.
         13    1    4    4    0    0  0.13862789950E+02  0.50452790308E+01  0.53907586148E+02  0.55889809393E+02  0.10566000000E+00 0. -1.
        -13    1    4    4    0    0  0.15832744849E+02  0.42256991779E+01  0.59241480849E+02  0.61466222922E+02  0.10566000000E+00 0.  1.
        -14    1    4    4    0    0  0.48135840688E+01  0.20330508196E+01  0.19674865952E+02  0.20356921119E+02  0.00000000000E+00 0.  1.
<mgrwt>
<rscale>  0 0.79584933E+02</rscale>
<asrwt>0</asrwt>
<pdfrwt beam="1">  1        2 0.12678419E-02 0.79584933E+02</pdfrwt>
<pdfrwt beam="2">  1       -1 0.29560374E-01 0.79584933E+02</pdfrwt>
<totfact> 0.10214592E+05</totfact>
</mgrwt>
</event>
<event>
 8    1  0.1673046E-013  0.8004281E+02  0.7818608E-02  0.1328930E+00
          2   -1    0    0  501    0  0.00000000000E+00  0.00000000000E+00  0.19537058178E+02  0.19537058344E+02  0.25500000000E-02 0. -1.
         -1   -1    0    0    0  501 -0.00000000000E+00 -0.00000000000E+00 -0.81983309454E+02  0.81983309608E+02  0.50400000000E-02 0.  1.
         24    2    1    2    0    0  0.71054273576E-14  0.17763568394E-14 -0.62446251276E+02  0.10152036795E+03  0.80042806116E+02 0.  0.
         66    2    3    3    0    0  0.36009025138E+02  0.15447205996E+02 -0.21061005244E+02  0.44529001785E+02  0.19999984100E+01 0.  0.
        -13    1    3    3    0    0 -0.36009025138E+02 -0.15447205996E+02 -0.41385246032E+02  0.56991366167E+02  0.10566000000E+00 0.  1.
         13    1    4    4    0    0  0.12239789708E+02  0.52872721113E+01 -0.70498421092E+01  0.15082411487E+02  0.10566000000E+00 0. -1.
        -13    1    4    4    0    0  0.19821462032E+02  0.87876401036E+01 -0.12318843773E+02  0.24937482864E+02  0.10566000000E+00 0.  1.
        -14    1    4    4    0    0  0.39477733987E+01  0.13722937812E+01 -0.16923193615E+01  0.45091074339E+01  0.00000000000E+00 0.  1.
<mgrwt>
<rscale>  0 0.80042806E+02</rscale>
<asrwt>0</asrwt>
<pdfrwt beam="1">  1        2 0.30057013E-02 0.80042806E+02</pdfrwt>
<pdfrwt beam="2">  1       -1 0.12612817E-01 0.80042806E+02</pdfrwt>
<totfact> 0.12337906E+05</totfact>
</mgrwt>
</event>
<event>
 8    1  0.1673046E-013  0.7824882E+02  0.7818608E-02  0.1334096E+00
         -1   -1    0    0    0  501 -0.00000000000E+00  0.00000000000E+00  0.68167578146E+01  0.68167596778E+01  0.50400000000E-02 0.  1.
          2   -1    0    0  501    0  0.00000000000E+00 -0.00000000000E+00 -0.22455237959E+03  0.22455237960E+03  0.25500000000E-02 0. -1.
         24    2    1    2    0    0  0.00000000000E+00  0.00000000000E+00 -0.21773562177E+03  0.23136913928E+03  0.78248818663E+02 0.  0.
         66    2    3    3    0    0 -0.12497546965E+02 -0.32694824986E+02 -0.16045686402E+03  0.16424233752E+03  0.19999902624E+01 0.  0.
        -13    1    3    3    0    0  0.12497546965E+02  0.32694824986E+02 -0.57278757746E+02  0.67126801756E+02  0.10566000000E+00 0.  1.
         13    1    4    4    0    0 -0.16413302329E+01 -0.42276018106E+01 -0.21180463420E+02  0.21660788922E+02  0.10566000000E+00 0. -1.
        -13    1    4    4    0    0 -0.47838862129E+01 -0.14082882161E+02 -0.64555098492E+02  0.66246396450E+02  0.10566000000E+00 0.  1.
        -14    1    4    4    0    0 -0.60723305196E+01 -0.14384341014E+02 -0.74721302113E+02  0.76335152150E+02  0.00000000000E+00 0.  1.
<mgrwt>
<rscale>  0 0.78248819E+02</rscale>
<asrwt>0</asrwt>
<pdfrwt beam="1">  1        2 0.34546514E-01 0.78248819E+02</pdfrwt>
<pdfrwt beam="2">  1       -1 0.10487323E-02 0.78248819E+02</pdfrwt>
<totfact> 0.24350107E+05</totfact>
</mgrwt>
</event>
<event>
 8    1  0.1673046E-013  0.8026363E+02  0.7818608E-02  0.1328305E+00
         -1   -1    0    0    0  501 -0.00000000000E+00  0.00000000000E+00  0.65004470644E+01  0.65004490182E+01  0.50400000000E-02 0.  1.
          2   -1    0    0  501    0  0.00000000000E+00 -0.00000000000E+00 -0.24776175031E+03  0.24776175033E+03  0.25500000000E-02 0. -1.
         24    2    1    2    0    0  0.00000000000E+00  0.00000000000E+00 -0.24126130325E+03  0.25426219934E+03  0.80263625449E+02 0.  0.
         66    2    3    3    0    0 -0.29266275825E+02  0.11535287117E+02 -0.19951895287E+03  0.20199354020E+03  0.19999946306E+01 0.  0.
        -13    1    3    3    0    0  0.29266275825E+02 -0.11535287117E+02 -0.41742350376E+02  0.52268659142E+02  0.10566000000E+00 0.  1.
         13    1    4    4    0    0 -0.44905711708E+01  0.17071719470E+01 -0.28513084815E+02  0.28915166180E+02  0.10566000000E+00 0. -1.
        -13    1    4    4    0    0 -0.16711698503E+01  0.11053468650E+01 -0.13346739066E+02  0.13496711010E+02  0.10566000000E+00 0.  1.
         14    1    4    4    0    0 -0.23104534804E+02  0.87227683047E+01 -0.15765912899E+03  0.15958166301E+03  0.00000000000E+00 0. -1.
<mgrwt>
<rscale>  0 0.80263625E+02</rscale>
<asrwt>0</asrwt>
<pdfrwt beam="1">  1        2 0.38117185E-01 0.80263625E+02</pdfrwt>
<pdfrwt beam="2">  1       -1 0.10000691E-02 0.80263625E+02</pdfrwt>
<totfact> 0.23586681E+05</totfact>
</mgrwt>
</event>
<event>
 8    1  0.1673046E-013  0.7925661E+02  0.7818608E-02  0.1331174E+00
         -1   -1    0    0    0  501 -0.00000000000E+00  0.00000000000E+00  0.56200493086E+01  0.56200515685E+01  0.50400000000E-02 0.  1.
          2   -1    0    0  501    0  0.00000000000E+00 -0.00000000000E+00 -0.27942851938E+03  0.27942851939E+03  0.25500000000E-02 0. -1.
         24    2    1    2    0    0  0.00000000000E+00 -0.88817841970E-15 -0.27380847007E+03  0.28504857096E+03  0.79256605551E+02 0.  0.
         66    2    3    3    0    0  0.35209747763E+02  0.77834524813E+01 -0.19587863570E+03  0.19918019075E+03  0.19999987453E+01 0.  0.
        -13    1    3    3    0    0 -0.35209747763E+02 -0.77834524813E+01 -0.77929834369E+02  0.85868380204E+02  0.10566000000E+00 0.  1.
         13    1    4    4    0    0  0.20400849022E+02  0.44984063370E+01 -0.11305990481E+03  0.11497383851E+03  0.10566000000E+00 0. -1.
        -13    1    4    4    0    0  0.41247667930E+01  0.12821862245E+01 -0.26131514187E+02  0.26486315341E+02  0.10566000000E+00 0.  1.
         14    1    4    4    0    0  0.10684131948E+02  0.20028599198E+01 -0.56687216696E+02  0.57720036903E+02  0.00000000000E+00 0. -1.
<mgrwt>
<rscale>  0 0.79256606E+02</rscale>
<asrwt>0</asrwt>
<pdfrwt beam="1">  1        2 0.42988992E-01 0.79256606E+02</pdfrwt>
<pdfrwt beam="2">  1       -1 0.86462337E-03 0.79256606E+02</pdfrwt>
<totfact> 0.25462784E+05</totfact>
</mgrwt>
</event>
<event>
 8    1  0.1673046E-013  0.7990226E+02  0.7818608E-02  0.1329329E+00
         -1   -1    0    0    0  501 -0.00000000000E+00  0.00000000000E+00  0.38182550313E+01  0.38182583576E+01  0.50400000000E-02 0.  1.
          2   -1    0    0  501    0  0.00000000000E+00 -0.00000000000E+00 -0.41801608555E+03  0.41801608556E+03  0.25500000000E-02 0. -1.
         24    2    1    2    0    0  0.00000000000E+00  0.00000000000E+00 -0.41419783052E+03  0.42183434392E+03  0.79902258417E+02 0.  0.
         66    2    3    3    0    0 -0.67920704302E+01  0.24662254629E+02 -0.36906766077E+03  0.36995850745E+03  0.19999947282E+01 0.  0.
        -13    1    3    3    0    0  0.67920704302E+01 -0.24662254629E+02 -0.45130169745E+02  0.51875836469E+02  0.10566000000E+00 0.  1.
         13    1    4    4    0    0 -0.27584287821E+01  0.10574498397E+02 -0.15736288992E+03  0.15774193873E+03  0.10566000000E+00 0.  1.
        -13    1    4    4    0    0 -0.20089868479E+01  0.81296268860E+01 -0.11112052701E+03  0.11143567449E+03  0.10566000000E+00 0. -1.
        -14    1    4    4    0    0 -0.20246548002E+01  0.59581293459E+01 -0.10058424384E+03  0.10078089423E+03  0.00000000000E+00 0.  1.
<mgrwt>
<rscale>  0 0.79902258E+02</rscale>
<asrwt>0</asrwt>
<pdfrwt beam="1">  1        2 0.64310131E-01 0.79902258E+02</pdfrwt>
<pdfrwt beam="2">  1       -1 0.58742444E-03 0.79902258E+02</pdfrwt>
<totfact> 0.28780942E+05</totfact>
</mgrwt>
</event>
<event>
 8    1  0.1673046E-013  0.7965178E+02  0.7818608E-02  0.1330043E+00
         -1   -1    0    0    0  501 -0.00000000000E+00  0.00000000000E+00  0.46131943098E+01  0.46131970630E+01  0.50400000000E-02 0.  1.
          2   -1    0    0  501    0  0.00000000000E+00 -0.00000000000E+00 -0.34381841294E+03  0.34381841295E+03  0.25500000000E-02 0. -1.
         24    2    1    2    0    0 -0.35527136788E-14 -0.35527136788E-14 -0.33920521863E+03  0.34843161001E+03  0.79651782842E+02 0.  0.
         66    2    3    3    0    0 -0.24790103900E+02 -0.23787938729E+02 -0.25759963657E+03  0.25988841452E+03  0.19999902444E+01 0.  0.
        -13    1    3    3    0    0  0.24790103900E+02  0.23787938729E+02 -0.81605582058E+02  0.88543195489E+02  0.10566000000E+00 0.  1.
         13    1    4    4    0    0 -0.62583563704E+01 -0.64700010029E+01 -0.67562103615E+02  0.68159202947E+02  0.10566000000E+00 0. -1.
        -13    1    4    4    0    0 -0.20936357781E+01 -0.22986032735E+01 -0.20156493234E+02  0.20395153133E+02  0.10566000000E+00 0.  1.
         14    1    4    4    0    0 -0.16438111751E+02 -0.15019334453E+02 -0.16988103972E+03  0.17133405844E+03  0.00000000000E+00 0. -1.
<mgrwt>
<rscale>  0 0.79651783E+02</rscale>
<asrwt>0</asrwt>
<pdfrwt beam="1">  1        2 0.52895120E-01 0.79651783E+02</pdfrwt>
<pdfrwt beam="2">  1       -1 0.70972269E-03 0.79651783E+02</pdfrwt>
<totfact> 0.27085837E+05</totfact>
</mgrwt>
</event>
<event>
 8    1  0.1673046E-013  0.8135734E+02  0.7818608E-02  0.1325243E+00
          2   -1    0    0  501    0  0.00000000000E+00  0.00000000000E+00  0.23607550316E+02  0.23607550454E+02  0.25500000000E-02 0. -1.
         -1   -1    0    0    0  501 -0.00000000000E+00 -0.00000000000E+00 -0.70094280826E+02  0.70094281007E+02  0.50400000000E-02 0.  1.
         24    2    1    2    0    0  0.17763568394E-14  0.44408920985E-15 -0.46486730510E+02  0.93701831461E+02  0.81357342052E+02 0.  0.
         66    2    3    3    0    0  0.11684871877E+02  0.20125795115E+01  0.21529483127E+02  0.24659792176E+02  0.19999998462E+01 0.  0.
        -13    1    3    3    0    0 -0.11684871877E+02 -0.20125795115E+01 -0.68016213637E+02  0.69042039285E+02  0.10566000000E+00 0.  1.
         13    1    4    4    0    0  0.13798606153E+01  0.83280719069E+00  0.24994719459E+01  0.29759212319E+01  0.10566000000E+00 0.  1.
        -13    1    4    4    0    0  0.39989159222E+01  0.35015375733E+00  0.67405402181E+01  0.78460169943E+01  0.10566000000E+00 0. -1.
        -14    1    4    4    0    0  0.63060953391E+01  0.82961856346E+00  0.12289470963E+02  0.13837853950E+02  0.00000000000E+00 0.  1.
<mgrwt>
<rscale>  0 0.81357342E+02</rscale>
<asrwt>0</asrwt>
<pdfrwt beam="1">  1        2 0.36319309E-02 0.81357342E+02</pdfrwt>
<pdfrwt beam="2">  1       -1 0.10783735E-01 0.81357342E+02</pdfrwt>
<totfact> 0.12234126E+05</totfact>
</mgrwt>
</event>
<event>
 8    1  0.1673046E-013  0.8021971E+02  0.7818608E-02  0.1328429E+00
         -1   -1    0    0    0  501 -0.00000000000E+00  0.00000000000E+00  0.10881980354E+02  0.10881981521E+02  0.50400000000E-02 0.  1.
          2   -1    0    0  501    0  0.00000000000E+00 -0.00000000000E+00 -0.14784077983E+03  0.14784077985E+03  0.25500000000E-02 0. -1.
         24    2    1    2    0    0  0.35527136788E-14 -0.35527136788E-14 -0.13695879947E+03  0.15872276137E+03  0.80219712191E+02 0.  0.
         66    2    3    3    0    0  0.22109386819E+02 -0.16807448992E+02 -0.12571265133E+03  0.12875941144E+03  0.20000004871E+01 0.  0.
        -13    1    3    3    0    0 -0.22109386819E+02  0.16807448992E+02 -0.11246148142E+02  0.29963349933E+02  0.10566000000E+00 0.  1.
         13    1    4    4    0    0  0.15288649417E+02 -0.11949577270E+02 -0.87472437190E+02  0.89598959982E+02  0.10566000000E+00 0. -1.
        -13    1    4    4    0    0  0.22674820337E+00 -0.40458158651E+00 -0.25548563322E+01  0.25987604586E+01  0.10566000000E+00 0. -1.
         14    1    4    4    0    0  0.65939891982E+01 -0.44532901354E+01 -0.35685357810E+02  0.36561690998E+02  0.00000000000E+00 0. -1.
<mgrwt>
<rscale>  0 0.80219712E+02</rscale>
<asrwt>0</asrwt>
<pdfrwt beam="1">  1        2 0.22744734E-01 0.80219712E+02</pdfrwt>
<pdfrwt beam="2">  1       -1 0.16741510E-02 0.80219712E+02</pdfrwt>
<totfact> 0.19792223E+05</totfact>
</mgrwt>
</event>
<event>
 8    1  0.1673046E-013  0.8000260E+02  0.7818608E-02  0.1329044E+00
          2   -1    0    0  501    0  0.00000000000E+00  0.00000000000E+00  0.89448158741E+02  0.89448158777E+02  0.25500000000E-02 0. -1.
         -1   -1    0    0    0  501 -0.00000000000E+00 -0.00000000000E+00 -0.17888619855E+02  0.17888620565E+02  0.50400000000E-02 0.  1.
         24    2    1    2    0    0  0.00000000000E+00  0.00000000000E+00  0.71559538886E+02  0.10733677934E+03  0.80002603670E+02 0.  0.
         66    2    3    3    0    0 -0.20286230181E+02  0.34314649279E+02  0.39843333523E+02  0.56396077180E+02  0.20000012354E+01 0.  0.
        -13    1    3    3    0    0  0.20286230181E+02 -0.34314649279E+02  0.31716205363E+02  0.50940702162E+02  0.10566000000E+00 0.  1.
         13    1    4    4    0    0 -0.35788590640E+01  0.56990498905E+01  0.67028152319E+01  0.94987524404E+01  0.10566000000E+00 0. -1.
        -13    1    4    4    0    0 -0.99932464472E+01  0.18696437220E+02  0.20799598581E+02  0.29699431046E+02  0.10566000000E+00 0.  1.
        -14    1    4    4    0    0 -0.67141246698E+01  0.99191621685E+01  0.12340919710E+02  0.17197893693E+02  0.00000000000E+00 0.  1.
<mgrwt>
<rscale>  0 0.80002604E+02</rscale>
<asrwt>0</asrwt>
<pdfrwt beam="1">  1        2 0.13761255E-01 0.80002604E+02</pdfrwt>
<pdfrwt beam="2">  1       -1 0.27520955E-02 0.80002604E+02</pdfrwt>
<totfact> 0.17190779E+05</totfact>
</mgrwt>
</event>
<event>
 8    1  0.1673046E-013  0.8021274E+02  0.7818608E-02  0.1328449E+00
         -1   -1    0    0    0  501 -0.00000000000E+00  0.00000000000E+00  0.13600364294E+03  0.13600364303E+03  0.50400000000E-02 0.  1.
          2   -1    0    0  501    0  0.00000000000E+00 -0.00000000000E+00 -0.11827043239E+02  0.11827043514E+02  0.25500000000E-02 0. -1.
         24    2    1    2    0    0 -0.35527136788E-14  0.00000000000E+00  0.12417659970E+03  0.14783068655E+03  0.80212741956E+02 0.  0.
         66    2    3    3    0    0  0.22803188275E+02  0.32937982116E+02  0.59781080577E+02  0.71990788680E+02  0.19999996135E+01 0.  0.
        -13    1    3    3    0    0 -0.22803188275E+02 -0.32937982116E+02  0.64395519125E+02  0.75839897869E+02  0.10566000000E+00 0.  1.
         13    1    4    4    0    0  0.15834901567E+02  0.23527104206E+02  0.43154827680E+02  0.51639316960E+02  0.10566000000E+00 0. -1.
        -13    1    4    4    0    0  0.60396775161E+01  0.77839341661E+01  0.13643565405E+02  0.16829301132E+02  0.10566000000E+00 0.  1.
        -14    1    4    4    0    0  0.92860919256E+00  0.16269437432E+01  0.29826874910E+01  0.35221705872E+01  0.00000000000E+00 0.  1.
<mgrwt>
<rscale>  0 0.80212742E+02</rscale>
<asrwt>0</asrwt>
<pdfrwt beam="1">  1        2 0.18195453E-02 0.80212742E+02</pdfrwt>
<pdfrwt beam="2">  1       -1 0.20923636E-01 0.80212742E+02</pdfrwt>
<totfact> 0.10979525E+05</totfact>
</mgrwt>
</event>
<event>
 8    1  0.1673046E-013  0.7967358E+02  0.7818608E-02  0.1329980E+00
          2   -1    0    0  501    0  0.00000000000E+00  0.00000000000E+00  0.48969637607E+03  0.48969637608E+03  0.25500000000E-02 0. -1.
         -1   -1    0    0    0  501 -0.00000000000E+00 -0.00000000000E+00 -0.32407202713E+01  0.32407241904E+01  0.50400000000E-02 0.  1.
         24    2    1    2    0    0  0.00000000000E+00  0.00000000000E+00  0.48645565580E+03  0.49293710027E+03  0.79673582580E+02 0.  0.
         66    2    3    3    0    0  0.34769516983E+02 -0.94475306443E+00  0.36321504698E+03  0.36488214841E+03  0.20000011135E+01 0.  0.
        -13    1    3    3    0    0 -0.34769516983E+02  0.94475306443E+00  0.12324060882E+03  0.12805495186E+03  0.10566000000E+00 0.  1.
         13    1    4    4    0    0  0.84150301643E+01 -0.16709196699E+00  0.86581687178E+02  0.86989886602E+02  0.10566000000E+00 0. -1.
        -13    1    4    4    0    0  0.24976108903E+01 -0.22492555644E+00  0.31678150612E+02  0.31777429756E+02  0.10566000000E+00 0.  1.
        -14    1    4    4    0    0  0.23856875929E+02 -0.55273554099E+00  0.24495520919E+03  0.24611483205E+03  0.00000000000E+00 0.  1.
<mgrwt>
<rscale>  0 0.79673583E+02</rscale>
<asrwt>0</asrwt>
<pdfrwt beam="1">  1        2 0.75337894E-01 0.79673583E+02</pdfrwt>
<pdfrwt beam="2">  1       -1 0.49857272E-03 0.79673583E+02</pdfrwt>
<totfact> 0.30572829E+05</totfact>
</mgrwt>
</event>
<event>
 8    1  0.1673046E-013  0.7996780E+02  0.7818608E-02  0.1329143E+00
          2   -1    0    0  501    0  0.00000000000E+00  0.00000000000E+00  0.17379524400E+02  0.17379524587E+02  0.25500000000E-02 0. -1.
         -1   -1    0    0    0  501 -0.00000000000E+00 -0.00000000000E+00 -0.91988261343E+02  0.91988261481E+02  0.50400000000E-02 0.  1.
         24    2    1    2    0    0 -0.35527136788E-14  0.00000000000E+00 -0.74608736943E+02  0.10936778607E+03  0.79967799776E+02 0.  0.
         66    2    3    3    0    0  0.19598959997E+02 -0.16944704835E+02  0.42782013308E+01  0.26335247571E+02  0.20000007734E+01 0.  0.
        -13    1    3    3    0    0 -0.19598959997E+02  0.16944704835E+02 -0.78886938274E+02  0.83032538496E+02  0.10566000000E+00 0.  1.
         13    1    4    4    0    0  0.95561004949E+01 -0.90940088265E+01  0.17360712754E+01  0.13305831831E+02  0.10566000000E+00 0. -1.
        -13    1    4    4    0    0  0.15569057671E+01 -0.13517165430E+01  0.72032555356E+00  0.21865786332E+01  0.10566000000E+00 0.  1.
         14    1    4    4    0    0  0.84859537345E+01 -0.64989794657E+01  0.18218045018E+01  0.10842837107E+02  0.00000000000E+00 0. -1.
<mgrwt>
<rscale>  0 0.79967800E+02</rscale>
<asrwt>0</asrwt>
<pdfrwt beam="1">  1        2 0.26737731E-02 0.79967800E+02</pdfrwt>
<pdfrwt beam="2">  1       -1 0.14152040E-01 0.79967800E+02</pdfrwt>
<totfact> 0.12076433E+05</totfact>
</mgrwt>
</event>
<event>
 8    1  0.1673046E-013  0.8000732E+02  0.7818608E-02  0.1329031E+00
          2   -1    0    0  501    0  0.00000000000E+00  0.00000000000E+00  0.26733352826E+02  0.26733352947E+02  0.25500000000E-02 0. -1.
         -1   -1    0    0    0  501 -0.00000000000E+00 -0.00000000000E+00 -0.59861285077E+02  0.59861285289E+02  0.50400000000E-02 0.  1.
         24    2    1    2    0    0  0.00000000000E+00  0.00000000000E+00 -0.33127932251E+02  0.86594638236E+02  0.80007321390E+02 0.  0.
         66    2    3    3    0    0  0.14894691405E+02 -0.33955410442E+02 -0.39471048019E+00  0.37134586661E+02  0.19999999441E+01 0.  0.
        -13    1    3    3    0    0 -0.14894691405E+02  0.33955410442E+02 -0.32733221771E+02  0.49460051576E+02  0.10566000000E+00 0.  1.
         13    1    4    4    0    0  0.10959938493E+02 -0.26224051340E+02 -0.24356175262E+00  0.28423434114E+02  0.10566000000E+00 0. -1.
        -13    1    4    4    0    0  0.15172547688E+01 -0.37653487563E+01  0.64245279842E-01  0.40614289089E+01  0.10566000000E+00 0.  1.
        -14    1    4    4    0    0  0.24174981429E+01 -0.39660103453E+01 -0.21539400741E+00  0.46497236378E+01  0.00000000000E+00 0.  1.
<mgrwt>
<rscale>  0 0.80007321E+02</rscale>
<asrwt>0</asrwt>
<pdfrwt beam="1">  1        2 0.41128235E-02 0.80007321E+02</pdfrwt>
<pdfrwt beam="2">  1       -1 0.92094285E-02 0.80007321E+02</pdfrwt>
<totfact> 0.13149673E+05</totfact>
</mgrwt>
</event>
<event>
 8    1  0.1673046E-013  0.8074559E+02  0.7818608E-02  0.1326949E+00
          2   -1    0    0  501    0  0.00000000000E+00  0.00000000000E+00  0.14232788482E+03  0.14232788484E+03  0.25500000000E-02 0. -1.
         -1   -1    0    0    0  501 -0.00000000000E+00 -0.00000000000E+00 -0.11452166433E+02  0.11452167542E+02  0.50400000000E-02 0.  1.
         24    2    1    2    0    0 -0.35527136788E-14  0.00000000000E+00  0.13087571839E+03  0.15378005238E+03  0.80745593365E+02 0.  0.
         66    2    3    3    0    0  0.19540937303E+02  0.34474590969E+02  0.51022231790E+02  0.64634462819E+02  0.19999984786E+01 0.  0.
        -13    1    3    3    0    0 -0.19540937303E+02 -0.34474590969E+02  0.79853486595E+02  0.89145589563E+02  0.10566000000E+00 0.  1.
         13    1    4    4    0    0  0.61635955855E+01  0.97544107420E+01  0.14994459094E+02  0.18920449441E+02  0.10566000000E+00 0. -1.
        -13    1    4    4    0    0  0.76690803036E+01  0.15405057221E+02  0.21631291461E+02  0.27641536046E+02  0.10566000000E+00 0.  1.
         14    1    4    4    0    0  0.57082614141E+01  0.93151230055E+01  0.14396481235E+02  0.18072477332E+02  0.00000000000E+00 0. -1.
<mgrwt>
<rscale>  0 0.80745593E+02</rscale>
<asrwt>0</asrwt>
<pdfrwt beam="1">  1        2 0.21896599E-01 0.80745593E+02</pdfrwt>
<pdfrwt beam="2">  1       -1 0.17618718E-02 0.80745593E+02</pdfrwt>
<totfact> 0.19216937E+05</totfact>
</mgrwt>
</event>
<event>
 8    1  0.1673046E-013  0.7833448E+02  0.7818608E-02  0.1333845E+00
         -1   -1    0    0    0  501 -0.00000000000E+00  0.00000000000E+00  0.11188831365E+01  0.11188944878E+01  0.50400000000E-02 0.  1.
          2   -1    0    0  501    0  0.00000000000E+00 -0.00000000000E+00 -0.13710680675E+04  0.13710680675E+04  0.25500000000E-02 0. -1.
         24    2    1    2    0    0  0.00000000000E+00  0.00000000000E+00 -0.13699491843E+04  0.13721869620E+04  0.78334481025E+02 0.  0.
         66    2    3    3    0    0 -0.21919903639E+02  0.38173404732E+01 -0.12495152162E+04  0.12497148994E+04  0.19999995800E+01 0.  0.
        -13    1    3    3    0    0  0.21919903639E+02 -0.38173404732E+01 -0.12043396814E+03  0.12247206257E+03  0.10566000000E+00 0.  1.
         13    1    4    4    0    0 -0.17920277090E+01  0.24906575794E+00 -0.12596877240E+03  0.12598180893E+03  0.10566000000E+00 0. -1.
        -13    1    4    4    0    0 -0.78538618783E+01  0.78430067942E+00 -0.42768260377E+03  0.42775544299E+03  0.10566000000E+00 0.  1.
        -14    1    4    4    0    0 -0.12274014052E+02  0.27839740359E+01 -0.69586384004E+03  0.69597764749E+03  0.00000000000E+00 0.  1.
<mgrwt>
<rscale>  0 0.78334481E+02</rscale>
<asrwt>0</asrwt>
<pdfrwt beam="1">  1        2 0.21093221E+00 0.78334481E+02</pdfrwt>
<pdfrwt beam="2">  1       -1 0.17213784E-03 0.78334481E+02</pdfrwt>
<totfact> 0.36124922E+05</totfact>
</mgrwt>
</event>
<event>
 8    1  0.1673046E-013  0.7841528E+02  0.7818608E-02  0.1333610E+00
          2   -1    0    0  501    0  0.00000000000E+00  0.00000000000E+00  0.29853492316E+03  0.29853492317E+03  0.25500000000E-02 0. -1.
         -1   -1    0    0    0  501 -0.00000000000E+00 -0.00000000000E+00 -0.51492754067E+01  0.51492778732E+01  0.50400000000E-02 0.  1.
         24    2    1    2    0    0  0.00000000000E+00 -0.35527136788E-14  0.29338564776E+03  0.30368420105E+03  0.78415276931E+02 0.  0.
         66    2    3    3    0    0 -0.11923578040E+02  0.26561142550E+02  0.24833784574E+03  0.25004669889E+03  0.19999984499E+01 0.  0.
        -13    1    3    3    0    0  0.11923578040E+02 -0.26561142550E+02  0.45047802021E+02  0.53637502158E+02  0.10566000000E+00 0.  1.
         13    1    4    4    0    0 -0.20069242889E+01  0.56293943035E+01  0.51134576513E+02  0.51482753466E+02  0.10566000000E+00 0. -1.
        -13    1    4    4    0    0 -0.34184797070E+01  0.76955166271E+01  0.66223412445E+02  0.66756711270E+02  0.10566000000E+00 0.  1.
         14    1    4    4    0    0 -0.64981740441E+01  0.13236231619E+02  0.13097985678E+03  0.13180723415E+03  0.00000000000E+00 0. -1.
<mgrwt>
<rscale>  0 0.78415277E+02</rscale>
<asrwt>0</asrwt>
<pdfrwt beam="1">  1        2 0.45928459E-01 0.78415277E+02</pdfrwt>
<pdfrwt beam="2">  1       -1 0.79219625E-03 0.78415277E+02</pdfrwt>
<totfact> 0.26818651E+05</totfact>
</mgrwt>
</event>
<event>
 8    1  0.1673046E-013  0.7957488E+02  0.7818608E-02  0.1330262E+00
         -1   -1    0    0    0  501 -0.00000000000E+00  0.00000000000E+00  0.20465425489E+01  0.20465487549E+01  0.50400000000E-02 0.  1.
          2   -1    0    0  501    0  0.00000000000E+00 -0.00000000000E+00 -0.77351816134E+03  0.77351816134E+03  0.25500000000E-02 0. -1.
         24    2    1    2    0    0  0.00000000000E+00  0.00000000000E+00 -0.77147161879E+03  0.77556471010E+03  0.79574876381E+02 0.  0.
         66    2    3    3    0    0 -0.16310713896E+01 -0.26191412842E+02 -0.67712970209E+03  0.67764096981E+03  0.20000044051E+01 0.  0.
        -13    1    3    3    0    0  0.16310713896E+01  0.26191412842E+02 -0.94341916701E+02  0.97923740285E+02  0.10566000000E+00 0.  1.
         13    1    4    4    0    0 -0.60676088058E+00 -0.12833637804E+02 -0.34027661129E+03  0.34051909458E+03  0.10566000000E+00 0. -1.
        -13    1    4    4    0    0 -0.71315777160E+00 -0.33643646196E+01 -0.78400138226E+02  0.78475603733E+02  0.10566000000E+00 0.  1.
        -14    1    4    4    0    0 -0.31115273743E+00 -0.99934104180E+01 -0.25845295258E+03  0.25864627150E+03  0.00000000000E+00 0.  1.
<mgrwt>
<rscale>  0 0.79574876E+02</rscale>
<asrwt>0</asrwt>
<pdfrwt beam="1">  1        2 0.11900256E+00 0.79574876E+02</pdfrwt>
<pdfrwt beam="2">  1       -1 0.31485379E-03 0.79574876E+02</pdfrwt>
<totfact> 0.34633704E+05</totfact>
</mgrwt>
</event>
<event>
 8    1  0.1673046E-013  0.7938132E+02  0.7818608E-02  0.1330816E+00
         -1   -1    0    0    0  501 -0.00000000000E+00  0.00000000000E+00  0.54400387711E+01  0.54400411057E+01  0.50400000000E-02 0.  1.
          2   -1    0    0  501    0  0.00000000000E+00 -0.00000000000E+00 -0.28958398024E+03  0.28958398025E+03  0.25500000000E-02 0. -1.
         24    2    1    2    0    0  0.00000000000E+00  0.00000000000E+00 -0.28414394147E+03  0.29502402136E+03  0.79381318358E+02 0.  0.
         66    2    3    3    0    0  0.18199061249E+02 -0.19877957138E+02 -0.25032569965E+03  0.25178025124E+03  0.19999995278E+01 0.  0.
        -13    1    3    3    0    0 -0.18199061249E+02  0.19877957138E+02 -0.33818241820E+02  0.43243770119E+02  0.10566000000E+00 0.  1.
         13    1    4    4    0    0  0.62300486624E+01 -0.68092060152E+01 -0.77839193720E+02  0.78384501248E+02  0.10566000000E+00 0. -1.
        -13    1    4    4    0    0  0.43079757098E+01 -0.43228607327E+01 -0.60972489300E+02  0.61277250225E+02  0.10566000000E+00 0.  1.
         14    1    4    4    0    0  0.76610368766E+01 -0.87458903902E+01 -0.11151401663E+03  0.11211849977E+03  0.00000000000E+00 0. -1.
<mgrwt>
<rscale>  0 0.79381318E+02</rscale>
<asrwt>0</asrwt>
<pdfrwt beam="1">  1        2 0.44551370E-01 0.79381318E+02</pdfrwt>
<pdfrwt beam="2">  1       -1 0.83692945E-03 0.79381318E+02</pdfrwt>
<totfact> 0.25687881E+05</totfact>
</mgrwt>
</event>
<event>
 8    1  0.1673046E-013  0.7963961E+02  0.7818608E-02  0.1330077E+00
         -1   -1    0    0    0  501 -0.00000000000E+00  0.00000000000E+00  0.59337574037E+01  0.59337595441E+01  0.50400000000E-02 0.  1.
          2   -1    0    0  501    0  0.00000000000E+00 -0.00000000000E+00 -0.26721968016E+03  0.26721968017E+03  0.25500000000E-02 0. -1.
         24    2    1    2    0    0 -0.17763568394E-14  0.71054273576E-14 -0.26128592276E+03  0.27315343972E+03  0.79639614503E+02 0.  0.
         66    2    3    3    0    0  0.11473996623E+02 -0.37953114998E+02 -0.14236676667E+03  0.14779847019E+03  0.20000004849E+01 0.  0.
        -13    1    3    3    0    0 -0.11473996623E+02  0.37953114998E+02 -0.11891915609E+03  0.12535496953E+03  0.10566000000E+00 0.  1.
         13    1    4    4    0    0  0.86996226776E-01 -0.40970674801E+00 -0.14035094229E+01  0.14684790426E+01  0.10566000000E+00 0.  1.
        -13    1    4    4    0    0  0.72402820412E+00 -0.16037127437E+01 -0.72253366105E+01  0.74372551775E+01  0.10566000000E+00 0. -1.
         14    1    4    4    0    0  0.10662972192E+02 -0.35939695506E+02 -0.13373792064E+03  0.13889273597E+03  0.00000000000E+00 0. -1.
<mgrwt>
<rscale>  0 0.79639615E+02</rscale>
<asrwt>0</asrwt>
<pdfrwt beam="1">  1        2 0.41110711E-01 0.79639615E+02</pdfrwt>
<pdfrwt beam="2">  1       -1 0.91288613E-03 0.79639615E+02</pdfrwt>
<totfact> 0.24739657E+05</totfact>
</mgrwt>
</event>
<event>
 8    1  0.1673046E-013  0.8083592E+02  0.7818608E-02  0.1326696E+00
          2   -1    0    0  501    0  0.00000000000E+00  0.00000000000E+00  0.54234920307E+03  0.54234920308E+03  0.25500000000E-02 0. -1.
         -1   -1    0    0    0  501 -0.00000000000E+00 -0.00000000000E+00 -0.30121003697E+01  0.30121045863E+01  0.50400000000E-02 0.  1.
         24    2    1    2    0    0  0.00000000000E+00  0.00000000000E+00  0.53933710270E+03  0.54536130767E+03  0.80835917426E+02 0.  0.
         66    2    3    3    0    0 -0.35802241124E+02  0.15629605385E+02  0.33913586924E+03  0.34138427446E+03  0.20000010903E+01 0.  0.
        -13    1    3    3    0    0  0.35802241124E+02 -0.15629605385E+02  0.20020123346E+03  0.20397703321E+03  0.10566000000E+00 0.  1.
         13    1    4    4    0    0 -0.28992329340E+01  0.12099386457E+01  0.23596362122E+02  0.23804809862E+02  0.10566000000E+00 0. -1.
        -13    1    4    4    0    0 -0.59535094491E+01  0.29403978428E+01  0.60308965139E+02  0.60673492189E+02  0.10566000000E+00 0.  1.
         14    1    4    4    0    0 -0.26949498741E+02  0.11479268896E+02  0.25523054198E+03  0.25690597240E+03  0.00000000000E+00 0. -1.
<mgrwt>
<rscale>  0 0.80835917E+02</rscale>
<asrwt>0</asrwt>
<pdfrwt beam="1">  1        2 0.83438371E-01 0.80835917E+02</pdfrwt>
<pdfrwt beam="2">  1       -1 0.46340020E-03 0.80835917E+02</pdfrwt>
<totfact> 0.30396191E+05</totfact>
</mgrwt>
</event>
<event>
 8    1  0.1673046E-013  0.8510869E+02  0.7818608E-02  0.1315149E+00
         -1   -1    0    0    0  501 -0.00000000000E+00  0.00000000000E+00  0.11893467356E+02  0.11893468424E+02  0.50400000000E-02 0.  1.
          2   -1    0    0  501    0  0.00000000000E+00 -0.00000000000E+00 -0.15225771318E+03  0.15225771320E+03  0.25500000000E-02 0. -1.
         24    2    1    2    0    0  0.00000000000E+00  0.00000000000E+00 -0.14036424583E+03  0.16415118163E+03  0.85108688882E+02 0.  0.
         66    2    3    3    0    0  0.14511054310E+02  0.31606657002E+02 -0.11743772323E+03  0.12249559297E+03  0.19999987814E+01 0.  0.
        -13    1    3    3    0    0 -0.14511054310E+02 -0.31606657002E+02 -0.22926522592E+02  0.41655588655E+02  0.10566000000E+00 0.  1.
         13    1    4    4    0    0  0.13177980064E+01  0.30436810142E+01 -0.11488591307E+02  0.11958238999E+02  0.10566000000E+00 0. -1.
        -13    1    4    4    0    0  0.10190845099E+02  0.23145143765E+02 -0.83033374769E+02  0.86799213667E+02  0.10566000000E+00 0.  1.
        -14    1    4    4    0    0  0.30024112045E+01  0.54178322230E+01 -0.22915757157E+02  0.23738140305E+02  0.00000000000E+00 0.  1.
<mgrwt>
<rscale>  0 0.85108689E+02</rscale>
<asrwt>0</asrwt>
<pdfrwt beam="1">  1        2 0.23424262E-01 0.85108689E+02</pdfrwt>
<pdfrwt beam="2">  1       -1 0.18297644E-02 0.85108689E+02</pdfrwt>
<totfact> 0.17069568E+05</totfact>
</mgrwt>
</event>
<event>
 8    1  0.1673046E-013  0.8038403E+02  0.7818608E-02  0.1327965E+00
         -1   -1    0    0    0  501 -0.00000000000E+00  0.00000000000E+00  0.10187935106E+02  0.10187936352E+02  0.50400000000E-02 0.  1.
          2   -1    0    0  501    0  0.00000000000E+00 -0.00000000000E+00 -0.15855990011E+03  0.15855990013E+03  0.25500000000E-02 0. -1.
         24    2    1    2    0    0  0.00000000000E+00  0.00000000000E+00 -0.14837196501E+03  0.16874783649E+03  0.80384030245E+02 0.  0.
         66    2    3    3    0    0  0.28648186758E+02  0.92631046936E+01 -0.13004512054E+03  0.13350002655E+03  0.20000000877E+01 0.  0.
        -13    1    3    3    0    0 -0.28648186758E+02 -0.92631046936E+01 -0.18326844473E+02  0.35247809938E+02  0.10566000000E+00 0.  1.
         13    1    4    4    0    0  0.97590254643E+01  0.32280449051E+01 -0.43094256367E+02  0.44303328856E+02  0.10566000000E+00 0. -1.
        -13    1    4    4    0    0  0.12724717995E+02  0.44380324054E+01 -0.61774363540E+02  0.63227349577E+02  0.10566000000E+00 0.  1.
        -14    1    4    4    0    0  0.61644432981E+01  0.15970273831E+01 -0.25176500629E+02  0.25969348116E+02  0.00000000000E+00 0.  1.
<mgrwt>
<rscale>  0 0.80384030E+02</rscale>
<asrwt>0</asrwt>
<pdfrwt beam="1">  1        2 0.24393829E-01 0.80384030E+02</pdfrwt>
<pdfrwt beam="2">  1       -1 0.15673749E-02 0.80384030E+02</pdfrwt>
<totfact> 0.20137047E+05</totfact>
</mgrwt>
</event>
<event>
 8    1  0.1673046E-013  0.7757918E+02  0.7818608E-02  0.1336065E+00
          2   -1    0    0  501    0  0.00000000000E+00  0.00000000000E+00  0.32385571175E+03  0.32385571176E+03  0.25500000000E-02 0. -1.
         -1   -1    0    0    0  501 -0.00000000000E+00 -0.00000000000E+00 -0.46459945105E+01  0.46459972442E+01  0.50400000000E-02 0.  1.
         24    2    1    2    0    0  0.00000000000E+00 -0.17763568394E-14  0.31920971724E+03  0.32850170901E+03  0.77579180446E+02 0.  0.
         66    2    3    3    0    0 -0.39058905152E+01  0.10933288098E+02  0.31631694275E+03  0.31653625550E+03  0.20000011742E+01 0.  0.
        -13    1    3    3    0    0  0.39058905152E+01 -0.10933288098E+02  0.28927744913E+01  0.11965453508E+02  0.10566000000E+00 0.  1.
         13    1    4    4    0    0  0.74656563465E-01  0.48054325149E+00  0.85618549129E+01  0.85763056734E+01  0.10566000000E+00 0. -1.
        -13    1    4    4    0    0 -0.47956573579E+00  0.23531972507E+01  0.62853593762E+02  0.62899546369E+02  0.10566000000E+00 0.  1.
         14    1    4    4    0    0 -0.35009813429E+01  0.80995475962E+01  0.24490149408E+03  0.24506040346E+03  0.00000000000E+00 0. -1.
<mgrwt>
<rscale>  0 0.77579180E+02</rscale>
<asrwt>0</asrwt>
<pdfrwt beam="1">  1        2 0.49823948E-01 0.77579180E+02</pdfrwt>
<pdfrwt beam="2">  1       -1 0.71476871E-03 0.77579180E+02</pdfrwt>
<totfact> 0.28402165E+05</totfact>
</mgrwt>
</event>
<event>
 8    1  0.1673046E-013  0.7522951E+02  0.7818608E-02  0.1343162E+00
         -1   -1    0    0    0  501 -0.00000000000E+00  0.00000000000E+00  0.47405888477E+02  0.47405888745E+02  0.50400000000E-02 0.  1.
          2   -1    0    0  501    0  0.00000000000E+00 -0.00000000000E+00 -0.29845867076E+02  0.29845867185E+02  0.25500000000E-02 0. -1.
         24    2    1    2    0    0 -0.17763568394E-14  0.00000000000E+00  0.17560021401E+02  0.77251755930E+02  0.75229511780E+02 0.  0.
         66    2    3    3    0    0 -0.12715398858E+02 -0.16551530033E+02 -0.23314805068E+02  0.31356253782E+02  0.20000003402E+01 0.  0.
        -13    1    3    3    0    0  0.12715398858E+02  0.16551530033E+02  0.40874826468E+02  0.45895502148E+02  0.10566000000E+00 0.  1.
         13    1    4    4    0    0 -0.58279494383E+01 -0.78081736741E+01 -0.10264704320E+02  0.14153016979E+02  0.10566000000E+00 0. -1.
        -13    1    4    4    0    0 -0.15568182767E+01 -0.27273797112E+01 -0.31252740086E+01  0.44317925155E+01  0.10566000000E+00 0.  1.
        -14    1    4    4    0    0 -0.53306311428E+01 -0.60159766475E+01 -0.99248267388E+01  0.12771444288E+02  0.00000000000E+00 0.  1.
<mgrwt>
<rscale>  0 0.75229512E+02</rscale>
<asrwt>0</asrwt>
<pdfrwt beam="1">  1        2 0.45916719E-02 0.75229512E+02</pdfrwt>
<pdfrwt beam="2">  1       -1 0.72932137E-02 0.75229512E+02</pdfrwt>
<totfact> 0.15955703E+05</totfact>
</mgrwt>
</event>
<event>
 8    1  0.1673046E-013  0.8065142E+02  0.7818608E-02  0.1327213E+00
         -1   -1    0    0    0  501 -0.00000000000E+00  0.00000000000E+00  0.16097487995E+01  0.16097566894E+01  0.50400000000E-02 0.  1.
          2   -1    0    0  501    0  0.00000000000E+00 -0.00000000000E+00 -0.10101940958E+04  0.10101940958E+04  0.25500000000E-02 0. -1.
         24    2    1    2    0    0  0.00000000000E+00 -0.17763568394E-14 -0.10085843470E+04  0.10118038525E+04  0.80651416008E+02 0.  0.
         66    2    3    3    0    0  0.13768034726E+02 -0.15122119287E+02 -0.94025738791E+03  0.94048189392E+03  0.19999997036E+01 0.  0.
        -13    1    3    3    0    0 -0.13768034726E+02  0.15122119287E+02 -0.68326959059E+02  0.71321958542E+02  0.10566000000E+00 0.  1.
         13    1    4    4    0    0  0.72413539229E+01 -0.80303505730E+01 -0.53369229260E+03  0.53380183410E+03  0.10566000000E+00 0. -1.
        -13    1    4    4    0    0  0.17550428416E+01 -0.23688863928E+01 -0.11791923149E+03  0.11795612793E+03  0.10566000000E+00 0.  1.
         14    1    4    4    0    0  0.47716379613E+01 -0.47228823210E+01 -0.28864586382E+03  0.28872393189E+03  0.00000000000E+00 0. -1.
<mgrwt>
<rscale>  0 0.80651416E+02</rscale>
<asrwt>0</asrwt>
<pdfrwt beam="1">  1        2 0.15541397E+00 0.80651416E+02</pdfrwt>
<pdfrwt beam="2">  1       -1 0.24765508E-03 0.80651416E+02</pdfrwt>
<totfact> 0.34510249E+05</totfact>
</mgrwt>
</event>
<event>
 8    1  0.1673046E-013  0.8077724E+02  0.7818608E-02  0.1326860E+00
          2   -1    0    0  501    0  0.00000000000E+00  0.00000000000E+00  0.20105813437E+03  0.20105813438E+03  0.25500000000E-02 0. -1.
         -1   -1    0    0    0  501 -0.00000000000E+00 -0.00000000000E+00 -0.81132780643E+01  0.81132796297E+01  0.50400000000E-02 0.  1.
         24    2    1    2    0    0  0.00000000000E+00  0.00000000000E+00  0.19294485630E+03  0.20917141401E+03  0.80777242256E+02 0.  0.
         66    2    3    3    0    0 -0.50524132261E+01 -0.27848700307E+02  0.17105093391E+03  0.17338828964E+03  0.20000011606E+01 0.  0.
        -13    1    3    3    0    0  0.50524132261E+01  0.27848700307E+02  0.21893922397E+02  0.35783124377E+02  0.10566000000E+00 0.  1.
         13    1    4    4    0    0 -0.88307617394E+00 -0.49231497600E+01  0.28188226203E+02  0.28628735348E+02  0.10566000000E+00 0. -1.
        -13    1    4    4    0    0 -0.27288181008E+01 -0.10545557557E+02  0.66102296745E+02  0.66993880552E+02  0.10566000000E+00 0.  1.
         14    1    4    4    0    0 -0.14405189513E+01 -0.12379992990E+02  0.76760410957E+02  0.77765673736E+02  0.00000000000E+00 0. -1.
<mgrwt>
<rscale>  0 0.80777242E+02</rscale>
<asrwt>0</asrwt>
<pdfrwt beam="1">  1        2 0.30932019E-01 0.80777242E+02</pdfrwt>
<pdfrwt beam="2">  1       -1 0.12481968E-02 0.80777242E+02</pdfrwt>
<totfact> 0.21542146E+05</totfact>
</mgrwt>
</event>
<event>
 8    1  0.1673046E-013  0.8109050E+02  0.7818608E-02  0.1325985E+00
         -1   -1    0    0    0  501 -0.00000000000E+00  0.00000000000E+00  0.97838970831E+02  0.97838970961E+02  0.50400000000E-02 0.  1.
          2   -1    0    0  501    0  0.00000000000E+00 -0.00000000000E+00 -0.16802276631E+02  0.16802276825E+02  0.25500000000E-02 0. -1.
         24    2    1    2    0    0  0.00000000000E+00  0.17763568394E-14  0.81036694200E+02  0.11464124779E+03  0.81090504296E+02 0.  0.
         66    2    3    3    0    0 -0.37397237342E+02  0.12123379866E+02  0.54422324813E+02  0.67166354188E+02  0.19999991722E+01 0.  0.
        -13    1    3    3    0    0  0.37397237342E+02 -0.12123379866E+02  0.26614369387E+02  0.47474893598E+02  0.10566000000E+00 0.  1.
         13    1    4    4    0    0 -0.89226745309E+01  0.36496197798E+01  0.13718781753E+02  0.16767527610E+02  0.10566000000E+00 0.  1.
        -13    1    4    4    0    0 -0.27306183678E+02  0.82893194921E+01  0.39101784081E+02  0.48407656079E+02  0.10566000000E+00 0. -1.
        -14    1    4    4    0    0 -0.11683791331E+01  0.18444059412E+00  0.16017589788E+01  0.19911704994E+01  0.00000000000E+00 0.  1.
<mgrwt>
<rscale>  0 0.81090504E+02</rscale>
<asrwt>0</asrwt>
<pdfrwt beam="1">  1        2 0.25849656E-02 0.81090504E+02</pdfrwt>
<pdfrwt beam="2">  1       -1 0.15052150E-01 0.81090504E+02</pdfrwt>
<totfact> 0.11513635E+05</totfact>
</mgrwt>
</event>
<event>
 8    1  0.1673046E-013  0.8094489E+02  0.7818608E-02  0.1326391E+00
         -1   -1    0    0    0  501 -0.00000000000E+00  0.00000000000E+00  0.44134617751E+02  0.44134618039E+02  0.50400000000E-02 0.  1.
          2   -1    0    0  501    0  0.00000000000E+00 -0.00000000000E+00 -0.37114151524E+02  0.37114151612E+02  0.25500000000E-02 0. -1.
         24    2    1    2    0    0  0.71054273576E-14 -0.88817841970E-15  0.70204662271E+01  0.81248769651E+02  0.80944892512E+02 0.  0.
         66    2    3    3    0    0  0.35810493728E+02  0.64982891883E+01 -0.14200255984E+02  0.39118620842E+02  0.20000007884E+01 0.  0.
        -13    1    3    3    0    0 -0.35810493728E+02 -0.64982891883E+01  0.21220722211E+02  0.42130148809E+02  0.10566000000E+00 0.  1.
         13    1    4    4    0    0  0.18576641180E+02  0.28631708456E+01 -0.76768036330E+01  0.20303542127E+02  0.10566000000E+00 0. -1.
        -13    1    4    4    0    0  0.13933375239E+01  0.22188733693E+00 -0.82740095309E+00  0.16390179433E+01  0.10566000000E+00 0.  1.
        -14    1    4    4    0    0  0.15840515024E+02  0.34132310057E+01 -0.56960513980E+01  0.17176060772E+02  0.00000000000E+00 0.  1.
<mgrwt>
<rscale>  0 0.80944893E+02</rscale>
<asrwt>0</asrwt>
<pdfrwt beam="1">  1        2 0.57098695E-02 0.80944893E+02</pdfrwt>
<pdfrwt beam="2">  1       -1 0.67899412E-02 0.80944893E+02</pdfrwt>
<totfact> 0.13588741E+05</totfact>
</mgrwt>
</event>
<event>
 8    1  0.1673046E-013  0.7677902E+02  0.7818608E-02  0.1338449E+00
         -1   -1    0    0    0  501 -0.00000000000E+00  0.00000000000E+00  0.35258940750E+03  0.35258940754E+03  0.50400000000E-02 0.  1.
          2   -1    0    0  501    0  0.00000000000E+00 -0.00000000000E+00 -0.41798029013E+01  0.41798036792E+01  0.25500000000E-02 0. -1.
         24    2    1    2    0    0  0.00000000000E+00  0.00000000000E+00  0.34840960460E+03  0.35676921122E+03  0.76779017280E+02 0.  0.
         66    2    3    3    0    0 -0.34487862963E+02  0.52573330333E+01  0.24848049223E+03  0.25092550141E+03  0.19999992136E+01 0.  0.
        -13    1    3    3    0    0  0.34487862963E+02 -0.52573330333E+01  0.99929112369E+02  0.10584370980E+03  0.10566000000E+00 0.  1.
         13    1    4    4    0    0 -0.82287063885E+01  0.10400932185E+01  0.57903299342E+02  0.58494415472E+02  0.10566000000E+00 0. -1.
        -13    1    4    4    0    0 -0.25502177752E+02  0.39418160761E+01  0.18283230181E+03  0.18464441701E+03  0.10566000000E+00 0.  1.
        -14    1    4    4    0    0 -0.75697882305E+00  0.27542373867E+00  0.77448910799E+01  0.77866689293E+01  0.00000000000E+00 0.  1.
<mgrwt>
<rscale>  0 0.76779017E+02</rscale>
<asrwt>0</asrwt>
<pdfrwt beam="1">  1        2 0.64304670E-03 0.76779017E+02</pdfrwt>
<pdfrwt beam="2">  1       -1 0.54244521E-01 0.76779017E+02</pdfrwt>
<totfact> 0.89567423E+04</totfact>
</mgrwt>
</event>
<event>
 8    1  0.1673046E-013  0.7816647E+02  0.7818608E-02  0.1334337E+00
         -1   -1    0    0    0  501 -0.00000000000E+00  0.00000000000E+00  0.30806848448E+01  0.30806889675E+01  0.50400000000E-02 0.  1.
          2   -1    0    0  501    0  0.00000000000E+00 -0.00000000000E+00 -0.49583077386E+03  0.49583077387E+03  0.25500000000E-02 0. -1.
         24    2    1    2    0    0  0.00000000000E+00  0.00000000000E+00 -0.49275008902E+03  0.49891146284E+03  0.78166473138E+02 0.  0.
         66    2    3    3    0    0  0.85456583782E+01 -0.33734686218E+02 -0.35971593423E+03  0.36140090021E+03  0.19999995348E+01 0.  0.
        -13    1    3    3    0    0 -0.85456583782E+01  0.33734686218E+02 -0.13303415479E+03  0.13751056263E+03  0.10566000000E+00 0.  1.
         13    1    4    4    0    0  0.24651050804E+01 -0.78647277056E+01 -0.80646206369E+02  0.81066345981E+02  0.10566000000E+00 0. -1.
        -13    1    4    4    0    0  0.20199987401E+01 -0.10879780887E+02 -0.11825421439E+03  0.11877087359E+03  0.10566000000E+00 0.  1.
        -14    1    4    4    0    0  0.40605545577E+01 -0.14990177625E+02 -0.16081551347E+03  0.16156368064E+03  0.00000000000E+00 0.  1.
<mgrwt>
<rscale>  0 0.78166473E+02</rscale>
<asrwt>0</asrwt>
<pdfrwt beam="1">  1        2 0.76281594E-01 0.78166473E+02</pdfrwt>
<pdfrwt beam="2">  1       -1 0.47395223E-03 0.78166473E+02</pdfrwt>
<totfact> 0.32259682E+05</totfact>
</mgrwt>
</event>
<event>
 8    1  0.1673046E-013  0.7549427E+02  0.7818608E-02  0.1342347E+00
         -1   -1    0    0    0  501 -0.00000000000E+00  0.00000000000E+00  0.48527038297E+01  0.48527064469E+01  0.50400000000E-02 0.  1.
          2   -1    0    0  501    0  0.00000000000E+00 -0.00000000000E+00 -0.29361893190E+03  0.29361893191E+03  0.25500000000E-02 0. -1.
         24    2    1    2    0    0 -0.17763568394E-14  0.00000000000E+00 -0.28876622807E+03  0.29847163836E+03  0.75494267532E+02 0.  0.
         66    2    3    3    0    0  0.14929649432E+02  0.16777968222E+02 -0.26430050193E+03  0.26526053225E+03  0.19999987760E+01 0.  0.
        -13    1    3    3    0    0 -0.14929649432E+02 -0.16777968222E+02 -0.24465726140E+02  0.33211106115E+02  0.10566000000E+00 0.  1.
         13    1    4    4    0    0  0.33193481311E+01  0.33644107366E+01 -0.57757946180E+02  0.57951090090E+02  0.10566000000E+00 0. -1.
        -13    1    4    4    0    0  0.93109062154E+01  0.11304196131E+02 -0.17577134257E+03  0.17638042368E+03  0.10566000000E+00 0.  1.
        -14    1    4    4    0    0  0.22993950859E+01  0.21093613539E+01 -0.30771213180E+02  0.30929018472E+02  0.00000000000E+00 0.  1.
<mgrwt>
<rscale>  0 0.75494268E+02</rscale>
<asrwt>0</asrwt>
<pdfrwt beam="1">  1        2 0.45172130E-01 0.75494268E+02</pdfrwt>
<pdfrwt beam="2">  1       -1 0.74657025E-03 0.75494268E+02</pdfrwt>
<totfact> 0.29437418E+05</totfact>
</mgrwt>
</event>
<event>
 8    1  0.1673046E-013  0.8081021E+02  0.7818608E-02  0.1326768E+00
          2   -1    0    0  501    0  0.00000000000E+00  0.00000000000E+00  0.17537060180E+04  0.17537060181E+04  0.25500000000E-02 0. -1.
         -1   -1    0    0    0  501 -0.00000000000E+00 -0.00000000000E+00 -0.93092034202E+00  0.93093398519E+00  0.50400000000E-02 0.  1.
         24    2    1    2    0    0  0.88817841970E-15  0.17763568394E-14  0.17527750977E+04  0.17546369520E+04  0.80810211661E+02 0.  0.
         66    2    3    3    0    0  0.52601464783E+01 -0.12524180346E+02  0.17026027145E+04  0.17026580771E+04  0.20000024966E+01 0.  0.
        -13    1    3    3    0    0 -0.52601464783E+01  0.12524180346E+02  0.50172383227E+02  0.51978874911E+02  0.10566000000E+00 0.  1.
         13    1    4    4    0    0  0.18218337162E+01 -0.49445542676E+01  0.65591247589E+03  0.65593365128E+03  0.10566000000E+00 0. -1.
        -13    1    4    4    0    0  0.11408608763E+01 -0.22635486964E+01  0.41000454676E+03  0.41001239584E+03  0.10566000000E+00 0.  1.
        -14    1    4    4    0    0  0.22974518859E+01 -0.53160773818E+01  0.63668569184E+03  0.63671203001E+03  0.00000000000E+00 0.  1.
<mgrwt>
<rscale>  0 0.80810212E+02</rscale>
<asrwt>0</asrwt>
<pdfrwt beam="1">  1        2 0.26979875E+00 0.80810212E+02</pdfrwt>
<pdfrwt beam="2">  1       -1 0.14322072E-03 0.80810212E+02</pdfrwt>
<totfact> 0.29950157E+05</totfact>
</mgrwt>
</event>
<event>
 8    1  0.1673046E-013  0.8105920E+02  0.7818608E-02  0.1326072E+00
          2   -1    0    0  501    0  0.00000000000E+00  0.00000000000E+00  0.93726593098E+03  0.93726593098E+03  0.25500000000E-02 0. -1.
         -1   -1    0    0    0  501 -0.00000000000E+00 -0.00000000000E+00 -0.17525924169E+01  0.17525996638E+01  0.50400000000E-02 0.  1.
         24    2    1    2    0    0  0.00000000000E+00  0.17763568394E-14  0.93551333856E+03  0.93901853065E+03  0.81059202251E+02 0.  0.
         66    2    3    3    0    0  0.19040808337E+02 -0.14917805046E+02  0.84440743070E+03  0.84475617919E+03  0.19999947904E+01 0.  0.
        -13    1    3    3    0    0 -0.19040808337E+02  0.14917805046E+02  0.91105907866E+02  0.94262351455E+02  0.10566000000E+00 0.  1.
         13    1    4    4    0    0  0.15162734569E+02 -0.11792776124E+02  0.65752786254E+03  0.65780839099E+03  0.10566000000E+00 0. -1.
        -13    1    4    4    0    0  0.26409176527E+01 -0.23901249326E+01  0.12076801820E+03  0.12082057990E+03  0.10566000000E+00 0.  1.
         14    1    4    4    0    0  0.12371561155E+01 -0.73490398961E+00  0.66111549960E+02  0.66127208298E+02  0.00000000000E+00 0. -1.
<mgrwt>
<rscale>  0 0.81059202E+02</rscale>
<asrwt>0</asrwt>
<pdfrwt beam="1">  1        2 0.14419498E+00 0.81059202E+02</pdfrwt>
<pdfrwt beam="2">  1       -1 0.26962975E-03 0.81059202E+02</pdfrwt>
<totfact> 0.33906735E+05</totfact>
</mgrwt>
</event>
<event>
 8    1  0.1673046E-013  0.7835190E+02  0.7818608E-02  0.1333795E+00
          2   -1    0    0  501    0  0.00000000000E+00  0.00000000000E+00  0.10660269915E+03  0.10660269918E+03  0.25500000000E-02 0. -1.
         -1   -1    0    0    0  501 -0.00000000000E+00 -0.00000000000E+00 -0.14396963105E+02  0.14396963987E+02  0.50400000000E-02 0.  1.
         24    2    1    2    0    0 -0.35527136788E-14  0.00000000000E+00  0.92205736049E+02  0.12099966317E+03  0.78351903151E+02 0.  0.
         66    2    3    3    0    0 -0.17473778757E+02 -0.30516288706E+02  0.72709927488E+02  0.80791771708E+02  0.20000000037E+01 0.  0.
        -13    1    3    3    0    0  0.17473778757E+02  0.30516288706E+02  0.19495808561E+02  0.40207891463E+02  0.10566000000E+00 0.  1.
         13    1    4    4    0    0 -0.81548933008E+01 -0.14188398509E+02  0.35508266048E+02  0.39098095334E+02  0.10566000000E+00 0.  1.
        -13    1    4    4    0    0 -0.44069656241E+01 -0.85493863488E+01  0.18448674083E+02  0.20805722588E+02  0.10566000000E+00 0. -1.
         14    1    4    4    0    0 -0.49119198318E+01 -0.77785038490E+01  0.18752987357E+02  0.20887953786E+02  0.00000000000E+00 0. -1.
<mgrwt>
<rscale>  0 0.78351903E+02</rscale>
<asrwt>0</asrwt>
<pdfrwt beam="1">  1        2 0.16400415E-01 0.78351903E+02</pdfrwt>
<pdfrwt beam="2">  1       -1 0.22149175E-02 0.78351903E+02</pdfrwt>
<totfact> 0.19081922E+05</totfact>
</mgrwt>
</event>
<event>
 8    1  0.1673046E-013  0.7959047E+02  0.7818608E-02  0.1330218E+00
         -1   -1    0    0    0  501 -0.00000000000E+00  0.00000000000E+00  0.15906647726E+01  0.15906727572E+01  0.50400000000E-02 0.  1.
          2   -1    0    0  501    0  0.00000000000E+00 -0.00000000000E+00 -0.99559423376E+03  0.99559423376E+03  0.25500000000E-02 0. -1.
         24    2    1    2    0    0  0.00000000000E+00  0.00000000000E+00 -0.99400356899E+03  0.99718490652E+03  0.79590468226E+02 0.  0.
         66    2    3    3    0    0 -0.42796701117E+01 -0.16295744159E+02 -0.94866807482E+03  0.94881978428E+03  0.20000008970E+01 0.  0.
        -13    1    3    3    0    0  0.42796701117E+01  0.16295744159E+02 -0.45335494172E+02  0.48365122246E+02  0.10566000000E+00 0.  1.
         13    1    4    4    0    0 -0.14660239289E+01 -0.33832269940E+01 -0.20618249834E+03  0.20621549224E+03  0.10566000000E+00 0. -1.
        -13    1    4    4    0    0 -0.19549936886E+01 -0.80175326852E+01 -0.49539958836E+03  0.49546833011E+03  0.10566000000E+00 0.  1.
         14    1    4    4    0    0 -0.85865249424E+00 -0.48949844800E+01 -0.24708598811E+03  0.24713596193E+03  0.00000000000E+00 0. -1.
<mgrwt>
<rscale>  0 0.79590468E+02</rscale>
<asrwt>0</asrwt>
<pdfrwt beam="1">  1        2 0.15316785E+00 0.79590468E+02</pdfrwt>
<pdfrwt beam="2">  1       -1 0.24471907E-03 0.79590468E+02</pdfrwt>
<totfact> 0.35696783E+05</totfact>
</mgrwt>
</event>
<event>
 8    1  0.1673046E-013  0.7315458E+02  0.7818608E-02  0.1349683E+00
         -1   -1    0    0    0  501 -0.00000000000E+00  0.00000000000E+00  0.41019779280E+01  0.41019810242E+01  0.50400000000E-02 0.  1.
          2   -1    0    0  501    0  0.00000000000E+00 -0.00000000000E+00 -0.32615918803E+03  0.32615918804E+03  0.25500000000E-02 0. -1.
         24    2    1    2    0    0 -0.35527136788E-14  0.00000000000E+00 -0.32205721010E+03  0.33026116906E+03  0.73154584361E+02 0.  0.
         66    2    3    3    0    0  0.26261385487E+02  0.11422659395E+02 -0.26367558905E+03  0.26523377210E+03  0.20000214401E+01 0.  0.
        -13    1    3    3    0    0 -0.26261385487E+02 -0.11422659395E+02 -0.58381621054E+02  0.65027396967E+02  0.10566000000E+00 0.  1.
         13    1    4    4    0    0  0.16190831683E+02  0.64820471989E+01 -0.16604536150E+03  0.16695877696E+03  0.10566000000E+00 0. -1.
        -13    1    4    4    0    0  0.58466544954E+00  0.25307190099E+00 -0.67822175676E+01  0.68128935295E+01  0.10566000000E+00 0.  1.
        -14    1    4    4    0    0  0.94858883546E+01  0.46875402954E+01 -0.90848009984E+02  0.91462101604E+02  0.00000000000E+00 0.  1.
<mgrwt>
<rscale>  0 0.73154584E+02</rscale>
<asrwt>0</asrwt>
<pdfrwt beam="1">  1        2 0.50178316E-01 0.73154584E+02</pdfrwt>
<pdfrwt beam="2">  1       -1 0.63107403E-03 0.73154584E+02</pdfrwt>
<totfact> 0.33174482E+05</totfact>
</mgrwt>
</event>
<event>
 8    1  0.1673046E-013  0.8090654E+02  0.7818608E-02  0.1326498E+00
          2   -1    0    0  501    0  0.00000000000E+00  0.00000000000E+00  0.69105634894E+03  0.69105634894E+03  0.25500000000E-02 0. -1.
         -1   -1    0    0    0  501 -0.00000000000E+00 -0.00000000000E+00 -0.23680632834E+01  0.23680686468E+01  0.50400000000E-02 0.  1.
         24    2    1    2    0    0  0.00000000000E+00 -0.88817841970E-15  0.68868828566E+03  0.69342441759E+03  0.80906539362E+02 0.  0.
         66    2    3    3    0    0 -0.25959536397E+02 -0.42358867074E+01  0.60769238248E+03  0.60826463975E+03  0.19999957066E+01 0.  0.
        -13    1    3    3    0    0  0.25959536397E+02  0.42358867074E+01  0.80995903174E+02  0.85159777836E+02  0.10566000000E+00 0.  1.
         13    1    4    4    0    0 -0.27630261686E+01 -0.75798615256E+00  0.60641841628E+02  0.60709578954E+02  0.10566000000E+00 0. -1.
        -13    1    4    4    0    0 -0.15892222210E+02 -0.17076861978E+01  0.37318238660E+03  0.37352454237E+03  0.10566000000E+00 0.  1.
         14    1    4    4    0    0 -0.73042880187E+01 -0.17702143570E+01  0.17386815425E+03  0.17403051843E+03  0.00000000000E+00 0. -1.
<mgrwt>
<rscale>  0 0.80906539E+02</rscale>
<asrwt>0</asrwt>
<pdfrwt beam="1">  1        2 0.10631643E+00 0.80906539E+02</pdfrwt>
<pdfrwt beam="2">  1       -1 0.36431761E-03 0.80906539E+02</pdfrwt>
<totfact> 0.32389038E+05</totfact>
</mgrwt>
</event>
<event>
 8    1  0.1673046E-013  0.7735018E+02  0.7818608E-02  0.1336744E+00
         -1   -1    0    0    0  501 -0.00000000000E+00  0.00000000000E+00  0.69352800531E+01  0.69352818844E+01  0.50400000000E-02 0.  1.
          2   -1    0    0  501    0  0.00000000000E+00 -0.00000000000E+00 -0.21567439848E+03  0.21567439850E+03  0.25500000000E-02 0. -1.
         24    2    1    2    0    0 -0.71054273576E-14  0.00000000000E+00 -0.20873911843E+03  0.22260968038E+03  0.77350179296E+02 0.  0.
         66    2    3    3    0    0 -0.35493777295E+02 -0.14183428755E+02 -0.12091642574E+03  0.12682964909E+03  0.19999995427E+01 0.  0.
        -13    1    3    3    0    0  0.35493777295E+02  0.14183428755E+02 -0.87822692690E+02  0.95780031287E+02  0.10566000000E+00 0.  1.
         13    1    4    4    0    0 -0.15694624645E+02 -0.65687898602E+01 -0.56193709903E+02  0.58712983570E+02  0.10566000000E+00 0. -1.
        -13    1    4    4    0    0 -0.65709527383E+00 -0.17320303025E+00 -0.24498589354E+01  0.25445522843E+01  0.10566000000E+00 0. -1.
         14    1    4    4    0    0 -0.19142057376E+02 -0.74414358643E+01 -0.62272856900E+02  0.65572113240E+02  0.00000000000E+00 0. -1.
<mgrwt>
<rscale>  0 0.77350179E+02</rscale>
<asrwt>0</asrwt>
<pdfrwt beam="1">  1        2 0.33180672E-01 0.77350179E+02</pdfrwt>
<pdfrwt beam="2">  1       -1 0.10669665E-02 0.77350179E+02</pdfrwt>
<totfact> 0.24746704E+05</totfact>
</mgrwt>
</event>
<event>
 8    1  0.1673046E-013  0.7855972E+02  0.7818608E-02  0.1333189E+00
         -1   -1    0    0    0  501 -0.00000000000E+00  0.00000000000E+00  0.77920099956E+01  0.77920116256E+01  0.50400000000E-02 0.  1.
          2   -1    0    0  501    0  0.00000000000E+00 -0.00000000000E+00 -0.19801147943E+03  0.19801147945E+03  0.25500000000E-02 0. -1.
         24    2    1    2    0    0  0.00000000000E+00  0.88817841970E-15 -0.19021946943E+03  0.20580349107E+03  0.78559724958E+02 0.  0.
         66    2    3    3    0    0 -0.81035768011E+01  0.79983442511E+01 -0.19358511494E+03  0.19392998268E+03  0.19999968667E+01 0.  0.
        -13    1    3    3    0    0  0.81035768011E+01 -0.79983442511E+01  0.33656455104E+01  0.11873508389E+02  0.10566000000E+00 0.  1.
         13    1    4    4    0    0 -0.16073832775E+01  0.88651317351E+00 -0.30491368938E+02  0.30546756462E+02  0.10566000000E+00 0. -1.
        -13    1    4    4    0    0 -0.33103545011E+00  0.79705368726E+00 -0.18476996135E+02  0.18497443858E+02  0.10566000000E+00 0.  1.
         14    1    4    4    0    0 -0.61651580735E+01  0.63147773904E+01 -0.14461674987E+03  0.14488578236E+03  0.00000000000E+00 0. -1.
<mgrwt>
<rscale>  0 0.78559725E+02</rscale>
<asrwt>0</asrwt>
<pdfrwt beam="1">  1        2 0.30463301E-01 0.78559725E+02</pdfrwt>
<pdfrwt beam="2">  1       -1 0.11987711E-02 0.78559725E+02</pdfrwt>
<totfact> 0.23060822E+05</totfact>
</mgrwt>
</event>
<event>
 8    1  0.1673046E-013  0.7962980E+02  0.7818608E-02  0.1330105E+00
         -1   -1    0    0    0  501 -0.00000000000E+00  0.00000000000E+00  0.33173121949E+01  0.33173160236E+01  0.50400000000E-02 0.  1.
          2   -1    0    0  501    0  0.00000000000E+00 -0.00000000000E+00 -0.47786434389E+03  0.47786434390E+03  0.25500000000E-02 0. -1.
         24    2    1    2    0    0  0.35527136788E-14  0.71054273576E-14 -0.47454703169E+03  0.48118165992E+03  0.79629796892E+02 0.  0.
         66    2    3    3    0    0  0.18392561402E+02  0.34771426560E+02 -0.27362009356E+03  0.27644039869E+03  0.20000013008E+01 0.  0.
        -13    1    3    3    0    0 -0.18392561402E+02 -0.34771426560E+02 -0.20092693813E+03  0.20474126123E+03  0.10566000000E+00 0.  1.
         13    1    4    4    0    0  0.27152154150E+01  0.43729797230E+01 -0.36686687492E+02  0.37046181309E+02  0.10566000000E+00 0. -1.
        -13    1    4    4    0    0  0.35958206836E+01  0.83616963757E+01 -0.64343909406E+02  0.64984596132E+02  0.10566000000E+00 0.  1.
         14    1    4    4    0    0  0.12081525304E+02  0.22036750462E+02 -0.17258949666E+03  0.17440962125E+03  0.00000000000E+00 0. -1.
<mgrwt>
<rscale>  0 0.79629797E+02</rscale>
<asrwt>0</asrwt>
<pdfrwt beam="1">  1        2 0.73517537E-01 0.79629797E+02</pdfrwt>
<pdfrwt beam="2">  1       -1 0.51035640E-03 0.79629797E+02</pdfrwt>
<totfact> 0.30374738E+05</totfact>
</mgrwt>
</event>
<event>
 8    1  0.1673046E-013  0.7874164E+02  0.7818608E-02  0.1332661E+00
         -1   -1    0    0    0  501 -0.00000000000E+00  0.00000000000E+00  0.29626388528E+02  0.29626388957E+02  0.50400000000E-02 0.  1.
          2   -1    0    0  501    0  0.00000000000E+00 -0.00000000000E+00 -0.52320295093E+02  0.52320295156E+02  0.25500000000E-02 0. -1.
         24    2    1    2    0    0  0.00000000000E+00 -0.71054273576E-14 -0.22693906566E+02  0.81946684112E+02  0.78741638552E+02 0.  0.
         66    2    3    3    0    0 -0.16319408731E+02 -0.35433632632E+02 -0.16680280658E+02  0.42474665119E+02  0.19999978194E+01 0.  0.
        -13    1    3    3    0    0  0.16319408731E+02  0.35433632632E+02 -0.60136259078E+01  0.39472018994E+02  0.10566000000E+00 0.  1.
         13    1    4    4    0    0 -0.11425841682E+02 -0.26155123788E+02 -0.12131721813E+02  0.31013387379E+02  0.10566000000E+00 0. -1.
        -13    1    4    4    0    0 -0.86476881635E+00 -0.14282173576E+01 -0.45188002084E+00  0.17329135914E+01  0.10566000000E+00 0.  1.
         14    1    4    4    0    0 -0.40287982333E+01 -0.78502914862E+01 -0.40966788237E+01  0.97283641486E+01  0.00000000000E+00 0. -1.
<mgrwt>
<rscale>  0 0.78741639E+02</rscale>
<asrwt>0</asrwt>
<pdfrwt beam="1">  1        2 0.80492762E-02 0.78741639E+02</pdfrwt>
<pdfrwt beam="2">  1       -1 0.45579060E-02 0.78741639E+02</pdfrwt>
<totfact> 0.15760274E+05</totfact>
</mgrwt>
</event>
<event>
 8    1  0.1673046E-013  0.7930126E+02  0.7818608E-02  0.1331046E+00
          2   -1    0    0  501    0  0.00000000000E+00  0.00000000000E+00  0.10171712614E+03  0.10171712617E+03  0.25500000000E-02 0. -1.
         -1   -1    0    0    0  501 -0.00000000000E+00 -0.00000000000E+00 -0.15456319237E+02  0.15456320059E+02  0.50400000000E-02 0.  1.
         24    2    1    2    0    0  0.00000000000E+00  0.00000000000E+00  0.86260806898E+02  0.11717344623E+03  0.79301259093E+02 0.  0.
         66    2    3    3    0    0 -0.85276228529E+01 -0.28953363067E+02  0.81092858679E+02  0.86550963681E+02  0.20000002452E+01 0.  0.
        -13    1    3    3    0    0  0.85276228529E+01  0.28953363067E+02  0.51679482196E+01  0.30622482545E+02  0.10566000000E+00 0.  1.
         13    1    4    4    0    0 -0.44470196591E+01 -0.13514367236E+02  0.39379531599E+02  0.41870906112E+02  0.10566000000E+00 0. -1.
        -13    1    4    4    0    0 -0.40157995510E+01 -0.15036638439E+02  0.40059577370E+02  0.42976831487E+02  0.10566000000E+00 0.  1.
         14    1    4    4    0    0 -0.64803642781E-01 -0.40235739160E+00  0.16537497096E+01  0.17032260815E+01  0.00000000000E+00 0. -1.
<mgrwt>
<rscale>  0 0.79301259E+02</rscale>
<asrwt>0</asrwt>
<pdfrwt beam="1">  1        2 0.15648788E-01 0.79301259E+02</pdfrwt>
<pdfrwt beam="2">  1       -1 0.23778954E-02 0.79301259E+02</pdfrwt>
<totfact> 0.18233908E+05</totfact>
</mgrwt>
</event>
<event>
 8    1  0.1673046E-013  0.7937306E+02  0.7818608E-02  0.1330840E+00
         -1   -1    0    0    0  501 -0.00000000000E+00  0.00000000000E+00  0.10007192573E+02  0.10007193842E+02  0.50400000000E-02 0.  1.
          2   -1    0    0  501    0  0.00000000000E+00 -0.00000000000E+00 -0.15738886516E+03  0.15738886518E+03  0.25500000000E-02 0. -1.
         24    2    1    2    0    0  0.88817841970E-15  0.17763568394E-14 -0.14738167259E+03  0.16739605902E+03  0.79373063199E+02 0.  0.
         66    2    3    3    0    0 -0.37586322248E+01 -0.93750269564E+01 -0.15462436468E+03  0.15496681128E+03  0.19999997299E+01 0.  0.
        -13    1    3    3    0    0  0.37586322248E+01  0.93750269564E+01  0.72426920935E+01  0.12429247742E+02  0.10566000000E+00 0.  1.
         13    1    4    4    0    0 -0.86447421752E+00 -0.12847112698E+01 -0.20690664811E+02  0.20748796906E+02  0.10566000000E+00 0. -1.
        -13    1    4    4    0    0 -0.43822855667E+00 -0.51310597911E+00 -0.16747882099E+02  0.16761803031E+02  0.10566000000E+00 0.  1.
        -14    1    4    4    0    0 -0.24559294506E+01 -0.75772097074E+01 -0.11718581777E+03  0.11745621134E+03  0.00000000000E+00 0.  1.
<mgrwt>
<rscale>  0 0.79373063E+02</rscale>
<asrwt>0</asrwt>
<pdfrwt beam="1">  1        2 0.24213670E-01 0.79373063E+02</pdfrwt>
<pdfrwt beam="2">  1       -1 0.15395683E-02 0.79373063E+02</pdfrwt>
<totfact> 0.20773548E+05</totfact>
</mgrwt>
</event>
<event>
 8    1  0.1673046E-013  0.8885355E+02  0.7818608E-02  0.1305652E+00
          2   -1    0    0  501    0  0.00000000000E+00  0.00000000000E+00  0.58011632390E+03  0.58011632391E+03  0.25500000000E-02 0. -1.
         -1   -1    0    0    0  501 -0.00000000000E+00 -0.00000000000E+00 -0.34023129353E+01  0.34023166683E+01  0.50400000000E-02 0.  1.
         24    2    1    2    0    0 -0.17763568394E-14 -0.35527136788E-14  0.57671401097E+03  0.58351864058E+03  0.88853550600E+02 0.  0.
         66    2    3    3    0    0 -0.12547719470E+02  0.19712281377E+02  0.53647098733E+03  0.53698336990E+03  0.20000018123E+01 0.  0.
        -13    1    3    3    0    0  0.12547719470E+02 -0.19712281377E+02  0.40243023643E+02  0.46535270677E+02  0.10566000000E+00 0.  1.
         13    1    4    4    0    0 -0.18221517130E+01  0.36014816290E+01  0.93891498126E+02  0.93978271378E+02  0.10566000000E+00 0. -1.
        -13    1    4    4    0    0 -0.50087765985E+00  0.11882812102E+01  0.36431813059E+02  0.36454780996E+02  0.10566000000E+00 0.  1.
        -14    1    4    4    0    0 -0.10224690097E+02  0.14922518538E+02  0.40614767614E+03  0.40655031753E+03  0.00000000000E+00 0.  1.
<mgrwt>
<rscale>  0 0.88853551E+02</rscale>
<asrwt>0</asrwt>
<pdfrwt beam="1">  1        2 0.89248649E-01 0.88853551E+02</pdfrwt>
<pdfrwt beam="2">  1       -1 0.52343314E-03 0.88853551E+02</pdfrwt>
<totfact> 0.24208194E+05</totfact>
</mgrwt>
</event>
<event>
 8    1  0.1673046E-013  0.7925532E+02  0.7818608E-02  0.1331178E+00
          2   -1    0    0  501    0  0.00000000000E+00  0.00000000000E+00  0.29152896468E+03  0.29152896469E+03  0.25500000000E-02 0. -1.
         -1   -1    0    0    0  501 -0.00000000000E+00 -0.00000000000E+00 -0.53866045422E+01  0.53866069000E+01  0.50400000000E-02 0.  1.
         24    2    1    2    0    0  0.17763568394E-14  0.00000000000E+00  0.28614236014E+03  0.29691557159E+03  0.79255324036E+02 0.  0.
         66    2    3    3    0    0 -0.93550283305E+01  0.36187237936E+02  0.19219643012E+03  0.19580730449E+03  0.19999994235E+01 0.  0.
        -13    1    3    3    0    0  0.93550283305E+01 -0.36187237936E+02  0.93945930020E+02  0.10110826710E+03  0.10566000000E+00 0.  1.
         13    1    4    4    0    0 -0.62768360398E+01  0.26787647833E+02  0.13930101530E+03  0.14199211518E+03  0.10566000000E+00 0. -1.
        -13    1    4    4    0    0 -0.11412908216E+00  0.32348151584E+00  0.18428426665E+01  0.18774714026E+01  0.10566000000E+00 0. -1.
         14    1    4    4    0    0 -0.29640632086E+01  0.90761085879E+01  0.51052572150E+02  0.51937717903E+02  0.00000000000E+00 0. -1.
<mgrwt>
<rscale>  0 0.79255324E+02</rscale>
<asrwt>0</asrwt>
<pdfrwt beam="1">  1        2 0.44850598E-01 0.79255324E+02</pdfrwt>
<pdfrwt beam="2">  1       -1 0.82870881E-03 0.79255324E+02</pdfrwt>
<totfact> 0.25857622E+05</totfact>
</mgrwt>
</event>
<event>
 8    1  0.1673046E-013  0.8840974E+02  0.7818608E-02  0.1306749E+00
         -1   -1    0    0    0  501 -0.00000000000E+00  0.00000000000E+00  0.94253484900E+02  0.94253485035E+02  0.50400000000E-02 0.  1.
          2   -1    0    0  501    0  0.00000000000E+00 -0.00000000000E+00 -0.20732077034E+02  0.20732077191E+02  0.25500000000E-02 0. -1.
         24    2    1    2    0    0  0.00000000000E+00  0.00000000000E+00  0.73521407867E+02  0.11498556223E+03  0.88409739880E+02 0.  0.
         66    2    3    3    0    0 -0.13784954981E+02  0.36254377353E+02  0.64297512375E+02  0.75117075006E+02  0.19999997000E+01 0.  0.
        -13    1    3    3    0    0  0.13784954981E+02 -0.36254377353E+02  0.92238954919E+01  0.39868487220E+02  0.10566000000E+00 0.  1.
         13    1    4    4    0    0 -0.39922469840E+01  0.90565101451E+01  0.16211123525E+02  0.18993949088E+02  0.10566000000E+00 0. -1.
        -13    1    4    4    0    0 -0.17576767627E+01  0.64101897016E+01  0.11513229751E+02  0.13294569679E+02  0.10566000000E+00 0.  1.
         14    1    4    4    0    0 -0.80350312344E+01  0.20787677507E+02  0.36573159099E+02  0.42828556240E+02  0.00000000000E+00 0. -1.
<mgrwt>
<rscale>  0 0.88409740E+02</rscale>
<asrwt>0</asrwt>
<pdfrwt beam="1">  1        2 0.31895504E-02 0.88409740E+02</pdfrwt>
<pdfrwt beam="2">  1       -1 0.14500536E-01 0.88409740E+02</pdfrwt>
<totfact> 0.93634725E+04</totfact>
</mgrwt>
</event>
<event>
 8    1  0.1673046E-013  0.8023147E+02  0.7818608E-02  0.1328396E+00
         -1   -1    0    0    0  501 -0.00000000000E+00  0.00000000000E+00  0.16656922472E+02  0.16656923235E+02  0.50400000000E-02 0.  1.
          2   -1    0    0  501    0  0.00000000000E+00 -0.00000000000E+00 -0.96612813209E+02  0.96612813243E+02  0.25500000000E-02 0. -1.
         24    2    1    2    0    0  0.00000000000E+00  0.00000000000E+00 -0.79955890737E+02  0.11326973648E+03  0.80231469749E+02 0.  0.
         66    2    3    3    0    0  0.10064544416E+02 -0.48931472609E+01 -0.94352466101E+02  0.95034866293E+02  0.20000018892E+01 0.  0.
        -13    1    3    3    0    0 -0.10064544416E+02  0.48931472609E+01  0.14396575364E+02  0.18234870185E+02  0.10566000000E+00 0.  1.
         13    1    4    4    0    0  0.20121179184E+01 -0.98033548865E+00 -0.19167631841E+02  0.19298159254E+02  0.10566000000E+00 0. -1.
        -13    1    4    4    0    0  0.12022678211E+01 -0.14446620522E+00 -0.69573842367E+01  0.70627670109E+01  0.10566000000E+00 0.  1.
        -14    1    4    4    0    0  0.68501586766E+01 -0.37683455670E+01 -0.68227450023E+02  0.68673940028E+02  0.00000000000E+00 0.  1.
<mgrwt>
<rscale>  0 0.80231470E+02</rscale>
<asrwt>0</asrwt>
<pdfrwt beam="1">  1        2 0.14863509E-01 0.80231470E+02</pdfrwt>
<pdfrwt beam="2">  1       -1 0.25626036E-02 0.80231470E+02</pdfrwt>
<totfact> 0.17421295E+05</totfact>
</mgrwt>
</event>
<event>
 8    1  0.1673046E-013  0.7940686E+02  0.7818608E-02  0.1330743E+00
         -1   -1    0    0    0  501 -0.00000000000E+00  0.00000000000E+00  0.59694797808E+02  0.59694798021E+02  0.50400000000E-02 0.  1.
          2   -1    0    0  501    0  0.00000000000E+00 -0.00000000000E+00 -0.26407031123E+02  0.26407031246E+02  0.25500000000E-02 0. -1.
         24    2    1    2    0    0 -0.17763568394E-14 -0.71054273576E-14  0.33287766685E+02  0.86101829266E+02  0.79406861115E+02 0.  0.
         66    2    3    3    0    0 -0.14663062785E+02  0.32573058671E+02  0.35383466072E+02  0.50318974694E+02  0.19999953906E+01 0.  0.
        -13    1    3    3    0    0  0.14663062785E+02 -0.32573058671E+02 -0.20956993868E+01  0.35782854573E+02  0.10566000000E+00 0.  1.
         13    1    4    4    0    0 -0.62772051971E+01  0.15299567310E+02  0.15716114838E+02  0.22814195024E+02  0.10566000000E+00 0. -1.
        -13    1    4    4    0    0 -0.83053508113E+01  0.17031317195E+02  0.19222070438E+02  0.26991550038E+02  0.10566000000E+00 0.  1.
        -14    1    4    4    0    0 -0.80506776703E-01  0.24217416558E+00  0.44528079561E+00  0.51322963136E+00  0.00000000000E+00 0.  1.
<mgrwt>
<rscale>  0 0.79406861E+02</rscale>
<asrwt>0</asrwt>
<pdfrwt beam="1">  1        2 0.40626202E-02 0.79406861E+02</pdfrwt>
<pdfrwt beam="2">  1       -1 0.91838150E-02 0.79406861E+02</pdfrwt>
<totfact> 0.13399634E+05</totfact>
</mgrwt>
</event>
<event>
 8    1  0.1673046E-013  0.7893273E+02  0.7818608E-02  0.1332108E+00
          2   -1    0    0  501    0  0.00000000000E+00  0.00000000000E+00  0.40382770466E+03  0.40382770467E+03  0.25500000000E-02 0. -1.
         -1   -1    0    0    0  501 -0.00000000000E+00 -0.00000000000E+00 -0.38570739201E+01  0.38570772130E+01  0.50400000000E-02 0.  1.
         24    2    1    2    0    0 -0.17763568394E-14  0.00000000000E+00  0.39997063074E+03  0.40768478188E+03  0.78932730366E+02 0.  0.
         66    2    3    3    0    0 -0.12650257315E+02  0.37064668517E+02  0.17601427548E+03  0.18032981957E+03  0.19999976874E+01 0.  0.
        -13    1    3    3    0    0  0.12650257315E+02 -0.37064668517E+02  0.22395635527E+03  0.22735496232E+03  0.10566000000E+00 0.  1.
         13    1    4    4    0    0 -0.54474055317E+01  0.14880605047E+02  0.70027226859E+02  0.71797843277E+02  0.10566000000E+00 0. -1.
        -13    1    4    4    0    0 -0.15798284316E+01  0.55366456945E+01  0.23671477252E+02  0.24361861644E+02  0.10566000000E+00 0.  1.
        -14    1    4    4    0    0 -0.56230233517E+01  0.16647417776E+02  0.82315571366E+02  0.84170114646E+02  0.00000000000E+00 0.  1.
<mgrwt>
<rscale>  0 0.78932730E+02</rscale>
<asrwt>0</asrwt>
<pdfrwt beam="1">  1        2 0.62127277E-01 0.78932730E+02</pdfrwt>
<pdfrwt beam="2">  1       -1 0.59339684E-03 0.78932730E+02</pdfrwt>
<totfact> 0.29359091E+05</totfact>
</mgrwt>
</event>
<event>
 8    1  0.1673046E-013  0.7939985E+02  0.7818608E-02  0.1330763E+00
          2   -1    0    0  501    0  0.00000000000E+00  0.00000000000E+00  0.15087826107E+04  0.15087826107E+04  0.25500000000E-02 0. -1.
         -1   -1    0    0    0  501 -0.00000000000E+00 -0.00000000000E+00 -0.10446003660E+01  0.10446125244E+01  0.50400000000E-02 0.  1.
         24    2    1    2    0    0  0.17763568394E-14  0.00000000000E+00  0.15077380103E+04  0.15098272232E+04  0.79399850064E+02 0.  0.
         66    2    3    3    0    0  0.11722491335E+02 -0.16855439391E+02  0.13999090506E+04  0.14000610246E+04  0.20000010945E+01 0.  0.
        -13    1    3    3    0    0 -0.11722491335E+02  0.16855439391E+02  0.10782895973E+03  0.10976619862E+03  0.10566000000E+00 0.  1.
         13    1    4    4    0    0  0.15092096960E+01 -0.20514894453E+01  0.14359964084E+03  0.14362226268E+03  0.10566000000E+00 0. -1.
        -13    1    4    4    0    0  0.11401301872E+01 -0.17424058724E+01  0.17460067860E+03  0.17461312668E+03  0.10566000000E+00 0.  1.
         14    1    4    4    0    0  0.90731514520E+01 -0.13061544073E+02  0.10817087312E+04  0.10818256352E+04  0.00000000000E+00 0. -1.
<mgrwt>
<rscale>  0 0.79399850E+02</rscale>
<asrwt>0</asrwt>
<pdfrwt beam="1">  1        2 0.23212017E+00 0.79399850E+02</pdfrwt>
<pdfrwt beam="2">  1       -1 0.16070884E-03 0.79399850E+02</pdfrwt>
<totfact> 0.33833391E+05</totfact>
</mgrwt>
</event>
<event>
 8    1  0.1673046E-013  0.8213697E+02  0.7818608E-02  0.1323094E+00
          2   -1    0    0  501    0  0.00000000000E+00  0.00000000000E+00  0.10274180417E+04  0.10274180417E+04  0.25500000000E-02 0. -1.
         -1   -1    0    0    0  501 -0.00000000000E+00 -0.00000000000E+00 -0.16416069000E+01  0.16416146368E+01  0.50400000000E-02 0.  1.
         24    2    1    2    0    0  0.00000000000E+00  0.00000000000E+00  0.10257764348E+04  0.10290596563E+04  0.82136971670E+02 0.  0.
         66    2    3    3    0    0  0.16210148418E+02 -0.10218459480E+02  0.96793401024E+03  0.96812573255E+03  0.20000020280E+01 0.  0.
        -13    1    3    3    0    0 -0.16210148418E+02  0.10218459480E+02  0.57842424511E+02  0.60933923747E+02  0.10566000000E+00 0.  1.
         13    1    4    4    0    0  0.14097828208E+02 -0.81460795927E+01  0.82411824308E+03  0.82427907720E+03  0.10566000000E+00 0. -1.
        -13    1    4    4    0    0  0.69500055544E+00 -0.65876438279E+00  0.40091594815E+02  0.40103168642E+02  0.10566000000E+00 0.  1.
         14    1    4    4    0    0  0.14173196547E+01 -0.14136155043E+01  0.10372417235E+03  0.10374348670E+03  0.00000000000E+00 0. -1.
<mgrwt>
<rscale>  0 0.82136972E+02</rscale>
<asrwt>0</asrwt>
<pdfrwt beam="1">  1        2 0.15806441E+00 0.82136972E+02</pdfrwt>
<pdfrwt beam="2">  1       -1 0.25255535E-03 0.82136972E+02</pdfrwt>
<totfact> 0.32926259E+05</totfact>
</mgrwt>
</event>
<event>
 8    1  0.1673046E-013  0.7446253E+02  0.7818608E-02  0.1345544E+00
          2   -1    0    0  501    0  0.00000000000E+00  0.00000000000E+00  0.57546916651E+03  0.57546916651E+03  0.25500000000E-02 0. -1.
         -1   -1    0    0    0  501 -0.00000000000E+00 -0.00000000000E+00 -0.24087575115E+01  0.24087627843E+01  0.50400000000E-02 0.  1.
         24    2    1    2    0    0  0.00000000000E+00 -0.88817841970E-15  0.57306040900E+03  0.57787792930E+03  0.74462532931E+02 0.  0.
         66    2    3    3    0    0 -0.95496115629E+01  0.56472955023E+01  0.56232973538E+03  0.56244272448E+03  0.19999994741E+01 0.  0.
        -13    1    3    3    0    0  0.95496115629E+01 -0.56472955023E+01  0.10730673611E+02  0.15435204815E+02  0.10566000000E+00 0.  1.
         13    1    4    4    0    0 -0.21635239795E+01  0.96287262327E+00  0.15087656917E+03  0.15089518961E+03  0.10566000000E+00 0. -1.
        -13    1    4    4    0    0 -0.14291099829E+01  0.11838537151E+01  0.71469361719E+02  0.71493529033E+02  0.10566000000E+00 0.  1.
        -14    1    4    4    0    0 -0.59569776005E+01  0.35005691639E+01  0.33998380450E+03  0.34005400584E+03  0.00000000000E+00 0.  1.
<mgrwt>
<rscale>  0 0.74462533E+02</rscale>
<asrwt>0</asrwt>
<pdfrwt beam="1">  1        2 0.88533951E-01 0.74462533E+02</pdfrwt>
<pdfrwt beam="2">  1       -1 0.37057751E-03 0.74462533E+02</pdfrwt>
<totfact> 0.38283080E+05</totfact>
</mgrwt>
</event>
<event>
 8    1  0.1673046E-013  0.7889012E+02  0.7818608E-02  0.1332231E+00
         -1   -1    0    0    0  501 -0.00000000000E+00  0.00000000000E+00  0.32064367909E+01  0.32064407519E+01  0.50400000000E-02 0.  1.
          2   -1    0    0  501    0  0.00000000000E+00 -0.00000000000E+00 -0.48524638435E+03  0.48524638436E+03  0.25500000000E-02 0. -1.
         24    2    1    2    0    0  0.00000000000E+00  0.00000000000E+00 -0.48203994756E+03  0.48845282511E+03  0.78890121776E+02 0.  0.
         66    2    3    3    0    0 -0.35394862524E+02  0.17293403777E+02 -0.25003894543E+03  0.25313105760E+03  0.19999965280E+01 0.  0.
        -13    1    3    3    0    0  0.35394862524E+02 -0.17293403777E+02 -0.23200100213E+03  0.23532176750E+03  0.10566000000E+00 0.  1.
         13    1    4    4    0    0 -0.87764218463E+01  0.42343469025E+01 -0.60337702960E+02  0.61119594540E+02  0.10566000000E+00 0. -1.
        -13    1    4    4    0    0 -0.63255314101E+01  0.38475526254E+01 -0.45724783650E+02  0.46320438390E+02  0.10566000000E+00 0.  1.
        -14    1    4    4    0    0 -0.20292909267E+02  0.92115042487E+01 -0.14397645882E+03  0.14569102467E+03  0.00000000000E+00 0.  1.
<mgrwt>
<rscale>  0 0.78890122E+02</rscale>
<asrwt>0</asrwt>
<pdfrwt beam="1">  1        2 0.74653232E-01 0.78890122E+02</pdfrwt>
<pdfrwt beam="2">  1       -1 0.49329866E-03 0.78890122E+02</pdfrwt>
<totfact> 0.31277585E+05</totfact>
</mgrwt>
</event>
<event>
 8    1  0.1673046E-013  0.7963117E+02  0.7818608E-02  0.1330101E+00
          2   -1    0    0  501    0  0.00000000000E+00  0.00000000000E+00  0.25019387006E+03  0.25019387008E+03  0.25500000000E-02 0. -1.
         -1   -1    0    0    0  501 -0.00000000000E+00 -0.00000000000E+00 -0.63362080503E+01  0.63362100548E+01  0.50400000000E-02 0.  1.
         24    2    1    2    0    0  0.00000000000E+00  0.00000000000E+00  0.24385766201E+03  0.25653008013E+03  0.79631166572E+02 0.  0.
         66    2    3    3    0    0 -0.11897821567E+02 -0.24378481701E+02  0.21578359952E+03  0.21749121902E+03  0.20000000047E+01 0.  0.
        -13    1    3    3    0    0  0.11897821567E+02  0.24378481701E+02  0.28074062492E+02  0.39038861112E+02  0.10566000000E+00 0.  1.
         13    1    4    4    0    0 -0.21277881510E+01 -0.46596941445E+01  0.37702701539E+02  0.38049245713E+02  0.10566000000E+00 0. -1.
        -13    1    4    4    0    0 -0.57790748003E+00 -0.57790320819E+00  0.62534137245E+01  0.63074794030E+01  0.10566000000E+00 0.  1.
         14    1    4    4    0    0 -0.91921259356E+01 -0.19140884349E+02  0.17182748426E+03  0.17313449390E+03  0.00000000000E+00 0. -1.
<mgrwt>
<rscale>  0 0.79631167E+02</rscale>
<asrwt>0</asrwt>
<pdfrwt beam="1">  1        2 0.38491362E-01 0.79631167E+02</pdfrwt>
<pdfrwt beam="2">  1       -1 0.97480145E-03 0.79631167E+02</pdfrwt>
<totfact> 0.24166744E+05</totfact>
</mgrwt>
</event>
<event>
 8    1  0.1673046E-013  0.8539732E+02  0.7818608E-02  0.1314397E+00
          2   -1    0    0  501    0  0.00000000000E+00  0.00000000000E+00  0.90891890436E+02  0.90891890472E+02  0.25500000000E-02 0. -1.
         -1   -1    0    0    0  501 -0.00000000000E+00 -0.00000000000E+00 -0.20058726471E+02  0.20058727104E+02  0.50400000000E-02 0.  1.
         24    2    1    2    0    0  0.35527136788E-14  0.17763568394E-14  0.70833163965E+02  0.11095061758E+03  0.85397320936E+02 0.  0.
         66    2    3    3    0    0 -0.27861749942E+02 -0.13105675613E+02  0.73826660394E+02  0.80015071225E+02  0.19999987870E+01 0.  0.
        -13    1    3    3    0    0  0.27861749942E+02  0.13105675613E+02 -0.29934964285E+01  0.30935546351E+02  0.10566000000E+00 0.  1.
         13    1    4    4    0    0 -0.64459522805E+01 -0.26235825454E+01  0.15428507312E+02  0.16925823114E+02  0.10566000000E+00 0. -1.
        -13    1    4    4    0    0 -0.18097970334E+02 -0.91848147414E+01  0.50445111845E+02  0.54374790346E+02  0.10566000000E+00 0.  1.
        -14    1    4    4    0    0 -0.33178273273E+01 -0.12972783262E+01  0.79530412362E+01  0.87144577648E+01  0.00000000000E+00 0.  1.
<mgrwt>
<rscale>  0 0.85397321E+02</rscale>
<asrwt>0</asrwt>
<pdfrwt beam="1">  1        2 0.13983368E-01 0.85397321E+02</pdfrwt>
<pdfrwt beam="2">  1       -1 0.30859580E-02 0.85397321E+02</pdfrwt>
<totfact> 0.14479223E+05</totfact>
</mgrwt>
</event>
<event>
 8    1  0.1673046E-013  0.7786960E+02  0.7818608E-02  0.1335208E+00
         -1   -1    0    0    0  501 -0.00000000000E+00  0.00000000000E+00  0.61993413980E+01  0.61993434468E+01  0.50400000000E-02 0.  1.
          2   -1    0    0  501    0  0.00000000000E+00 -0.00000000000E+00 -0.24452897230E+03  0.24452897231E+03  0.25500000000E-02 0. -1.
         24    2    1    2    0    0  0.00000000000E+00  0.00000000000E+00 -0.23832963090E+03  0.25072831576E+03  0.77869604840E+02 0.  0.
         66    2    3    3    0    0  0.82943521809E+01 -0.30520761994E+02 -0.19221385782E+03  0.19480883005E+03  0.19999843983E+01 0.  0.
        -13    1    3    3    0    0 -0.82943521809E+01  0.30520761994E+02 -0.46115773081E+02  0.55919485707E+02  0.10566000000E+00 0.  1.
         13    1    4    4    0    0  0.27031975644E+01 -0.11651807729E+02 -0.76738661266E+02  0.77665341030E+02  0.10566000000E+00 0. -1.
        -13    1    4    4    0    0  0.23811382023E+01 -0.89342792423E+01 -0.56323459024E+02  0.57077441824E+02  0.10566000000E+00 0.  1.
        -14    1    4    4    0    0  0.32100164141E+01 -0.99346750232E+01 -0.59151737529E+02  0.60066047197E+02  0.00000000000E+00 0.  1.
<mgrwt>
<rscale>  0 0.77869605E+02</rscale>
<asrwt>0</asrwt>
<pdfrwt beam="1">  1        2 0.37619834E-01 0.77869605E+02</pdfrwt>
<pdfrwt beam="2">  1       -1 0.95374518E-03 0.77869605E+02</pdfrwt>
<totfact> 0.25419644E+05</totfact>
</mgrwt>
</event>
<event>
 8    1  0.1673046E-013  0.7921554E+02  0.7818608E-02  0.1331292E+00
         -1   -1    0    0    0  501 -0.00000000000E+00  0.00000000000E+00  0.15054354049E+01  0.15054438415E+01  0.50400000000E-02 0.  1.
          2   -1    0    0  501    0  0.00000000000E+00 -0.00000000000E+00 -0.10420713107E+04  0.10420713108E+04  0.25500000000E-02 0. -1.
         24    2    1    2    0    0 -0.35527136788E-14  0.17763568394E-14 -0.10405658753E+04  0.10435767546E+04  0.79215540126E+02 0.  0.
         66    2    3    3    0    0  0.18583132727E+02 -0.15030128251E+02 -0.93627709664E+03  0.93658424034E+03  0.19999991706E+01 0.  0.
        -13    1    3    3    0    0 -0.18583132727E+02  0.15030128251E+02 -0.10428877871E+03  0.10699251425E+03  0.10566000000E+00 0.  1.
         13    1    4    4    0    0  0.52387621855E+01 -0.48333026053E+01 -0.28789159624E+03  0.28797983922E+03  0.10566000000E+00 0. -1.
        -13    1    4    4    0    0  0.28430902668E+01 -0.25275275404E+01 -0.16645357955E+03  0.16649707765E+03  0.10566000000E+00 0.  1.
        -14    1    4    4    0    0  0.10501280274E+02 -0.76692981053E+01 -0.48193192084E+03  0.48210732347E+03  0.00000000000E+00 0.  1.
<mgrwt>
<rscale>  0 0.79215540E+02</rscale>
<asrwt>0</asrwt>
<pdfrwt beam="1">  1        2 0.16031809E+00 0.79215540E+02</pdfrwt>
<pdfrwt beam="2">  1       -1 0.23160693E-03 0.79215540E+02</pdfrwt>
<totfact> 0.36183793E+05</totfact>
</mgrwt>
</event>
<event>
 8    1  0.1673046E-013  0.8085972E+02  0.7818608E-02  0.1326629E+00
          2   -1    0    0  501    0  0.00000000000E+00  0.00000000000E+00  0.34551972834E+03  0.34551972835E+03  0.25500000000E-02 0. -1.
         -1   -1    0    0    0  501 -0.00000000000E+00 -0.00000000000E+00 -0.47307657911E+01  0.47307684758E+01  0.50400000000E-02 0.  1.
         24    2    1    2    0    0  0.55511151231E-16  0.00000000000E+00  0.34078896255E+03  0.35025049683E+03  0.80859715132E+02 0.  0.
         66    2    3    3    0    0 -0.45292216148E+00 -0.14545872942E+02  0.33376982832E+03  0.33409292995E+03  0.19999963658E+01 0.  0.
        -13    1    3    3    0    0  0.45292216148E+00  0.14545872942E+02  0.70191342313E+01  0.16157566881E+02  0.10566000000E+00 0.  1.
         13    1    4    4    0    0 -0.64417028477E+00 -0.56413002877E+01  0.12046992076E+03  0.12060369894E+03  0.10566000000E+00 0. -1.
        -13    1    4    4    0    0 -0.26326712249E+00 -0.40849110444E+01  0.86296614462E+02  0.86393707175E+02  0.10566000000E+00 0.  1.
        -14    1    4    4    0    0  0.45451524578E+00 -0.48196616096E+01  0.12700329310E+03  0.12709552384E+03  0.00000000000E+00 0.  1.
<mgrwt>
<rscale>  0 0.80859715E+02</rscale>
<asrwt>0</asrwt>
<pdfrwt beam="1">  1        2 0.53156883E-01 0.80859715E+02</pdfrwt>
<pdfrwt beam="2">  1       -1 0.72781031E-03 0.80859715E+02</pdfrwt>
<totfact> 0.26085413E+05</totfact>
</mgrwt>
</event>
<event>
 8    1  0.1673046E-013  0.7983381E+02  0.7818608E-02  0.1329524E+00
         -1   -1    0    0    0  501 -0.00000000000E+00  0.00000000000E+00  0.22369291228E+01  0.22369348005E+01  0.50400000000E-02 0.  1.
          2   -1    0    0  501    0  0.00000000000E+00 -0.00000000000E+00 -0.71229664616E+03  0.71229664617E+03  0.25500000000E-02 0. -1.
         24    2    1    2    0    0  0.17763568394E-14  0.00000000000E+00 -0.71005971704E+03  0.71453358097E+03  0.79833805921E+02 0.  0.
         66    2    3    3    0    0 -0.10460910481E+02  0.53013155849E+01 -0.69651651991E+03  0.69661811426E+03  0.20000008564E+01 0.  0.
        -13    1    3    3    0    0  0.10460910481E+02 -0.53013155849E+01 -0.13543197126E+02  0.17915466710E+02  0.10566000000E+00 0.  1.
         13    1    4    4    0    0 -0.11935554449E+00  0.17922804351E-01 -0.19726128968E+02  0.19726781163E+02  0.10566000000E+00 0. -1.
        -13    1    4    4    0    0 -0.36646278238E+01  0.16929131834E+01 -0.20114652627E+03  0.20118705636E+03  0.10566000000E+00 0.  1.
        -14    1    4    4    0    0 -0.66769271126E+01  0.35904795971E+01 -0.47564386467E+03  0.47570427673E+03  0.00000000000E+00 0.  1.
<mgrwt>
<rscale>  0 0.79833806E+02</rscale>
<asrwt>0</asrwt>
<pdfrwt beam="1">  1        2 0.10958392E+00 0.79833806E+02</pdfrwt>
<pdfrwt beam="2">  1       -1 0.34414395E-03 0.79833806E+02</pdfrwt>
<totfact> 0.33765359E+05</totfact>
</mgrwt>
</event>
<event>
 8    1  0.1673046E-013  0.7750970E+02  0.7818608E-02  0.1336271E+00
          2   -1    0    0  501    0  0.00000000000E+00  0.00000000000E+00  0.89270281003E+03  0.89270281003E+03  0.25500000000E-02 0. -1.
         -1   -1    0    0    0  501 -0.00000000000E+00 -0.00000000000E+00 -0.16824579726E+01  0.16824655215E+01  0.50400000000E-02 0.  1.
         24    2    1    2    0    0  0.44408920985E-15  0.00000000000E+00  0.89102035205E+03  0.89438527555E+03  0.77509698421E+02 0.  0.
         66    2    3    3    0    0  0.16925486314E+01 -0.16477901787E+02  0.84976159553E+03  0.84992538214E+03  0.20000003524E+01 0.  0.
        -13    1    3    3    0    0 -0.16925486314E+01  0.16477901787E+02  0.41258756526E+02  0.44459893413E+02  0.10566000000E+00 0.  1.
         13    1    4    4    0    0 -0.51308948923E-01 -0.75076738046E+01  0.38163553825E+03  0.38170939603E+03  0.10566000000E+00 0.  1.
        -13    1    4    4    0    0  0.11844018386E+01 -0.61173848720E+01  0.33815573789E+03  0.33821315681E+03  0.10566000000E+00 0. -1.
        -14    1    4    4    0    0  0.55945574170E+00 -0.28528431105E+01  0.12997031940E+03  0.13000282931E+03  0.00000000000E+00 0.  1.
<mgrwt>
<rscale>  0 0.77509698E+02</rscale>
<asrwt>0</asrwt>
<pdfrwt beam="1">  1        2 0.13733915E+00 0.77509698E+02</pdfrwt>
<pdfrwt beam="2">  1       -1 0.25883978E-03 0.77509698E+02</pdfrwt>
<totfact> 0.37897663E+05</totfact>
</mgrwt>
</event>
<event>
 8    1  0.1673046E-013  0.8129580E+02  0.7818608E-02  0.1325414E+00
         -1   -1    0    0    0  501 -0.00000000000E+00  0.00000000000E+00  0.99520071162E+01  0.99520083924E+01  0.50400000000E-02 0.  1.
          2   -1    0    0  501    0  0.00000000000E+00 -0.00000000000E+00 -0.16602194734E+03  0.16602194736E+03  0.25500000000E-02 0. -1.
         24    2    1    2    0    0  0.88817841970E-15  0.00000000000E+00 -0.15606994023E+03  0.17597395575E+03  0.81295798548E+02 0.  0.
         66    2    3    3    0    0 -0.60707807156E+01  0.39349090193E+02 -0.95539302204E+02  0.10352276818E+03  0.19999971369E+01 0.  0.
        -13    1    3    3    0    0  0.60707807156E+01 -0.39349090193E+02 -0.60530638021E+02  0.72451187573E+02  0.10566000000E+00 0.  1.
         13    1    4    4    0    0 -0.12838615455E+01  0.89102075887E+01 -0.22136038790E+02  0.23896767085E+02  0.10566000000E+00 0. -1.
        -13    1    4    4    0    0 -0.25548633722E+01  0.14004564168E+02 -0.35865845934E+02  0.38587889460E+02  0.10566000000E+00 0.  1.
         14    1    4    4    0    0 -0.22320557979E+01  0.16434318436E+02 -0.37537417480E+02  0.41038111636E+02  0.00000000000E+00 0. -1.
<mgrwt>
<rscale>  0 0.81295799E+02</rscale>
<asrwt>0</asrwt>
<pdfrwt beam="1">  1        2 0.25541836E-01 0.81295799E+02</pdfrwt>
<pdfrwt beam="2">  1       -1 0.15310782E-02 0.81295799E+02</pdfrwt>
<totfact> 0.19842423E+05</totfact>
</mgrwt>
</event>
<event>
 8    1  0.1673046E-013  0.7987532E+02  0.7818608E-02  0.1329406E+00
          2   -1    0    0  501    0  0.00000000000E+00  0.00000000000E+00  0.21321634185E+03  0.21321634187E+03  0.25500000000E-02 0. -1.
         -1   -1    0    0    0  501 -0.00000000000E+00 -0.00000000000E+00 -0.74807430398E+01  0.74807447376E+01  0.50400000000E-02 0.  1.
         24    2    1    2    0    0 -0.35527136788E-14 -0.71054273576E-14  0.20573559881E+03  0.22069708660E+03  0.79875324207E+02 0.  0.
         66    2    3    3    0    0  0.19867725388E+02  0.34339674311E+02  0.11499868189E+03  0.12166608641E+03  0.20000002279E+01 0.  0.
        -13    1    3    3    0    0 -0.19867725388E+02 -0.34339674311E+02  0.90736916920E+02  0.99031000198E+02  0.10566000000E+00 0.  1.
         13    1    4    4    0    0  0.75978998147E+01  0.12934664365E+02  0.42049524067E+02  0.44645349838E+02  0.10566000000E+00 0. -1.
        -13    1    4    4    0    0  0.50324944548E+01  0.87604300429E+01  0.27800498062E+02  0.29579553606E+02  0.10566000000E+00 0.  1.
        -14    1    4    4    0    0  0.72373311187E+01  0.12644579903E+02  0.45148659760E+02  0.47441182962E+02  0.00000000000E+00 0.  1.
<mgrwt>
<rscale>  0 0.79875324E+02</rscale>
<asrwt>0</asrwt>
<pdfrwt beam="1">  1        2 0.32802516E-01 0.79875324E+02</pdfrwt>
<pdfrwt beam="2">  1       -1 0.11508836E-02 0.79875324E+02</pdfrwt>
<totfact> 0.22650041E+05</totfact>
</mgrwt>
</event>
<event>
 8    1  0.1673046E-013  0.7824777E+02  0.7818608E-02  0.1334099E+00
         -1   -1    0    0    0  501 -0.00000000000E+00  0.00000000000E+00  0.19160932821E+01  0.19160999105E+01  0.50400000000E-02 0.  1.
          2   -1    0    0  501    0  0.00000000000E+00 -0.00000000000E+00 -0.79885237539E+03  0.79885237540E+03  0.25500000000E-02 0. -1.
         24    2    1    2    0    0  0.00000000000E+00  0.00000000000E+00 -0.79693628211E+03  0.80076847531E+03  0.78247768669E+02 0.  0.
         66    2    3    3    0    0 -0.30835773508E+02 -0.46210085341E+01 -0.64013911383E+03  0.64090114972E+03  0.20000002237E+01 0.  0.
        -13    1    3    3    0    0  0.30835773508E+02  0.46210085341E+01 -0.15679716828E+03  0.15986732559E+03  0.10566000000E+00 0.  1.
         13    1    4    4    0    0 -0.17307447378E+02 -0.31478291368E+01 -0.35429173869E+03  0.35472821122E+03  0.10566000000E+00 0. -1.
        -13    1    4    4    0    0 -0.10136727993E+02 -0.67147070655E+00 -0.21495934156E+03  0.21519928860E+03  0.10566000000E+00 0.  1.
        -14    1    4    4    0    0 -0.33915981371E+01 -0.80170869077E+00 -0.70888033584E+02  0.70973649900E+02  0.00000000000E+00 0.  1.
<mgrwt>
<rscale>  0 0.78247769E+02</rscale>
<asrwt>0</asrwt>
<pdfrwt beam="1">  1        2 0.12290010E+00 0.78247769E+02</pdfrwt>
<pdfrwt beam="2">  1       -1 0.29478473E-03 0.78247769E+02</pdfrwt>
<totfact> 0.36389249E+05</totfact>
</mgrwt>
</event>
<event>
 8    1  0.1673046E-013  0.7973840E+02  0.7818608E-02  0.1329795E+00
          2   -1    0    0  501    0  0.00000000000E+00  0.00000000000E+00  0.91935241936E+02  0.91935241972E+02  0.25500000000E-02 0. -1.
         -1   -1    0    0    0  501 -0.00000000000E+00 -0.00000000000E+00 -0.17289919538E+02  0.17289920273E+02  0.50400000000E-02 0.  1.
         24    2    1    2    0    0  0.00000000000E+00  0.00000000000E+00  0.74645322398E+02  0.10922516224E+03  0.79738396720E+02 0.  0.
         66    2    3    3    0    0  0.20899941066E+02  0.16877539592E+02  0.77653620768E+02  0.82193330965E+02  0.19999893684E+01 0.  0.
        -13    1    3    3    0    0 -0.20899941066E+02 -0.16877539592E+02 -0.30082983701E+01  0.27031831280E+02  0.10566000000E+00 0.  1.
         13    1    4    4    0    0  0.43172359729E+01  0.42006494634E+01  0.16643838661E+02  0.17700635915E+02  0.10566000000E+00 0. -1.
        -13    1    4    4    0    0  0.15848883755E+02  0.12364144220E+02  0.59003814294E+02  0.62333942951E+02  0.10566000000E+00 0.  1.
        -14    1    4    4    0    0  0.73382133793E+00  0.31274590824E+00  0.20059678129E+01  0.21587520992E+01  0.00000000000E+00 0.  1.
<mgrwt>
<rscale>  0 0.79738397E+02</rscale>
<asrwt>0</asrwt>
<pdfrwt beam="1">  1        2 0.14143883E-01 0.79738397E+02</pdfrwt>
<pdfrwt beam="2">  1       -1 0.26599877E-02 0.79738397E+02</pdfrwt>
<totfact> 0.17472881E+05</totfact>
</mgrwt>
</event>
<event>
 8    1  0.1673046E-013  0.7325172E+02  0.7818608E-02  0.1349372E+00
          2   -1    0    0  501    0  0.00000000000E+00  0.00000000000E+00  0.51018045867E+02  0.51018045931E+02  0.25500000000E-02 0. -1.
         -1   -1    0    0    0  501 -0.00000000000E+00 -0.00000000000E+00 -0.26293711277E+02  0.26293711761E+02  0.50400000000E-02 0.  1.
         24    2    1    2    0    0  0.00000000000E+00  0.88817841970E-15  0.24724334590E+02  0.77311757692E+02  0.73251724597E+02 0.  0.
         66    2    3    3    0    0  0.30262383986E+02  0.45894343009E+01  0.33547684251E+02  0.45456813727E+02  0.20000009869E+01 0.  0.
        -13    1    3    3    0    0 -0.30262383986E+02 -0.45894343009E+01 -0.88233496608E+01  0.31854943964E+02  0.10566000000E+00 0.  1.
         13    1    4    4    0    0  0.32708496243E+01  0.44528901909E+00  0.28381629729E+01  0.43546610283E+01  0.10566000000E+00 0. -1.
        -13    1    4    4    0    0  0.11755943312E+02  0.15910194616E+01  0.13804971541E+02  0.18202251217E+02  0.10566000000E+00 0.  1.
         14    1    4    4    0    0  0.15235591050E+02  0.25531258202E+01  0.16904549736E+02  0.22899901482E+02  0.00000000000E+00 0. -1.
<mgrwt>
<rscale>  0 0.73251725E+02</rscale>
<asrwt>0</asrwt>
<pdfrwt beam="1">  1        2 0.78489302E-02 0.73251725E+02</pdfrwt>
<pdfrwt beam="2">  1       -1 0.40451864E-02 0.73251725E+02</pdfrwt>
<totfact> 0.19071183E+05</totfact>
</mgrwt>
</event>
<event>
 8    1  0.1770392E-013  0.7961054E+02  0.7818608E-02  0.1330160E+00
          2   -1    0    0  501    0  0.00000000000E+00  0.00000000000E+00  0.90303332648E+02  0.90303332684E+02  0.25500000000E-02 0. -1.
         -1   -1    0    0    0  501 -0.00000000000E+00 -0.00000000000E+00 -0.17545969618E+02  0.17545970342E+02  0.50400000000E-02 0.  1.
         24    2    1    2    0    0  0.00000000000E+00 -0.17763568394E-14  0.72757363029E+02  0.10784930303E+03  0.79610541314E+02 0.  0.
         66    2    3    3    0    0 -0.57781102079E+01 -0.11707427550E+02  0.87307083287E+02  0.88300493829E+02  0.20000002466E+01 0.  0.
        -13    1    3    3    0    0  0.57781102079E+01  0.11707427550E+02 -0.14549720258E+02  0.19548809197E+02  0.10566000000E+00 0.  1.
         13    1    4    4    0    0 -0.38615734233E+01 -0.76621140746E+01  0.54408312622E+02  0.55080807799E+02  0.10566000000E+00 0. -1.
        -13    1    4    4    0    0 -0.57509750102E+00 -0.22849752060E+01  0.14935404678E+02  0.15120493569E+02  0.10566000000E+00 0.  1.
        -14    1    4    4    0    0 -0.13414392837E+01 -0.17603382696E+01  0.17963365986E+02  0.18099192461E+02  0.00000000000E+00 0.  1.
<mgrwt>
<rscale>  0 0.79610541E+02</rscale>
<asrwt>0</asrwt>
<pdfrwt beam="1">  1        2 0.13892821E-01 0.79610541E+02</pdfrwt>
<pdfrwt beam="2">  1       -1 0.26993800E-02 0.79610541E+02</pdfrwt>
<totfact> 0.17463677E+05</totfact>
</mgrwt>
</event>
<event>
 8    1  0.1673046E-013  0.7926541E+02  0.7818608E-02  0.1331149E+00
          2   -1    0    0  501    0  0.00000000000E+00  0.00000000000E+00  0.12824182012E+04  0.12824182012E+04  0.25500000000E-02 0. -1.
         -1   -1    0    0    0  501 -0.00000000000E+00 -0.00000000000E+00 -0.12248303086E+01  0.12248406780E+01  0.50400000000E-02 0.  1.
         24    2    1    2    0    0  0.17763568394E-14  0.00000000000E+00  0.12811933709E+04  0.12836430419E+04  0.79265410818E+02 0.  0.
         66    2    3    3    0    0 -0.13853253751E+02 -0.21650810495E+02  0.11290054767E+04  0.11292997993E+04  0.19999988546E+01 0.  0.
        -13    1    3    3    0    0  0.13853253751E+02  0.21650810495E+02  0.15218789417E+03  0.15434324258E+03  0.10566000000E+00 0.  1.
         13    1    4    4    0    0 -0.45790379752E+01 -0.58316870377E+01  0.33387338388E+03  0.33395572130E+03  0.10566000000E+00 0. -1.
        -13    1    4    4    0    0 -0.47409927216E+00 -0.12286787294E+01  0.60136359218E+02  0.60150871029E+02  0.10566000000E+00 0.  1.
         14    1    4    4    0    0 -0.88001165035E+01 -0.14590444728E+02  0.73499573364E+03  0.73519320699E+03  0.00000000000E+00 0. -1.
<mgrwt>
<rscale>  0 0.79265411E+02</rscale>
<asrwt>0</asrwt>
<pdfrwt beam="1">  1        2 0.19729422E+00 0.79265411E+02</pdfrwt>
<pdfrwt beam="2">  1       -1 0.18843708E-03 0.79265411E+02</pdfrwt>
<totfact> 0.35545896E+05</totfact>
</mgrwt>
</event>
<event>
 8    1  0.1673046E-013  0.7863559E+02  0.7818608E-02  0.1332969E+00
         -1   -1    0    0    0  501 -0.00000000000E+00  0.00000000000E+00  0.25721707227E+01  0.25721756604E+01  0.50400000000E-02 0.  1.
          2   -1    0    0  501    0  0.00000000000E+00 -0.00000000000E+00 -0.60100508627E+03  0.60100508628E+03  0.25500000000E-02 0. -1.
         24    2    1    2    0    0  0.00000000000E+00  0.00000000000E+00 -0.59843291555E+03  0.60357726194E+03  0.78635594457E+02 0.  0.
         66    2    3    3    0    0 -0.24646654069E+02  0.17601684638E+02 -0.49154666959E+03  0.49248289845E+03  0.20000061235E+01 0.  0.
        -13    1    3    3    0    0  0.24646654069E+02 -0.17601684638E+02 -0.10688624596E+03  0.11109436349E+03  0.10566000000E+00 0.  1.
         13    1    4    4    0    0 -0.20522978427E+01  0.17881620044E+01 -0.44257563448E+02  0.44341318612E+02  0.10566000000E+00 0. -1.
        -13    1    4    4    0    0 -0.48806353966E+00  0.65393444812E+00 -0.13902698654E+02  0.13927025173E+02  0.10566000000E+00 0.  1.
         14    1    4    4    0    0 -0.22106292686E+02  0.15159588185E+02 -0.43338640749E+03  0.43421455467E+03  0.00000000000E+00 0. -1.
<mgrwt>
<rscale>  0 0.78635594E+02</rscale>
<asrwt>0</asrwt>
<pdfrwt beam="1">  1        2 0.92462209E-01 0.78635594E+02</pdfrwt>
<pdfrwt beam="2">  1       -1 0.39571943E-03 0.78635594E+02</pdfrwt>
<totfact> 0.33650309E+05</totfact>
</mgrwt>
</event>
<event>
 8    1  0.1673046E-013  0.8308119E+02  0.7818608E-02  0.1320528E+00
         -1   -1    0    0    0  501 -0.00000000000E+00  0.00000000000E+00  0.12135498927E+02  0.12135499973E+02  0.50400000000E-02 0.  1.
          2   -1    0    0  501    0  0.00000000000E+00 -0.00000000000E+00 -0.14219612802E+03  0.14219612804E+03  0.25500000000E-02 0. -1.
         24    2    1    2    0    0 -0.55511151231E-16 -0.35527136788E-14 -0.13006062909E+03  0.15433162801E+03  0.83081190205E+02 0.  0.
         66    2    3    3    0    0 -0.33233419805E+00 -0.26118115861E+02 -0.12501255529E+03  0.12772785694E+03  0.20000092234E+01 0.  0.
        -13    1    3    3    0    0  0.33233419805E+00  0.26118115861E+02 -0.50480738018E+01  0.26603771072E+02  0.10566000000E+00 0.  1.
         13    1    4    4    0    0  0.17580791503E+00 -0.11206516548E+02 -0.56823287324E+02  0.57918166994E+02  0.10566000000E+00 0. -1.
        -13    1    4    4    0    0  0.27715004907E-01 -0.55231555739E+01 -0.23283301239E+02  0.23929673968E+02  0.10566000000E+00 0.  1.
         14    1    4    4    0    0 -0.53585711799E+00 -0.93884437385E+01 -0.44905966726E+02  0.45880015979E+02  0.00000000000E+00 0. -1.
<mgrwt>
<rscale>  0 0.83081190E+02</rscale>
<asrwt>0</asrwt>
<pdfrwt beam="1">  1        2 0.21876326E-01 0.83081190E+02</pdfrwt>
<pdfrwt beam="2">  1       -1 0.18670000E-02 0.83081190E+02</pdfrwt>
<totfact> 0.17806327E+05</totfact>
</mgrwt>
</event>
<event>
 8    1  0.1673046E-013  0.7888344E+02  0.7818608E-02  0.1332250E+00
         -1   -1    0    0    0  501 -0.00000000000E+00  0.00000000000E+00  0.17632481311E+01  0.17632553342E+01  0.50400000000E-02 0.  1.
          2   -1    0    0  501    0  0.00000000000E+00 -0.00000000000E+00 -0.88226165263E+03  0.88226165263E+03  0.25500000000E-02 0. -1.
         24    2    1    2    0    0  0.00000000000E+00  0.00000000000E+00 -0.88049840449E+03  0.88402490796E+03  0.78883443019E+02 0.  0.
         66    2    3    3    0    0 -0.85524205316E+01  0.11430573291E+02 -0.85226870193E+03  0.85239060421E+03  0.19999908129E+01 0.  0.
        -13    1    3    3    0    0  0.85524205316E+01 -0.11430573291E+02 -0.28229702567E+02  0.31634303750E+02  0.10566000000E+00 0.  1.
         13    1    4    4    0    0 -0.17427555029E+01  0.33280718280E+01 -0.21886380044E+03  0.21889606567E+03  0.10566000000E+00 0.  1.
        -13    1    4    4    0    0 -0.61375875238E+01  0.70948954432E+01 -0.53591513718E+03  0.53599725087E+03  0.10566000000E+00 0. -1.
         14    1    4    4    0    0 -0.67207750492E+00  0.10076060196E+01 -0.97489764310E+02  0.97497287672E+02  0.00000000000E+00 0. -1.
<mgrwt>
<rscale>  0 0.78883443E+02</rscale>
<asrwt>0</asrwt>
<pdfrwt beam="1">  1        2 0.13573221E+00 0.78883443E+02</pdfrwt>
<pdfrwt beam="2">  1       -1 0.27127020E-03 0.78883443E+02</pdfrwt>
<totfact> 0.36161218E+05</totfact>
</mgrwt>
</event>
<event>
 8    1  0.1673046E-013  0.8015957E+02  0.7818608E-02  0.1328599E+00
          2   -1    0    0  501    0  0.00000000000E+00  0.00000000000E+00  0.14778476130E+03  0.14778476133E+03  0.25500000000E-02 0. -1.
         -1   -1    0    0    0  501 -0.00000000000E+00 -0.00000000000E+00 -0.10869787514E+02  0.10869788682E+02  0.50400000000E-02 0.  1.
         24    2    1    2    0    0  0.35527136788E-14  0.17763568394E-14  0.13691497379E+03  0.15865455001E+03  0.80159567055E+02 0.  0.
         66    2    3    3    0    0  0.20604773159E+02 -0.12286963108E+02  0.13198553235E+03  0.13416298623E+03  0.19999963022E+01 0.  0.
        -13    1    3    3    0    0 -0.20604773159E+02  0.12286963108E+02  0.49294414403E+01  0.24491563778E+02  0.10566000000E+00 0.  1.
         13    1    4    4    0    0  0.87182854671E+01 -0.41748597512E+01  0.53288999150E+02  0.54158716287E+02  0.10566000000E+00 0. -1.
        -13    1    4    4    0    0  0.48595499024E+00 -0.38287852139E+00  0.38831859688E+01  0.39335792249E+01  0.10566000000E+00 0.  1.
        -14    1    4    4    0    0  0.11400532702E+02 -0.77292248358E+01  0.74813347232E+02  0.76070690719E+02  0.00000000000E+00 0.  1.
<mgrwt>
<rscale>  0 0.80159567E+02</rscale>
<asrwt>0</asrwt>
<pdfrwt beam="1">  1        2 0.22736117E-01 0.80159567E+02</pdfrwt>
<pdfrwt beam="2">  1       -1 0.16722751E-02 0.80159567E+02</pdfrwt>
<totfact> 0.19829263E+05</totfact>
</mgrwt>
</event>
<event>
 8    1  0.1673046E-013  0.7980158E+02  0.7818608E-02  0.1329615E+00
         -1   -1    0    0    0  501 -0.00000000000E+00  0.00000000000E+00  0.68352176717E+02  0.68352176903E+02  0.50400000000E-02 0.  1.
          2   -1    0    0  501    0  0.00000000000E+00 -0.00000000000E+00 -0.23292209606E+02  0.23292209745E+02  0.25500000000E-02 0. -1.
         24    2    1    2    0    0  0.66613381478E-15  0.00000000000E+00  0.45059967111E+02  0.91644386648E+02  0.79801584997E+02 0.  0.
         66    2    3    3    0    0  0.19677455353E+01 -0.18348488346E+02 -0.18050438816E+02  0.25891260887E+02  0.20000004545E+01 0.  0.
        -13    1    3    3    0    0 -0.19677455353E+01  0.18348488346E+02  0.63110405927E+02  0.65753125761E+02  0.10566000000E+00 0.  1.
         13    1    4    4    0    0 -0.26607876637E+00 -0.35173927468E+01 -0.37544688463E+01  0.51526740629E+01  0.10566000000E+00 0. -1.
        -13    1    4    4    0    0  0.11549567082E+01 -0.98406113906E+01 -0.90860719609E+01  0.13443936375E+02  0.10566000000E+00 0.  1.
         14    1    4    4    0    0  0.10788675934E+01 -0.49904842087E+01 -0.52098980084E+01  0.72946504494E+01  0.00000000000E+00 0. -1.
<mgrwt>
<rscale>  0 0.79801585E+02</rscale>
<asrwt>0</asrwt>
<pdfrwt beam="1">  1        2 0.35834169E-02 0.79801585E+02</pdfrwt>
<pdfrwt beam="2">  1       -1 0.10515720E-01 0.79801585E+02</pdfrwt>
<totfact> 0.12890714E+05</totfact>
</mgrwt>
</event>
<event>
 8    1  0.1673046E-013  0.8510892E+02  0.7818608E-02  0.1315148E+00
          2   -1    0    0  501    0  0.00000000000E+00  0.00000000000E+00  0.67622520877E+03  0.67622520877E+03  0.25500000000E-02 0. -1.
         -1   -1    0    0    0  501 -0.00000000000E+00 -0.00000000000E+00 -0.26779249065E+01  0.26779296493E+01  0.50400000000E-02 0.  1.
         24    2    1    2    0    0  0.44408920985E-15  0.00000000000E+00  0.67354728386E+03  0.67890313842E+03  0.85108917055E+02 0.  0.
         66    2    3    3    0    0 -0.26476523549E+01  0.16624667534E+02  0.64851576009E+03  0.64873729714E+03  0.19999972833E+01 0.  0.
        -13    1    3    3    0    0  0.26476523549E+01 -0.16624667534E+02  0.25031523776E+02  0.30165841281E+02  0.10566000000E+00 0.  1.
         13    1    4    4    0    0 -0.25314650839E+00  0.45091756305E+01  0.14728465671E+03  0.14735392093E+03  0.10566000000E+00 0.  1.
        -13    1    4    4    0    0 -0.84976578137E+00  0.51934577810E+01  0.21240959598E+03  0.21247480259E+03  0.10566000000E+00 0. -1.
        -14    1    4    4    0    0 -0.15447400651E+01  0.69220341226E+01  0.28882150740E+03  0.28890857362E+03  0.00000000000E+00 0.  1.
<mgrwt>
<rscale>  0 0.85108917E+02</rscale>
<asrwt>0</asrwt>
<pdfrwt beam="1">  1        2 0.10403464E+00 0.85108917E+02</pdfrwt>
<pdfrwt beam="2">  1       -1 0.41198885E-03 0.85108917E+02</pdfrwt>
<totfact> 0.28234104E+05</totfact>
</mgrwt>
</event>
<event>
 8    1  0.1673046E-013  0.7981842E+02  0.7818608E-02  0.1329568E+00
          2   -1    0    0  501    0  0.00000000000E+00  0.00000000000E+00  0.54593252486E+03  0.54593252487E+03  0.25500000000E-02 0. -1.
         -1   -1    0    0    0  501 -0.00000000000E+00 -0.00000000000E+00 -0.29174739406E+01  0.29174782939E+01  0.50400000000E-02 0.  1.
         24    2    1    2    0    0  0.17763568394E-14  0.00000000000E+00  0.54301505092E+03  0.54885000316E+03  0.79818421706E+02 0.  0.
         66    2    3    3    0    0 -0.15970769123E+02 -0.31902563736E+02  0.39427923403E+03  0.39589512933E+03  0.19999996432E+01 0.  0.
        -13    1    3    3    0    0  0.15970769123E+02  0.31902563736E+02  0.14873581689E+03  0.15295487383E+03  0.10566000000E+00 0.  1.
         13    1    4    4    0    0 -0.52830980828E+01 -0.11036436416E+02  0.14271347096E+03  0.14323707624E+03  0.10566000000E+00 0. -1.
        -13    1    4    4    0    0 -0.61592102126E+00 -0.16762343511E+01  0.20875805618E+02  0.20952315970E+02  0.10566000000E+00 0.  1.
        -14    1    4    4    0    0 -0.10071750019E+02 -0.19189892969E+02  0.23068995746E+03  0.23170573712E+03  0.00000000000E+00 0.  1.
<mgrwt>
<rscale>  0 0.79818422E+02</rscale>
<asrwt>0</asrwt>
<pdfrwt beam="1">  1        2 0.83989684E-01 0.79818422E+02</pdfrwt>
<pdfrwt beam="2">  1       -1 0.44884214E-03 0.79818422E+02</pdfrwt>
<totfact> 0.31478754E+05</totfact>
</mgrwt>
</event>
<event>
 8    1  0.1673046E-013  0.8776600E+02  0.7818608E-02  0.1308354E+00
         -1   -1    0    0    0  501 -0.00000000000E+00  0.00000000000E+00  0.99499540125E+01  0.99499552890E+01  0.50400000000E-02 0.  1.
          2   -1    0    0  501    0  0.00000000000E+00 -0.00000000000E+00 -0.19354036097E+03  0.19354036099E+03  0.25500000000E-02 0. -1.
         24    2    1    2    0    0  0.00000000000E+00  0.00000000000E+00 -0.18359040696E+03  0.20349031628E+03  0.87766003049E+02 0.  0.
         66    2    3    3    0    0  0.41315668672E+01  0.31401160133E+02 -0.16219131000E+03  0.16526682589E+03  0.19999997504E+01 0.  0.
        -13    1    3    3    0    0 -0.41315668672E+01 -0.31401160133E+02 -0.21399096962E+02  0.38223490386E+02  0.10566000000E+00 0.  1.
         13    1    4    4    0    0  0.14092443921E+01  0.72939736102E+01 -0.38069638723E+02  0.38787840586E+02  0.10566000000E+00 0. -1.
        -13    1    4    4    0    0  0.31901054802E+00  0.71894792075E+01 -0.34465190839E+02  0.35208676808E+02  0.10566000000E+00 0.  1.
        -14    1    4    4    0    0  0.24033119271E+01  0.16917707315E+02 -0.89656480435E+02  0.91270308497E+02  0.00000000000E+00 0.  1.
<mgrwt>
<rscale>  0 0.87766003E+02</rscale>
<asrwt>0</asrwt>
<pdfrwt beam="1">  1        2 0.29775437E-01 0.87766003E+02</pdfrwt>
<pdfrwt beam="2">  1       -1 0.15307624E-02 0.87766003E+02</pdfrwt>
<totfact> 0.17056429E+05</totfact>
</mgrwt>
</event>
<event>
 8    1  0.1673046E-013  0.8038537E+02  0.7818608E-02  0.1327961E+00
         -1   -1    0    0    0  501 -0.00000000000E+00  0.00000000000E+00  0.12512590609E+03  0.12512590619E+03  0.50400000000E-02 0.  1.
          2   -1    0    0  501    0  0.00000000000E+00 -0.00000000000E+00 -0.12910610839E+02  0.12910611091E+02  0.25500000000E-02 0. -1.
         24    2    1    2    0    0 -0.71054273576E-14  0.00000000000E+00  0.11221529525E+03  0.13803651728E+03  0.80385369411E+02 0.  0.
         66    2    3    3    0    0  0.36716443904E+02  0.10759006268E+02  0.35139670316E+02  0.51987016459E+02  0.19999954001E+01 0.  0.
        -13    1    3    3    0    0 -0.36716443904E+02 -0.10759006268E+02  0.77075624937E+02  0.86049500825E+02  0.10566000000E+00 0.  1.
         13    1    4    4    0    0  0.32744905193E+02  0.92390029406E+01  0.31480885904E+02  0.46353482423E+02  0.10566000000E+00 0. -1.
        -13    1    4    4    0    0  0.36858324668E+01  0.13093378879E+01  0.34778495172E+01  0.52351053454E+01  0.10566000000E+00 0.  1.
        -14    1    4    4    0    0  0.28570624386E+00  0.21066543964E+00  0.18093489523E+00  0.39842869067E+00  0.00000000000E+00 0.  1.
<mgrwt>
<rscale>  0 0.80385369E+02</rscale>
<asrwt>0</asrwt>
<pdfrwt beam="1">  1        2 0.19862479E-02 0.80385369E+02</pdfrwt>
<pdfrwt beam="2">  1       -1 0.19250139E-01 0.80385369E+02</pdfrwt>
<totfact> 0.11139471E+05</totfact>
</mgrwt>
</event>
<event>
 8    1  0.1673046E-013  0.8098836E+02  0.7818608E-02  0.1326270E+00
         -1   -1    0    0    0  501 -0.00000000000E+00  0.00000000000E+00  0.50195355293E+01  0.50195380596E+01  0.50400000000E-02 0.  1.
          2   -1    0    0  501    0  0.00000000000E+00 -0.00000000000E+00 -0.32667924248E+03  0.32667924249E+03  0.25500000000E-02 0. -1.
         24    2    1    2    0    0  0.00000000000E+00 -0.71054273576E-14 -0.32165970695E+03  0.33169878055E+03  0.80988356833E+02 0.  0.
         66    2    3    3    0    0 -0.13982252709E+02  0.37094412248E+02 -0.12758538971E+03  0.13361710399E+03  0.20000003168E+01 0.  0.
        -13    1    3    3    0    0  0.13982252709E+02 -0.37094412248E+02 -0.19407431725E+03  0.19808167656E+03  0.10566000000E+00 0.  1.
         13    1    4    4    0    0 -0.52585660307E+01  0.13915780913E+02 -0.47624000336E+02  0.49893466979E+02  0.10566000000E+00 0. -1.
        -13    1    4    4    0    0 -0.34159179327E+01  0.93333710118E+01 -0.29552987312E+02  0.31179649338E+02  0.10566000000E+00 0.  1.
        -14    1    4    4    0    0 -0.53077687460E+01  0.13845260323E+02 -0.50408402059E+02  0.52543987673E+02  0.00000000000E+00 0.  1.
<mgrwt>
<rscale>  0 0.80988357E+02</rscale>
<asrwt>0</asrwt>
<pdfrwt beam="1">  1        2 0.50258329E-01 0.80988357E+02</pdfrwt>
<pdfrwt beam="2">  1       -1 0.77223669E-03 0.80988357E+02</pdfrwt>
<totfact> 0.25458790E+05</totfact>
</mgrwt>
</event>
<event>
 8    1  0.1673046E-013  0.7996886E+02  0.7818608E-02  0.1329140E+00
         -1   -1    0    0    0  501 -0.00000000000E+00  0.00000000000E+00  0.62284101363E+01  0.62284121755E+01  0.50400000000E-02 0.  1.
          2   -1    0    0  501    0  0.00000000000E+00 -0.00000000000E+00 -0.25668741927E+03  0.25668741929E+03  0.25500000000E-02 0. -1.
         24    2    1    2    0    0  0.00000000000E+00  0.00000000000E+00 -0.25045900914E+03  0.26291583146E+03  0.79968863786E+02 0.  0.
         66    2    3    3    0    0 -0.14248699557E+02 -0.35310489208E+02 -0.16515477889E+03  0.16949913623E+03  0.20000257254E+01 0.  0.
        -13    1    3    3    0    0  0.14248699557E+02  0.35310489208E+02 -0.85304230243E+02  0.93416695235E+02  0.10566000000E+00 0.  1.
         13    1    4    4    0    0 -0.99917141844E+01 -0.22776288229E+02 -0.10694884342E+03  0.10980282296E+03  0.10566000000E+00 0. -1.
        -13    1    4    4    0    0 -0.57937742877E+00 -0.17755741922E+01 -0.92747286412E+01  0.94615060810E+01  0.10566000000E+00 0.  1.
         14    1    4    4    0    0 -0.36776079442E+01 -0.10758626787E+02 -0.48931206832E+02  0.50234807181E+02  0.00000000000E+00 0. -1.
<mgrwt>
<rscale>  0 0.79968864E+02</rscale>
<asrwt>0</asrwt>
<pdfrwt beam="1">  1        2 0.39490364E-01 0.79968864E+02</pdfrwt>
<pdfrwt beam="2">  1       -1 0.95821730E-03 0.79968864E+02</pdfrwt>
<totfact> 0.24120099E+05</totfact>
</mgrwt>
</event>
<event>
 8    1  0.1673046E-013  0.7868779E+02  0.7818608E-02  0.1332817E+00
         -1   -1    0    0    0  501 -0.00000000000E+00  0.00000000000E+00  0.38530234140E+02  0.38530234469E+02  0.50400000000E-02 0.  1.
          2   -1    0    0  501    0  0.00000000000E+00 -0.00000000000E+00 -0.40174741822E+02  0.40174741903E+02  0.25500000000E-02 0. -1.
         24    2    1    2    0    0  0.35527136788E-14  0.00000000000E+00 -0.16445076825E+01  0.78704976372E+02  0.78687793845E+02 0.  0.
         66    2    3    3    0    0 -0.19310988430E+02 -0.34142553862E+02 -0.35268954659E+01  0.39434340954E+02  0.19999991332E+01 0.  0.
        -13    1    3    3    0    0  0.19310988430E+02  0.34142553862E+02  0.18823877834E+01  0.39270635418E+02  0.10566000000E+00 0.  1.
         13    1    4    4    0    0 -0.30763644331E+01 -0.60714503481E+01 -0.38861474833E-01  0.68072903350E+01  0.10566000000E+00 0. -1.
        -13    1    4    4    0    0 -0.33463566408E+01 -0.51545855885E+01 -0.53763521406E+00  0.61699328210E+01  0.10566000000E+00 0.  1.
         14    1    4    4    0    0 -0.12888267356E+02 -0.22916517925E+02 -0.29503987770E+01  0.26457117798E+02  0.00000000000E+00 0. -1.
<mgrwt>
<rscale>  0 0.78687794E+02</rscale>
<asrwt>0</asrwt>
<pdfrwt beam="1">  1        2 0.61807295E-02 0.78687794E+02</pdfrwt>
<pdfrwt beam="2">  1       -1 0.59277284E-02 0.78687794E+02</pdfrwt>
<totfact> 0.14934487E+05</totfact>
</mgrwt>
</event>
<event>
 8    1  0.1673046E-013  0.8007341E+02  0.7818608E-02  0.1328843E+00
          2   -1    0    0  501    0  0.00000000000E+00  0.00000000000E+00  0.45442288258E+03  0.45442288259E+03  0.25500000000E-02 0. -1.
         -1   -1    0    0    0  501 -0.00000000000E+00 -0.00000000000E+00 -0.35274120236E+01  0.35274156242E+01  0.50400000000E-02 0.  1.
         24    2    1    2    0    0  0.00000000000E+00 -0.35527136788E-14  0.45089547056E+03  0.45795029821E+03  0.80073405470E+02 0.  0.
         66    2    3    3    0    0  0.24832886046E+02  0.28429074954E+02  0.30147119735E+03  0.30383180770E+03  0.20000006784E+01 0.  0.
        -13    1    3    3    0    0 -0.24832886046E+02 -0.28429074954E+02  0.14942427320E+03  0.15411849051E+03  0.10566000000E+00 0.  1.
         13    1    4    4    0    0  0.53866749721E+01  0.59110519370E+01  0.66230960138E+02  0.66712128186E+02  0.10566000000E+00 0. -1.
        -13    1    4    4    0    0  0.93963585970E+01  0.97283659904E+01  0.10876171387E+03  0.10959951746E+03  0.10566000000E+00 0.  1.
         14    1    4    4    0    0  0.10049852477E+02  0.12789657027E+02  0.12647852335E+03  0.12752016205E+03  0.00000000000E+00 0. -1.
<mgrwt>
<rscale>  0 0.80073405E+02</rscale>
<asrwt>0</asrwt>
<pdfrwt beam="1">  1        2 0.69911164E-01 0.80073405E+02</pdfrwt>
<pdfrwt beam="2">  1       -1 0.54267943E-03 0.80073405E+02</pdfrwt>
<totfact> 0.29444488E+05</totfact>
</mgrwt>
</event>
<event>
 8    1  0.1673046E-013  0.7979242E+02  0.7818608E-02  0.1329642E+00
          2   -1    0    0  501    0  0.00000000000E+00  0.00000000000E+00  0.36199413334E+03  0.36199413335E+03  0.25500000000E-02 0. -1.
         -1   -1    0    0    0  501 -0.00000000000E+00 -0.00000000000E+00 -0.43970514916E+01  0.43970543801E+01  0.50400000000E-02 0.  1.
         24    2    1    2    0    0  0.00000000000E+00  0.88817841970E-15  0.35759708185E+03  0.36639118773E+03  0.79792415046E+02 0.  0.
         66    2    3    3    0    0 -0.38949598061E+02  0.50845070289E+01  0.21031629979E+03  0.21396230815E+03  0.19999880523E+01 0.  0.
        -13    1    3    3    0    0  0.38949598061E+02 -0.50845070289E+01  0.14728078206E+03  0.15242887957E+03  0.10566000000E+00 0.  1.
         13    1    4    4    0    0 -0.35900847596E+02  0.47040657617E+01  0.19226974586E+03  0.19564934303E+03  0.10566000000E+00 0. -1.
        -13    1    4    4    0    0 -0.25849014565E+01  0.29037643065E+00  0.16147696467E+02  0.16356200636E+02  0.10566000000E+00 0.  1.
         14    1    4    4    0    0 -0.46384900873E+00  0.90064836556E-01  0.18988574605E+01  0.19567644808E+01  0.00000000000E+00 0. -1.
<mgrwt>
<rscale>  0 0.79792415E+02</rscale>
<asrwt>0</asrwt>
<pdfrwt beam="1">  1        2 0.55691387E-01 0.79792415E+02</pdfrwt>
<pdfrwt beam="2">  1       -1 0.67646990E-03 0.79792415E+02</pdfrwt>
<totfact> 0.27460860E+05</totfact>
</mgrwt>
</event>
<event>
 8    1  0.1673046E-013  0.8062769E+02  0.7818608E-02  0.1327280E+00
         -1   -1    0    0    0  501 -0.00000000000E+00  0.00000000000E+00  0.31169019966E+01  0.31169060715E+01  0.50400000000E-02 0.  1.
          2   -1    0    0  501    0  0.00000000000E+00 -0.00000000000E+00 -0.52141680130E+03  0.52141680131E+03  0.25500000000E-02 0. -1.
         24    2    1    2    0    0  0.88817841970E-15  0.00000000000E+00 -0.51829989930E+03  0.52453370738E+03  0.80627691010E+02 0.  0.
         66    2    3    3    0    0  0.59118865194E+01 -0.39348930493E+02 -0.30040910082E+03  0.30303946375E+03  0.20000000495E+01 0.  0.
        -13    1    3    3    0    0 -0.59118865194E+01  0.39348930493E+02 -0.21789079848E+03  0.22149424363E+03  0.10566000000E+00 0.  1.
         13    1    4    4    0    0  0.16887010686E+01 -0.87146112048E+01 -0.67727334867E+02  0.68306655693E+02  0.10566000000E+00 0. -1.
        -13    1    4    4    0    0  0.32462312508E+00 -0.70327756366E+01 -0.52518882480E+02  0.52988767624E+02  0.10566000000E+00 0.  1.
        -14    1    4    4    0    0  0.38985623257E+01 -0.23601543652E+02 -0.18016288348E+03  0.18174404044E+03  0.00000000000E+00 0.  1.
<mgrwt>
<rscale>  0 0.80627691E+02</rscale>
<asrwt>0</asrwt>
<pdfrwt beam="1">  1        2 0.80217900E-01 0.80627691E+02</pdfrwt>
<pdfrwt beam="2">  1       -1 0.47952411E-03 0.80627691E+02</pdfrwt>
<totfact> 0.30233780E+05</totfact>
</mgrwt>
</event>
<event>
 8    1  0.1673046E-013  0.8125812E+02  0.7818608E-02  0.1325519E+00
         -1   -1    0    0    0  501 -0.00000000000E+00  0.00000000000E+00  0.24455620971E+02  0.24455621490E+02  0.50400000000E-02 0.  1.
          2   -1    0    0  501    0  0.00000000000E+00 -0.00000000000E+00 -0.67498612076E+02  0.67498612124E+02  0.25500000000E-02 0. -1.
         24    2    1    2    0    0  0.00000000000E+00 -0.17763568394E-14 -0.43042991105E+02  0.91954233615E+02  0.81258119572E+02 0.  0.
         66    2    3    3    0    0  0.32572529881E+02 -0.12681739074E+02 -0.44916291813E+02  0.56949710645E+02  0.20000158870E+01 0.  0.
        -13    1    3    3    0    0 -0.32572529881E+02  0.12681739074E+02  0.18733007075E+01  0.35004522970E+02  0.10566000000E+00 0.  1.
         13    1    4    4    0    0  0.11587012137E+02 -0.52258048242E+01 -0.16693036758E+02  0.20981814187E+02  0.10566000000E+00 0. -1.
        -13    1    4    4    0    0  0.76411063382E+01 -0.31879284894E+01 -0.10893289051E+02  0.13682993259E+02  0.10566000000E+00 0.  1.
         14    1    4    4    0    0  0.13344411406E+02 -0.42680057605E+01 -0.17329966003E+02  0.22284903199E+02  0.00000000000E+00 0. -1.
<mgrwt>
<rscale>  0 0.81258120E+02</rscale>
<asrwt>0</asrwt>
<pdfrwt beam="1">  1        2 0.10384402E-01 0.81258120E+02</pdfrwt>
<pdfrwt beam="2">  1       -1 0.37624033E-02 0.81258120E+02</pdfrwt>
<totfact> 0.15341267E+05</totfact>
</mgrwt>
</event>
<event>
 8    1  0.1673046E-013  0.8046379E+02  0.7818608E-02  0.1327740E+00
          2   -1    0    0  501    0  0.00000000000E+00  0.00000000000E+00  0.39816985676E+02  0.39816985758E+02  0.25500000000E-02 0. -1.
         -1   -1    0    0    0  501 -0.00000000000E+00 -0.00000000000E+00 -0.40651127273E+02  0.40651127585E+02  0.50400000000E-02 0.  1.
         24    2    1    2    0    0  0.00000000000E+00 -0.35527136788E-14 -0.83414159652E+00  0.80468113343E+02  0.80463789824E+02 0.  0.
         66    2    3    3    0    0 -0.10435273098E+02  0.19690549298E+02  0.33050688406E+02  0.39911911294E+02  0.20000006840E+01 0.  0.
        -13    1    3    3    0    0  0.10435273098E+02 -0.19690549298E+02 -0.33884830002E+02  0.40556202049E+02  0.10566000000E+00 0.  1.
         13    1    4    4    0    0 -0.40890538839E+01  0.86857329068E+01  0.13461490898E+02  0.16534364791E+02  0.10566000000E+00 0. -1.
        -13    1    4    4    0    0 -0.44616452650E+01  0.79341918611E+01  0.13046999340E+02  0.15908897975E+02  0.10566000000E+00 0.  1.
        -14    1    4    4    0    0 -0.18845739494E+01  0.30706245302E+01  0.65421981676E+01  0.74686485283E+01  0.00000000000E+00 0.  1.
<mgrwt>
<rscale>  0 0.80463790E+02</rscale>
<asrwt>0</asrwt>
<pdfrwt beam="1">  1        2 0.61256901E-02 0.80463790E+02</pdfrwt>
<pdfrwt beam="2">  1       -1 0.62540196E-02 0.80463790E+02</pdfrwt>
<totfact> 0.14015881E+05</totfact>
</mgrwt>
</event>
<event>
 8    1  0.1673046E-013  0.7855577E+02  0.7818608E-02  0.1333201E+00
         -1   -1    0    0    0  501 -0.00000000000E+00  0.00000000000E+00  0.22354326166E+01  0.22354382982E+01  0.50400000000E-02 0.  1.
          2   -1    0    0  501    0  0.00000000000E+00 -0.00000000000E+00 -0.69013497973E+03  0.69013497973E+03  0.25500000000E-02 0. -1.
         24    2    1    2    0    0  0.17763568394E-14  0.35527136788E-14 -0.68789954711E+03  0.69237041803E+03  0.78555769033E+02 0.  0.
         66    2    3    3    0    0  0.15286411374E+02  0.13910814557E+02 -0.63828741786E+03  0.63862509575E+03  0.19999968233E+01 0.  0.
        -13    1    3    3    0    0 -0.15286411374E+02 -0.13910814557E+02 -0.49612129249E+02  0.53745322280E+02  0.10566000000E+00 0.  1.
         13    1    4    4    0    0  0.11216940492E+02  0.10216457711E+02 -0.46858923927E+03  0.46883481322E+03  0.10566000000E+00 0. -1.
        -13    1    4    4    0    0  0.17877737163E+01  0.17452704790E+01 -0.62247569633E+02  0.62297778397E+02  0.10566000000E+00 0.  1.
         14    1    4    4    0    0  0.22816971652E+01  0.19490863668E+01 -0.10745060896E+03  0.10749250414E+03  0.00000000000E+00 0. -1.
<mgrwt>
<rscale>  0 0.78555769E+02</rscale>
<asrwt>0</asrwt>
<pdfrwt beam="1">  1        2 0.10617444E+00 0.78555769E+02</pdfrwt>
<pdfrwt beam="2">  1       -1 0.34391370E-03 0.78555769E+02</pdfrwt>
<totfact> 0.34957599E+05</totfact>
</mgrwt>
</event>
<event>
 8    1  0.1673046E-013  0.8152078E+02  0.7818608E-02  0.1324790E+00
          2   -1    0    0  501    0  0.00000000000E+00  0.00000000000E+00  0.32303336251E+02  0.32303336352E+02  0.25500000000E-02 0. -1.
         -1   -1    0    0    0  501 -0.00000000000E+00 -0.00000000000E+00 -0.51431504795E+02  0.51431505042E+02  0.50400000000E-02 0.  1.
         24    2    1    2    0    0  0.00000000000E+00  0.00000000000E+00 -0.19128168544E+02  0.83734841393E+02  0.81520775458E+02 0.  0.
         66    2    3    3    0    0 -0.87797089221E+01  0.14993303562E+02  0.28275418797E+02  0.33247281567E+02  0.19999957427E+01 0.  0.
        -13    1    3    3    0    0  0.87797089221E+01 -0.14993303562E+02 -0.47403587340E+02  0.50487559827E+02  0.10566000000E+00 0.  1.
         13    1    4    4    0    0 -0.40994825881E+01  0.60360881443E+01  0.11458917032E+02  0.13585214800E+02  0.10566000000E+00 0. -1.
        -13    1    4    4    0    0 -0.50457451456E+00  0.10290296184E+01  0.12379066961E+01  0.16902882654E+01  0.10566000000E+00 0.  1.
         14    1    4    4    0    0 -0.41756518194E+01  0.79281857994E+01  0.15578595069E+02  0.17971778501E+02  0.00000000000E+00 0. -1.
<mgrwt>
<rscale>  0 0.81520775E+02</rscale>
<asrwt>0</asrwt>
<pdfrwt beam="1">  1        2 0.49697441E-02 0.81520775E+02</pdfrwt>
<pdfrwt beam="2">  1       -1 0.79125392E-02 0.81520775E+02</pdfrwt>
<totfact> 0.12953246E+05</totfact>
</mgrwt>
</event>
<event>
 8    1  0.1673046E-013  0.8041351E+02  0.7818608E-02  0.1327882E+00
         -1   -1    0    0    0  501 -0.00000000000E+00  0.00000000000E+00  0.33212778157E+02  0.33212778539E+02  0.50400000000E-02 0.  1.
          2   -1    0    0  501    0  0.00000000000E+00 -0.00000000000E+00 -0.48673534686E+02  0.48673534753E+02  0.25500000000E-02 0. -1.
         24    2    1    2    0    0  0.00000000000E+00  0.17763568394E-14 -0.15460756529E+02  0.81886313292E+02  0.80413514486E+02 0.  0.
         66    2    3    3    0    0 -0.25865301054E+02  0.10772584730E+02 -0.37063971163E+02  0.46505917209E+02  0.19999991843E+01 0.  0.
        -13    1    3    3    0    0  0.25865301054E+02 -0.10772584730E+02  0.21603214634E+02  0.35380396082E+02  0.10566000000E+00 0.  1.
         13    1    4    4    0    0 -0.11098873504E+01  0.44365095149E+00 -0.13986892178E+01  0.18428704949E+01  0.10566000000E+00 0. -1.
        -13    1    4    4    0    0 -0.37738531025E+01  0.14755703714E+01 -0.64956237288E+01  0.76566028251E+01  0.10566000000E+00 0.  1.
        -14    1    4    4    0    0 -0.20981560601E+02  0.88533634067E+01 -0.29169658216E+02  0.37006443889E+02  0.00000000000E+00 0.  1.
<mgrwt>
<rscale>  0 0.80413514E+02</rscale>
<asrwt>0</asrwt>
<pdfrwt beam="1">  1        2 0.74882362E-02 0.80413514E+02</pdfrwt>
<pdfrwt beam="2">  1       -1 0.51096582E-02 0.80413514E+02</pdfrwt>
<totfact> 0.14647518E+05</totfact>
</mgrwt>
</event>
<event>
 8    1  0.1673046E-013  0.7705202E+02  0.7818608E-02  0.1337632E+00
         -1   -1    0    0    0  501 -0.00000000000E+00  0.00000000000E+00  0.85597590440E+01  0.85597605278E+01  0.50400000000E-02 0.  1.
          2   -1    0    0  501    0  0.00000000000E+00 -0.00000000000E+00 -0.17339894838E+03  0.17339894840E+03  0.25500000000E-02 0. -1.
         24    2    1    2    0    0  0.00000000000E+00  0.71054273576E-14 -0.16483918934E+03  0.18195870893E+03  0.77052017581E+02 0.  0.
         66    2    3    3    0    0 -0.14453852656E+01 -0.35220869096E+02 -0.11903253415E+03  0.12415853953E+03  0.19999986605E+01 0.  0.
        -13    1    3    3    0    0  0.14453852656E+01  0.35220869096E+02 -0.45806655189E+02  0.57800169396E+02  0.10566000000E+00 0.  1.
         13    1    4    4    0    0  0.42275010111E-01 -0.14104241754E+02 -0.49702840585E+02  0.51665413469E+02  0.10566000000E+00 0. -1.
        -13    1    4    4    0    0 -0.71789697759E-01 -0.32312442148E+01 -0.11231840821E+02  0.11688092454E+02  0.10566000000E+00 0.  1.
         14    1    4    4    0    0 -0.14158705779E+01 -0.17885383128E+02 -0.58097852741E+02  0.60805033610E+02  0.00000000000E+00 0. -1.
<mgrwt>
<rscale>  0 0.77052018E+02</rscale>
<asrwt>0</asrwt>
<pdfrwt beam="1">  1        2 0.26676759E-01 0.77052018E+02</pdfrwt>
<pdfrwt beam="2">  1       -1 0.13168863E-02 0.77052018E+02</pdfrwt>
<totfact> 0.23197310E+05</totfact>
</mgrwt>
</event>
<event>
 8    1  0.1673046E-013  0.7851514E+02  0.7818608E-02  0.1333319E+00
          2   -1    0    0  501    0  0.00000000000E+00  0.00000000000E+00  0.55128389035E+03  0.55128389036E+03  0.25500000000E-02 0. -1.
         -1   -1    0    0    0  501 -0.00000000000E+00 -0.00000000000E+00 -0.27955748744E+01  0.27955794176E+01  0.50400000000E-02 0.  1.
         24    2    1    2    0    0 -0.88817841970E-15  0.35527136788E-14  0.54848831548E+03  0.55407946978E+03  0.78515136192E+02 0.  0.
         66    2    3    3    0    0  0.72287340847E+01 -0.19764114835E+02  0.50807860932E+03  0.50851818855E+03  0.19999999646E+01 0.  0.
        -13    1    3    3    0    0 -0.72287340847E+01  0.19764114835E+02  0.40409706159E+02  0.45561281233E+02  0.10566000000E+00 0.  1.
         13    1    4    4    0    0  0.23524402797E+01 -0.49494152914E+01  0.14116424624E+03  0.14127061360E+03  0.10566000000E+00 0. -1.
        -13    1    4    4    0    0  0.11538234409E+01 -0.45107823465E+01  0.11972352117E+03  0.11981406909E+03  0.10566000000E+00 0.  1.
         14    1    4    4    0    0  0.37224703641E+01 -0.10303917197E+02  0.24719084191E+03  0.24743350586E+03  0.00000000000E+00 0. -1.
<mgrwt>
<rscale>  0 0.78515136E+02</rscale>
<asrwt>0</asrwt>
<pdfrwt beam="1">  1        2 0.84812929E-01 0.78515136E+02</pdfrwt>
<pdfrwt beam="2">  1       -1 0.43008868E-03 0.78515136E+02</pdfrwt>
<totfact> 0.32952595E+05</totfact>
</mgrwt>
</event>
<event>
 8    1  0.1673046E-013  0.7869314E+02  0.7818608E-02  0.1332802E+00
          2   -1    0    0  501    0  0.00000000000E+00  0.00000000000E+00  0.41991256334E+03  0.41991256335E+03  0.25500000000E-02 0. -1.
         -1   -1    0    0    0  501 -0.00000000000E+00 -0.00000000000E+00 -0.36868437733E+01  0.36868472182E+01  0.50400000000E-02 0.  1.
         24    2    1    2    0    0  0.35527136788E-14  0.35527136788E-14  0.41622571957E+03  0.42359941057E+03  0.78693144574E+02 0.  0.
         66    2    3    3    0    0 -0.18151234875E+02 -0.19286735198E+02  0.36469501116E+03  0.36566090389E+03  0.19999980018E+01 0.  0.
        -13    1    3    3    0    0  0.18151234875E+02  0.19286735198E+02  0.51530708409E+02  0.57938506671E+02  0.10566000000E+00 0.  1.
         13    1    4    4    0    0 -0.96811428078E+01 -0.10799194164E+02  0.19901670362E+03  0.19954449780E+03  0.10566000000E+00 0. -1.
        -13    1    4    4    0    0 -0.26938907527E+01 -0.33806974785E+01  0.64477490627E+02  0.64622319088E+02  0.10566000000E+00 0.  1.
        -14    1    4    4    0    0 -0.57762013144E+01 -0.51068435551E+01  0.10120081691E+03  0.10149408700E+03  0.00000000000E+00 0.  1.
<mgrwt>
<rscale>  0 0.78693145E+02</rscale>
<asrwt>0</asrwt>
<pdfrwt beam="1">  1        2 0.64601943E-01 0.78693145E+02</pdfrwt>
<pdfrwt beam="2">  1       -1 0.56720691E-03 0.78693145E+02</pdfrwt>
<totfact> 0.29995547E+05</totfact>
</mgrwt>
</event>
<event>
 8    1  0.1673046E-013  0.8277301E+02  0.7818608E-02  0.1321361E+00
         -1   -1    0    0    0  501 -0.00000000000E+00  0.00000000000E+00  0.82028740891E+02  0.82028741045E+02  0.50400000000E-02 0.  1.
          2   -1    0    0  501    0  0.00000000000E+00 -0.00000000000E+00 -0.20881006273E+02  0.20881006429E+02  0.25500000000E-02 0. -1.
         24    2    1    2    0    0 -0.71054273576E-14  0.00000000000E+00  0.61147734618E+02  0.10290974747E+03  0.82773006931E+02 0.  0.
         66    2    3    3    0    0 -0.38304317511E+02  0.14742461284E+02  0.24218523702E+02  0.47697985253E+02  0.20000005582E+01 0.  0.
        -13    1    3    3    0    0  0.38304317511E+02 -0.14742461284E+02  0.36929210915E+02  0.55211762221E+02  0.10566000000E+00 0.  1.
         13    1    4    4    0    0 -0.23921179278E+02  0.89893653936E+01  0.14901251244E+02  0.29581919493E+02  0.10566000000E+00 0. -1.
        -13    1    4    4    0    0 -0.45771330164E+01  0.12756011019E+01  0.30367101969E+01  0.56400423470E+01  0.10566000000E+00 0.  1.
         14    1    4    4    0    0 -0.98060052162E+01  0.44774947884E+01  0.62805622617E+01  0.12476023413E+02  0.00000000000E+00 0. -1.
<mgrwt>
<rscale>  0 0.82773007E+02</rscale>
<asrwt>0</asrwt>
<pdfrwt beam="1">  1        2 0.32124625E-02 0.82773007E+02</pdfrwt>
<pdfrwt beam="2">  1       -1 0.12619806E-01 0.82773007E+02</pdfrwt>
<totfact> 0.11355826E+05</totfact>
</mgrwt>
</event>
<event>
 8    1  0.1673046E-013  0.8101987E+02  0.7818608E-02  0.1326182E+00
          2   -1    0    0  501    0  0.00000000000E+00  0.00000000000E+00  0.11821171926E+03  0.11821171929E+03  0.25500000000E-02 0. -1.
         -1   -1    0    0    0  501 -0.00000000000E+00 -0.00000000000E+00 -0.13882334753E+02  0.13882335667E+02  0.50400000000E-02 0.  1.
         24    2    1    2    0    0 -0.35527136788E-14 -0.17763568394E-14  0.10432938451E+03  0.13209405495E+03  0.81019867210E+02 0.  0.
         66    2    3    3    0    0  0.21316839174E+02 -0.88749683181E+01 -0.20218182885E+01  0.23265004627E+02  0.19999990210E+01 0.  0.
        -13    1    3    3    0    0 -0.21316839174E+02  0.88749683181E+01  0.10635120280E+03  0.10882905033E+03  0.10566000000E+00 0.  1.
         13    1    4    4    0    0  0.99810252473E+01 -0.45070832307E+01 -0.37404535998E+00  0.10958363847E+02  0.10566000000E+00 0. -1.
        -13    1    4    4    0    0  0.15427759575E+01 -0.86513546789E+00  0.26404618389E-01  0.17721394619E+01  0.10566000000E+00 0.  1.
        -14    1    4    4    0    0  0.97930379695E+01 -0.35027496195E+01 -0.16741775469E+01  0.10534501318E+02  0.00000000000E+00 0.  1.
<mgrwt>
<rscale>  0 0.81019867E+02</rscale>
<asrwt>0</asrwt>
<pdfrwt beam="1">  1        2 0.18186418E-01 0.81019867E+02</pdfrwt>
<pdfrwt beam="2">  1       -1 0.21357439E-02 0.81019867E+02</pdfrwt>
<totfact> 0.17984415E+05</totfact>
</mgrwt>
</event>
<event>
 8    1  0.1673046E-013  0.8101953E+02  0.7818608E-02  0.1326183E+00
         -1   -1    0    0    0  501 -0.00000000000E+00  0.00000000000E+00  0.45530969099E+01  0.45530996994E+01  0.50400000000E-02 0.  1.
          2   -1    0    0  501    0  0.00000000000E+00 -0.00000000000E+00 -0.36042291296E+03  0.36042291297E+03  0.25500000000E-02 0. -1.
         24    2    1    2    0    0  0.88817841970E-15  0.00000000000E+00 -0.35586981605E+03  0.36497601267E+03  0.81019527571E+02 0.  0.
         66    2    3    3    0    0 -0.58299254253E+01 -0.13298818985E+02 -0.34828534749E+03  0.34859364580E+03  0.20000001022E+01 0.  0.
        -13    1    3    3    0    0  0.58299254253E+01  0.13298818985E+02 -0.75844685655E+01  0.16382366872E+02  0.10566000000E+00 0.  1.
         13    1    4    4    0    0 -0.17837721880E+01 -0.53655444471E+01 -0.14843440295E+03  0.14854209522E+03  0.10566000000E+00 0. -1.
        -13    1    4    4    0    0 -0.12940234130E+01 -0.18870105511E+01 -0.57757684342E+02  0.57803084433E+02  0.10566000000E+00 0. -1.
        -14    1    4    4    0    0 -0.27521298242E+01 -0.60462639871E+01 -0.14209326020E+03  0.14224846614E+03  0.00000000000E+00 0.  1.
<mgrwt>
<rscale>  0 0.81019528E+02</rscale>
<asrwt>0</asrwt>
<pdfrwt beam="1">  1        2 0.55449657E-01 0.81019528E+02</pdfrwt>
<pdfrwt beam="2">  1       -1 0.70047695E-03 0.81019528E+02</pdfrwt>
<totfact> 0.26345015E+05</totfact>
</mgrwt>
</event>
<event>
 8    1  0.1673046E-013  0.7986704E+02  0.7818608E-02  0.1329429E+00
         -1   -1    0    0    0  501 -0.00000000000E+00  0.00000000000E+00  0.10254194722E+02  0.10254195961E+02  0.50400000000E-02 0.  1.
          2   -1    0    0  501    0  0.00000000000E+00 -0.00000000000E+00 -0.15551548439E+03  0.15551548441E+03  0.25500000000E-02 0. -1.
         24    2    1    2    0    0 -0.35527136788E-14  0.00000000000E+00 -0.14526128967E+03  0.16576968037E+03  0.79867043608E+02 0.  0.
         66    2    3    3    0    0 -0.31461016194E+02  0.69648992572E+01 -0.12154575944E+03  0.12576039520E+03  0.20000006220E+01 0.  0.
        -13    1    3    3    0    0  0.31461016194E+02 -0.69648992572E+01 -0.23715530229E+02  0.40009285169E+02  0.10566000000E+00 0.  1.
         13    1    4    4    0    0 -0.23725351690E+02  0.49577508374E+01 -0.88273364118E+02  0.91540535190E+02  0.10566000000E+00 0. -1.
        -13    1    4    4    0    0 -0.41656556260E+01  0.11851041441E+01 -0.17759813268E+02  0.18280571380E+02  0.10566000000E+00 0.  1.
         14    1    4    4    0    0 -0.35700088779E+01  0.82204427572E+00 -0.15512582054E+02  0.15939288634E+02  0.00000000000E+00 0. -1.
<mgrwt>
<rscale>  0 0.79867044E+02</rscale>
<asrwt>0</asrwt>
<pdfrwt beam="1">  1        2 0.23925457E-01 0.79867044E+02</pdfrwt>
<pdfrwt beam="2">  1       -1 0.15775686E-02 0.79867044E+02</pdfrwt>
<totfact> 0.20355231E+05</totfact>
</mgrwt>
</event>
<event>
 8    1  0.1673046E-013  0.7995309E+02  0.7818608E-02  0.1329185E+00
         -1   -1    0    0    0  501 -0.00000000000E+00  0.00000000000E+00  0.19261553090E+03  0.19261553097E+03  0.50400000000E-02 0.  1.
          2   -1    0    0  501    0  0.00000000000E+00 -0.00000000000E+00 -0.82969640805E+01  0.82969644724E+01  0.25500000000E-02 0. -1.
         24    2    1    2    0    0  0.00000000000E+00  0.00000000000E+00  0.18431856682E+03  0.20091249544E+03  0.79953090928E+02 0.  0.
         66    2    3    3    0    0 -0.79076252096E+01  0.34548297705E+02  0.45881318102E+02  0.58010436646E+02  0.19999995522E+01 0.  0.
        -13    1    3    3    0    0  0.79076252096E+01 -0.34548297705E+02  0.13843724872E+03  0.14290205879E+03  0.10566000000E+00 0.  1.
         13    1    4    4    0    0 -0.12792244941E+01  0.53863689273E+01  0.82128075626E+01  0.99050874617E+01  0.10566000000E+00 0. -1.
        -13    1    4    4    0    0 -0.35115552477E+01  0.16575968774E+02  0.21944600473E+02  0.27724906042E+02  0.10566000000E+00 0.  1.
        -14    1    4    4    0    0 -0.31168454678E+01  0.12585960004E+02  0.15723910066E+02  0.20380443142E+02  0.00000000000E+00 0.  1.
<mgrwt>
<rscale>  0 0.79953091E+02</rscale>
<asrwt>0</asrwt>
<pdfrwt beam="1">  1        2 0.12764559E-02 0.79953091E+02</pdfrwt>
<pdfrwt beam="2">  1       -1 0.29633161E-01 0.79953091E+02</pdfrwt>
<totfact> 0.10088089E+05</totfact>
</mgrwt>
</event>
<event>
 8    1  0.1673046E-013  0.7840686E+02  0.7818608E-02  0.1333634E+00
          2   -1    0    0  501    0  0.00000000000E+00  0.00000000000E+00  0.62613019750E+03  0.62613019751E+03  0.25500000000E-02 0. -1.
         -1   -1    0    0    0  501 -0.00000000000E+00 -0.00000000000E+00 -0.24546129219E+01  0.24546180962E+01  0.50400000000E-02 0.  1.
         24    2    1    2    0    0  0.00000000000E+00  0.00000000000E+00  0.62367558458E+03  0.62858481560E+03  0.78406859431E+02 0.  0.
         66    2    3    3    0    0  0.25064542904E+02 -0.12794921348E+02  0.53056119434E+03  0.53131075864E+03  0.19999973562E+01 0.  0.
        -13    1    3    3    0    0 -0.25064542904E+02  0.12794921348E+02  0.93114390243E+02  0.97274056961E+02  0.10566000000E+00 0.  1.
         13    1    4    4    0    0  0.87080427382E+01 -0.38144282749E+01  0.17751582982E+03  0.17777024744E+03  0.10566000000E+00 0. -1.
        -13    1    4    4    0    0  0.60387800171E+01 -0.26217216787E+01  0.12285360114E+03  0.12302991004E+03  0.10566000000E+00 0.  1.
        -14    1    4    4    0    0  0.10317720149E+02 -0.63587713940E+01  0.23019176338E+03  0.23051060116E+03  0.00000000000E+00 0.  1.
<mgrwt>
<rscale>  0 0.78406859E+02</rscale>
<asrwt>0</asrwt>
<pdfrwt beam="1">  1        2 0.96327673E-01 0.78406859E+02</pdfrwt>
<pdfrwt beam="2">  1       -1 0.37763335E-03 0.78406859E+02</pdfrwt>
<totfact> 0.34285164E+05</totfact>
</mgrwt>
</event>
<event>
 8    1  0.1673046E-013  0.8067252E+02  0.7818608E-02  0.1327154E+00
          2   -1    0    0  501    0  0.00000000000E+00  0.00000000000E+00  0.35697562981E+02  0.35697563072E+02  0.25500000000E-02 0. -1.
         -1   -1    0    0    0  501 -0.00000000000E+00 -0.00000000000E+00 -0.45577732843E+02  0.45577733121E+02  0.50400000000E-02 0.  1.
         24    2    1    2    0    0  0.00000000000E+00  0.17763568394E-14 -0.98801698617E+01  0.81275296193E+02  0.80672523295E+02 0.  0.
         66    2    3    3    0    0 -0.37685088212E+02 -0.13689896629E+02 -0.73700689922E+00  0.40151243180E+02  0.20000016180E+01 0.  0.
        -13    1    3    3    0    0  0.37685088212E+02  0.13689896629E+02 -0.91431629625E+01  0.41124053013E+02  0.10566000000E+00 0.  1.
         13    1    4    4    0    0 -0.53481052967E+01 -0.19974356352E+01 -0.29980654762E+00  0.57177816838E+01  0.10566000000E+00 0.  1.
        -13    1    4    4    0    0 -0.15478189598E+02 -0.58364323731E+01 -0.10540481386E+01  0.16575900506E+02  0.10566000000E+00 0.  1.
         14    1    4    4    0    0 -0.16858793317E+02 -0.58560286208E+01  0.61684778695E+00  0.17857560990E+02  0.00000000000E+00 0. -1.
<mgrwt>
<rscale>  0 0.80672523E+02</rscale>
<asrwt>0</asrwt>
<pdfrwt beam="1">  1        2 0.54919328E-02 0.80672523E+02</pdfrwt>
<pdfrwt beam="2">  1       -1 0.70119590E-02 0.80672523E+02</pdfrwt>
<totfact> 0.13608635E+05</totfact>
</mgrwt>
</event>
<event>
 8    1  0.1673046E-013  0.7861792E+02  0.7818608E-02  0.1333020E+00
         -1   -1    0    0    0  501 -0.00000000000E+00  0.00000000000E+00  0.14540658342E+02  0.14540659215E+02  0.50400000000E-02 0.  1.
          2   -1    0    0  501    0  0.00000000000E+00 -0.00000000000E+00 -0.10626714294E+03  0.10626714297E+03  0.25500000000E-02 0. -1.
         24    2    1    2    0    0  0.00000000000E+00  0.00000000000E+00 -0.91726484598E+02  0.12080780219E+03  0.78617918392E+02 0.  0.
         66    2    3    3    0    0  0.36668210926E+02  0.10661984848E+02 -0.60056145654E+02  0.71196743477E+02  0.20000093603E+01 0.  0.
        -13    1    3    3    0    0 -0.36668210926E+02 -0.10661984848E+02 -0.31670338944E+02  0.49611058709E+02  0.10566000000E+00 0.  1.
         13    1    4    4    0    0  0.22738414036E+02  0.71355134782E+01 -0.37515993042E+02  0.44445606346E+02  0.10566000000E+00 0. -1.
        -13    1    4    4    0    0  0.38638338815E+01  0.70260652402E+00 -0.54865127879E+01  0.67480259928E+01  0.10566000000E+00 0.  1.
         14    1    4    4    0    0  0.10065963009E+02  0.28238648461E+01 -0.17053639824E+02  0.20003111138E+02  0.00000000000E+00 0. -1.
<mgrwt>
<rscale>  0 0.78617918E+02</rscale>
<asrwt>0</asrwt>
<pdfrwt beam="1">  1        2 0.16348791E-01 0.78617918E+02</pdfrwt>
<pdfrwt beam="2">  1       -1 0.22370245E-02 0.78617918E+02</pdfrwt>
<totfact> 0.18893106E+05</totfact>
</mgrwt>
</event>
<event>
 8    1  0.1673046E-013  0.8201011E+02  0.7818608E-02  0.1323442E+00
         -1   -1    0    0    0  501 -0.00000000000E+00  0.00000000000E+00  0.42030342998E+01  0.42030373216E+01  0.50400000000E-02 0.  1.
          2   -1    0    0  501    0  0.00000000000E+00 -0.00000000000E+00 -0.40004760837E+03  0.40004760838E+03  0.25500000000E-02 0. -1.
         24    2    1    2    0    0  0.00000000000E+00  0.00000000000E+00 -0.39584457407E+03  0.40425064570E+03  0.82010107473E+02 0.  0.
         66    2    3    3    0    0  0.87538198804E+01  0.72316292258E+01 -0.39213582530E+03  0.39230527818E+03  0.19999946821E+01 0.  0.
        -13    1    3    3    0    0 -0.87538198804E+01 -0.72316292258E+01 -0.37087487704E+01  0.11945367522E+02  0.10566000000E+00 0.  1.
         13    1    4    4    0    0  0.90352354960E+00  0.16055009793E+01 -0.59505302891E+02  0.59533908190E+02  0.10566000000E+00 0. -1.
        -13    1    4    4    0    0  0.13176408784E+01  0.71548399889E+00 -0.47800731651E+02  0.47824357865E+02  0.10566000000E+00 0.  1.
         14    1    4    4    0    0  0.65326554525E+01  0.49106442476E+01 -0.28482979076E+03  0.28494701212E+03  0.00000000000E+00 0. -1.
<mgrwt>
<rscale>  0 0.82010107E+02</rscale>
<asrwt>0</asrwt>
<pdfrwt beam="1">  1        2 0.61545756E-01 0.82010107E+02</pdfrwt>
<pdfrwt beam="2">  1       -1 0.64662121E-03 0.82010107E+02</pdfrwt>
<totfact> 0.26479208E+05</totfact>
</mgrwt>
</event>
<event>
 8    1  0.1673046E-013  0.7855139E+02  0.7818608E-02  0.1333213E+00
         -1   -1    0    0    0  501 -0.00000000000E+00  0.00000000000E+00  0.16468251789E+02  0.16468252560E+02  0.50400000000E-02 0.  1.
          2   -1    0    0  501    0  0.00000000000E+00 -0.00000000000E+00 -0.93669929755E+02  0.93669929790E+02  0.25500000000E-02 0. -1.
         24    2    1    2    0    0  0.35527136788E-14  0.00000000000E+00 -0.77201677966E+02  0.11013818235E+03  0.78551385288E+02 0.  0.
         66    2    3    3    0    0 -0.30430482754E+02  0.20624032214E+01 -0.73264234122E+02  0.79384606692E+02  0.19999976384E+01 0.  0.
        -13    1    3    3    0    0  0.30430482754E+02 -0.20624032214E+01 -0.39374438443E+01  0.30753575658E+02  0.10566000000E+00 0.  1.
         13    1    4    4    0    0 -0.17877743475E+02  0.76017239512E+00 -0.43650367772E+02  0.47175813130E+02  0.10566000000E+00 0. -1.
        -13    1    4    4    0    0 -0.15449884254E+01 -0.16265520275E+00 -0.39147925614E+01  0.42130999019E+01  0.10566000000E+00 0.  1.
         14    1    4    4    0    0 -0.11007750853E+02  0.14648860290E+01 -0.25699073789E+02  0.27995693660E+02  0.00000000000E+00 0. -1.
<mgrwt>
<rscale>  0 0.78551385E+02</rscale>
<asrwt>0</asrwt>
<pdfrwt beam="1">  1        2 0.14410758E-01 0.78551385E+02</pdfrwt>
<pdfrwt beam="2">  1       -1 0.25335773E-02 0.78551385E+02</pdfrwt>
<totfact> 0.18282191E+05</totfact>
</mgrwt>
</event>
<event>
 8    1  0.1673046E-013  0.7345370E+02  0.7818608E-02  0.1348727E+00
          2   -1    0    0  501    0  0.00000000000E+00  0.00000000000E+00  0.15547508016E+03  0.15547508018E+03  0.25500000000E-02 0. -1.
         -1   -1    0    0    0  501 -0.00000000000E+00 -0.00000000000E+00 -0.86757405721E+01  0.86757420361E+01  0.50400000000E-02 0.  1.
         24    2    1    2    0    0  0.00000000000E+00  0.00000000000E+00  0.14679933959E+03  0.16415082222E+03  0.73453701957E+02 0.  0.
         66    2    3    3    0    0 -0.32327804960E+02 -0.17371176194E+02  0.73698588807E+02  0.82354883048E+02  0.20000084151E+01 0.  0.
        -13    1    3    3    0    0  0.32327804960E+02  0.17371176194E+02  0.73100750781E+02  0.81795939170E+02  0.10566000000E+00 0.  1.
         13    1    4    4    0    0 -0.82763102144E+01 -0.46039788398E+01  0.18021244371E+02  0.20358544757E+02  0.10566000000E+00 0. -1.
        -13    1    4    4    0    0 -0.10857619067E+02 -0.58824569162E+01  0.23641917490E+02  0.26672881693E+02  0.10566000000E+00 0.  1.
        -14    1    4    4    0    0 -0.13193875679E+02 -0.68847404384E+01  0.32035426947E+02  0.35323456598E+02  0.00000000000E+00 0.  1.
<mgrwt>
<rscale>  0 0.73453702E+02</rscale>
<asrwt>0</asrwt>
<pdfrwt beam="1">  1        2 0.23919242E-01 0.73453702E+02</pdfrwt>
<pdfrwt beam="2">  1       -1 0.13347295E-02 0.73453702E+02</pdfrwt>
<totfact> 0.25381957E+05</totfact>
</mgrwt>
</event>
<event>
 8    1  0.1673046E-013  0.7690547E+02  0.7818608E-02  0.1338070E+00
         -1   -1    0    0    0  501 -0.00000000000E+00  0.00000000000E+00  0.92964352878E+02  0.92964353015E+02  0.50400000000E-02 0.  1.
          2   -1    0    0  501    0  0.00000000000E+00 -0.00000000000E+00 -0.15905158167E+02  0.15905158372E+02  0.25500000000E-02 0. -1.
         24    2    1    2    0    0 -0.35527136788E-14  0.35527136788E-14  0.77059194711E+02  0.10886951139E+03  0.76905468076E+02 0.  0.
         66    2    3    3    0    0  0.22066995610E+02 -0.28731905466E+02  0.20419344663E+02  0.41634412930E+02  0.20000041498E+01 0.  0.
        -13    1    3    3    0    0 -0.22066995610E+02  0.28731905466E+02  0.56639850048E+02  0.67235098457E+02  0.10566000000E+00 0.  1.
         13    1    4    4    0    0  0.12191869571E+02 -0.16507067294E+02  0.11044921527E+02  0.23305072621E+02  0.10566000000E+00 0. -1.
        -13    1    4    4    0    0  0.34252561629E+01 -0.41486647597E+01  0.37880305785E+01  0.65805880261E+01  0.10566000000E+00 0.  1.
        -14    1    4    4    0    0  0.64498698767E+01 -0.80761734120E+01  0.55863925572E+01  0.11748752283E+02  0.00000000000E+00 0.  1.
<mgrwt>
<rscale>  0 0.76905468E+02</rscale>
<asrwt>0</asrwt>
<pdfrwt beam="1">  1        2 0.24469474E-02 0.76905468E+02</pdfrwt>
<pdfrwt beam="2">  1       -1 0.14302208E-01 0.76905468E+02</pdfrwt>
<totfact> 0.13277695E+05</totfact>
</mgrwt>
</event>
<event>
 8    1  0.1673046E-013  0.7873334E+02  0.7818608E-02  0.1332685E+00
          2   -1    0    0  501    0  0.00000000000E+00  0.00000000000E+00  0.26124158106E+03  0.26124158107E+03  0.25500000000E-02 0. -1.
         -1   -1    0    0    0  501 -0.00000000000E+00 -0.00000000000E+00 -0.59321891441E+01  0.59321912851E+01  0.50400000000E-02 0.  1.
         24    2    1    2    0    0  0.00000000000E+00  0.00000000000E+00  0.25530939191E+03  0.26717377235E+03  0.78733341318E+02 0.  0.
         66    2    3    3    0    0 -0.27208965149E+02  0.48271875545E+00  0.22414579439E+03  0.22580057117E+03  0.19999985494E+01 0.  0.
        -13    1    3    3    0    0  0.27208965149E+02 -0.48271875545E+00  0.31163597518E+02  0.41373201184E+02  0.10566000000E+00 0.  1.
         13    1    4    4    0    0 -0.88564181722E+01  0.23084724463E+00  0.79628798911E+02  0.80120198535E+02  0.10566000000E+00 0. -1.
        -13    1    4    4    0    0 -0.87322660043E+01 -0.26001096966E+00  0.70145905843E+02  0.70687900987E+02  0.10566000000E+00 0.  1.
        -14    1    4    4    0    0 -0.96202809731E+01  0.51188248048E+00  0.74371089638E+02  0.74992471647E+02  0.00000000000E+00 0.  1.
<mgrwt>
<rscale>  0 0.78733341E+02</rscale>
<asrwt>0</asrwt>
<pdfrwt beam="1">  1        2 0.40191026E-01 0.78733341E+02</pdfrwt>
<pdfrwt beam="2">  1       -1 0.91264434E-03 0.78733341E+02</pdfrwt>
<totfact> 0.25286398E+05</totfact>
</mgrwt>
</event>
<event>
 8    1  0.1673046E-013  0.8026928E+02  0.7818608E-02  0.1328289E+00
         -1   -1    0    0    0  501 -0.00000000000E+00  0.00000000000E+00  0.14162796978E+03  0.14162796987E+03  0.50400000000E-02 0.  1.
          2   -1    0    0  501    0  0.00000000000E+00 -0.00000000000E+00 -0.11373384666E+02  0.11373384952E+02  0.25500000000E-02 0. -1.
         24    2    1    2    0    0 -0.17763568394E-14  0.35527136788E-14  0.13025458511E+03  0.15300135482E+03  0.80269282006E+02 0.  0.
         66    2    3    3    0    0  0.13166078400E+02  0.21374899795E+02  0.55412980982E+01  0.25786390748E+02  0.20000003850E+01 0.  0.
        -13    1    3    3    0    0 -0.13166078400E+02 -0.21374899795E+02  0.12471328701E+03  0.12721496407E+03  0.10566000000E+00 0.  1.
         13    1    4    4    0    0  0.33829972261E+01  0.50656559867E+01  0.13488149264E+01  0.62398723183E+01  0.10566000000E+00 0. -1.
        -13    1    4    4    0    0  0.24986205334E+01  0.33636591870E+01  0.14894024686E+01  0.44482346437E+01  0.10566000000E+00 0.  1.
         14    1    4    4    0    0  0.72844606403E+01  0.12945584621E+02  0.27030807032E+01  0.15098283786E+02  0.00000000000E+00 0. -1.
<mgrwt>
<rscale>  0 0.80269282E+02</rscale>
<asrwt>0</asrwt>
<pdfrwt beam="1">  1        2 0.17497514E-02 0.80269282E+02</pdfrwt>
<pdfrwt beam="2">  1       -1 0.21788920E-01 0.80269282E+02</pdfrwt>
<totfact> 0.10851604E+05</totfact>
</mgrwt>
</event>
<event>
 8    1  0.1673046E-013  0.7623712E+02  0.7818608E-02  0.1340082E+00
          2   -1    0    0  501    0  0.00000000000E+00  0.00000000000E+00  0.12260272105E+03  0.12260272107E+03  0.25500000000E-02 0. -1.
         -1   -1    0    0    0  501 -0.00000000000E+00 -0.00000000000E+00 -0.11851488232E+02  0.11851489304E+02  0.50400000000E-02 0.  1.
         24    2    1    2    0    0 -0.17763568394E-14  0.00000000000E+00  0.11075123282E+03  0.13445421038E+03  0.76237124278E+02 0.  0.
         66    2    3    3    0    0  0.80428822903E+01  0.35315884318E+02  0.76215523346E+02  0.84407971425E+02  0.20000001300E+01 0.  0.
        -13    1    3    3    0    0 -0.80428822903E+01 -0.35315884318E+02  0.34535709470E+02  0.50046238953E+02  0.10566000000E+00 0.  1.
         13    1    4    4    0    0  0.48630203723E+01  0.22804040893E+02  0.50411148770E+02  0.55542491235E+02  0.10566000000E+00 0. -1.
        -13    1    4    4    0    0  0.30494668660E+01  0.12381236030E+02  0.25419403164E+02  0.28438556135E+02  0.10566000000E+00 0.  1.
        -14    1    4    4    0    0  0.13039505207E+00  0.13060739502E+00  0.38497141204E+00  0.42692405569E+00  0.00000000000E+00 0.  1.
<mgrwt>
<rscale>  0 0.76237124E+02</rscale>
<asrwt>0</asrwt>
<pdfrwt beam="1">  1        2 0.18861957E-01 0.76237124E+02</pdfrwt>
<pdfrwt beam="2">  1       -1 0.18233060E-02 0.76237124E+02</pdfrwt>
<totfact> 0.21376792E+05</totfact>
</mgrwt>
</event>
<event>
 8    1  0.1673046E-013  0.7980938E+02  0.7818608E-02  0.1329593E+00
         -1   -1    0    0    0  501 -0.00000000000E+00  0.00000000000E+00  0.87667228600E+01  0.87667243088E+01  0.50400000000E-02 0.  1.
          2   -1    0    0  501    0  0.00000000000E+00 -0.00000000000E+00 -0.18163961377E+03  0.18163961379E+03  0.25500000000E-02 0. -1.
         24    2    1    2    0    0  0.17763568394E-14 -0.44408920985E-15 -0.17287289091E+03  0.19040633810E+03  0.79809380250E+02 0.  0.
         66    2    3    3    0    0  0.11407401943E+02 -0.29502891944E+01 -0.17738618556E+03  0.17778833437E+03  0.19999966125E+01 0.  0.
        -13    1    3    3    0    0 -0.11407401943E+02  0.29502891944E+01  0.45132946473E+01  0.12618003726E+02  0.10566000000E+00 0.  1.
         13    1    4    4    0    0  0.78620974584E+01 -0.21817825090E+01 -0.13192816620E+03  0.13218027445E+03  0.10566000000E+00 0. -1.
        -13    1    4    4    0    0  0.94150504671E+00 -0.19752172430E-01 -0.90895771172E+01  0.91388400854E+01  0.10566000000E+00 0.  1.
         14    1    4    4    0    0  0.26037994375E+01 -0.74875451294E+00 -0.36368442240E+02  0.36469219841E+02  0.00000000000E+00 0. -1.
<mgrwt>
<rscale>  0 0.79809380E+02</rscale>
<asrwt>0</asrwt>
<pdfrwt beam="1">  1        2 0.27944553E-01 0.79809380E+02</pdfrwt>
<pdfrwt beam="2">  1       -1 0.13487269E-02 0.79809380E+02</pdfrwt>
<totfact> 0.21475076E+05</totfact>
</mgrwt>
</event>
<event>
 8    1  0.1673046E-013  0.8081090E+02  0.7818608E-02  0.1326766E+00
         -1   -1    0    0    0  501 -0.00000000000E+00  0.00000000000E+00  0.23050237616E+01  0.23050292717E+01  0.50400000000E-02 0.  1.
          2   -1    0    0  501    0  0.00000000000E+00 -0.00000000000E+00 -0.70827836498E+03  0.70827836499E+03  0.25500000000E-02 0. -1.
         24    2    1    2    0    0  0.00000000000E+00 -0.17763568394E-14 -0.70597334122E+03  0.71058339426E+03  0.80810900761E+02 0.  0.
         66    2    3    3    0    0 -0.17159888480E+02  0.13431199113E+02 -0.65213574161E+03  0.65250278494E+03  0.19999987742E+01 0.  0.
        -13    1    3    3    0    0  0.17159888480E+02 -0.13431199113E+02 -0.53837599615E+02  0.58080609317E+02  0.10566000000E+00 0.  1.
         13    1    4    4    0    0 -0.11500296992E+02  0.90102958107E+01 -0.43632639337E+03  0.43657092777E+03  0.10566000000E+00 0. -1.
        -13    1    4    4    0    0 -0.12843259544E+01  0.46887809257E+00 -0.44111472126E+02  0.44132782339E+02  0.10566000000E+00 0.  1.
        -14    1    4    4    0    0 -0.43752655332E+01  0.39520252096E+01 -0.17169787611E+03  0.17179907483E+03  0.00000000000E+00 0.  1.
<mgrwt>
<rscale>  0 0.80810901E+02</rscale>
<asrwt>0</asrwt>
<pdfrwt beam="1">  1        2 0.10896573E+00 0.80810901E+02</pdfrwt>
<pdfrwt beam="2">  1       -1 0.35462003E-03 0.80810901E+02</pdfrwt>
<totfact> 0.32672667E+05</totfact>
</mgrwt>
</event>
<event>
 8    1  0.1673046E-013  0.7687388E+02  0.7818608E-02  0.1338165E+00
          2   -1    0    0  501    0  0.00000000000E+00  0.00000000000E+00  0.36878464164E+03  0.36878464165E+03  0.25500000000E-02 0. -1.
         -1   -1    0    0    0  501 -0.00000000000E+00 -0.00000000000E+00 -0.40061259279E+01  0.40061290982E+01  0.50400000000E-02 0.  1.
         24    2    1    2    0    0  0.00000000000E+00 -0.44408920985E-15  0.36477851571E+03  0.37279077075E+03  0.76873878717E+02 0.  0.
         66    2    3    3    0    0  0.37496836479E+02  0.28131855445E+01  0.14449289373E+03  0.14931886385E+03  0.20000005971E+01 0.  0.
        -13    1    3    3    0    0 -0.37496836479E+02 -0.28131855445E+01  0.22028562198E+03  0.22347190690E+03  0.10566000000E+00 0.  1.
         13    1    4    4    0    0  0.69077175839E+01  0.52292492041E+00  0.26917113481E+02  0.27794463025E+02  0.10566000000E+00 0. -1.
        -13    1    4    4    0    0  0.24891486519E+02  0.14150537231E+01  0.97526210317E+02  0.10066261144E+03  0.10566000000E+00 0.  1.
        -14    1    4    4    0    0  0.56976323752E+01  0.87520690102E+00  0.20049569934E+02  0.20861789385E+02  0.00000000000E+00 0.  1.
<mgrwt>
<rscale>  0 0.76873879E+02</rscale>
<asrwt>0</asrwt>
<pdfrwt beam="1">  1        2 0.56736123E-01 0.76873879E+02</pdfrwt>
<pdfrwt beam="2">  1       -1 0.61632705E-03 0.76873879E+02</pdfrwt>
<totfact> 0.30464878E+05</totfact>
</mgrwt>
</event>
<event>
 8    1  0.1673046E-013  0.7933100E+02  0.7818608E-02  0.1330961E+00
         -1   -1    0    0    0  501 -0.00000000000E+00  0.00000000000E+00  0.84832601725E+01  0.84832616696E+01  0.50400000000E-02 0.  1.
          2   -1    0    0  501    0  0.00000000000E+00 -0.00000000000E+00 -0.18546547578E+03  0.18546547580E+03  0.25500000000E-02 0. -1.
         24    2    1    2    0    0 -0.35527136788E-14 -0.35527136788E-14 -0.17698221561E+03  0.19394873747E+03  0.79331003546E+02 0.  0.
         66    2    3    3    0    0 -0.18108587043E+02 -0.31707260597E+02 -0.50824595458E+02  0.62613184074E+02  0.20000042975E+01 0.  0.
        -13    1    3    3    0    0  0.18108587043E+02  0.31707260597E+02 -0.12615762015E+03  0.13133555339E+03  0.10566000000E+00 0.  1.
         13    1    4    4    0    0 -0.21247158512E+01 -0.38197474783E+01 -0.66946686926E+01  0.79959140306E+01  0.10566000000E+00 0. -1.
        -13    1    4    4    0    0 -0.31069675227E+01 -0.55296179648E+01 -0.97690389789E+01  0.11647970151E+02  0.10566000000E+00 0.  1.
        -14    1    4    4    0    0 -0.12876903669E+02 -0.22357895153E+02 -0.34360887786E+02  0.42969299893E+02  0.00000000000E+00 0.  1.
<mgrwt>
<rscale>  0 0.79331004E+02</rscale>
<asrwt>0</asrwt>
<pdfrwt beam="1">  1        2 0.28533147E-01 0.79331004E+02</pdfrwt>
<pdfrwt beam="2">  1       -1 0.13051172E-02 0.79331004E+02</pdfrwt>
<totfact> 0.21974360E+05</totfact>
</mgrwt>
</event>
<event>
 8    1  0.1673046E-013  0.8009215E+02  0.7818608E-02  0.1328790E+00
          2   -1    0    0  501    0  0.00000000000E+00  0.00000000000E+00  0.30296510558E+02  0.30296510666E+02  0.25500000000E-02 0. -1.
         -1   -1    0    0    0  501 -0.00000000000E+00 -0.00000000000E+00 -0.52933097644E+02  0.52933097884E+02  0.50400000000E-02 0.  1.
         24    2    1    2    0    0  0.17763568394E-14  0.00000000000E+00 -0.22636587086E+02  0.83229608550E+02  0.80092151079E+02 0.  0.
         66    2    3    3    0    0  0.14921834559E+02  0.22972065621E+02  0.18994780874E+02  0.33394290674E+02  0.20000009128E+01 0.  0.
        -13    1    3    3    0    0 -0.14921834559E+02 -0.22972065621E+02 -0.41631367960E+02  0.49835317876E+02  0.10566000000E+00 0.  1.
         13    1    4    4    0    0  0.44641653111E+01  0.74265892360E+01  0.56135062279E+01  0.10324999555E+02  0.10566000000E+00 0. -1.
        -13    1    4    4    0    0  0.36960488682E+01  0.66038414047E+01  0.58149676056E+01  0.95444492153E+01  0.10566000000E+00 0.  1.
        -14    1    4    4    0    0  0.67616203802E+01  0.89416349807E+01  0.75663070403E+01  0.13524841904E+02  0.00000000000E+00 0.  1.
<mgrwt>
<rscale>  0 0.80092151E+02</rscale>
<asrwt>0</asrwt>
<pdfrwt beam="1">  1        2 0.46610016E-02 0.80092151E+02</pdfrwt>
<pdfrwt beam="2">  1       -1 0.81435535E-02 0.80092151E+02</pdfrwt>
<totfact> 0.13437967E+05</totfact>
</mgrwt>
</event>
<event>
 8    1  0.1673046E-013  0.8043104E+02  0.7818608E-02  0.1327833E+00
         -1   -1    0    0    0  501 -0.00000000000E+00  0.00000000000E+00  0.89034142579E+02  0.89034142722E+02  0.50400000000E-02 0.  1.
          2   -1    0    0  501    0  0.00000000000E+00 -0.00000000000E+00 -0.18164807652E+02  0.18164807831E+02  0.25500000000E-02 0. -1.
         24    2    1    2    0    0  0.35527136788E-14  0.17763568394E-14  0.70869334928E+02  0.10719895055E+03  0.80431041063E+02 0.  0.
         66    2    3    3    0    0  0.17033340910E+02  0.12421572564E+02 -0.10149067912E+02  0.23482626396E+02  0.19999988629E+01 0.  0.
        -13    1    3    3    0    0 -0.17033340910E+02 -0.12421572564E+02  0.81018402840E+02  0.83716324157E+02  0.10566000000E+00 0.  1.
         13    1    4    4    0    0  0.13066462471E+02  0.98362936252E+01 -0.72393228040E+01  0.17885862364E+02  0.10566000000E+00 0. -1.
        -13    1    4    4    0    0  0.34231694704E+00  0.26600962033E+00 -0.99065615189E-01  0.45707771993E+00  0.10566000000E+00 0.  1.
         14    1    4    4    0    0  0.36245614913E+01  0.23192693188E+01 -0.28106794931E+01  0.51396863125E+01  0.00000000000E+00 0. -1.
<mgrwt>
<rscale>  0 0.80431041E+02</rscale>
<asrwt>0</asrwt>
<pdfrwt beam="1">  1        2 0.27945858E-02 0.80431041E+02</pdfrwt>
<pdfrwt beam="2">  1       -1 0.13697560E-01 0.80431041E+02</pdfrwt>
<totfact> 0.11985885E+05</totfact>
</mgrwt>
</event>
<event>
 8    1  0.1673046E-013  0.8011111E+02  0.7818608E-02  0.1328736E+00
         -1   -1    0    0    0  501 -0.00000000000E+00  0.00000000000E+00  0.16708251181E+02  0.16708251941E+02  0.50400000000E-02 0.  1.
          2   -1    0    0  501    0  0.00000000000E+00 -0.00000000000E+00 -0.96027250752E+02  0.96027250786E+02  0.25500000000E-02 0. -1.
         24    2    1    2    0    0 -0.17763568394E-14  0.00000000000E+00 -0.79318999572E+02  0.11273550273E+03  0.80111109604E+02 0.  0.
         66    2    3    3    0    0 -0.15245984797E+02  0.36582467382E+02 -0.31757814282E+02  0.50825935758E+02  0.20000013644E+01 0.  0.
        -13    1    3    3    0    0  0.15245984797E+02 -0.36582467382E+02 -0.47561185289E+02  0.61909566969E+02  0.10566000000E+00 0.  1.
         13    1    4    4    0    0 -0.37693019242E+01  0.92575618701E+01 -0.83098663861E+01  0.12999043510E+02  0.10566000000E+00 0. -1.
        -13    1    4    4    0    0 -0.73786078614E+01  0.19489402647E+02 -0.16348953372E+02  0.26487357549E+02  0.10566000000E+00 0.  1.
         14    1    4    4    0    0 -0.40980750112E+01  0.78355028651E+01 -0.70989945239E+01  0.11339534699E+02  0.00000000000E+00 0. -1.
<mgrwt>
<rscale>  0 0.80111110E+02</rscale>
<asrwt>0</asrwt>
<pdfrwt beam="1">  1        2 0.14773423E-01 0.80111110E+02</pdfrwt>
<pdfrwt beam="2">  1       -1 0.25705003E-02 0.80111110E+02</pdfrwt>
<totfact> 0.17462248E+05</totfact>
</mgrwt>
</event>
<event>
 8    1  0.1673046E-013  0.7970662E+02  0.7818608E-02  0.1329886E+00
          2   -1    0    0  501    0  0.00000000000E+00  0.00000000000E+00  0.16034263470E+03  0.16034263472E+03  0.25500000000E-02 0. -1.
         -1   -1    0    0    0  501 -0.00000000000E+00 -0.00000000000E+00 -0.99055770362E+01  0.99055783184E+01  0.50400000000E-02 0.  1.
         24    2    1    2    0    0  0.00000000000E+00  0.00000000000E+00  0.15043705766E+03  0.17024821303E+03  0.79706622837E+02 0.  0.
         66    2    3    3    0    0 -0.30462055415E+02  0.65291166456E+01  0.12826602998E+03  0.13201038076E+03  0.19999997377E+01 0.  0.
        -13    1    3    3    0    0  0.30462055415E+02 -0.65291166456E+01  0.22171027684E+02  0.38237832272E+02  0.10566000000E+00 0.  1.
         13    1    4    4    0    0 -0.17646581946E+02  0.39975805015E+01  0.74983663445E+02  0.77135876555E+02  0.10566000000E+00 0. -1.
        -13    1    4    4    0    0 -0.80869840771E+01  0.20645925415E+01  0.35522579850E+02  0.36490090395E+02  0.10566000000E+00 0.  1.
         14    1    4    4    0    0 -0.47284893916E+01  0.46694360259E+00  0.17759786680E+02  0.18384413811E+02  0.00000000000E+00 0. -1.
<mgrwt>
<rscale>  0 0.79706623E+02</rscale>
<asrwt>0</asrwt>
<pdfrwt beam="1">  1        2 0.24668097E-01 0.79706623E+02</pdfrwt>
<pdfrwt beam="2">  1       -1 0.15239351E-02 0.79706623E+02</pdfrwt>
<totfact> 0.20669454E+05</totfact>
</mgrwt>
</event>
<event>
 8    1  0.1673046E-013  0.7960120E+02  0.7818608E-02  0.1330187E+00
         -1   -1    0    0    0  501 -0.00000000000E+00  0.00000000000E+00  0.32752616209E+01  0.32752654987E+01  0.50400000000E-02 0.  1.
          2   -1    0    0  501    0  0.00000000000E+00 -0.00000000000E+00 -0.48365204496E+03  0.48365204497E+03  0.25500000000E-02 0. -1.
         24    2    1    2    0    0 -0.17763568394E-14  0.00000000000E+00 -0.48037678334E+03  0.48692731046E+03  0.79601204173E+02 0.  0.
         66    2    3    3    0    0 -0.13338450936E+02 -0.26915064406E+02 -0.39982408915E+03  0.40095590434E+03  0.19999995916E+01 0.  0.
        -13    1    3    3    0    0  0.13338450936E+02  0.26915064406E+02 -0.80552694192E+02  0.85971406124E+02  0.10566000000E+00 0.  1.
         13    1    4    4    0    0 -0.32212852950E+01 -0.63979786184E+01 -0.95983558835E+02  0.96250535271E+02  0.10566000000E+00 0. -1.
        -13    1    4    4    0    0 -0.48769728444E+01 -0.10844652834E+02 -0.14784893184E+03  0.14832636033E+03  0.10566000000E+00 0.  1.
        -14    1    4    4    0    0 -0.52401927963E+01 -0.96724329542E+01 -0.15599159847E+03  0.15637900874E+03  0.00000000000E+00 0.  1.
<mgrwt>
<rscale>  0 0.79601204E+02</rscale>
<asrwt>0</asrwt>
<pdfrwt beam="1">  1        2 0.74407950E-01 0.79601204E+02</pdfrwt>
<pdfrwt beam="2">  1       -1 0.50388709E-03 0.79601204E+02</pdfrwt>
<totfact> 0.30522503E+05</totfact>
</mgrwt>
</event>
<event>
 8    1  0.1673046E-013  0.8924759E+02  0.7818608E-02  0.1304684E+00
          2   -1    0    0  501    0  0.00000000000E+00  0.00000000000E+00  0.53018388057E+02  0.53018388118E+02  0.25500000000E-02 0. -1.
         -1   -1    0    0    0  501 -0.00000000000E+00 -0.00000000000E+00 -0.37558346234E+02  0.37558346572E+02  0.50400000000E-02 0.  1.
         24    2    1    2    0    0  0.00000000000E+00  0.00000000000E+00  0.15460041823E+02  0.90576734690E+02  0.89247588057E+02 0.  0.
         66    2    3    3    0    0 -0.31062980804E+02 -0.12731451080E+02  0.37535805438E+02  0.50397770963E+02  0.20000012908E+01 0.  0.
        -13    1    3    3    0    0  0.31062980804E+02  0.12731451080E+02 -0.22075763615E+02  0.40178963727E+02  0.10566000000E+00 0.  1.
         13    1    4    4    0    0 -0.20325196253E+02 -0.85449079399E+01  0.25527185160E+02  0.33730956118E+02  0.10566000000E+00 0. -1.
        -13    1    4    4    0    0 -0.13594975041E+01 -0.82914533175E+00  0.16073319114E+01  0.22650376054E+01  0.10566000000E+00 0.  1.
        -14    1    4    4    0    0 -0.93782870460E+01 -0.33573978080E+01  0.10401288367E+02  0.14401777239E+02  0.00000000000E+00 0.  1.
<mgrwt>
<rscale>  0 0.89247588E+02</rscale>
<asrwt>0</asrwt>
<pdfrwt beam="1">  1        2 0.81566751E-02 0.89247588E+02</pdfrwt>
<pdfrwt beam="2">  1       -1 0.57782072E-02 0.89247588E+02</pdfrwt>
<totfact> 0.11198610E+05</totfact>
</mgrwt>
</event>
<event>
 8    1  0.1673046E-013  0.7982130E+02  0.7818608E-02  0.1329559E+00
         -1   -1    0    0    0  501 -0.00000000000E+00  0.00000000000E+00  0.21659254512E+01  0.21659313151E+01  0.50400000000E-02 0.  1.
          2   -1    0    0  501    0  0.00000000000E+00 -0.00000000000E+00 -0.73541672386E+03  0.73541672387E+03  0.25500000000E-02 0. -1.
         24    2    1    2    0    0  0.00000000000E+00  0.35527136788E-14 -0.73325079841E+03  0.73758265518E+03  0.79821299504E+02 0.  0.
         66    2    3    3    0    0  0.68424439102E+00  0.27442052523E+02 -0.63424038132E+03  0.63483729863E+03  0.19999983957E+01 0.  0.
        -13    1    3    3    0    0 -0.68424439102E+00 -0.27442052523E+02 -0.99010417090E+02  0.10274535655E+03  0.10566000000E+00 0.  1.
         13    1    4    4    0    0  0.95996316085E+00  0.23930231365E+02 -0.55370847240E+03  0.55422618224E+03  0.10566000000E+00 0. -1.
        -13    1    4    4    0    0  0.78876231458E-01  0.41253799096E+00 -0.12968398463E+02  0.12975628377E+02  0.10566000000E+00 0.  1.
        -14    1    4    4    0    0 -0.35459500129E+00  0.30992831669E+01 -0.67563510457E+02  0.67635488015E+02  0.00000000000E+00 0.  1.
<mgrwt>
<rscale>  0 0.79821300E+02</rscale>
<asrwt>0</asrwt>
<pdfrwt beam="1">  1        2 0.11314084E+00 0.79821300E+02</pdfrwt>
<pdfrwt beam="2">  1       -1 0.33322034E-03 0.79821300E+02</pdfrwt>
<totfact> 0.34012997E+05</totfact>
</mgrwt>
</event>
<event>
 8    1  0.1673046E-013  0.7311154E+02  0.7818608E-02  0.1349821E+00
         -1   -1    0    0    0  501 -0.00000000000E+00  0.00000000000E+00  0.70203547085E+01  0.70203565176E+01  0.50400000000E-02 0.  1.
          2   -1    0    0  501    0  0.00000000000E+00 -0.00000000000E+00 -0.19034992252E+03  0.19034992254E+03  0.25500000000E-02 0. -1.
         24    2    1    2    0    0  0.00000000000E+00  0.35527136788E-14 -0.18332956781E+03  0.19737027905E+03  0.73111535479E+02 0.  0.
         66    2    3    3    0    0 -0.59857979612E+01  0.31465602980E+02 -0.13914175270E+03  0.14279475234E+03  0.20000006299E+01 0.  0.
        -13    1    3    3    0    0  0.59857979612E+01 -0.31465602980E+02 -0.44187815111E+02  0.54575526717E+02  0.10566000000E+00 0.  1.
         13    1    4    4    0    0 -0.15818322794E+01  0.11251324084E+02 -0.46956524717E+02  0.48311705254E+02  0.10566000000E+00 0. -1.
        -13    1    4    4    0    0 -0.30206510321E+01  0.11881052342E+02 -0.53676537193E+02  0.55058746321E+02  0.10566000000E+00 0.  1.
         14    1    4    4    0    0 -0.13833146497E+01  0.83332265538E+01 -0.38508690790E+02  0.39424300762E+02  0.00000000000E+00 0. -1.
<mgrwt>
<rscale>  0 0.73111535E+02</rscale>
<asrwt>0</asrwt>
<pdfrwt beam="1">  1        2 0.29284600E-01 0.73111535E+02</pdfrwt>
<pdfrwt beam="2">  1       -1 0.10800549E-02 0.73111535E+02</pdfrwt>
<totfact> 0.27471675E+05</totfact>
</mgrwt>
</event>
<event>
 8    1  0.1673046E-013  0.7962185E+02  0.7818608E-02  0.1330128E+00
          2   -1    0    0  501    0  0.00000000000E+00  0.00000000000E+00  0.74861545431E+03  0.74861545432E+03  0.25500000000E-02 0. -1.
         -1   -1    0    0    0  501 -0.00000000000E+00 -0.00000000000E+00 -0.21171184688E+01  0.21171244679E+01  0.50400000000E-02 0.  1.
         24    2    1    2    0    0  0.17763568394E-14  0.44408920985E-15  0.74649833585E+03  0.75073257879E+03  0.79621852726E+02 0.  0.
         66    2    3    3    0    0 -0.15916476066E+02 -0.28536479727E+01  0.71623178065E+03  0.71641708601E+03  0.19999989004E+01 0.  0.
        -13    1    3    3    0    0  0.15916476066E+02  0.28536479727E+01  0.30266555193E+02  0.34315492775E+02  0.10566000000E+00 0.  1.
         13    1    4    4    0    0 -0.38665887913E+01 -0.12897109151E+01  0.17641188794E+03  0.17645900157E+03  0.10566000000E+00 0. -1.
        -13    1    4    4    0    0 -0.97760912346E+01 -0.97002430987E+00  0.41710730306E+03  0.41722299353E+03  0.10566000000E+00 0.  1.
         14    1    4    4    0    0 -0.22737960397E+01 -0.59391274775E+00  0.12271258966E+03  0.12273509091E+03  0.00000000000E+00 0. -1.
<mgrwt>
<rscale>  0 0.79621853E+02</rscale>
<asrwt>0</asrwt>
<pdfrwt beam="1">  1        2 0.11517176E+00 0.79621853E+02</pdfrwt>
<pdfrwt beam="2">  1       -1 0.32571056E-03 0.79621853E+02</pdfrwt>
<totfact> 0.34360464E+05</totfact>
</mgrwt>
</event>
<event>
 8    1  0.1673046E-013  0.7631349E+02  0.7818608E-02  0.1339851E+00
          2   -1    0    0  501    0  0.00000000000E+00  0.00000000000E+00  0.16011527206E+03  0.16011527208E+03  0.25500000000E-02 0. -1.
         -1   -1    0    0    0  501 -0.00000000000E+00 -0.00000000000E+00 -0.90930562477E+01  0.90930576444E+01  0.50400000000E-02 0.  1.
         24    2    1    2    0    0  0.17763568394E-14  0.00000000000E+00  0.15102221581E+03  0.16920832972E+03  0.76313492773E+02 0.  0.
         66    2    3    3    0    0  0.12841593080E+02  0.97406199751E+01  0.15218406437E+03  0.15304827878E+03  0.19999998415E+01 0.  0.
        -13    1    3    3    0    0 -0.12841593080E+02 -0.97406199751E+01 -0.11618485591E+01  0.16160050942E+02  0.10566000000E+00 0.  1.
         13    1    4    4    0    0  0.83085576885E+01  0.63359405605E+01  0.10709269879E+03  0.10760127123E+03  0.10566000000E+00 0. -1.
        -13    1    4    4    0    0  0.18242413986E+01  0.13563184419E+01  0.17408871430E+02  0.17556976530E+02  0.10566000000E+00 0.  1.
         14    1    4    4    0    0  0.27087939934E+01  0.20483609728E+01  0.27682494154E+02  0.27890031017E+02  0.00000000000E+00 0. -1.
<mgrwt>
<rscale>  0 0.76313493E+02</rscale>
<asrwt>0</asrwt>
<pdfrwt beam="1">  1        2 0.24633116E-01 0.76313493E+02</pdfrwt>
<pdfrwt beam="2">  1       -1 0.13989320E-02 0.76313493E+02</pdfrwt>
<totfact> 0.23176962E+05</totfact>
</mgrwt>
</event>
<event>
 8    1  0.1673046E-013  0.7968517E+02  0.7818608E-02  0.1329947E+00
          2   -1    0    0  501    0  0.00000000000E+00  0.00000000000E+00  0.39510242746E+03  0.39510242747E+03  0.25500000000E-02 0. -1.
         -1   -1    0    0    0  501 -0.00000000000E+00 -0.00000000000E+00 -0.40177711487E+01  0.40177743099E+01  0.50400000000E-02 0.  1.
         24    2    1    2    0    0  0.35527136788E-14  0.00000000000E+00  0.39108465631E+03  0.39912020178E+03  0.79685174690E+02 0.  0.
         66    2    3    3    0    0  0.28469364694E+02  0.18572099237E+02  0.29952796253E+03  0.30145717430E+03  0.20000006870E+01 0.  0.
        -13    1    3    3    0    0 -0.28469364694E+02 -0.18572099237E+02  0.91556693781E+02  0.97663027479E+02  0.10566000000E+00 0.  1.
         13    1    4    4    0    0  0.81493286392E+01  0.51866662590E+01  0.81798053876E+02  0.82366533532E+02  0.10566000000E+00 0. -1.
        -13    1    4    4    0    0  0.19194096902E+02  0.13011791833E+02  0.20803826644E+03  0.20932666230E+03  0.10566000000E+00 0.  1.
        -14    1    4    4    0    0  0.11259391535E+01  0.37364114513E+00  0.96916422178E+01  0.97639784699E+01  0.00000000000E+00 0.  1.
<mgrwt>
<rscale>  0 0.79685175E+02</rscale>
<asrwt>0</asrwt>
<pdfrwt beam="1">  1        2 0.60784991E-01 0.79685175E+02</pdfrwt>
<pdfrwt beam="2">  1       -1 0.61811886E-03 0.79685175E+02</pdfrwt>
<totfact> 0.28423259E+05</totfact>
</mgrwt>
</event>
<event>
 8    1  0.1673046E-013  0.8786522E+02  0.7818608E-02  0.1308105E+00
          2   -1    0    0  501    0  0.00000000000E+00  0.00000000000E+00  0.91566314857E+03  0.91566314858E+03  0.25500000000E-02 0. -1.
         -1   -1    0    0    0  501 -0.00000000000E+00 -0.00000000000E+00 -0.21078401498E+01  0.21078461752E+01  0.50400000000E-02 0.  1.
         24    2    1    2    0    0  0.00000000000E+00  0.00000000000E+00  0.91355530842E+03  0.91777099475E+03  0.87865222127E+02 0.  0.
         66    2    3    3    0    0 -0.15899285201E+02  0.31776485722E+02  0.72647929857E+03  0.72735046817E+03  0.19999975888E+01 0.  0.
        -13    1    3    3    0    0  0.15899285201E+02 -0.31776485722E+02  0.18707600986E+03  0.19042052658E+03  0.10566000000E+00 0.  1.
         13    1    4    4    0    0 -0.52538680122E+01  0.98901566953E+01  0.22786645270E+03  0.22814151257E+03  0.10566000000E+00 0. -1.
        -13    1    4    4    0    0 -0.30934015672E+01  0.49450080789E+01  0.11442075624E+03  0.11456938012E+03  0.10566000000E+00 0.  1.
        -14    1    4    4    0    0 -0.75520156219E+01  0.16941320948E+02  0.38419208963E+03  0.38463957549E+03  0.00000000000E+00 0.  1.
<mgrwt>
<rscale>  0 0.87865222E+02</rscale>
<asrwt>0</asrwt>
<pdfrwt beam="1">  1        2 0.14087083E+00 0.87865222E+02</pdfrwt>
<pdfrwt beam="2">  1       -1 0.32428454E-03 0.87865222E+02</pdfrwt>
<totfact> 0.27412092E+05</totfact>
</mgrwt>
</event>
<event>
 8    1  0.1673046E-013  0.7896349E+02  0.7818608E-02  0.1332019E+00
         -1   -1    0    0    0  501 -0.00000000000E+00  0.00000000000E+00  0.81670911266E+02  0.81670911422E+02  0.50400000000E-02 0.  1.
          2   -1    0    0  501    0  0.00000000000E+00 -0.00000000000E+00 -0.19086457381E+02  0.19086457551E+02  0.25500000000E-02 0. -1.
         24    2    1    2    0    0 -0.35527136788E-14  0.88817841970E-15  0.62584453885E+02  0.10075736897E+03  0.78963494947E+02 0.  0.
         66    2    3    3    0    0  0.19610524529E+02 -0.41311014696E+01 -0.12056057149E+02  0.23473116222E+02  0.19999998843E+01 0.  0.
        -13    1    3    3    0    0 -0.19610524529E+02  0.41311014696E+01  0.74640511034E+02  0.77284252750E+02  0.10566000000E+00 0.  1.
         13    1    4    4    0    0  0.10179744284E+02 -0.16511497633E+01 -0.60468807419E+01  0.11955309280E+02  0.10566000000E+00 0. -1.
        -13    1    4    4    0    0  0.16919571161E+00  0.79702439688E-01 -0.16989512463E+00  0.27387598780E+00  0.10566000000E+00 0. -1.
        -14    1    4    4    0    0  0.92615845335E+01 -0.25596541460E+01 -0.58392812828E+01  0.11243930955E+02  0.00000000000E+00 0.  1.
<mgrwt>
<rscale>  0 0.78963495E+02</rscale>
<asrwt>0</asrwt>
<pdfrwt beam="1">  1        2 0.29363781E-02 0.78963495E+02</pdfrwt>
<pdfrwt beam="2">  1       -1 0.12564756E-01 0.78963495E+02</pdfrwt>
<totfact> 0.12768622E+05</totfact>
</mgrwt>
</event>
<event>
 8    1  0.1673046E-013  0.7321304E+02  0.7818608E-02  0.1349496E+00
          2   -1    0    0  501    0  0.00000000000E+00  0.00000000000E+00  0.33434557695E+03  0.33434557696E+03  0.25500000000E-02 0. -1.
         -1   -1    0    0    0  501 -0.00000000000E+00 -0.00000000000E+00 -0.40079397149E+01  0.40079428839E+01  0.50400000000E-02 0.  1.
         24    2    1    2    0    0 -0.35527136788E-14 -0.35527136788E-14  0.33033763724E+03  0.33835351985E+03  0.73213044033E+02 0.  0.
         66    2    3    3    0    0  0.22643250301E+02  0.11910783267E+02  0.28611075289E+03  0.28725937140E+03  0.19999991181E+01 0.  0.
        -13    1    3    3    0    0 -0.22643250301E+02 -0.11910783267E+02  0.44226884353E+02  0.51094148450E+02  0.10566000000E+00 0.  1.
         13    1    4    4    0    0  0.14586358173E+02  0.74861305736E+01  0.18204184834E+03  0.18277869052E+03  0.10566000000E+00 0. -1.
        -13    1    4    4    0    0  0.40840575592E+01  0.24846027147E+01  0.47916368303E+02  0.48154359016E+02  0.10566000000E+00 0.  1.
         14    1    4    4    0    0  0.39728345686E+01  0.19400499789E+01  0.56152536243E+02  0.56326321866E+02  0.00000000000E+00 0. -1.
<mgrwt>
<rscale>  0 0.73213044E+02</rscale>
<asrwt>0</asrwt>
<pdfrwt beam="1">  1        2 0.51437804E-01 0.73213044E+02</pdfrwt>
<pdfrwt beam="2">  1       -1 0.61660608E-03 0.73213044E+02</pdfrwt>
<totfact> 0.33399910E+05</totfact>
</mgrwt>
</event>
<event>
 8    1  0.1673046E-013  0.8247351E+02  0.7818608E-02  0.1322175E+00
          2   -1    0    0  501    0  0.00000000000E+00  0.00000000000E+00  0.32144512560E+02  0.32144512661E+02  0.25500000000E-02 0. -1.
         -1   -1    0    0    0  501 -0.00000000000E+00 -0.00000000000E+00 -0.52900791413E+02  0.52900791653E+02  0.50400000000E-02 0.  1.
         24    2    1    2    0    0  0.88817841970E-15  0.00000000000E+00 -0.20756278852E+02  0.85045304314E+02  0.82473514986E+02 0.  0.
         66    2    3    3    0    0 -0.71313375972E+01  0.37355925332E+02  0.59899781574E+01  0.38551277155E+02  0.19999996545E+01 0.  0.
        -13    1    3    3    0    0  0.71313375972E+01 -0.37355925332E+02 -0.26746257010E+02  0.46494027159E+02  0.10566000000E+00 0.  1.
         13    1    4    4    0    0 -0.37723566314E+01  0.21870465762E+02  0.39592161325E+01  0.22544056947E+02  0.10566000000E+00 0. -1.
        -13    1    4    4    0    0 -0.28295658992E+01  0.14005848147E+02  0.20507804292E+01  0.14435618791E+02  0.10566000000E+00 0.  1.
        -14    1    4    4    0    0 -0.52941506658E+00  0.14796114233E+01 -0.20018404254E-01  0.15716014168E+01  0.00000000000E+00 0.  1.
<mgrwt>
<rscale>  0 0.82473515E+02</rscale>
<asrwt>0</asrwt>
<pdfrwt beam="1">  1        2 0.49453096E-02 0.82473515E+02</pdfrwt>
<pdfrwt beam="2">  1       -1 0.81385833E-02 0.82473515E+02</pdfrwt>
<totfact> 0.12525511E+05</totfact>
</mgrwt>
</event>
<event>
 8    1  0.1673046E-013  0.8043435E+02  0.7818608E-02  0.1327823E+00
          2   -1    0    0  501    0  0.00000000000E+00  0.00000000000E+00  0.40664966826E+03  0.40664966827E+03  0.25500000000E-02 0. -1.
         -1   -1    0    0    0  501 -0.00000000000E+00 -0.00000000000E+00 -0.39774297530E+01  0.39774329462E+01  0.50400000000E-02 0.  1.
         24    2    1    2    0    0  0.00000000000E+00  0.00000000000E+00  0.40267223851E+03  0.41062710122E+03  0.80434349549E+02 0.  0.
         66    2    3    3    0    0  0.20305605174E+02 -0.11379912224E+02  0.36873351620E+03  0.36947290289E+03  0.19999998057E+01 0.  0.
        -13    1    3    3    0    0 -0.20305605174E+02  0.11379912224E+02  0.33938722316E+02  0.41154198330E+02  0.10566000000E+00 0.  1.
         13    1    4    4    0    0  0.70524492316E+01 -0.39708300945E+01  0.11920383313E+03  0.11947832242E+03  0.10566000000E+00 0.  1.
        -13    1    4    4    0    0  0.40981293705E+01 -0.22232005913E+01  0.86650662607E+02  0.86776066859E+02  0.10566000000E+00 0. -1.
         14    1    4    4    0    0  0.91550265723E+01 -0.51858815380E+01  0.16287902046E+03  0.16321851361E+03  0.00000000000E+00 0. -1.
<mgrwt>
<rscale>  0 0.80434350E+02</rscale>
<asrwt>0</asrwt>
<pdfrwt beam="1">  1        2 0.62561466E-01 0.80434350E+02</pdfrwt>
<pdfrwt beam="2">  1       -1 0.61191273E-03 0.80434350E+02</pdfrwt>
<totfact> 0.28017393E+05</totfact>
</mgrwt>
</event>
<event>
 8    1  0.1673046E-013  0.7795097E+02  0.7818608E-02  0.1334969E+00
          2   -1    0    0  501    0  0.00000000000E+00  0.00000000000E+00  0.25413661771E+03  0.25413661772E+03  0.25500000000E-02 0. -1.
         -1   -1    0    0    0  501 -0.00000000000E+00 -0.00000000000E+00 -0.59774477109E+01  0.59774498357E+01  0.50400000000E-02 0.  1.
         24    2    1    2    0    0  0.00000000000E+00 -0.17763568394E-14  0.24815917000E+03  0.26011406756E+03  0.77950974896E+02 0.  0.
         66    2    3    3    0    0 -0.35418559973E+02 -0.10062233064E+02  0.81773198939E+02  0.89702725640E+02  0.19999994291E+01 0.  0.
        -13    1    3    3    0    0  0.35418559973E+02  0.10062233064E+02  0.16638597106E+03  0.17041134192E+03  0.10566000000E+00 0.  1.
         13    1    4    4    0    0 -0.11305040371E+02 -0.27367993060E+01  0.26987941626E+02  0.29387993560E+02  0.10566000000E+00 0. -1.
        -13    1    4    4    0    0 -0.52958680087E+01 -0.13012483216E+01  0.12726545563E+02  0.13846139938E+02  0.10566000000E+00 0. -1.
         14    1    4    4    0    0 -0.18817651594E+02 -0.60241854362E+01  0.42058711749E+02  0.46468592142E+02  0.00000000000E+00 0. -1.
<mgrwt>
<rscale>  0 0.77950975E+02</rscale>
<asrwt>0</asrwt>
<pdfrwt beam="1">  1        2 0.39097947E-01 0.77950975E+02</pdfrwt>
<pdfrwt beam="2">  1       -1 0.91960738E-03 0.77950975E+02</pdfrwt>
<totfact> 0.25701235E+05</totfact>
</mgrwt>
</event>
<event>
 8    1  0.1673046E-013  0.7888413E+02  0.7818608E-02  0.1332248E+00
          2   -1    0    0  501    0  0.00000000000E+00  0.00000000000E+00  0.26803048727E+03  0.26803048728E+03  0.25500000000E-02 0. -1.
         -1   -1    0    0    0  501 -0.00000000000E+00 -0.00000000000E+00 -0.58041011330E+01  0.58041033213E+01  0.50400000000E-02 0.  1.
         24    2    1    2    0    0  0.71054273576E-14 -0.22204460493E-15  0.26222638614E+03  0.27383459061E+03  0.78884126569E+02 0.  0.
         66    2    3    3    0    0 -0.25441601501E+02  0.15112259394E+01  0.23557546824E+03  0.23695856208E+03  0.20000041701E+01 0.  0.
        -13    1    3    3    0    0  0.25441601501E+02 -0.15112259394E+01  0.26650917901E+02  0.36876028525E+02  0.10566000000E+00 0.  1.
         13    1    4    4    0    0 -0.12792307232E+02  0.10280874023E+01  0.11412153935E+03  0.11484092039E+03  0.10566000000E+00 0. -1.
        -13    1    4    4    0    0 -0.22724651458E+00  0.74245784836E-01  0.16266219232E+01  0.16474878851E+01  0.10566000000E+00 0. -1.
         14    1    4    4    0    0 -0.12422047755E+02  0.40889275231E+00  0.11982730697E+03  0.12047015381E+03  0.00000000000E+00 0. -1.
<mgrwt>
<rscale>  0 0.78884127E+02</rscale>
<asrwt>0</asrwt>
<pdfrwt beam="1">  1        2 0.41235460E-01 0.78884127E+02</pdfrwt>
<pdfrwt beam="2">  1       -1 0.89293880E-03 0.78884127E+02</pdfrwt>
<totfact> 0.25393922E+05</totfact>
</mgrwt>
</event>
<event>
 8    1  0.1673046E-013  0.8109053E+02  0.7818608E-02  0.1325985E+00
          2   -1    0    0  501    0  0.00000000000E+00  0.00000000000E+00  0.51609190085E+02  0.51609190148E+02  0.25500000000E-02 0. -1.
         -1   -1    0    0    0  501 -0.00000000000E+00 -0.00000000000E+00 -0.31853213871E+02  0.31853214270E+02  0.50400000000E-02 0.  1.
         24    2    1    2    0    0  0.00000000000E+00  0.00000000000E+00  0.19755976213E+02  0.83462404418E+02  0.81090531846E+02 0.  0.
         66    2    3    3    0    0 -0.21862537308E+02 -0.32662101814E+02  0.20027713704E+02  0.44157589983E+02  0.20000010996E+01 0.  0.
        -13    1    3    3    0    0  0.21862537308E+02  0.32662101814E+02 -0.27173749107E+00  0.39304814435E+02  0.10566000000E+00 0.  1.
         13    1    4    4    0    0 -0.78855353908E+01 -0.10724994904E+02  0.67214282969E+01  0.14912945600E+02  0.10566000000E+00 0. -1.
        -13    1    4    4    0    0 -0.37840003867E+01 -0.70099380444E+01  0.40469743753E+01  0.89357179870E+01  0.10566000000E+00 0.  1.
        -14    1    4    4    0    0 -0.10193001531E+02 -0.14927168865E+02  0.92593110321E+01  0.20308926395E+02  0.00000000000E+00 0.  1.
<mgrwt>
<rscale>  0 0.81090532E+02</rscale>
<asrwt>0</asrwt>
<pdfrwt beam="1">  1        2 0.79398754E-02 0.81090532E+02</pdfrwt>
<pdfrwt beam="2">  1       -1 0.49004945E-02 0.81090532E+02</pdfrwt>
<totfact> 0.14499172E+05</totfact>
</mgrwt>
</event>
<event>
 8    1  0.1673046E-013  0.7980230E+02  0.7818608E-02  0.1329613E+00
         -1   -1    0    0    0  501 -0.00000000000E+00  0.00000000000E+00  0.22049331973E+01  0.22049389574E+01  0.50400000000E-02 0.  1.
          2   -1    0    0  501    0  0.00000000000E+00 -0.00000000000E+00 -0.72206263340E+03  0.72206263340E+03  0.25500000000E-02 0. -1.
         24    2    1    2    0    0  0.35527136788E-14 -0.17763568394E-14 -0.71985770020E+03  0.72426757236E+03  0.79802304690E+02 0.  0.
         66    2    3    3    0    0 -0.22811804128E+02  0.10154372920E+02 -0.64232286457E+03  0.64281113249E+03  0.19999996432E+01 0.  0.
        -13    1    3    3    0    0  0.22811804128E+02 -0.10154372920E+02 -0.77534835629E+02  0.81456439874E+02  0.10566000000E+00 0.  1.
         13    1    4    4    0    0 -0.21741080766E+02  0.98717869865E+01 -0.60709071232E+03  0.60756009655E+03  0.10566000000E+00 0. -1.
        -13    1    4    4    0    0 -0.36850492517E+00  0.21521223203E+00 -0.15678713840E+02  0.15684876279E+02  0.10566000000E+00 0.  1.
         14    1    4    4    0    0 -0.70221843665E+00  0.67373701464E-01 -0.19553438413E+02  0.19566159656E+02  0.00000000000E+00 0. -1.
<mgrwt>
<rscale>  0 0.79802305E+02</rscale>
<asrwt>0</asrwt>
<pdfrwt beam="1">  1        2 0.11108637E+00 0.79802305E+02</pdfrwt>
<pdfrwt beam="2">  1       -1 0.33922151E-03 0.79802305E+02</pdfrwt>
<totfact> 0.33901242E+05</totfact>
</mgrwt>
</event>
<event>
 8    1  0.1673046E-013  0.7845378E+02  0.7818608E-02  0.1333498E+00
         -1   -1    0    0    0  501 -0.00000000000E+00  0.00000000000E+00  0.92782495018E+01  0.92782508707E+01  0.50400000000E-02 0.  1.
          2   -1    0    0  501    0  0.00000000000E+00 -0.00000000000E+00 -0.16584474888E+03  0.16584474890E+03  0.25500000000E-02 0. -1.
         24    2    1    2    0    0  0.00000000000E+00  0.00000000000E+00 -0.15656649938E+03  0.17512299977E+03  0.78453784619E+02 0.  0.
         66    2    3    3    0    0  0.15347160429E+02 -0.35640052103E+02 -0.65906630983E+02  0.76507729408E+02  0.20000011408E+01 0.  0.
        -13    1    3    3    0    0 -0.15347160429E+02  0.35640052103E+02 -0.90659868396E+02  0.98615270362E+02  0.10566000000E+00 0.  1.
         13    1    4    4    0    0  0.34693679126E+01 -0.88340916872E+01 -0.15369585186E+02  0.18064135808E+02  0.10566000000E+00 0. -1.
        -13    1    4    4    0    0  0.36825012893E+01 -0.67883867190E+01 -0.13194922546E+02  0.15289216952E+02  0.10566000000E+00 0.  1.
         14    1    4    4    0    0  0.81952912271E+01 -0.20017573696E+02 -0.37342123251E+02  0.43154376648E+02  0.00000000000E+00 0. -1.
<mgrwt>
<rscale>  0 0.78453785E+02</rscale>
<asrwt>0</asrwt>
<pdfrwt beam="1">  1        2 0.25514574E-01 0.78453785E+02</pdfrwt>
<pdfrwt beam="2">  1       -1 0.14274232E-02 0.78453785E+02</pdfrwt>
<totfact> 0.21795050E+05</totfact>
</mgrwt>
</event>
<event>
 8    1  0.1673046E-013  0.8088552E+02  0.7818608E-02  0.1326557E+00
          2   -1    0    0  501    0  0.00000000000E+00  0.00000000000E+00  0.69860420703E+03  0.69860420703E+03  0.25500000000E-02 0. -1.
         -1   -1    0    0    0  501 -0.00000000000E+00 -0.00000000000E+00 -0.23412613158E+01  0.23412667406E+01  0.50400000000E-02 0.  1.
         24    2    1    2    0    0  0.35527136788E-14  0.00000000000E+00  0.69626294571E+03  0.70094547377E+03  0.80885521765E+02 0.  0.
         66    2    3    3    0    0 -0.24821693700E+02 -0.22182118103E+02  0.54698923944E+03  0.54800491868E+03  0.20000002001E+01 0.  0.
        -13    1    3    3    0    0  0.24821693700E+02  0.22182118103E+02  0.14927370627E+03  0.15294055509E+03  0.10566000000E+00 0.  1.
         13    1    4    4    0    0 -0.88453618336E+01 -0.73387858133E+01  0.18960974227E+03  0.18995779460E+03  0.10566000000E+00 0. -1.
        -13    1    4    4    0    0 -0.21962936158E+01 -0.23039574471E+01  0.60165167552E+02  0.60249402289E+02  0.10566000000E+00 0.  1.
        -14    1    4    4    0    0 -0.13780038251E+02 -0.12539374842E+02  0.29721432962E+03  0.29779772180E+03  0.00000000000E+00 0.  1.
<mgrwt>
<rscale>  0 0.80885522E+02</rscale>
<asrwt>0</asrwt>
<pdfrwt beam="1">  1        2 0.10747764E+00 0.80885522E+02</pdfrwt>
<pdfrwt beam="2">  1       -1 0.36019424E-03 0.80885522E+02</pdfrwt>
<totfact> 0.32492634E+05</totfact>
</mgrwt>
</event>
<event>
 8    1  0.1673046E-013  0.7860222E+02  0.7818608E-02  0.1333066E+00
         -1   -1    0    0    0  501 -0.00000000000E+00  0.00000000000E+00  0.14512156545E+01  0.14512244063E+01  0.50400000000E-02 0.  1.
          2   -1    0    0  501    0  0.00000000000E+00 -0.00000000000E+00 -0.10643300822E+04  0.10643300822E+04  0.25500000000E-02 0. -1.
         24    2    1    2    0    0 -0.35527136788E-14  0.00000000000E+00 -0.10628788666E+04  0.10657813066E+04  0.78602217329E+02 0.  0.
         66    2    3    3    0    0 -0.27690207512E+02  0.13799514333E+01 -0.90899100849E+03  0.90941591441E+03  0.20000003836E+01 0.  0.
        -13    1    3    3    0    0  0.27690207512E+02 -0.13799514333E+01 -0.15388785808E+03  0.15636539223E+03  0.10566000000E+00 0.  1.
         13    1    4    4    0    0 -0.12635810254E+02  0.14186008877E+00 -0.41556373706E+03  0.41575583526E+03  0.10566000000E+00 0. -1.
        -13    1    4    4    0    0 -0.73096375489E+00  0.19946378935E+00 -0.33139346017E+02  0.33148175097E+02  0.10566000000E+00 0.  1.
         14    1    4    4    0    0 -0.14323433503E+02  0.10386275551E+01 -0.46028792541E+03  0.46051190405E+03  0.00000000000E+00 0. -1.
<mgrwt>
<rscale>  0 0.78602217E+02</rscale>
<asrwt>0</asrwt>
<pdfrwt beam="1">  1        2 0.16374247E+00 0.78602217E+02</pdfrwt>
<pdfrwt beam="2">  1       -1 0.22326547E-03 0.78602217E+02</pdfrwt>
<totfact> 0.36923001E+05</totfact>
</mgrwt>
</event>
<event>
 8    1  0.1673046E-013  0.7986180E+02  0.7818608E-02  0.1329444E+00
          2   -1    0    0  501    0  0.00000000000E+00  0.00000000000E+00  0.17928716759E+03  0.17928716761E+03  0.25500000000E-02 0. -1.
         -1   -1    0    0    0  501 -0.00000000000E+00 -0.00000000000E+00 -0.88934230371E+01  0.88934244652E+01  0.50400000000E-02 0.  1.
         24    2    1    2    0    0  0.22204460493E-15  0.00000000000E+00  0.17039374455E+03  0.18818059207E+03  0.79861799694E+02 0.  0.
         66    2    3    3    0    0  0.13732569323E+01 -0.37553306952E+02  0.11689302646E+03  0.12280112513E+03  0.19999999818E+01 0.  0.
        -13    1    3    3    0    0 -0.13732569323E+01  0.37553306952E+02  0.53500718090E+02  0.65379466944E+02  0.10566000000E+00 0.  1.
         13    1    4    4    0    0  0.17046941239E+01 -0.24991211904E+02  0.78934156222E+02  0.82813518444E+02  0.10566000000E+00 0.  1.
        -13    1    4    4    0    0 -0.15838650957E-02 -0.71016542923E+01  0.21066897290E+02  0.22231932476E+02  0.10566000000E+00 0. -1.
        -14    1    4    4    0    0 -0.32985332650E+00 -0.54604407555E+01  0.16891972952E+02  0.17755674211E+02  0.00000000000E+00 0.  1.
<mgrwt>
<rscale>  0 0.79861800E+02</rscale>
<asrwt>0</asrwt>
<pdfrwt beam="1">  1        2 0.27582640E-01 0.79861800E+02</pdfrwt>
<pdfrwt beam="2">  1       -1 0.13682191E-02 0.79861800E+02</pdfrwt>
<totfact> 0.21343137E+05</totfact>
</mgrwt>
</event>
<event>
 8    1  0.1673046E-013  0.8060450E+02  0.7818608E-02  0.1327345E+00
          2   -1    0    0  501    0  0.00000000000E+00  0.00000000000E+00  0.47242326213E+03  0.47242326214E+03  0.25500000000E-02 0. -1.
         -1   -1    0    0    0  501 -0.00000000000E+00 -0.00000000000E+00 -0.34381680730E+01  0.34381717671E+01  0.50400000000E-02 0.  1.
         24    2    1    2    0    0  0.44408920985E-15  0.00000000000E+00  0.46898509406E+03  0.47586143390E+03  0.80604502538E+02 0.  0.
         66    2    3    3    0    0  0.37133034838E+01  0.25094299781E+02  0.41933271976E+03  0.42010408513E+03  0.19999956595E+01 0.  0.
        -13    1    3    3    0    0 -0.37133034838E+01 -0.25094299781E+02  0.49652374300E+02  0.55757348770E+02  0.10566000000E+00 0.  1.
         13    1    4    4    0    0  0.10568684524E+01  0.10220290294E+02  0.15630971070E+03  0.15664708145E+03  0.10566000000E+00 0. -1.
        -13    1    4    4    0    0  0.40203589431E+00  0.24900909175E+01  0.41758816410E+02  0.41835058237E+02  0.10566000000E+00 0. -1.
         14    1    4    4    0    0  0.22543991371E+01  0.12383918569E+02  0.22126419264E+03  0.22162194544E+03  0.00000000000E+00 0. -1.
<mgrwt>
<rscale>  0 0.80604503E+02</rscale>
<asrwt>0</asrwt>
<pdfrwt beam="1">  1        2 0.72680399E-01 0.80604503E+02</pdfrwt>
<pdfrwt beam="2">  1       -1 0.52894997E-03 0.80604503E+02</pdfrwt>
<totfact> 0.29316003E+05</totfact>
</mgrwt>
</event>
<event>
 8    1  0.1673046E-013  0.8384101E+02  0.7818608E-02  0.1318492E+00
          2   -1    0    0  501    0  0.00000000000E+00  0.00000000000E+00  0.18603946715E+03  0.18603946717E+03  0.25500000000E-02 0. -1.
         -1   -1    0    0    0  501 -0.00000000000E+00 -0.00000000000E+00 -0.94459994635E+01  0.94460008081E+01  0.50400000000E-02 0.  1.
         24    2    1    2    0    0 -0.17763568394E-14 -0.71054273576E-14  0.17659346769E+03  0.19548546798E+03  0.83841012399E+02 0.  0.
         66    2    3    3    0    0 -0.15620800311E+02 -0.33166186366E+02  0.13563441833E+03  0.14051583810E+03  0.20000002452E+01 0.  0.
        -13    1    3    3    0    0  0.15620800311E+02  0.33166186366E+02  0.40959049358E+02  0.54969629876E+02  0.10566000000E+00 0.  1.
         13    1    4    4    0    0 -0.32137294867E+01 -0.57897380807E+01  0.26519846771E+02  0.27334274475E+02  0.10566000000E+00 0.  1.
        -13    1    4    4    0    0 -0.62136502345E+01 -0.13254297267E+02  0.54478239005E+02  0.56410774985E+02  0.10566000000E+00 0. -1.
        -14    1    4    4    0    0 -0.61934205893E+01 -0.14122151018E+02  0.54636332553E+02  0.56770788640E+02  0.00000000000E+00 0.  1.
<mgrwt>
<rscale>  0 0.83841012E+02</rscale>
<asrwt>0</asrwt>
<pdfrwt beam="1">  1        2 0.28621455E-01 0.83841012E+02</pdfrwt>
<pdfrwt beam="2">  1       -1 0.14532309E-02 0.83841012E+02</pdfrwt>
<totfact> 0.19001918E+05</totfact>
</mgrwt>
</event>
<event>
 8    1  0.1673046E-013  0.7875154E+02  0.7818608E-02  0.1332632E+00
          2   -1    0    0  501    0  0.00000000000E+00  0.00000000000E+00  0.45324277699E+03  0.45324277700E+03  0.25500000000E-02 0. -1.
         -1   -1    0    0    0  501 -0.00000000000E+00 -0.00000000000E+00 -0.34207948204E+01  0.34207985332E+01  0.50400000000E-02 0.  1.
         24    2    1    2    0    0 -0.35527136788E-14 -0.17763568394E-14  0.44982198217E+03  0.45666357553E+03  0.78751543307E+02 0.  0.
         66    2    3    3    0    0  0.31526506798E+02  0.12901680817E+02  0.33928920668E+03  0.34100079146E+03  0.20000009839E+01 0.  0.
        -13    1    3    3    0    0 -0.31526506798E+02 -0.12901680817E+02  0.11053277549E+03  0.11566278408E+03  0.10566000000E+00 0.  1.
         13    1    4    4    0    0  0.46279977826E+01  0.24477589524E+01  0.51249413886E+02  0.51516244769E+02  0.10566000000E+00 0. -1.
        -13    1    4    4    0    0  0.11715912888E+02  0.41174133581E+01  0.12854199766E+03  0.12914051275E+03  0.10566000000E+00 0.  1.
         14    1    4    4    0    0  0.15182596128E+02  0.63365085066E+01  0.15949779514E+03  0.16034403393E+03  0.00000000000E+00 0. -1.
<mgrwt>
<rscale>  0 0.78751543E+02</rscale>
<asrwt>0</asrwt>
<pdfrwt beam="1">  1        2 0.69729672E-01 0.78751543E+02</pdfrwt>
<pdfrwt beam="2">  1       -1 0.52627631E-03 0.78751543E+02</pdfrwt>
<totfact> 0.30723572E+05</totfact>
</mgrwt>
</event>
<event>
 8    1  0.1673046E-013  0.7873277E+02  0.7818608E-02  0.1332687E+00
          2   -1    0    0  501    0  0.00000000000E+00  0.00000000000E+00  0.30241269863E+02  0.30241269970E+02  0.25500000000E-02 0. -1.
         -1   -1    0    0    0  501 -0.00000000000E+00 -0.00000000000E+00 -0.51244945263E+02  0.51244945511E+02  0.50400000000E-02 0.  1.
         24    2    1    2    0    0  0.00000000000E+00  0.00000000000E+00 -0.21003675400E+02  0.81486215481E+02  0.78732769119E+02 0.  0.
         66    2    3    3    0    0 -0.69590615317E+01  0.13765669064E+02  0.26948029868E+02  0.31114602599E+02  0.19999997392E+01 0.  0.
        -13    1    3    3    0    0  0.69590615317E+01 -0.13765669064E+02 -0.47951705268E+02  0.50371612882E+02  0.10566000000E+00 0.  1.
         13    1    4    4    0    0 -0.39674700588E+01  0.72742797707E+01  0.13079303315E+02  0.15483388004E+02  0.10566000000E+00 0. -1.
        -13    1    4    4    0    0 -0.29312027626E+01  0.65080330920E+01  0.13807417154E+02  0.15543563840E+02  0.10566000000E+00 0.  1.
        -14    1    4    4    0    0 -0.60388710309E-01 -0.16643798666E-01  0.61309399460E-01  0.87650754868E-01  0.00000000000E+00 0.  1.
<mgrwt>
<rscale>  0 0.78732769E+02</rscale>
<asrwt>0</asrwt>
<pdfrwt beam="1">  1        2 0.46525031E-02 0.78732769E+02</pdfrwt>
<pdfrwt beam="2">  1       -1 0.78838378E-02 0.78732769E+02</pdfrwt>
<totfact> 0.14092227E+05</totfact>
</mgrwt>
</event>
<event>
 8    1  0.1673046E-013  0.7973059E+02  0.7818608E-02  0.1329818E+00
         -1   -1    0    0    0  501 -0.00000000000E+00  0.00000000000E+00  0.28082085748E+01  0.28082130975E+01  0.50400000000E-02 0.  1.
          2   -1    0    0  501    0  0.00000000000E+00 -0.00000000000E+00 -0.56592679931E+03  0.56592679931E+03  0.25500000000E-02 0. -1.
         24    2    1    2    0    0  0.00000000000E+00  0.00000000000E+00 -0.56311859073E+03  0.56873501241E+03  0.79730590824E+02 0.  0.
         66    2    3    3    0    0  0.31333492170E+02 -0.22443542433E+02 -0.35368473309E+03  0.35578419128E+03  0.20000040923E+01 0.  0.
        -13    1    3    3    0    0 -0.31333492170E+02  0.22443542433E+02 -0.20943385765E+03  0.21295082113E+03  0.10566000000E+00 0.  1.
         13    1    4    4    0    0  0.22030450793E+02 -0.16593267476E+02 -0.25527298858E+03  0.25675861651E+03  0.10566000000E+00 0. -1.
        -13    1    4    4    0    0  0.25008211095E+01 -0.12647212701E+01 -0.25608624581E+02  0.25761724381E+02  0.10566000000E+00 0.  1.
         14    1    4    4    0    0  0.68022202674E+01 -0.45855536867E+01 -0.72803119921E+02  0.73263850386E+02  0.00000000000E+00 0. -1.
<mgrwt>
<rscale>  0 0.79730591E+02</rscale>
<asrwt>0</asrwt>
<pdfrwt beam="1">  1        2 0.87065571E-01 0.79730591E+02</pdfrwt>
<pdfrwt beam="2">  1       -1 0.43203289E-03 0.79730591E+02</pdfrwt>
<totfact> 0.31909000E+05</totfact>
</mgrwt>
</event>
<event>
 8    1  0.1673046E-013  0.7882181E+02  0.7818608E-02  0.1332429E+00
         -1   -1    0    0    0  501 -0.00000000000E+00  0.00000000000E+00  0.13614575727E+03  0.13614575736E+03  0.50400000000E-02 0.  1.
          2   -1    0    0  501    0  0.00000000000E+00 -0.00000000000E+00 -0.11408504882E+02  0.11408505167E+02  0.25500000000E-02 0. -1.
         24    2    1    2    0    0  0.00000000000E+00 -0.35527136788E-14  0.12473725239E+03  0.14755426253E+03  0.78821813333E+02 0.  0.
         66    2    3    3    0    0 -0.30480009539E+02 -0.19805296597E+02  0.34022494398E+02  0.49827811474E+02  0.19999790891E+01 0.  0.
        -13    1    3    3    0    0  0.30480009539E+02  0.19805296597E+02  0.90714757987E+02  0.97726451053E+02  0.10566000000E+00 0.  1.
         13    1    4    4    0    0 -0.10577967822E+02 -0.76544666018E+01  0.12651230192E+02  0.18181007992E+02  0.10566000000E+00 0. -1.
        -13    1    4    4    0    0 -0.15706415697E+02 -0.97613604284E+01  0.17460418870E+02  0.25433305775E+02  0.10566000000E+00 0.  1.
        -14    1    4    4    0    0 -0.41956260201E+01 -0.23894695670E+01  0.39108453362E+01  0.62134977071E+01  0.00000000000E+00 0.  1.
<mgrwt>
<rscale>  0 0.78821813E+02</rscale>
<asrwt>0</asrwt>
<pdfrwt beam="1">  1        2 0.17551547E-02 0.78821813E+02</pdfrwt>
<pdfrwt beam="2">  1       -1 0.20945501E-01 0.78821813E+02</pdfrwt>
<totfact> 0.11471408E+05</totfact>
</mgrwt>
</event>
<event>
 8    1  0.1673046E-013  0.8025770E+02  0.7818608E-02  0.1328322E+00
          2   -1    0    0  501    0  0.00000000000E+00  0.00000000000E+00  0.60725926451E+03  0.60725926452E+03  0.25500000000E-02 0. -1.
         -1   -1    0    0    0  501 -0.00000000000E+00 -0.00000000000E+00 -0.26517885931E+01  0.26517933826E+01  0.50400000000E-02 0.  1.
         24    2    1    2    0    0  0.17763568394E-14  0.00000000000E+00  0.60460747592E+03  0.60991105790E+03  0.80257701261E+02 0.  0.
         66    2    3    3    0    0  0.11614080281E+02  0.28633563357E+02  0.49676724245E+03  0.49773131405E+03  0.20000012139E+01 0.  0.
        -13    1    3    3    0    0 -0.11614080281E+02 -0.28633563357E+02  0.10784023347E+03  0.11217974385E+03  0.10566000000E+00 0.  1.
         13    1    4    4    0    0  0.19731039992E+01  0.62421757197E+01  0.10369867882E+03  0.10390517336E+03  0.10566000000E+00 0. -1.
        -13    1    4    4    0    0  0.14826819591E+01  0.24526973059E+01  0.48722097574E+02  0.48806434267E+02  0.10566000000E+00 0.  1.
        -14    1    4    4    0    0  0.81582943232E+01  0.19938690331E+02  0.34434646605E+03  0.34501970642E+03  0.00000000000E+00 0.  1.
<mgrwt>
<rscale>  0 0.80257701E+02</rscale>
<asrwt>0</asrwt>
<pdfrwt beam="1">  1        2 0.93424402E-01 0.80257701E+02</pdfrwt>
<pdfrwt beam="2">  1       -1 0.40796828E-03 0.80257701E+02</pdfrwt>
<totfact> 0.32001737E+05</totfact>
</mgrwt>
</event>
<event>
 8    1  0.1673046E-013  0.8061011E+02  0.7818608E-02  0.1327329E+00
          2   -1    0    0  501    0  0.00000000000E+00  0.00000000000E+00  0.18941125859E+02  0.18941126031E+02  0.25500000000E-02 0. -1.
         -1   -1    0    0    0  501 -0.00000000000E+00 -0.00000000000E+00 -0.85765624593E+02  0.85765624741E+02  0.50400000000E-02 0.  1.
         24    2    1    2    0    0 -0.35527136788E-14  0.17763568394E-14 -0.66824498734E+02  0.10470675077E+03  0.80610111191E+02 0.  0.
         66    2    3    3    0    0  0.18411012623E+02 -0.12300466551E+02  0.10274307037E+02  0.24491391405E+02  0.20000011705E+01 0.  0.
        -13    1    3    3    0    0 -0.18411012623E+02  0.12300466551E+02 -0.77098805771E+02  0.80215359368E+02  0.10566000000E+00 0.  1.
         13    1    4    4    0    0  0.42132130020E+01 -0.25802209918E+01  0.18732855812E+01  0.52847958400E+01  0.10566000000E+00 0.  1.
        -13    1    4    4    0    0  0.11370504590E+01 -0.12207914435E+01  0.10760263446E+01  0.19880171591E+01  0.10566000000E+00 0. -1.
         14    1    4    4    0    0  0.13060749162E+02 -0.84994541154E+01  0.73249951114E+01  0.17218578405E+02  0.00000000000E+00 0. -1.
<mgrwt>
<rscale>  0 0.80610111E+02</rscale>
<asrwt>0</asrwt>
<pdfrwt beam="1">  1        2 0.29140194E-02 0.80610111E+02</pdfrwt>
<pdfrwt beam="2">  1       -1 0.13194711E-01 0.80610111E+02</pdfrwt>
<totfact> 0.12012798E+05</totfact>
</mgrwt>
</event>
<event>
 8    1  0.1673046E-013  0.8025703E+02  0.7818608E-02  0.1328324E+00
          2   -1    0    0  501    0  0.00000000000E+00  0.00000000000E+00  0.72296687877E+03  0.72296687877E+03  0.25500000000E-02 0. -1.
         -1   -1    0    0    0  501 -0.00000000000E+00 -0.00000000000E+00 -0.22273433389E+01  0.22273490411E+01  0.50400000000E-02 0.  1.
         24    2    1    2    0    0  0.35527136788E-14  0.35527136788E-14  0.72073953543E+03  0.72519422782E+03  0.80257025384E+02 0.  0.
         66    2    3    3    0    0 -0.21432244553E+02 -0.28586570955E+02  0.52517515219E+03  0.52639288903E+03  0.20000000401E+01 0.  0.
        -13    1    3    3    0    0  0.21432244553E+02  0.28586570955E+02  0.19556438324E+03  0.19880133878E+03  0.10566000000E+00 0.  1.
         13    1    4    4    0    0 -0.40007126465E+01 -0.46613011419E+01  0.88626237835E+02  0.88838925178E+02  0.10566000000E+00 0. -1.
        -13    1    4    4    0    0 -0.39489857891E+01 -0.45708960712E+01  0.93878244132E+02  0.94072437329E+02  0.10566000000E+00 0.  1.
         14    1    4    4    0    0 -0.13482546118E+02 -0.19354373742E+02  0.34267067022E+03  0.34348152653E+03  0.00000000000E+00 0. -1.
<mgrwt>
<rscale>  0 0.80257025E+02</rscale>
<asrwt>0</asrwt>
<pdfrwt beam="1">  1        2 0.11122586E+00 0.80257025E+02</pdfrwt>
<pdfrwt beam="2">  1       -1 0.34266806E-03 0.80257025E+02</pdfrwt>
<totfact> 0.33413350E+05</totfact>
</mgrwt>
</event>
<event>
 8    1  0.1673046E-013  0.8061431E+02  0.7818608E-02  0.1327317E+00
         -1   -1    0    0    0  501 -0.00000000000E+00  0.00000000000E+00  0.58680782472E+02  0.58680782688E+02  0.50400000000E-02 0.  1.
          2   -1    0    0  501    0  0.00000000000E+00 -0.00000000000E+00 -0.27686520464E+02  0.27686520581E+02  0.25500000000E-02 0. -1.
         24    2    1    2    0    0  0.00000000000E+00 -0.35527136788E-14  0.30994262008E+02  0.86367303270E+02  0.80614308883E+02 0.  0.
         66    2    3    3    0    0  0.20325314928E+02 -0.23302122515E+02 -0.12153538144E+02  0.33283867410E+02  0.19999999426E+01 0.  0.
        -13    1    3    3    0    0 -0.20325314928E+02  0.23302122515E+02  0.43147800152E+02  0.53083435859E+02  0.10566000000E+00 0.  1.
         13    1    4    4    0    0  0.56055050575E+01 -0.61598920794E+01 -0.34462277765E+01  0.90140782836E+01  0.10566000000E+00 0. -1.
        -13    1    4    4    0    0  0.43628305808E+01 -0.44614580164E+01 -0.30564904605E+01  0.69492586857E+01  0.10566000000E+00 0. -1.
        -14    1    4    4    0    0  0.10356979290E+02 -0.12680772419E+02 -0.56508199071E+01  0.17320530441E+02  0.00000000000E+00 0.  1.
<mgrwt>
<rscale>  0 0.80614309E+02</rscale>
<asrwt>0</asrwt>
<pdfrwt beam="1">  1        2 0.42594648E-02 0.80614309E+02</pdfrwt>
<pdfrwt beam="2">  1       -1 0.90278126E-02 0.80614309E+02</pdfrwt>
<totfact> 0.12961806E+05</totfact>
</mgrwt>
</event>
<event>
 8    1  0.1673046E-013  0.7778747E+02  0.7818608E-02  0.1335450E+00
          2   -1    0    0  501    0  0.00000000000E+00  0.00000000000E+00  0.19142666409E+03  0.19142666411E+03  0.25500000000E-02 0. -1.
         -1   -1    0    0    0  501 -0.00000000000E+00 -0.00000000000E+00 -0.79023610137E+01  0.79023626209E+01  0.50400000000E-02 0.  1.
         24    2    1    2    0    0  0.00000000000E+00  0.00000000000E+00  0.18352430308E+03  0.19932902673E+03  0.77787473778E+02 0.  0.
         66    2    3    3    0    0  0.11804663916E+02 -0.29308267225E+02  0.14982725993E+03  0.15313566683E+03  0.20000048395E+01 0.  0.
        -13    1    3    3    0    0 -0.11804663916E+02  0.29308267225E+02  0.33697043150E+02  0.46193359902E+02  0.10566000000E+00 0.  1.
         13    1    4    4    0    0  0.45649272988E+01 -0.13092934166E+02  0.62297883783E+02  0.63822417489E+02  0.10566000000E+00 0. -1.
        -13    1    4    4    0    0  0.19092408408E+01 -0.45740496128E+01  0.24493313682E+02  0.24990012197E+02  0.10566000000E+00 0.  1.
         14    1    4    4    0    0  0.53304957766E+01 -0.11641283446E+02  0.63036062466E+02  0.64323237144E+02  0.00000000000E+00 0. -1.
<mgrwt>
<rscale>  0 0.77787474E+02</rscale>
<asrwt>0</asrwt>
<pdfrwt beam="1">  1        2 0.29450251E-01 0.77787474E+02</pdfrwt>
<pdfrwt beam="2">  1       -1 0.12157482E-02 0.77787474E+02</pdfrwt>
<totfact> 0.23394601E+05</totfact>
</mgrwt>
</event>
<event>
 8    1  0.1673046E-013  0.8027081E+02  0.7818608E-02  0.1328285E+00
         -1   -1    0    0    0  501 -0.00000000000E+00  0.00000000000E+00  0.71911752833E+02  0.71911753010E+02  0.50400000000E-02 0.  1.
          2   -1    0    0  501    0  0.00000000000E+00 -0.00000000000E+00 -0.22400382907E+02  0.22400383053E+02  0.25500000000E-02 0. -1.
         24    2    1    2    0    0 -0.17763568394E-14 -0.71054273576E-14  0.49511369926E+02  0.94312136063E+02  0.80270811985E+02 0.  0.
         66    2    3    3    0    0  0.11473050292E+02  0.34189102153E+02  0.41404528630E+01  0.36354764933E+02  0.19999985979E+01 0.  0.
        -13    1    3    3    0    0 -0.11473050292E+02 -0.34189102153E+02  0.45370917063E+02  0.57957371129E+02  0.10566000000E+00 0.  1.
         13    1    4    4    0    0  0.30595270429E+01  0.80553793185E+01  0.91818948541E+00  0.86662608810E+01  0.10566000000E+00 0. -1.
        -13    1    4    4    0    0  0.54622500475E+01  0.16848374127E+02  0.13171727929E+01  0.17760911984E+02  0.10566000000E+00 0.  1.
         14    1    4    4    0    0  0.29512732013E+01  0.92853487075E+01  0.19050905847E+01  0.99275920678E+01  0.00000000000E+00 0. -1.
<mgrwt>
<rscale>  0 0.80270812E+02</rscale>
<asrwt>0</asrwt>
<pdfrwt beam="1">  1        2 0.34462127E-02 0.80270812E+02</pdfrwt>
<pdfrwt beam="2">  1       -1 0.11063347E-01 0.80270812E+02</pdfrwt>
<totfact> 0.12579339E+05</totfact>
</mgrwt>
</event>
<event>
 8    1  0.1673046E-013  0.7707999E+02  0.7818608E-02  0.1337548E+00
          2   -1    0    0  501    0  0.00000000000E+00  0.00000000000E+00  0.10539485495E+02  0.10539485804E+02  0.25500000000E-02 0. -1.
         -1   -1    0    0    0  501 -0.00000000000E+00 -0.00000000000E+00 -0.14093015422E+03  0.14093015431E+03  0.50400000000E-02 0.  1.
         24    2    1    2    0    0  0.00000000000E+00  0.00000000000E+00 -0.13039066873E+03  0.15146964012E+03  0.77079993421E+02 0.  0.
         66    2    3    3    0    0  0.20984087048E+02 -0.32240387566E+02 -0.68942640160E+02  0.78973806591E+02  0.19999988994E+01 0.  0.
        -13    1    3    3    0    0 -0.20984087048E+02  0.32240387566E+02 -0.61448028569E+02  0.72495833526E+02  0.10566000000E+00 0.  1.
         13    1    4    4    0    0  0.72058072170E+01 -0.11875590624E+02 -0.25641970735E+02  0.29162906877E+02  0.10566000000E+00 0. -1.
        -13    1    4    4    0    0  0.40447315913E+01 -0.50350458433E+01 -0.11677659980E+02  0.13345053276E+02  0.10566000000E+00 0.  1.
        -14    1    4    4    0    0  0.97335482398E+01 -0.15329751099E+02 -0.31623009445E+02  0.36465846438E+02  0.00000000000E+00 0.  1.
<mgrwt>
<rscale>  0 0.77079993E+02</rscale>
<asrwt>0</asrwt>
<pdfrwt beam="1">  1        2 0.16214594E-02 0.77079993E+02</pdfrwt>
<pdfrwt beam="2">  1       -1 0.21681561E-01 0.77079993E+02</pdfrwt>
<totfact> 0.12034587E+05</totfact>
</mgrwt>
</event>
<event>
 8    1  0.1673046E-013  0.7882151E+02  0.7818608E-02  0.1332429E+00
          2   -1    0    0  501    0  0.00000000000E+00  0.00000000000E+00  0.27129610295E+02  0.27129610415E+02  0.25500000000E-02 0. -1.
         -1   -1    0    0    0  501 -0.00000000000E+00 -0.00000000000E+00 -0.57251374391E+02  0.57251374613E+02  0.50400000000E-02 0.  1.
         24    2    1    2    0    0  0.00000000000E+00 -0.35527136788E-14 -0.30121764096E+02  0.84380985027E+02  0.78821506976E+02 0.  0.
         66    2    3    3    0    0  0.99960230609E+01 -0.26604322656E+02  0.14119712951E+02  0.31797433262E+02  0.20000018114E+01 0.  0.
        -13    1    3    3    0    0 -0.99960230609E+01  0.26604322656E+02 -0.44241477046E+02  0.52583551765E+02  0.10566000000E+00 0.  1.
         13    1    4    4    0    0  0.50633850991E+01 -0.11974330114E+02  0.65198803282E+01  0.14544499093E+02  0.10566000000E+00 0. -1.
        -13    1    4    4    0    0  0.82902646586E+00 -0.13397780946E+01  0.73256522294E+00  0.17407199848E+01  0.10566000000E+00 0. -1.
        -14    1    4    4    0    0  0.41036114959E+01 -0.13290214447E+02  0.68672673994E+01  0.15512214184E+02  0.00000000000E+00 0.  1.
<mgrwt>
<rscale>  0 0.78821507E+02</rscale>
<asrwt>0</asrwt>
<pdfrwt beam="1">  1        2 0.41737862E-02 0.78821507E+02</pdfrwt>
<pdfrwt beam="2">  1       -1 0.88079038E-02 0.78821507E+02</pdfrwt>
<totfact> 0.13753934E+05</totfact>
</mgrwt>
</event>
<event>
 8    1  0.1673046E-013  0.8013501E+02  0.7818608E-02  0.1328669E+00
         -1   -1    0    0    0  501 -0.00000000000E+00  0.00000000000E+00  0.62115375010E+02  0.62115375215E+02  0.50400000000E-02 0.  1.
          2   -1    0    0  501    0  0.00000000000E+00 -0.00000000000E+00 -0.25845533970E+02  0.25845534095E+02  0.25500000000E-02 0. -1.
         24    2    1    2    0    0  0.00000000000E+00 -0.71054273576E-14  0.36269841041E+02  0.87960909310E+02  0.80135012308E+02 0.  0.
         66    2    3    3    0    0  0.80574148470E+01  0.32068954031E+02 -0.66439091702E+01  0.33785814776E+02  0.20000010869E+01 0.  0.
        -13    1    3    3    0    0 -0.80574148470E+01 -0.32068954031E+02  0.42913750211E+02  0.54175094535E+02  0.10566000000E+00 0.  1.
         13    1    4    4    0    0  0.23349299213E+01  0.10818581968E+02 -0.29705968126E+01  0.11459896291E+02  0.10566000000E+00 0. -1.
        -13    1    4    4    0    0  0.71983316785E+00  0.19271419798E+01 -0.41845056605E+00  0.21019754784E+01  0.10566000000E+00 0.  1.
         14    1    4    4    0    0  0.50026517579E+01  0.19323230082E+02 -0.32548617916E+01  0.20223943006E+02  0.00000000000E+00 0. -1.
<mgrwt>
<rscale>  0 0.80135012E+02</rscale>
<asrwt>0</asrwt>
<pdfrwt beam="1">  1        2 0.39762361E-02 0.80135012E+02</pdfrwt>
<pdfrwt beam="2">  1       -1 0.95562114E-02 0.80135012E+02</pdfrwt>
<totfact> 0.13003686E+05</totfact>
</mgrwt>
</event>
<event>
 8    1  0.1673046E-013  0.8261333E+02  0.7818608E-02  0.1321795E+00
          2   -1    0    0  501    0  0.00000000000E+00  0.00000000000E+00  0.29732427494E+03  0.29732427495E+03  0.25500000000E-02 0. -1.
         -1   -1    0    0    0  501 -0.00000000000E+00 -0.00000000000E+00 -0.57386514991E+01  0.57386537123E+01  0.50400000000E-02 0.  1.
         24    2    1    2    0    0  0.88817841970E-15  0.00000000000E+00  0.29158562344E+03  0.30306292867E+03  0.82613333866E+02 0.  0.
         66    2    3    3    0    0 -0.42054662817E+01  0.31873043089E+02  0.24088018806E+03  0.24302436469E+03  0.20000031285E+01 0.  0.
        -13    1    3    3    0    0  0.42054662817E+01 -0.31873043089E+02  0.50705435387E+02  0.60038563976E+02  0.10566000000E+00 0.  1.
         13    1    4    4    0    0 -0.14869590095E+01  0.89913092143E+01  0.69786712067E+02  0.70379336695E+02  0.10566000000E+00 0. -1.
        -13    1    4    4    0    0  0.10364450545E+00  0.11058449699E+01  0.99623893301E+01  0.10024669595E+02  0.10566000000E+00 0.  1.
         14    1    4    4    0    0 -0.28221517777E+01  0.21775888905E+02  0.16113108666E+03  0.16262035840E+03  0.00000000000E+00 0. -1.
<mgrwt>
<rscale>  0 0.82613334E+02</rscale>
<asrwt>0</asrwt>
<pdfrwt beam="1">  1        2 0.45742208E-01 0.82613334E+02</pdfrwt>
<pdfrwt beam="2">  1       -1 0.88286941E-03 0.82613334E+02</pdfrwt>
<totfact> 0.23354674E+05</totfact>
</mgrwt>
</event>
<event>
 8    1  0.1673046E-013  0.7929816E+02  0.7818608E-02  0.1331055E+00
          2   -1    0    0  501    0  0.00000000000E+00  0.00000000000E+00  0.14090224370E+02  0.14090224601E+02  0.25500000000E-02 0. -1.
         -1   -1    0    0    0  501 -0.00000000000E+00 -0.00000000000E+00 -0.11157021549E+03  0.11157021560E+03  0.50400000000E-02 0.  1.
         24    2    1    2    0    0 -0.35527136788E-14 -0.88817841970E-15 -0.97479991115E+02  0.12566044020E+03  0.79298156115E+02 0.  0.
         66    2    3    3    0    0  0.26988094884E+02  0.76345418404E+01 -0.93124376169E+02  0.97276887917E+02  0.19999978724E+01 0.  0.
        -13    1    3    3    0    0 -0.26988094884E+02 -0.76345418404E+01 -0.43556149466E+01  0.28383552282E+02  0.10566000000E+00 0.  1.
         13    1    4    4    0    0  0.14389224598E+02  0.42554366612E+01 -0.47542762749E+02  0.49854628467E+02  0.10566000000E+00 0. -1.
        -13    1    4    4    0    0  0.11792426061E+02  0.32353616080E+01 -0.41749484249E+02  0.43503557052E+02  0.10566000000E+00 0.  1.
        -14    1    4    4    0    0  0.80644422370E+00  0.14374357123E+00 -0.38321291711E+01  0.39187023981E+01  0.00000000000E+00 0.  1.
<mgrwt>
<rscale>  0 0.79298156E+02</rscale>
<asrwt>0</asrwt>
<pdfrwt beam="1">  1        2 0.21677269E-02 0.79298156E+02</pdfrwt>
<pdfrwt beam="2">  1       -1 0.17164648E-01 0.79298156E+02</pdfrwt>
<totfact> 0.11831270E+05</totfact>
</mgrwt>
</event>
<event>
 8    1  0.1673046E-013  0.7825668E+02  0.7818608E-02  0.1334073E+00
          2   -1    0    0  501    0  0.00000000000E+00  0.00000000000E+00  0.90049108081E+03  0.90049108081E+03  0.25500000000E-02 0. -1.
         -1   -1    0    0    0  501 -0.00000000000E+00 -0.00000000000E+00 -0.17002096108E+01  0.17002170809E+01  0.50400000000E-02 0.  1.
         24    2    1    2    0    0  0.00000000000E+00  0.00000000000E+00  0.89879087119E+03  0.90219129789E+03  0.78256679239E+02 0.  0.
         66    2    3    3    0    0 -0.20122217489E+02 -0.52282475971E+01  0.83148973477E+03  0.83175201668E+03  0.20000025246E+01 0.  0.
        -13    1    3    3    0    0  0.20122217489E+02  0.52282475971E+01  0.67301136426E+02  0.70439281214E+02  0.10566000000E+00 0.  1.
         13    1    4    4    0    0 -0.13316212540E+02 -0.37267974519E+01  0.54086618757E+03  0.54104293227E+03  0.10566000000E+00 0. -1.
        -13    1    4    4    0    0 -0.17435645879E+01 -0.15485296724E+00  0.57719049910E+02  0.57745682813E+02  0.10566000000E+00 0.  1.
         14    1    4    4    0    0 -0.50624403608E+01 -0.13465971779E+01  0.23290449729E+03  0.23296340160E+03  0.00000000000E+00 0. -1.
<mgrwt>
<rscale>  0 0.78256679E+02</rscale>
<asrwt>0</asrwt>
<pdfrwt beam="1">  1        2 0.13853693E+00 0.78256679E+02</pdfrwt>
<pdfrwt beam="2">  1       -1 0.26157158E-03 0.78256679E+02</pdfrwt>
<totfact> 0.37003994E+05</totfact>
</mgrwt>
</event>
<event>
 8    1  0.1673046E-013  0.7953821E+02  0.7818608E-02  0.1330367E+00
         -1   -1    0    0    0  501 -0.00000000000E+00  0.00000000000E+00  0.53592755006E+02  0.53592755243E+02  0.50400000000E-02 0.  1.
          2   -1    0    0  501    0  0.00000000000E+00 -0.00000000000E+00 -0.29511113127E+02  0.29511113237E+02  0.25500000000E-02 0. -1.
         24    2    1    2    0    0  0.00000000000E+00  0.22204460493E-15  0.24081641880E+02  0.83103868481E+02  0.79538213965E+02 0.  0.
         66    2    3    3    0    0 -0.12814975362E+02  0.19167889855E+01 -0.27208253848E+02  0.30202429547E+02  0.19999998875E+01 0.  0.
        -13    1    3    3    0    0  0.12814975362E+02 -0.19167889855E+01  0.51289895727E+02  0.52901438934E+02  0.10566000000E+00 0.  1.
         13    1    4    4    0    0 -0.59124672998E+01  0.52233196599E+00 -0.11003786873E+02  0.12502983238E+02  0.10566000000E+00 0. -1.
        -13    1    4    4    0    0 -0.58671910132E+01  0.14770730296E+01 -0.14355494151E+02  0.15578737159E+02  0.10566000000E+00 0.  1.
        -14    1    4    4    0    0 -0.10353170489E+01 -0.82616010087E-01 -0.18489728228E+01  0.21207091494E+01  0.00000000000E+00 0.  1.
<mgrwt>
<rscale>  0 0.79538214E+02</rscale>
<asrwt>0</asrwt>
<pdfrwt beam="1">  1        2 0.45401713E-02 0.79538214E+02</pdfrwt>
<pdfrwt beam="2">  1       -1 0.82450391E-02 0.79538214E+02</pdfrwt>
<totfact> 0.13631147E+05</totfact>
</mgrwt>
</event>
<event>
 8    1  0.1673046E-013  0.8006495E+02  0.7818608E-02  0.1328867E+00
          2   -1    0    0  501    0  0.00000000000E+00  0.00000000000E+00  0.65972997119E+02  0.65972997169E+02  0.25500000000E-02 0. -1.
         -1   -1    0    0    0  501 -0.00000000000E+00 -0.00000000000E+00 -0.24291739269E+02  0.24291739792E+02  0.50400000000E-02 0.  1.
         24    2    1    2    0    0 -0.17763568394E-14  0.35527136788E-14  0.41681257850E+02  0.90264736961E+02  0.80064945405E+02 0.  0.
         66    2    3    3    0    0  0.13624236916E+02  0.29163541960E+02 -0.59314879320E+01  0.32791989192E+02  0.19999987224E+01 0.  0.
        -13    1    3    3    0    0 -0.13624236916E+02 -0.29163541960E+02  0.47612745782E+02  0.57472747769E+02  0.10566000000E+00 0.  1.
         13    1    4    4    0    0  0.71412133538E+00  0.21502947238E+01 -0.10920969020E+00  0.22708649174E+01  0.10566000000E+00 0. -1.
        -13    1    4    4    0    0  0.12533145529E+01  0.22393499237E+01 -0.75272059128E+00  0.26764225700E+01  0.10566000000E+00 0.  1.
         14    1    4    4    0    0  0.11656801028E+02  0.24773897312E+02 -0.50695576505E+01  0.27844701704E+02  0.00000000000E+00 0. -1.
<mgrwt>
<rscale>  0 0.80064945E+02</rscale>
<asrwt>0</asrwt>
<pdfrwt beam="1">  1        2 0.10149692E-01 0.80064945E+02</pdfrwt>
<pdfrwt beam="2">  1       -1 0.37371907E-02 0.80064945E+02</pdfrwt>
<totfact> 0.15882075E+05</totfact>
</mgrwt>
</event>
<event>
 8    1  0.1673046E-013  0.7933943E+02  0.7818608E-02  0.1330937E+00
         -1   -1    0    0    0  501 -0.00000000000E+00  0.00000000000E+00  0.17653215911E+01  0.17653287857E+01  0.50400000000E-02 0.  1.
          2   -1    0    0  501    0  0.00000000000E+00 -0.00000000000E+00 -0.89144264393E+03  0.89144264393E+03  0.25500000000E-02 0. -1.
         24    2    1    2    0    0 -0.17763568394E-14  0.00000000000E+00 -0.88967732234E+03  0.89320797272E+03  0.79339426802E+02 0.  0.
         66    2    3    3    0    0  0.13416101856E+02 -0.26994713545E+02 -0.73499641414E+03  0.73561704381E+03  0.20000001663E+01 0.  0.
        -13    1    3    3    0    0 -0.13416101856E+02  0.26994713545E+02 -0.15468090820E+03  0.15759092891E+03  0.10566000000E+00 0.  1.
         13    1    4    4    0    0  0.17597766630E+01 -0.43958909769E+01 -0.11374286569E+03  0.11384143064E+03  0.10566000000E+00 0. -1.
        -13    1    4    4    0    0  0.40554811489E+01 -0.94801528910E+01 -0.25430386809E+03  0.25451284588E+03  0.10566000000E+00 0. -1.
         14    1    4    4    0    0  0.76008440444E+01 -0.13118669677E+02 -0.36694968036E+03  0.36726276729E+03  0.00000000000E+00 0. -1.
<mgrwt>
<rscale>  0 0.79339427E+02</rscale>
<asrwt>0</asrwt>
<pdfrwt beam="1">  1        2 0.13714466E+00 0.79339427E+02</pdfrwt>
<pdfrwt beam="2">  1       -1 0.27158920E-03 0.79339427E+02</pdfrwt>
<totfact> 0.35668343E+05</totfact>
</mgrwt>
</event>
<event>
 8    1  0.1673046E-013  0.8064620E+02  0.7818608E-02  0.1327228E+00
         -1   -1    0    0    0  501 -0.00000000000E+00  0.00000000000E+00  0.11785389825E+01  0.11785497592E+01  0.50400000000E-02 0.  1.
          2   -1    0    0  501    0  0.00000000000E+00 -0.00000000000E+00 -0.13796276606E+04  0.13796276606E+04  0.25500000000E-02 0. -1.
         24    2    1    2    0    0  0.17763568394E-14 -0.17763568394E-14 -0.13784491216E+04  0.13808062104E+04  0.80646200686E+02 0.  0.
         66    2    3    3    0    0  0.13997900765E+02 -0.13816062618E+02 -0.12918672981E+04  0.12920185528E+04  0.20000001053E+01 0.  0.
        -13    1    3    3    0    0 -0.13997900765E+02  0.13816062618E+02 -0.86581823489E+02  0.88787657559E+02  0.10566000000E+00 0.  1.
         13    1    4    4    0    0  0.41389621139E+01 -0.44238044612E+01 -0.44641976166E+03  0.44646087826E+03  0.10566000000E+00 0. -1.
        -13    1    4    4    0    0  0.96828276253E+00 -0.91210048783E+00 -0.68492909162E+02  0.68505906813E+02  0.10566000000E+00 0.  1.
         14    1    4    4    0    0  0.88906558882E+01 -0.84801576688E+01 -0.77695462732E+03  0.77705176774E+03  0.00000000000E+00 0. -1.
<mgrwt>
<rscale>  0 0.80646201E+02</rscale>
<asrwt>0</asrwt>
<pdfrwt beam="1">  1        2 0.21224912E+00 0.80646201E+02</pdfrwt>
<pdfrwt beam="2">  1       -1 0.18131562E-03 0.80646201E+02</pdfrwt>
<totfact> 0.33443709E+05</totfact>
</mgrwt>
</event>
<event>
 8    1  0.1673046E-013  0.8093332E+02  0.7818608E-02  0.1326423E+00
         -1   -1    0    0    0  501 -0.00000000000E+00  0.00000000000E+00  0.28873428136E+01  0.28873472124E+01  0.50400000000E-02 0.  1.
          2   -1    0    0  501    0  0.00000000000E+00 -0.00000000000E+00 -0.56714749162E+03  0.56714749162E+03  0.25500000000E-02 0. -1.
         24    2    1    2    0    0  0.00000000000E+00  0.00000000000E+00 -0.56426014880E+03  0.57003483883E+03  0.80933317973E+02 0.  0.
         66    2    3    3    0    0  0.38644089368E+01  0.14376097282E+02 -0.54714548965E+03  0.54735161703E+03  0.19999975785E+01 0.  0.
        -13    1    3    3    0    0 -0.38644089368E+01 -0.14376097282E+02 -0.17114659151E+02  0.22683221804E+02  0.10566000000E+00 0.  1.
         13    1    4    4    0    0  0.14123923930E+01  0.58544531988E+01 -0.20024518086E+03  0.20033575092E+03  0.10566000000E+00 0. -1.
        -13    1    4    4    0    0  0.70998280438E+00  0.40178297561E+01 -0.14186473722E+03  0.14192343662E+03  0.10566000000E+00 0.  1.
        -14    1    4    4    0    0  0.17420337395E+01  0.45038143276E+01 -0.20503557157E+03  0.20509242949E+03  0.00000000000E+00 0.  1.
<mgrwt>
<rscale>  0 0.80933318E+02</rscale>
<asrwt>0</asrwt>
<pdfrwt beam="1">  1        2 0.87253372E-01 0.80933318E+02</pdfrwt>
<pdfrwt beam="2">  1       -1 0.44420738E-03 0.80933318E+02</pdfrwt>
<totfact> 0.30708117E+05</totfact>
</mgrwt>
</event>
<event>
 8    1  0.2007166E-013  0.7722571E+02  0.7818608E-02  0.1337114E+00
          2   -1    0    0  501    0  0.00000000000E+00  0.00000000000E+00  0.65400528291E+02  0.65400528341E+02  0.25500000000E-02 0. -1.
         -1   -1    0    0    0  501 -0.00000000000E+00 -0.00000000000E+00 -0.22797255409E+02  0.22797255966E+02  0.50400000000E-02 0.  1.
         24    2    1    2    0    0  0.88817841970E-15  0.00000000000E+00  0.42603272882E+02  0.88197784307E+02  0.77225710074E+02 0.  0.
         66    2    3    3    0    0 -0.63906628125E+01 -0.13196859011E+02  0.62079429834E+02  0.63818909998E+02  0.20000014457E+01 0.  0.
        -13    1    3    3    0    0  0.63906628125E+01  0.13196859011E+02 -0.19476156952E+02  0.24378874310E+02  0.10566000000E+00 0.  1.
         13    1    4    4    0    0 -0.26943219694E+01 -0.56900742346E+01  0.25630121923E+02  0.26392245632E+02  0.10566000000E+00 0. -1.
        -13    1    4    4    0    0 -0.26611672322E+01 -0.40864799900E+01  0.19085535676E+02  0.19698983878E+02  0.10566000000E+00 0.  1.
        -14    1    4    4    0    0 -0.10351736109E+01 -0.34203047864E+01  0.17363772235E+02  0.17727680487E+02  0.00000000000E+00 0.  1.
<mgrwt>
<rscale>  0 0.77225710E+02</rscale>
<asrwt>0</asrwt>
<pdfrwt beam="1">  1        2 0.10061620E-01 0.77225710E+02</pdfrwt>
<pdfrwt beam="2">  1       -1 0.35072701E-02 0.77225710E+02</pdfrwt>
<totfact> 0.17476153E+05</totfact>
</mgrwt>
</event>
<event>
 8    1  0.1673046E-013  0.8730616E+02  0.7818608E-02  0.1309510E+00
         -1   -1    0    0    0  501 -0.00000000000E+00  0.00000000000E+00  0.95824073715E+00  0.95825399135E+00  0.50400000000E-02 0.  1.
          2   -1    0    0  501    0  0.00000000000E+00 -0.00000000000E+00 -0.19886214003E+04  0.19886214003E+04  0.25500000000E-02 0. -1.
         24    2    1    2    0    0  0.00000000000E+00  0.00000000000E+00 -0.19876631596E+04  0.19895796543E+04  0.87306156102E+02 0.  0.
         66    2    3    3    0    0  0.80691776784E+01  0.18458722884E+02 -0.18762857686E+04  0.18763949802E+04  0.20000008409E+01 0.  0.
        -13    1    3    3    0    0 -0.80691776784E+01 -0.18458722884E+02 -0.11137739092E+03  0.11318467410E+03  0.10566000000E+00 0.  1.
         13    1    4    4    0    0  0.37545391574E+01  0.94295066619E+01 -0.99947097664E+03  0.99952251424E+03  0.10566000000E+00 0. -1.
        -13    1    4    4    0    0  0.89124095340E+00  0.12287970783E+01 -0.15204915296E+03  0.15205676681E+03  0.10566000000E+00 0.  1.
        -14    1    4    4    0    0  0.34233975675E+01  0.78004191440E+01 -0.72476563905E+03  0.72481569915E+03  0.00000000000E+00 0.  1.
<mgrwt>
<rscale>  0 0.87306156E+02</rscale>
<asrwt>0</asrwt>
<pdfrwt beam="1">  1        2 0.30593845E+00 0.87306156E+02</pdfrwt>
<pdfrwt beam="2">  1       -1 0.14742426E-03 0.87306156E+02</pdfrwt>
<totfact> 0.22196373E+05</totfact>
</mgrwt>
</event>
<event>
 8    1  0.1673046E-013  0.7942449E+02  0.7818608E-02  0.1330693E+00
          2   -1    0    0  501    0  0.00000000000E+00  0.00000000000E+00  0.10039571750E+02  0.10039572074E+02  0.25500000000E-02 0. -1.
         -1   -1    0    0    0  501 -0.00000000000E+00 -0.00000000000E+00 -0.15708462734E+03  0.15708462742E+03  0.50400000000E-02 0.  1.
         24    2    1    2    0    0  0.00000000000E+00  0.00000000000E+00 -0.14704505559E+03  0.16712419950E+03  0.79424490450E+02 0.  0.
         66    2    3    3    0    0  0.12855646963E+02  0.37343636787E+02 -0.65353888830E+02  0.76386816030E+02  0.20000026890E+01 0.  0.
        -13    1    3    3    0    0 -0.12855646963E+02 -0.37343636787E+02 -0.81691166764E+02  0.90737383468E+02  0.10566000000E+00 0.  1.
         13    1    4    4    0    0  0.37944357231E+01  0.12552646923E+02 -0.21358650490E+02  0.25063315863E+02  0.10566000000E+00 0. -1.
        -13    1    4    4    0    0  0.14580923540E+01  0.32830523182E+01 -0.67581494222E+01  0.76542937940E+01  0.10566000000E+00 0.  1.
        -14    1    4    4    0    0  0.76031188854E+01  0.21507937546E+02 -0.37237088917E+02  0.43669206374E+02  0.00000000000E+00 0.  1.
<mgrwt>
<rscale>  0 0.79424490E+02</rscale>
<asrwt>0</asrwt>
<pdfrwt beam="1">  1        2 0.15445496E-02 0.79424490E+02</pdfrwt>
<pdfrwt beam="2">  1       -1 0.24166864E-01 0.79424490E+02</pdfrwt>
<totfact> 0.10856091E+05</totfact>
</mgrwt>
</event>
<event>
 8    1  0.1673046E-013  0.8014416E+02  0.7818608E-02  0.1328643E+00
          2   -1    0    0  501    0  0.00000000000E+00  0.00000000000E+00  0.24113938230E+02  0.24113938365E+02  0.25500000000E-02 0. -1.
         -1   -1    0    0    0  501 -0.00000000000E+00 -0.00000000000E+00 -0.66591019665E+02  0.66591019855E+02  0.50400000000E-02 0.  1.
         24    2    1    2    0    0 -0.11102230246E-15  0.00000000000E+00 -0.42477081435E+02  0.90704958220E+02  0.80144163846E+02 0.  0.
         66    2    3    3    0    0 -0.78396652540E+00  0.18654932831E+02  0.18844744516E+02  0.26603486908E+02  0.19999993357E+01 0.  0.
        -13    1    3    3    0    0  0.78396652540E+00 -0.18654932831E+02 -0.61321825951E+02  0.64101471312E+02  0.10566000000E+00 0.  1.
         13    1    4    4    0    0 -0.54898922799E+00  0.91279431875E+01  0.88339232319E+01  0.12714955749E+02  0.10566000000E+00 0. -1.
        -13    1    4    4    0    0 -0.62730251281E+00  0.75071269875E+01  0.73550051642E+01  0.10528899707E+02  0.10566000000E+00 0.  1.
        -14    1    4    4    0    0  0.39232521539E+00  0.20198626558E+01  0.26558161199E+01  0.33596314509E+01  0.00000000000E+00 0.  1.
<mgrwt>
<rscale>  0 0.80144164E+02</rscale>
<asrwt>0</asrwt>
<pdfrwt beam="1">  1        2 0.37098367E-02 0.80144164E+02</pdfrwt>
<pdfrwt beam="2">  1       -1 0.10244772E-01 0.80144164E+02</pdfrwt>
<totfact> 0.12822495E+05</totfact>
</mgrwt>
</event>
<event>
 8    1  0.1673046E-013  0.7906225E+02  0.7818608E-02  0.1331734E+00
         -1   -1    0    0    0  501 -0.00000000000E+00  0.00000000000E+00  0.21539488461E+01  0.21539547426E+01  0.50400000000E-02 0.  1.
          2   -1    0    0  501    0  0.00000000000E+00 -0.00000000000E+00 -0.72550821950E+03  0.72550821950E+03  0.25500000000E-02 0. -1.
         24    2    1    2    0    0  0.00000000000E+00  0.00000000000E+00 -0.72335427065E+03  0.72766217424E+03  0.79062247354E+02 0.  0.
         66    2    3    3    0    0  0.14353929121E+02  0.15392801110E+02 -0.66960923018E+03  0.66994290410E+03  0.19999996047E+01 0.  0.
        -13    1    3    3    0    0 -0.14353929121E+02 -0.15392801110E+02 -0.53745040470E+02  0.57719270147E+02  0.10566000000E+00 0.  1.
         13    1    4    4    0    0  0.68487803387E+01  0.69455985587E+01 -0.29962244033E+03  0.29978119528E+03  0.10566000000E+00 0. -1.
        -13    1    4    4    0    0  0.26277547857E+01  0.20684117927E+01 -0.11250806841E+03  0.11255780756E+03  0.10566000000E+00 0.  1.
         14    1    4    4    0    0  0.48773939970E+01  0.63787907581E+01 -0.25747872144E+03  0.25760390125E+03  0.00000000000E+00 0. -1.
<mgrwt>
<rscale>  0 0.79062247E+02</rscale>
<asrwt>0</asrwt>
<pdfrwt beam="1">  1        2 0.11161645E+00 0.79062247E+02</pdfrwt>
<pdfrwt beam="2">  1       -1 0.33137778E-03 0.79062247E+02</pdfrwt>
<totfact> 0.34767300E+05</totfact>
</mgrwt>
</event>
<event>
 8    1  0.1673046E-013  0.7948849E+02  0.7818608E-02  0.1330509E+00
         -1   -1    0    0    0  501 -0.00000000000E+00  0.00000000000E+00  0.95281859427E+01  0.95281872757E+01  0.50400000000E-02 0.  1.
          2   -1    0    0  501    0  0.00000000000E+00 -0.00000000000E+00 -0.16578234422E+03  0.16578234424E+03  0.25500000000E-02 0. -1.
         24    2    1    2    0    0  0.17763568394E-14  0.35527136788E-14 -0.15625415828E+03  0.17531053151E+03  0.79488492760E+02 0.  0.
         66    2    3    3    0    0  0.12841770953E+02 -0.27511840682E+02 -0.13465519059E+03  0.13805010977E+03  0.19999995118E+01 0.  0.
        -13    1    3    3    0    0 -0.12841770953E+02  0.27511840682E+02 -0.21598967690E+02  0.37260421740E+02  0.10566000000E+00 0.  1.
         13    1    4    4    0    0  0.89877179737E+01 -0.18620416481E+02 -0.90399454527E+02  0.92733874755E+02  0.10566000000E+00 0. -1.
        -13    1    4    4    0    0  0.18635824731E+01 -0.30670929472E+01 -0.16592939591E+02  0.16976949287E+02  0.10566000000E+00 0.  1.
        -14    1    4    4    0    0  0.19904705059E+01 -0.58243312539E+01 -0.27662796468E+02  0.28339285733E+02  0.00000000000E+00 0.  1.
<mgrwt>
<rscale>  0 0.79488493E+02</rscale>
<asrwt>0</asrwt>
<pdfrwt beam="1">  1        2 0.25504974E-01 0.79488493E+02</pdfrwt>
<pdfrwt beam="2">  1       -1 0.14658750E-02 0.79488493E+02</pdfrwt>
<totfact> 0.21050178E+05</totfact>
</mgrwt>
</event>
<event>
 8    1  0.1673046E-013  0.7913214E+02  0.7818608E-02  0.1331532E+00
          2   -1    0    0  501    0  0.00000000000E+00  0.00000000000E+00  0.27330308921E+02  0.27330309040E+02  0.25500000000E-02 0. -1.
         -1   -1    0    0    0  501 -0.00000000000E+00 -0.00000000000E+00 -0.57279770546E+02  0.57279770768E+02  0.50400000000E-02 0.  1.
         24    2    1    2    0    0 -0.88817841970E-15  0.00000000000E+00 -0.29949461625E+02  0.84610079808E+02  0.79132138562E+02 0.  0.
         66    2    3    3    0    0  0.61153844992E+01 -0.30866554288E+02  0.10617518716E+02  0.33269714020E+02  0.20000165205E+01 0.  0.
        -13    1    3    3    0    0 -0.61153844992E+01  0.30866554288E+02 -0.40566980341E+02  0.51340365788E+02  0.10566000000E+00 0.  1.
         13    1    4    4    0    0  0.32082829613E+01 -0.15109163045E+02  0.44254307487E+01  0.16067840204E+02  0.10566000000E+00 0. -1.
        -13    1    4    4    0    0  0.11459238508E+01 -0.86569144622E+01  0.33478484165E+01  0.93527836783E+01  0.10566000000E+00 0.  1.
        -14    1    4    4    0    0  0.17611776871E+01 -0.71004767813E+01  0.28442395507E+01  0.78490901377E+01  0.00000000000E+00 0.  1.
<mgrwt>
<rscale>  0 0.79132139E+02</rscale>
<asrwt>0</asrwt>
<pdfrwt beam="1">  1        2 0.42046629E-02 0.79132139E+02</pdfrwt>
<pdfrwt beam="2">  1       -1 0.88122724E-02 0.79132139E+02</pdfrwt>
<totfact> 0.13622250E+05</totfact>
</mgrwt>
</event>
<event>
 8    1  0.1673046E-013  0.8118555E+02  0.7818608E-02  0.1325720E+00
          2   -1    0    0  501    0  0.00000000000E+00  0.00000000000E+00  0.36191583584E+03  0.36191583585E+03  0.25500000000E-02 0. -1.
         -1   -1    0    0    0  501 -0.00000000000E+00 -0.00000000000E+00 -0.45529168706E+01  0.45529196602E+01  0.50400000000E-02 0.  1.
         24    2    1    2    0    0  0.71054273576E-14 -0.35527136788E-14  0.35736291897E+03  0.36646875551E+03  0.81185546190E+02 0.  0.
         66    2    3    3    0    0  0.35897685626E+02 -0.13836762851E+02  0.23688985651E+03  0.24000188324E+03  0.20000003000E+01 0.  0.
        -13    1    3    3    0    0 -0.35897685626E+02  0.13836762851E+02  0.12047306246E+03  0.12646687227E+03  0.10566000000E+00 0.  1.
         13    1    4    4    0    0  0.89338864024E+01 -0.35981679565E+01  0.60305724381E+02  0.61070063829E+02  0.10566000000E+00 0. -1.
        -13    1    4    4    0    0  0.10866472990E+02 -0.39053468686E+01  0.75598610797E+02  0.76475441077E+02  0.10566000000E+00 0.  1.
        -14    1    4    4    0    0  0.16097326233E+02 -0.63332480261E+01  0.10098552133E+03  0.10245637834E+03  0.00000000000E+00 0.  1.
<mgrwt>
<rscale>  0 0.81185546E+02</rscale>
<asrwt>0</asrwt>
<pdfrwt beam="1">  1        2 0.55679357E-01 0.81185546E+02</pdfrwt>
<pdfrwt beam="2">  1       -1 0.70044899E-03 0.81185546E+02</pdfrwt>
<totfact> 0.26242714E+05</totfact>
</mgrwt>
</event>
<event>
 8    1  0.1673046E-013  0.7535790E+02  0.7818608E-02  0.1342766E+00
         -1   -1    0    0    0  501 -0.00000000000E+00  0.00000000000E+00  0.89035669866E+00  0.89037096339E+00  0.50400000000E-02 0.  1.
          2   -1    0    0  501    0  0.00000000000E+00 -0.00000000000E+00 -0.15945203721E+04  0.15945203721E+04  0.25500000000E-02 0. -1.
         24    2    1    2    0    0 -0.17763568394E-14  0.00000000000E+00 -0.15936300154E+04  0.15954107431E+04  0.75357900054E+02 0.  0.
         66    2    3    3    0    0  0.92493688363E+01  0.15464326486E+02 -0.14973040983E+04  0.14974138570E+04  0.20000003853E+01 0.  0.
        -13    1    3    3    0    0 -0.92493688363E+01 -0.15464326486E+02 -0.96325917082E+02  0.97996886090E+02  0.10566000000E+00 0.  1.
         13    1    4    4    0    0  0.76309245696E+01  0.11808814935E+02 -0.11772257048E+04  0.11773096663E+04  0.10566000000E+00 0. -1.
        -13    1    4    4    0    0  0.40642114168E+00  0.36397646658E+00 -0.42006682581E+02  0.42010358276E+02  0.10566000000E+00 0.  1.
         14    1    4    4    0    0  0.12120231250E+01  0.32915350846E+01 -0.27807171095E+03  0.27809383243E+03  0.00000000000E+00 0. -1.
<mgrwt>
<rscale>  0 0.75357900E+02</rscale>
<asrwt>0</asrwt>
<pdfrwt beam="1">  1        2 0.24530854E+00 0.75357900E+02</pdfrwt>
<pdfrwt beam="2">  1       -1 0.13698033E-03 0.75357900E+02</pdfrwt>
<totfact> 0.37835734E+05</totfact>
</mgrwt>
</event>
<event>
 8    1  0.1673046E-013  0.7984134E+02  0.7818608E-02  0.1329502E+00
         -1   -1    0    0    0  501 -0.00000000000E+00  0.00000000000E+00  0.58874495174E+01  0.58874516747E+01  0.50400000000E-02 0.  1.
          2   -1    0    0  501    0  0.00000000000E+00 -0.00000000000E+00 -0.27068756841E+03  0.27068756842E+03  0.25500000000E-02 0. -1.
         24    2    1    2    0    0  0.00000000000E+00  0.00000000000E+00 -0.26480011889E+03  0.27657502009E+03  0.79841335008E+02 0.  0.
         66    2    3    3    0    0  0.31747437128E+02 -0.21509878910E+02 -0.17060015267E+03  0.17486848414E+03  0.20000002849E+01 0.  0.
        -13    1    3    3    0    0 -0.31747437128E+02  0.21509878910E+02 -0.94199966221E+02  0.10170653595E+03  0.10566000000E+00 0.  1.
         13    1    4    4    0    0  0.21300946920E+02 -0.14441074644E+02 -0.11641578041E+03  0.11922633966E+03  0.10566000000E+00 0. -1.
        -13    1    4    4    0    0  0.61829845469E+01 -0.37556251285E+01 -0.32510182173E+02  0.33305511961E+02  0.10566000000E+00 0.  1.
         14    1    4    4    0    0  0.42635056609E+01 -0.33131791376E+01 -0.21674190089E+02  0.22336632524E+02  0.00000000000E+00 0. -1.
<mgrwt>
<rscale>  0 0.79841335E+02</rscale>
<asrwt>0</asrwt>
<pdfrwt beam="1">  1        2 0.41644232E-01 0.79841335E+02</pdfrwt>
<pdfrwt beam="2">  1       -1 0.90576184E-03 0.79841335E+02</pdfrwt>
<totfact> 0.24690813E+05</totfact>
</mgrwt>
</event>
<event>
 8    1  0.1673046E-013  0.8041972E+02  0.7818608E-02  0.1327865E+00
         -1   -1    0    0    0  501 -0.00000000000E+00  0.00000000000E+00  0.24385656608E+01  0.24385708691E+01  0.50400000000E-02 0.  1.
          2   -1    0    0  501    0  0.00000000000E+00 -0.00000000000E+00 -0.66302548592E+03  0.66302548593E+03  0.25500000000E-02 0. -1.
         24    2    1    2    0    0  0.88817841970E-15 -0.35527136788E-14 -0.66058692026E+03  0.66546405680E+03  0.80419721880E+02 0.  0.
         66    2    3    3    0    0 -0.30298363860E+01  0.17015950329E+02 -0.63069489067E+03  0.63093483626E+03  0.20000019171E+01 0.  0.
        -13    1    3    3    0    0  0.30298363860E+01 -0.17015950329E+02 -0.29892029591E+02  0.34529220542E+02  0.10566000000E+00 0.  1.
         13    1    4    4    0    0 -0.37731851870E+00  0.51359157553E+01 -0.20926782433E+03  0.20933120518E+03  0.10566000000E+00 0. -1.
        -13    1    4    4    0    0 -0.25359199837E+01  0.11477200294E+02 -0.40091890440E+03  0.40109118176E+03  0.10566000000E+00 0.  1.
         14    1    4    4    0    0 -0.11659788361E+00  0.40283427940E+00 -0.20508161946E+02  0.20512449316E+02  0.00000000000E+00 0. -1.
<mgrwt>
<rscale>  0 0.80419722E+02</rscale>
<asrwt>0</asrwt>
<pdfrwt beam="1">  1        2 0.10200378E+00 0.80419722E+02</pdfrwt>
<pdfrwt beam="2">  1       -1 0.37516488E-03 0.80419722E+02</pdfrwt>
<totfact> 0.32575070E+05</totfact>
</mgrwt>
</event>
<event>
 8    1  0.1673046E-013  0.7998205E+02  0.7818608E-02  0.1329102E+00
          2   -1    0    0  501    0  0.00000000000E+00  0.00000000000E+00  0.93096348104E+03  0.93096348104E+03  0.25500000000E-02 0. -1.
         -1   -1    0    0    0  501 -0.00000000000E+00 -0.00000000000E+00 -0.17178745657E+01  0.17178819590E+01  0.50400000000E-02 0.  1.
         24    2    1    2    0    0 -0.35527136788E-14 -0.11102230246E-15  0.92924560648E+03  0.93268136300E+03  0.79982046364E+02 0.  0.
         66    2    3    3    0    0  0.26027801456E+02  0.51947891330E+00  0.81852775762E+03  0.81894408008E+03  0.20000003800E+01 0.  0.
        -13    1    3    3    0    0 -0.26027801456E+02 -0.51947891330E+00  0.11071784886E+03  0.11373728292E+03  0.10566000000E+00 0.  1.
         13    1    4    4    0    0  0.67686387588E+01 -0.63807263355E+00  0.21730770070E+03  0.21741405096E+03  0.10566000000E+00 0. -1.
        -13    1    4    4    0    0  0.14633996353E+01  0.21628176238E+00  0.42735848850E+02  0.42761574542E+02  0.10566000000E+00 0.  1.
         14    1    4    4    0    0  0.17795763062E+02  0.94126978448E+00  0.55848420807E+03  0.55876845458E+03  0.00000000000E+00 0. -1.
<mgrwt>
<rscale>  0 0.79982046E+02</rscale>
<asrwt>0</asrwt>
<pdfrwt beam="1">  1        2 0.14322546E+00 0.79982046E+02</pdfrwt>
<pdfrwt beam="2">  1       -1 0.26428839E-03 0.79982046E+02</pdfrwt>
<totfact> 0.35085247E+05</totfact>
</mgrwt>
</event>
<event>
 8    1  0.1673046E-013  0.7911185E+02  0.7818608E-02  0.1331591E+00
         -1   -1    0    0    0  501 -0.00000000000E+00  0.00000000000E+00  0.67624583330E+01  0.67624602112E+01  0.50400000000E-02 0.  1.
          2   -1    0    0  501    0  0.00000000000E+00 -0.00000000000E+00 -0.23137608271E+03  0.23137608273E+03  0.25500000000E-02 0. -1.
         24    2    1    2    0    0  0.00000000000E+00  0.00000000000E+00 -0.22461362438E+03  0.23813854294E+03  0.79111853572E+02 0.  0.
         66    2    3    3    0    0  0.13659006502E+02 -0.10411777743E+02 -0.21955379707E+03  0.22023361091E+03  0.19999985461E+01 0.  0.
        -13    1    3    3    0    0 -0.13659006502E+02  0.10411777743E+02 -0.50598273125E+01  0.17904932026E+02  0.10566000000E+00 0.  1.
         13    1    4    4    0    0  0.85130985617E+01 -0.56431966356E+01 -0.13380884861E+03  0.13419812832E+03  0.10566000000E+00 0. -1.
        -13    1    4    4    0    0  0.13080743008E+01 -0.12968417121E+01 -0.18541523211E+02  0.18633091634E+02  0.10566000000E+00 0.  1.
         14    1    4    4    0    0  0.38378336399E+01 -0.34717393950E+01 -0.67203425250E+02  0.67402390958E+02  0.00000000000E+00 0. -1.
<mgrwt>
<rscale>  0 0.79111854E+02</rscale>
<asrwt>0</asrwt>
<pdfrwt beam="1">  1        2 0.35596314E-01 0.79111854E+02</pdfrwt>
<pdfrwt beam="2">  1       -1 0.10403785E-02 0.79111854E+02</pdfrwt>
<totfact> 0.23910066E+05</totfact>
</mgrwt>
</event>
<event>
 8    1  0.1673046E-013  0.8120513E+02  0.7818608E-02  0.1325666E+00
         -1   -1    0    0    0  501 -0.00000000000E+00  0.00000000000E+00  0.26927679706E+02  0.26927680178E+02  0.50400000000E-02 0.  1.
          2   -1    0    0  501    0  0.00000000000E+00 -0.00000000000E+00 -0.61222064857E+02  0.61222064910E+02  0.25500000000E-02 0. -1.
         24    2    1    2    0    0  0.71054273576E-14 -0.17763568394E-14 -0.34294385151E+02  0.88149745087E+02  0.81205127339E+02 0.  0.
         66    2    3    3    0    0 -0.28446474041E+02  0.99079431949E+01 -0.46670800017E+02  0.55583565810E+02  0.19999975373E+01 0.  0.
        -13    1    3    3    0    0  0.28446474041E+02 -0.99079431949E+01  0.12376414867E+02  0.32566179277E+02  0.10566000000E+00 0.  1.
         13    1    4    4    0    0 -0.13129143816E+02  0.41008279919E+01 -0.21151659472E+02  0.25230835698E+02  0.10566000000E+00 0. -1.
        -13    1    4    4    0    0 -0.11489464390E+02  0.48883636633E+01 -0.18933346319E+02  0.22680093874E+02  0.10566000000E+00 0.  1.
        -14    1    4    4    0    0 -0.38278658355E+01  0.91875153970E+00 -0.65857942270E+01  0.76726362384E+01  0.00000000000E+00 0.  1.
<mgrwt>
<rscale>  0 0.81205127E+02</rscale>
<asrwt>0</asrwt>
<pdfrwt beam="1">  1        2 0.94187792E-02 0.81205127E+02</pdfrwt>
<pdfrwt beam="2">  1       -1 0.41427200E-02 0.81205127E+02</pdfrwt>
<totfact> 0.15015498E+05</totfact>
</mgrwt>
</event>
<event>
 8    1  0.1673046E-013  0.7853173E+02  0.7818608E-02  0.1333271E+00
         -1   -1    0    0    0  501 -0.00000000000E+00  0.00000000000E+00  0.87613344545E+00  0.87614794175E+00  0.50400000000E-02 0.  1.
          2   -1    0    0  501    0  0.00000000000E+00 -0.00000000000E+00 -0.17597721847E+04  0.17597721847E+04  0.25500000000E-02 0. -1.
         24    2    1    2    0    0  0.00000000000E+00  0.00000000000E+00 -0.17588960512E+04  0.17606483326E+04  0.78531726849E+02 0.  0.
         66    2    3    3    0    0 -0.70570669254E+01 -0.17194560363E+02 -0.16548227260E+04  0.16549283095E+04  0.20000011534E+01 0.  0.
        -13    1    3    3    0    0  0.70570669254E+01  0.17194560363E+02 -0.10407332530E+03  0.10572002318E+03  0.10566000000E+00 0.  1.
         13    1    4    4    0    0 -0.44556244265E+01 -0.10002078571E+02 -0.10040302951E+04  0.10040900053E+04  0.10566000000E+00 0. -1.
        -13    1    4    4    0    0 -0.10968506570E+00 -0.27762441993E+00 -0.48358698480E+02  0.48359735202E+02  0.10566000000E+00 0.  1.
         14    1    4    4    0    0 -0.24917574331E+01 -0.69148573719E+01 -0.60243373241E+03  0.60247856896E+03  0.00000000000E+00 0. -1.
<mgrwt>
<rscale>  0 0.78531727E+02</rscale>
<asrwt>0</asrwt>
<pdfrwt beam="1">  1        2 0.27073135E+00 0.78531727E+02</pdfrwt>
<pdfrwt beam="2">  1       -1 0.13479229E-03 0.78531727E+02</pdfrwt>
<totfact> 0.32192580E+05</totfact>
</mgrwt>
</event>
<event>
 8    1  0.1673046E-013  0.7955592E+02  0.7818608E-02  0.1330316E+00
          2   -1    0    0  501    0  0.00000000000E+00  0.00000000000E+00  0.10741815004E+02  0.10741815306E+02  0.25500000000E-02 0. -1.
         -1   -1    0    0    0  501 -0.00000000000E+00 -0.00000000000E+00 -0.14730154522E+03  0.14730154530E+03  0.50400000000E-02 0.  1.
         24    2    1    2    0    0  0.00000000000E+00  0.00000000000E+00 -0.13655973021E+03  0.15804336061E+03  0.79555916919E+02 0.  0.
         66    2    3    3    0    0 -0.19818582873E+02  0.21733380440E+02 -0.15196925609E+02  0.33167191714E+02  0.20000014554E+01 0.  0.
        -13    1    3    3    0    0  0.19818582873E+02 -0.21733380440E+02 -0.12136280460E+03  0.12487616890E+03  0.10566000000E+00 0.  1.
         13    1    4    4    0    0 -0.14747758803E+02  0.15340699053E+02 -0.10333819913E+02  0.23656551633E+02  0.10566000000E+00 0. -1.
        -13    1    4    4    0    0 -0.16346028008E+01  0.23972298000E+01 -0.17167769898E+01  0.33729993031E+01  0.10566000000E+00 0.  1.
         14    1    4    4    0    0 -0.34362212689E+01  0.39954515870E+01 -0.31463287061E+01  0.61376407780E+01  0.00000000000E+00 0. -1.
<mgrwt>
<rscale>  0 0.79555917E+02</rscale>
<asrwt>0</asrwt>
<pdfrwt beam="1">  1        2 0.16525871E-02 0.79555917E+02</pdfrwt>
<pdfrwt beam="2">  1       -1 0.22661775E-01 0.79555917E+02</pdfrwt>
<totfact> 0.10990514E+05</totfact>
</mgrwt>
</event>
<event>
 8    1  0.1673046E-013  0.8060611E+02  0.7818608E-02  0.1327340E+00
         -1   -1    0    0    0  501 -0.00000000000E+00  0.00000000000E+00  0.13944302551E+01  0.13944393633E+01  0.50400000000E-02 0.  1.
          2   -1    0    0  501    0  0.00000000000E+00 -0.00000000000E+00 -0.11648708281E+04  0.11648708281E+04  0.25500000000E-02 0. -1.
         24    2    1    2    0    0  0.35527136788E-14  0.00000000000E+00 -0.11634763978E+04  0.11662652674E+04  0.80606114875E+02 0.  0.
         66    2    3    3    0    0 -0.20350110390E+02  0.31619306869E+01 -0.10829309705E+04  0.10831286220E+04  0.20000004361E+01 0.  0.
        -13    1    3    3    0    0  0.20350110390E+02 -0.31619306869E+01 -0.80545427278E+02  0.83136645458E+02  0.10566000000E+00 0.  1.
         13    1    4    4    0    0 -0.46227210599E+00 -0.15814441379E+00 -0.28894406591E+02  0.28898730100E+02  0.10566000000E+00 0. -1.
        -13    1    4    4    0    0 -0.30343973540E+01  0.84028836013E+00 -0.15749555010E+03  0.15752705519E+03  0.10566000000E+00 0.  1.
         14    1    4    4    0    0 -0.16853440930E+02  0.24797867405E+01 -0.89654101384E+03  0.89670283668E+03  0.00000000000E+00 0. -1.
<mgrwt>
<rscale>  0 0.80606115E+02</rscale>
<asrwt>0</asrwt>
<pdfrwt beam="1">  1        2 0.17921012E+00 0.80606115E+02</pdfrwt>
<pdfrwt beam="2">  1       -1 0.21452936E-03 0.80606115E+02</pdfrwt>
<totfact> 0.34456113E+05</totfact>
</mgrwt>
</event>
<event>
 8    1  0.1673046E-013  0.7295421E+02  0.7818608E-02  0.1350326E+00
          2   -1    0    0  501    0  0.00000000000E+00  0.00000000000E+00  0.82308239670E+03  0.82308239671E+03  0.25500000000E-02 0. -1.
         -1   -1    0    0    0  501 -0.00000000000E+00 -0.00000000000E+00 -0.16165769103E+01  0.16165847669E+01  0.50400000000E-02 0.  1.
         24    2    1    2    0    0  0.00000000000E+00 -0.17763568394E-14  0.82146581979E+03  0.82469898147E+03  0.72954211368E+02 0.  0.
         66    2    3    3    0    0  0.50556850760E+01  0.13635605802E+02  0.78886352006E+03  0.78900009061E+03  0.20000001572E+01 0.  0.
        -13    1    3    3    0    0 -0.50556850760E+01 -0.13635605802E+02  0.32602299732E+02  0.35698890866E+02  0.10566000000E+00 0.  1.
         13    1    4    4    0    0  0.54753595487E+00  0.35529671142E+01  0.19964401633E+03  0.19967640770E+03  0.10566000000E+00 0. -1.
        -13    1    4    4    0    0  0.36762016183E+01  0.87404009258E+01  0.51641916440E+03  0.51650621835E+03  0.10566000000E+00 0.  1.
        -14    1    4    4    0    0  0.83194750285E+00  0.13422377616E+01  0.72800339325E+02  0.72817464558E+02  0.00000000000E+00 0.  1.
<mgrwt>
<rscale>  0 0.72954211E+02</rscale>
<asrwt>0</asrwt>
<pdfrwt beam="1">  1        2 0.12662843E+00 0.72954211E+02</pdfrwt>
<pdfrwt beam="2">  1       -1 0.24870402E-03 0.72954211E+02</pdfrwt>
<totfact> 0.43820191E+05</totfact>
</mgrwt>
</event>
<event>
 8    1  0.1673046E-013  0.8073850E+02  0.7818608E-02  0.1326969E+00
         -1   -1    0    0    0  501 -0.00000000000E+00  0.00000000000E+00  0.12171201771E+02  0.12171202815E+02  0.50400000000E-02 0.  1.
          2   -1    0    0  501    0  0.00000000000E+00 -0.00000000000E+00 -0.13389609444E+03  0.13389609446E+03  0.25500000000E-02 0. -1.
         24    2    1    2    0    0  0.17763568394E-14  0.00000000000E+00 -0.12172489267E+03  0.14606729728E+03  0.80738502829E+02 0.  0.
         66    2    3    3    0    0 -0.12952412210E+02 -0.24138430649E+02 -0.11448332388E+03  0.11773215481E+03  0.20000033432E+01 0.  0.
        -13    1    3    3    0    0  0.12952412210E+02  0.24138430649E+02 -0.72415687905E+01  0.28335142471E+02  0.10566000000E+00 0.  1.
         13    1    4    4    0    0 -0.16040029039E+01 -0.36432548694E+01 -0.16259416322E+02  0.16739949657E+02  0.10566000000E+00 0. -1.
        -13    1    4    4    0    0 -0.90586515142E+01 -0.17256000203E+02 -0.79701317908E+02  0.82049618833E+02  0.10566000000E+00 0.  1.
        -14    1    4    4    0    0 -0.22897577922E+01 -0.32391755763E+01 -0.18522589646E+02  0.18942586316E+02  0.00000000000E+00 0.  1.
<mgrwt>
<rscale>  0 0.80738503E+02</rscale>
<asrwt>0</asrwt>
<pdfrwt beam="1">  1        2 0.20599398E-01 0.80738503E+02</pdfrwt>
<pdfrwt beam="2">  1       -1 0.18724928E-02 0.80738503E+02</pdfrwt>
<totfact> 0.18855590E+05</totfact>
</mgrwt>
</event>
<event>
 8    1  0.1673046E-013  0.8475785E+02  0.7818608E-02  0.1316067E+00
         -1   -1    0    0    0  501 -0.00000000000E+00  0.00000000000E+00  0.59744236073E+02  0.59744236286E+02  0.50400000000E-02 0.  1.
          2   -1    0    0  501    0  0.00000000000E+00 -0.00000000000E+00 -0.30061026985E+02  0.30061027093E+02  0.25500000000E-02 0. -1.
         24    2    1    2    0    0  0.35527136788E-14  0.35527136788E-14  0.29683209089E+02  0.89805263379E+02  0.84757845824E+02 0.  0.
         66    2    3    3    0    0  0.27003560837E+02  0.26801126974E+02 -0.48724775855E+01  0.38408771762E+02  0.20000013604E+01 0.  0.
        -13    1    3    3    0    0 -0.27003560837E+02 -0.26801126974E+02  0.34555686674E+02  0.51396491617E+02  0.10566000000E+00 0.  1.
         13    1    4    4    0    0  0.12494733815E+02  0.12958471470E+02 -0.26927217071E+01  0.18201710639E+02  0.10566000000E+00 0. -1.
        -13    1    4    4    0    0  0.58559998566E+01  0.61178226922E+01 -0.13695318714E+01  0.85794679553E+01  0.10566000000E+00 0.  1.
        -14    1    4    4    0    0  0.86528271658E+01  0.77248328119E+01 -0.81022400700E+00  0.11627593168E+02  0.00000000000E+00 0.  1.
<mgrwt>
<rscale>  0 0.84757846E+02</rscale>
<asrwt>0</asrwt>
<pdfrwt beam="1">  1        2 0.46247735E-02 0.84757846E+02</pdfrwt>
<pdfrwt beam="2">  1       -1 0.91914208E-02 0.84757846E+02</pdfrwt>
<totfact> 0.11439173E+05</totfact>
</mgrwt>
</event>
<event>
 8    1  0.1673046E-013  0.7974781E+02  0.7818608E-02  0.1329769E+00
         -1   -1    0    0    0  501 -0.00000000000E+00  0.00000000000E+00  0.38169660027E+03  0.38169660030E+03  0.50400000000E-02 0.  1.
          2   -1    0    0  501    0  0.00000000000E+00 -0.00000000000E+00 -0.41654237129E+01  0.41654244935E+01  0.25500000000E-02 0. -1.
         24    2    1    2    0    0 -0.88817841970E-15  0.00000000000E+00  0.37753117656E+03  0.38586202480E+03  0.79747808169E+02 0.  0.
         66    2    3    3    0    0 -0.58052984352E+01  0.38504810302E+02  0.22982644261E+03  0.23311052234E+03  0.19999999596E+01 0.  0.
        -13    1    3    3    0    0  0.58052984352E+01 -0.38504810302E+02  0.14770473395E+03  0.15275150246E+03  0.10566000000E+00 0.  1.
         13    1    4    4    0    0 -0.45144003158E+01  0.26122276014E+02  0.15566474533E+03  0.15790591255E+03  0.10566000000E+00 0. -1.
        -13    1    4    4    0    0 -0.12225812636E+00  0.50736604082E+01  0.30994191502E+02  0.31407133710E+02  0.10566000000E+00 0.  1.
        -14    1    4    4    0    0 -0.11686399931E+01  0.73088738799E+01  0.43167505771E+02  0.43797476084E+02  0.00000000000E+00 0.  1.
<mgrwt>
<rscale>  0 0.79747808E+02</rscale>
<asrwt>0</asrwt>
<pdfrwt beam="1">  1        2 0.64083425E-03 0.79747808E+02</pdfrwt>
<pdfrwt beam="2">  1       -1 0.58722575E-01 0.79747808E+02</pdfrwt>
<totfact> 0.78242303E+04</totfact>
</mgrwt>
</event>
<event>
 8    1  0.1673046E-013  0.7929808E+02  0.7818608E-02  0.1331055E+00
         -1   -1    0    0    0  501 -0.00000000000E+00  0.00000000000E+00  0.85328674001E+02  0.85328674149E+02  0.50400000000E-02 0.  1.
          2   -1    0    0  501    0  0.00000000000E+00 -0.00000000000E+00 -0.18423422936E+02  0.18423423113E+02  0.25500000000E-02 0. -1.
         24    2    1    2    0    0 -0.71054273576E-14  0.35527136788E-14  0.66905251064E+02  0.10375209726E+03  0.79298077318E+02 0.  0.
         66    2    3    3    0    0  0.25261549883E+02 -0.16455870233E+02  0.67114754878E+02  0.73602526395E+02  0.20000004417E+01 0.  0.
        -13    1    3    3    0    0 -0.25261549883E+02  0.16455870233E+02 -0.20950381324E+00  0.30149570867E+02  0.10566000000E+00 0.  1.
         13    1    4    4    0    0  0.12588838883E+02 -0.83684859641E+01  0.35050003041E+02  0.38170987660E+02  0.10566000000E+00 0. -1.
        -13    1    4    4    0    0  0.21318876498E+01 -0.10347557856E+01  0.44163774159E+01  0.50131046271E+01  0.10566000000E+00 0.  1.
        -14    1    4    4    0    0  0.10540823350E+02 -0.70526284836E+01  0.27648374421E+02  0.30418434107E+02  0.00000000000E+00 0.  1.
<mgrwt>
<rscale>  0 0.79298077E+02</rscale>
<asrwt>0</asrwt>
<pdfrwt beam="1">  1        2 0.28343728E-02 0.79298077E+02</pdfrwt>
<pdfrwt beam="2">  1       -1 0.13127488E-01 0.79298077E+02</pdfrwt>
<totfact> 0.12523945E+05</totfact>
</mgrwt>
</event>
<event>
 8    1  0.1673046E-013  0.7923218E+02  0.7818608E-02  0.1331245E+00
          2   -1    0    0  501    0  0.00000000000E+00  0.00000000000E+00  0.50808144532E+03  0.50808144533E+03  0.25500000000E-02 0. -1.
         -1   -1    0    0    0  501 -0.00000000000E+00 -0.00000000000E+00 -0.30889406510E+01  0.30889447627E+01  0.50400000000E-02 0.  1.
         24    2    1    2    0    0  0.00000000000E+00  0.35527136788E-14  0.50499250467E+03  0.51117039009E+03  0.79232177378E+02 0.  0.
         66    2    3    3    0    0  0.11131559241E+02  0.23394020620E+02  0.44579823502E+03  0.44655487697E+03  0.19999975064E+01 0.  0.
        -13    1    3    3    0    0 -0.11131559241E+02 -0.23394020620E+02  0.59194269654E+02  0.64615513120E+02  0.10566000000E+00 0.  1.
         13    1    4    4    0    0  0.24278695007E+01  0.63447844139E+01  0.12038731999E+03  0.12057889043E+03  0.10566000000E+00 0. -1.
        -13    1    4    4    0    0  0.73096830155E+01  0.13173473889E+02  0.25662279775E+03  0.25706466768E+03  0.10566000000E+00 0.  1.
        -14    1    4    4    0    0  0.13940067250E+01  0.38757623177E+01  0.68788117276E+02  0.68911318857E+02  0.00000000000E+00 0.  1.
<mgrwt>
<rscale>  0 0.79232177E+02</rscale>
<asrwt>0</asrwt>
<pdfrwt beam="1">  1        2 0.78166271E-01 0.79232177E+02</pdfrwt>
<pdfrwt beam="2">  1       -1 0.47522260E-03 0.79232177E+02</pdfrwt>
<totfact> 0.31385124E+05</totfact>
</mgrwt>
</event>
<event>
 8    1  0.1673046E-013  0.8300654E+02  0.7818608E-02  0.1320730E+00
         -1   -1    0    0    0  501 -0.00000000000E+00  0.00000000000E+00  0.31280035369E+01  0.31280075973E+01  0.50400000000E-02 0.  1.
          2   -1    0    0  501    0  0.00000000000E+00 -0.00000000000E+00 -0.55067717124E+03  0.55067717125E+03  0.25500000000E-02 0. -1.
         24    2    1    2    0    0 -0.88817841970E-15  0.17763568394E-14 -0.54754916771E+03  0.55380517885E+03  0.83006536256E+02 0.  0.
         66    2    3    3    0    0 -0.76307327225E+01  0.13984749935E+02 -0.52944877251E+03  0.52969217856E+03  0.19999998523E+01 0.  0.
        -13    1    3    3    0    0  0.76307327225E+01 -0.13984749935E+02 -0.18100395192E+02  0.24113000285E+02  0.10566000000E+00 0.  1.
         13    1    4    4    0    0 -0.18712236231E+01  0.35562463235E+01 -0.13140530839E+03  0.13146678136E+03  0.10566000000E+00 0.  1.
        -13    1    4    4    0    0 -0.47895579287E+01  0.96034733738E+01 -0.36380690728E+03  0.36396516800E+03  0.10566000000E+00 0. -1.
        -14    1    4    4    0    0 -0.96995117062E+00  0.82503023720E+00 -0.34236556847E+02  0.34260229201E+02  0.00000000000E+00 0.  1.
<mgrwt>
<rscale>  0 0.83006536E+02</rscale>
<asrwt>0</asrwt>
<pdfrwt beam="1">  1        2 0.84719488E-01 0.83006536E+02</pdfrwt>
<pdfrwt beam="2">  1       -1 0.48123207E-03 0.83006536E+02</pdfrwt>
<totfact> 0.28495839E+05</totfact>
</mgrwt>
</event>
<event>
 8    1  0.1673046E-013  0.7871725E+02  0.7818608E-02  0.1332732E+00
         -1   -1    0    0    0  501 -0.00000000000E+00  0.00000000000E+00  0.66545555465E+01  0.66545574551E+01  0.50400000000E-02 0.  1.
          2   -1    0    0  501    0  0.00000000000E+00 -0.00000000000E+00 -0.23278806935E+03  0.23278806936E+03  0.25500000000E-02 0. -1.
         24    2    1    2    0    0  0.00000000000E+00 -0.88817841970E-15 -0.22613351380E+03  0.23944262682E+03  0.78717250161E+02 0.  0.
         66    2    3    3    0    0 -0.34774406534E+02 -0.57828021621E+01 -0.60069281114E+02  0.69677964143E+02  0.20000007322E+01 0.  0.
        -13    1    3    3    0    0  0.34774406534E+02  0.57828021621E+01 -0.16606423269E+03  0.16976466268E+03  0.10566000000E+00 0.  1.
         13    1    4    4    0    0 -0.15382295600E+02 -0.17014546100E+01 -0.26857552987E+02  0.30997568972E+02  0.10566000000E+00 0. -1.
        -13    1    4    4    0    0 -0.17485399583E+02 -0.34794697279E+01 -0.29822709652E+02  0.34745518894E+02  0.10566000000E+00 0.  1.
         14    1    4    4    0    0 -0.19067113516E+01 -0.60187782426E+00 -0.33890184757E+01  0.39348762779E+01  0.00000000000E+00 0. -1.
<mgrwt>
<rscale>  0 0.78717250E+02</rscale>
<asrwt>0</asrwt>
<pdfrwt beam="1">  1        2 0.35813543E-01 0.78717250E+02</pdfrwt>
<pdfrwt beam="2">  1       -1 0.10237781E-02 0.78717250E+02</pdfrwt>
<totfact> 0.24278751E+05</totfact>
</mgrwt>
</event>
<event>
 8    1  0.1673046E-013  0.7212330E+02  0.7818608E-02  0.1353018E+00
          2   -1    0    0  501    0  0.00000000000E+00  0.00000000000E+00  0.83591060998E+02  0.83591061037E+02  0.25500000000E-02 0. -1.
         -1   -1    0    0    0  501 -0.00000000000E+00 -0.00000000000E+00 -0.15557197040E+02  0.15557197856E+02  0.50400000000E-02 0.  1.
         24    2    1    2    0    0  0.00000000000E+00  0.00000000000E+00  0.68033863958E+02  0.99148258893E+02  0.72123301342E+02 0.  0.
         66    2    3    3    0    0  0.33775584447E+01  0.29560672327E+02  0.61986970747E+02  0.68786814082E+02  0.19999999364E+01 0.  0.
        -13    1    3    3    0    0 -0.33775584447E+01 -0.29560672327E+02  0.60468932113E+01  0.30361444811E+02  0.10566000000E+00 0.  1.
         13    1    4    4    0    0  0.13028523577E+01  0.10156353951E+02  0.22496022973E+02  0.24717021735E+02  0.10566000000E+00 0. -1.
        -13    1    4    4    0    0  0.80437995469E+00  0.96796915643E+01  0.21052261628E+02  0.23185174996E+02  0.10566000000E+00 0.  1.
        -14    1    4    4    0    0  0.12703261323E+01  0.97246268115E+01  0.18438686146E+02  0.20884617351E+02  0.00000000000E+00 0.  1.
<mgrwt>
<rscale>  0 0.72123301E+02</rscale>
<asrwt>0</asrwt>
<pdfrwt beam="1">  1        2 0.12860163E-01 0.72123301E+02</pdfrwt>
<pdfrwt beam="2">  1       -1 0.23934150E-02 0.72123301E+02</pdfrwt>
<totfact> 0.22276368E+05</totfact>
</mgrwt>
</event>
<event>
 8    1  0.1673046E-013  0.8027929E+02  0.7818608E-02  0.1328261E+00
         -1   -1    0    0    0  501 -0.00000000000E+00  0.00000000000E+00  0.30803178225E+02  0.30803178637E+02  0.50400000000E-02 0.  1.
          2   -1    0    0  501    0  0.00000000000E+00 -0.00000000000E+00 -0.52305997540E+02  0.52305997603E+02  0.25500000000E-02 0. -1.
         24    2    1    2    0    0  0.88817841970E-15  0.00000000000E+00 -0.21502819315E+02  0.83109176240E+02  0.80279287097E+02 0.  0.
         66    2    3    3    0    0 -0.66620219954E+01  0.11988464084E+02 -0.49784129271E+02  0.51677512825E+02  0.19999990854E+01 0.  0.
        -13    1    3    3    0    0  0.66620219954E+01 -0.11988464084E+02  0.28281309956E+02  0.31431663415E+02  0.10566000000E+00 0.  1.
         13    1    4    4    0    0 -0.34797295123E+01  0.56514891451E+01 -0.24920487720E+02  0.25789333440E+02  0.10566000000E+00 0. -1.
        -13    1    4    4    0    0 -0.25119935897E+01  0.42882082153E+01 -0.15411192217E+02  0.16193049468E+02  0.10566000000E+00 0.  1.
        -14    1    4    4    0    0 -0.67029889339E+00  0.20487667232E+01 -0.94524493337E+01  0.96951299166E+01  0.00000000000E+00 0.  1.
<mgrwt>
<rscale>  0 0.80279287E+02</rscale>
<asrwt>0</asrwt>
<pdfrwt beam="1">  1        2 0.80470766E-02 0.80279287E+02</pdfrwt>
<pdfrwt beam="2">  1       -1 0.47389505E-02 0.80279287E+02</pdfrwt>
<totfact> 0.14948225E+05</totfact>
</mgrwt>
</event>
<event>
 8    1  0.1673046E-013  0.8029515E+02  0.7818608E-02  0.1328216E+00
          2   -1    0    0  501    0  0.00000000000E+00  0.00000000000E+00  0.34098448340E+03  0.34098448341E+03  0.25500000000E-02 0. -1.
         -1   -1    0    0    0  501 -0.00000000000E+00 -0.00000000000E+00 -0.47269816300E+01  0.47269843169E+01  0.50400000000E-02 0.  1.
         24    2    1    2    0    0  0.00000000000E+00  0.00000000000E+00  0.33625750177E+03  0.34571146773E+03  0.80295151914E+02 0.  0.
         66    2    3    3    0    0  0.38733742683E+02  0.46737586498E+01  0.12791793113E+03  0.13375030454E+03  0.20000042327E+01 0.  0.
        -13    1    3    3    0    0 -0.38733742683E+02 -0.46737586498E+01  0.20833957064E+03  0.21196116319E+03  0.10566000000E+00 0.  1.
         13    1    4    4    0    0  0.16743839433E+02  0.25945393945E+01  0.55337364392E+02  0.57873334581E+02  0.10566000000E+00 0. -1.
        -13    1    4    4    0    0  0.51058352869E+01  0.51368357994E+00  0.18663790585E+02  0.19356695685E+02  0.10566000000E+00 0.  1.
         14    1    4    4    0    0  0.16884067963E+02  0.15655356754E+01  0.53916776152E+02  0.56520274270E+02  0.00000000000E+00 0. -1.
<mgrwt>
<rscale>  0 0.80295152E+02</rscale>
<asrwt>0</asrwt>
<pdfrwt beam="1">  1        2 0.52459150E-01 0.80295152E+02</pdfrwt>
<pdfrwt beam="2">  1       -1 0.72722818E-03 0.80295152E+02</pdfrwt>
<totfact> 0.26443027E+05</totfact>
</mgrwt>
</event>
<event>
 8    1  0.1673046E-013  0.7508003E+02  0.7818608E-02  0.1343623E+00
         -1   -1    0    0    0  501 -0.00000000000E+00  0.00000000000E+00  0.87155289729E+02  0.87155289875E+02  0.50400000000E-02 0.  1.
          2   -1    0    0  501    0  0.00000000000E+00 -0.00000000000E+00 -0.16169446694E+02  0.16169446895E+02  0.25500000000E-02 0. -1.
         24    2    1    2    0    0  0.00000000000E+00  0.88817841970E-15  0.70985843036E+02  0.10332473677E+03  0.75080032745E+02 0.  0.
         66    2    3    3    0    0  0.19307300325E+02  0.65173459784E+01 -0.78266388472E+01  0.21920399606E+02  0.19999996955E+01 0.  0.
        -13    1    3    3    0    0 -0.19307300325E+02 -0.65173459784E+01  0.78812481883E+02  0.81404337163E+02  0.10566000000E+00 0.  1.
         13    1    4    4    0    0  0.54581795848E+01  0.16863759461E+01 -0.20442394746E+01  0.60684155491E+01  0.10566000000E+00 0. -1.
        -13    1    4    4    0    0  0.88182788265E+01  0.26359192043E+01 -0.28887454484E+01  0.96470786156E+01  0.10566000000E+00 0.  1.
         14    1    4    4    0    0  0.50308419142E+01  0.21950508280E+01 -0.28936539242E+01  0.62049054413E+01  0.00000000000E+00 0. -1.
<mgrwt>
<rscale>  0 0.75080033E+02</rscale>
<asrwt>0</asrwt>
<pdfrwt beam="1">  1        2 0.24876072E-02 0.75080033E+02</pdfrwt>
<pdfrwt beam="2">  1       -1 0.13408506E-01 0.75080033E+02</pdfrwt>
<totfact> 0.14278481E+05</totfact>
</mgrwt>
</event>
<event>
 8    1  0.1673046E-013  0.8128691E+02  0.7818608E-02  0.1325439E+00
         -1   -1    0    0    0  501 -0.00000000000E+00  0.00000000000E+00  0.61832518134E+01  0.61832538675E+01  0.50400000000E-02 0.  1.
          2   -1    0    0  501    0  0.00000000000E+00 -0.00000000000E+00 -0.26715558120E+03  0.26715558121E+03  0.25500000000E-02 0. -1.
         24    2    1    2    0    0  0.00000000000E+00  0.00000000000E+00 -0.26097232939E+03  0.27333883508E+03  0.81286911968E+02 0.  0.
         66    2    3    3    0    0  0.50655105802E+01 -0.39917937744E+02 -0.14922211238E+03  0.15456500246E+03  0.20000024658E+01 0.  0.
        -13    1    3    3    0    0 -0.50655105802E+01  0.39917937744E+02 -0.11175021701E+03  0.11877383262E+03  0.10566000000E+00 0.  1.
         13    1    4    4    0    0  0.22320172311E+01 -0.12260572169E+02 -0.47340939037E+02  0.48953847691E+02  0.10566000000E+00 0. -1.
        -13    1    4    4    0    0  0.15909749726E-01 -0.74961952769E+00 -0.23936693217E+01  0.25105775060E+01  0.10566000000E+00 0.  1.
        -14    1    4    4    0    0  0.28175835994E+01 -0.26907746047E+02 -0.99487504025E+02  0.10310057726E+03  0.00000000000E+00 0.  1.
<mgrwt>
<rscale>  0 0.81286912E+02</rscale>
<asrwt>0</asrwt>
<pdfrwt beam="1">  1        2 0.41100850E-01 0.81286912E+02</pdfrwt>
<pdfrwt beam="2">  1       -1 0.95126988E-03 0.81286912E+02</pdfrwt>
<totfact> 0.23441879E+05</totfact>
</mgrwt>
</event>
<event>
 8    1  0.1673046E-013  0.7891538E+02  0.7818608E-02  0.1332158E+00
          2   -1    0    0  501    0  0.00000000000E+00  0.00000000000E+00  0.14622953167E+03  0.14622953169E+03  0.25500000000E-02 0. -1.
         -1   -1    0    0    0  501 -0.00000000000E+00 -0.00000000000E+00 -0.10647024423E+02  0.10647025616E+02  0.50400000000E-02 0.  1.
         24    2    1    2    0    0  0.00000000000E+00 -0.71054273576E-14  0.13558250725E+03  0.15687655731E+03  0.78915384822E+02 0.  0.
         66    2    3    3    0    0 -0.18677037086E+02 -0.33527780051E+02  0.85831646631E+02  0.94042625030E+02  0.20000024228E+01 0.  0.
        -13    1    3    3    0    0  0.18677037086E+02  0.33527780051E+02  0.49750860614E+02  0.62833932277E+02  0.10566000000E+00 0.  1.
         13    1    4    4    0    0 -0.10433205698E+02 -0.17310770728E+02  0.44805180254E+02  0.49153127123E+02  0.10566000000E+00 0. -1.
        -13    1    4    4    0    0 -0.43947699558E+01 -0.94312476828E+01  0.24220851689E+02  0.26361397088E+02  0.10566000000E+00 0.  1.
        -14    1    4    4    0    0 -0.38490614325E+01 -0.67857616407E+01  0.16805614688E+02  0.18528100820E+02  0.00000000000E+00 0.  1.
<mgrwt>
<rscale>  0 0.78915385E+02</rscale>
<asrwt>0</asrwt>
<pdfrwt beam="1">  1        2 0.22496852E-01 0.78915385E+02</pdfrwt>
<pdfrwt beam="2">  1       -1 0.16380038E-02 0.78915385E+02</pdfrwt>
<totfact> 0.20599630E+05</totfact>
</mgrwt>
</event>
<event>
 8    1  0.1673046E-013  0.7853077E+02  0.7818608E-02  0.1333273E+00
         -1   -1    0    0    0  501 -0.00000000000E+00  0.00000000000E+00  0.53967483189E+01  0.53967506723E+01  0.50400000000E-02 0.  1.
          2   -1    0    0  501    0  0.00000000000E+00 -0.00000000000E+00 -0.28568503739E+03  0.28568503740E+03  0.25500000000E-02 0. -1.
         24    2    1    2    0    0  0.00000000000E+00  0.00000000000E+00 -0.28028828907E+03  0.29108178807E+03  0.78530773317E+02 0.  0.
         66    2    3    3    0    0  0.90068831609E+01 -0.19981388506E+02 -0.26087781957E+03  0.26180453886E+03  0.19999990262E+01 0.  0.
        -13    1    3    3    0    0 -0.90068831609E+01  0.19981388506E+02 -0.19410469502E+02  0.29277249209E+02  0.10566000000E+00 0.  1.
         13    1    4    4    0    0  0.50562979050E+01 -0.10419182500E+02 -0.12746021808E+03  0.12798532677E+03  0.10566000000E+00 0. -1.
        -13    1    4    4    0    0  0.23670554291E+01 -0.63689960159E+01 -0.87339831832E+02  0.87603792442E+02  0.10566000000E+00 0.  1.
         14    1    4    4    0    0  0.15835298268E+01 -0.31932099906E+01 -0.46077769655E+02  0.46215419646E+02  0.00000000000E+00 0. -1.
<mgrwt>
<rscale>  0 0.78530773E+02</rscale>
<asrwt>0</asrwt>
<pdfrwt beam="1">  1        2 0.43951533E-01 0.78530773E+02</pdfrwt>
<pdfrwt beam="2">  1       -1 0.83026938E-03 0.78530773E+02</pdfrwt>
<totfact> 0.26293901E+05</totfact>
</mgrwt>
</event>
<event>
 8    1  0.1673046E-013  0.7679862E+02  0.7818608E-02  0.1338390E+00
         -1   -1    0    0    0  501 -0.00000000000E+00  0.00000000000E+00  0.15550444650E+01  0.15550526325E+01  0.50400000000E-02 0.  1.
          2   -1    0    0  501    0  0.00000000000E+00 -0.00000000000E+00 -0.94820648821E+03  0.94820648821E+03  0.25500000000E-02 0. -1.
         24    2    1    2    0    0  0.00000000000E+00 -0.35527136788E-14 -0.94665144374E+03  0.94976154084E+03  0.76798623201E+02 0.  0.
         66    2    3    3    0    0 -0.10601251704E+02 -0.16578931983E+02 -0.88105142132E+03  0.88127342779E+03  0.20000001333E+01 0.  0.
        -13    1    3    3    0    0  0.10601251704E+02  0.16578931983E+02 -0.65600022426E+02  0.68488113054E+02  0.10566000000E+00 0.  1.
         13    1    4    4    0    0 -0.29685804901E+00 -0.43647107388E+00 -0.36608441825E+02  0.36612399656E+02  0.10566000000E+00 0.  1.
        -13    1    4    4    0    0 -0.20296004591E+01 -0.25178757176E+01 -0.15543864458E+03  0.15547232027E+03  0.10566000000E+00 0. -1.
         14    1    4    4    0    0 -0.82747931954E+01 -0.13624585191E+02 -0.68900433491E+03  0.68918870787E+03  0.00000000000E+00 0. -1.
<mgrwt>
<rscale>  0 0.76798623E+02</rscale>
<asrwt>0</asrwt>
<pdfrwt beam="1">  1        2 0.14587746E+00 0.76798623E+02</pdfrwt>
<pdfrwt beam="2">  1       -1 0.23923900E-03 0.76798623E+02</pdfrwt>
<totfact> 0.39038415E+05</totfact>
</mgrwt>
</event>
<event>
 8    1  0.1673046E-013  0.7947309E+02  0.7818608E-02  0.1330553E+00
          2   -1    0    0  501    0  0.00000000000E+00  0.00000000000E+00  0.57991834680E+03  0.57991834680E+03  0.25500000000E-02 0. -1.
         -1   -1    0    0    0  501 -0.00000000000E+00 -0.00000000000E+00 -0.27227827122E+01  0.27227873768E+01  0.50400000000E-02 0.  1.
         24    2    1    2    0    0  0.00000000000E+00  0.00000000000E+00  0.57719556409E+03  0.58264113418E+03  0.79473090029E+02 0.  0.
         66    2    3    3    0    0  0.13668973038E+02 -0.33388064148E+01  0.56102705224E+03  0.56120704004E+03  0.19999992544E+01 0.  0.
        -13    1    3    3    0    0 -0.13668973038E+02  0.33388064148E+01  0.16168511851E+02  0.21434094142E+02  0.10566000000E+00 0.  1.
         13    1    4    4    0    0  0.56813224671E+01 -0.16112155110E+01  0.21081608503E+03  0.21089880586E+03  0.10566000000E+00 0. -1.
        -13    1    4    4    0    0  0.31846557440E+01 -0.11970250605E+01  0.13333087478E+03  0.13337431625E+03  0.10566000000E+00 0.  1.
         14    1    4    4    0    0  0.48029948268E+01 -0.53056584330E+00  0.21688009242E+03  0.21693391793E+03  0.00000000000E+00 0. -1.
<mgrwt>
<rscale>  0 0.79473090E+02</rscale>
<asrwt>0</asrwt>
<pdfrwt beam="1">  1        2 0.89218184E-01 0.79473090E+02</pdfrwt>
<pdfrwt beam="2">  1       -1 0.41889012E-03 0.79473090E+02</pdfrwt>
<totfact> 0.32407722E+05</totfact>
</mgrwt>
</event>
<event>
 8    1  0.1673046E-013  0.8236418E+02  0.7818608E-02  0.1322473E+00
         -1   -1    0    0    0  501 -0.00000000000E+00  0.00000000000E+00  0.49254864253E+02  0.49254864511E+02  0.50400000000E-02 0.  1.
          2   -1    0    0  501    0  0.00000000000E+00 -0.00000000000E+00 -0.34432430951E+02  0.34432431045E+02  0.25500000000E-02 0. -1.
         24    2    1    2    0    0  0.00000000000E+00 -0.35527136788E-14  0.14822433302E+02  0.83687295556E+02  0.82364184623E+02 0.  0.
         66    2    3    3    0    0  0.17706936321E+02 -0.24416676163E+02 -0.21038758854E+02  0.36828508380E+02  0.19999966738E+01 0.  0.
        -13    1    3    3    0    0 -0.17706936321E+02  0.24416676163E+02  0.35861192157E+02  0.46858787176E+02  0.10566000000E+00 0.  1.
         13    1    4    4    0    0  0.23079443569E+01 -0.27094332592E+01 -0.19312432827E+01  0.40507407216E+01  0.10566000000E+00 0. -1.
        -13    1    4    4    0    0  0.29332176543E+01 -0.48021332316E+01 -0.40077254407E+01  0.69092167881E+01  0.10566000000E+00 0. -1.
         14    1    4    4    0    0  0.12465774310E+02 -0.16905109672E+02 -0.15099790131E+02  0.25868550871E+02  0.00000000000E+00 0. -1.
<mgrwt>
<rscale>  0 0.82364185E+02</rscale>
<asrwt>0</asrwt>
<pdfrwt beam="1">  1        2 0.52972971E-02 0.82364185E+02</pdfrwt>
<pdfrwt beam="2">  1       -1 0.75776714E-02 0.82364185E+02</pdfrwt>
<totfact> 0.12749286E+05</totfact>
</mgrwt>
</event>
<event>
 8    1  0.1673046E-013  0.8278425E+02  0.7818608E-02  0.1321331E+00
         -1   -1    0    0    0  501 -0.00000000000E+00  0.00000000000E+00  0.19993058706E+02  0.19993059341E+02  0.50400000000E-02 0.  1.
          2   -1    0    0  501    0  0.00000000000E+00 -0.00000000000E+00 -0.85695132300E+02  0.85695132338E+02  0.25500000000E-02 0. -1.
         24    2    1    2    0    0 -0.88817841970E-15  0.71054273576E-14 -0.65702073594E+02  0.10568819168E+03  0.82784246001E+02 0.  0.
         66    2    3    3    0    0 -0.60610411470E+01  0.25751223104E+02 -0.73472311433E+02  0.78115569910E+02  0.20000009811E+01 0.  0.
        -13    1    3    3    0    0  0.60610411470E+01 -0.25751223104E+02  0.77702378391E+01  0.27572621769E+02  0.10566000000E+00 0.  1.
         13    1    4    4    0    0 -0.16126878071E+01  0.78524121875E+01 -0.21592911019E+02  0.23033152399E+02  0.10566000000E+00 0. -1.
        -13    1    4    4    0    0  0.88657219326E-01  0.39657918020E+00 -0.94600199319E+00  0.10349970799E+01  0.10566000000E+00 0.  1.
         14    1    4    4    0    0 -0.45370105593E+01  0.17502231736E+02 -0.50933398420E+02  0.54047420430E+02  0.00000000000E+00 0. -1.
<mgrwt>
<rscale>  0 0.82784246E+02</rscale>
<asrwt>0</asrwt>
<pdfrwt beam="1">  1        2 0.13183866E-01 0.82784246E+02</pdfrwt>
<pdfrwt beam="2">  1       -1 0.30758553E-02 0.82784246E+02</pdfrwt>
<totfact> 0.15499635E+05</totfact>
</mgrwt>
</event>
<event>
 8    1  0.1673046E-013  0.8192459E+02  0.7818608E-02  0.1323677E+00
          2   -1    0    0  501    0  0.00000000000E+00  0.00000000000E+00  0.19551431465E+02  0.19551431631E+02  0.25500000000E-02 0. -1.
         -1   -1    0    0    0  501 -0.00000000000E+00 -0.00000000000E+00 -0.85820300125E+02  0.85820300273E+02  0.50400000000E-02 0.  1.
         24    2    1    2    0    0 -0.17763568394E-14  0.00000000000E+00 -0.66268868660E+02  0.10537173190E+03  0.81924592955E+02 0.  0.
         66    2    3    3    0    0 -0.83209675341E+01 -0.39663403289E+02 -0.40596423352E+02  0.57397679820E+02  0.19999996471E+01 0.  0.
        -13    1    3    3    0    0  0.83209675341E+01  0.39663403289E+02 -0.25672445308E+02  0.47974052084E+02  0.10566000000E+00 0.  1.
         13    1    4    4    0    0 -0.50392161620E+01 -0.24308950475E+02 -0.25581069635E+02  0.35647174648E+02  0.10566000000E+00 0. -1.
        -13    1    4    4    0    0 -0.62487146265E+00 -0.52201381916E+01 -0.51212337334E+01  0.73401979587E+01  0.10566000000E+00 0.  1.
         14    1    4    4    0    0 -0.26568799095E+01 -0.10134314623E+02 -0.98941199840E+01  0.14410307213E+02  0.00000000000E+00 0. -1.
<mgrwt>
<rscale>  0 0.81924593E+02</rscale>
<asrwt>0</asrwt>
<pdfrwt beam="1">  1        2 0.30079126E-02 0.81924593E+02</pdfrwt>
<pdfrwt beam="2">  1       -1 0.13203123E-01 0.81924593E+02</pdfrwt>
<totfact> 0.11539808E+05</totfact>
</mgrwt>
</event>
<event>
 8    1  0.1673046E-013  0.7893685E+02  0.7818608E-02  0.1332096E+00
         -1   -1    0    0    0  501 -0.00000000000E+00  0.00000000000E+00  0.13843020277E+02  0.13843021194E+02  0.50400000000E-02 0.  1.
          2   -1    0    0  501    0  0.00000000000E+00 -0.00000000000E+00 -0.11253010070E+03  0.11253010073E+03  0.25500000000E-02 0. -1.
         24    2    1    2    0    0  0.00000000000E+00 -0.11102230246E-15 -0.98687080421E+02  0.12637312192E+03  0.78936848822E+02 0.  0.
         66    2    3    3    0    0 -0.38318740461E+02  0.55676592618E+00 -0.34432629872E+02  0.51558140545E+02  0.19999994372E+01 0.  0.
        -13    1    3    3    0    0  0.38318740461E+02 -0.55676592618E+00 -0.64254450549E+02  0.74814981376E+02  0.10566000000E+00 0.  1.
         13    1    4    4    0    0 -0.14776614520E+02 -0.10860935954E+00 -0.14308122547E+02  0.20569240811E+02  0.10566000000E+00 0. -1.
        -13    1    4    4    0    0 -0.12634145103E+02  0.71626692674E+00 -0.11017888636E+02  0.16779144639E+02  0.10566000000E+00 0.  1.
        -14    1    4    4    0    0 -0.10907980838E+02 -0.50891641020E-01 -0.91066186888E+01  0.14209755095E+02  0.00000000000E+00 0.  1.
<mgrwt>
<rscale>  0 0.78936849E+02</rscale>
<asrwt>0</asrwt>
<pdfrwt beam="1">  1        2 0.17312323E-01 0.78936849E+02</pdfrwt>
<pdfrwt beam="2">  1       -1 0.21296956E-02 0.78936849E+02</pdfrwt>
<totfact> 0.19001246E+05</totfact>
</mgrwt>
</event>
<event>
 8    1  0.1673046E-013  0.8283927E+02  0.7818608E-02  0.1321182E+00
          2   -1    0    0  501    0  0.00000000000E+00  0.00000000000E+00  0.16903882956E+02  0.16903883148E+02  0.25500000000E-02 0. -1.
         -1   -1    0    0    0  501 -0.00000000000E+00 -0.00000000000E+00 -0.10149065758E+03  0.10149065771E+03  0.50400000000E-02 0.  1.
         24    2    1    2    0    0  0.71054273576E-14  0.35527136788E-14 -0.84586774629E+02  0.11839454086E+03  0.82839271261E+02 0.  0.
         66    2    3    3    0    0  0.34802567090E+02  0.21683584736E+02 -0.34209852482E+02  0.53438848483E+02  0.19999993143E+01 0.  0.
        -13    1    3    3    0    0 -0.34802567090E+02 -0.21683584736E+02 -0.50376922146E+02  0.64955692376E+02  0.10566000000E+00 0.  1.
         13    1    4    4    0    0  0.13371437013E+02  0.78824688466E+01 -0.12648467107E+02  0.20023074866E+02  0.10566000000E+00 0. -1.
        -13    1    4    4    0    0  0.18231086398E+02  0.12211245088E+02 -0.18897735031E+02  0.28958980838E+02  0.10566000000E+00 0.  1.
        -14    1    4    4    0    0  0.32000436785E+01  0.15898708014E+01 -0.26636503446E+01  0.44567927782E+01  0.00000000000E+00 0.  1.
<mgrwt>
<rscale>  0 0.82839271E+02</rscale>
<asrwt>0</asrwt>
<pdfrwt beam="1">  1        2 0.26005975E-02 0.82839271E+02</pdfrwt>
<pdfrwt beam="2">  1       -1 0.15613947E-01 0.82839271E+02</pdfrwt>
<totfact> 0.10831188E+05</totfact>
</mgrwt>
</event>
<event>
 8    1  0.1673046E-013  0.8084301E+02  0.7818608E-02  0.1326676E+00
         -1   -1    0    0    0  501 -0.00000000000E+00  0.00000000000E+00  0.15998615284E+02  0.15998616077E+02  0.50400000000E-02 0.  1.
          2   -1    0    0  501    0  0.00000000000E+00 -0.00000000000E+00 -0.10212745719E+03  0.10212745722E+03  0.25500000000E-02 0. -1.
         24    2    1    2    0    0  0.35527136788E-14  0.35527136788E-14 -0.86128841907E+02  0.11812607330E+03  0.80843007026E+02 0.  0.
         66    2    3    3    0    0  0.21704383134E+02  0.27790507726E+02 -0.71891139266E+02  0.80098242604E+02  0.19999990600E+01 0.  0.
        -13    1    3    3    0    0 -0.21704383134E+02 -0.27790507726E+02 -0.14237702640E+02  0.38027830696E+02  0.10566000000E+00 0.  1.
         13    1    4    4    0    0  0.82232004632E+01  0.11048832356E+02 -0.27997449434E+02  0.31202020146E+02  0.10566000000E+00 0. -1.
        -13    1    4    4    0    0  0.62802934483E+01  0.81444777581E+01 -0.19420204047E+02  0.21975670479E+02  0.10566000000E+00 0.  1.
        -14    1    4    4    0    0  0.72008892226E+01  0.85971976124E+01 -0.24473485785E+02  0.26920551979E+02  0.00000000000E+00 0.  1.
<mgrwt>
<rscale>  0 0.80843007E+02</rscale>
<asrwt>0</asrwt>
<pdfrwt beam="1">  1        2 0.15711916E-01 0.80843007E+02</pdfrwt>
<pdfrwt beam="2">  1       -1 0.24613256E-02 0.80843007E+02</pdfrwt>
<totfact> 0.17337231E+05</totfact>
</mgrwt>
</event>
<event>
 8    1  0.1673046E-013  0.8066726E+02  0.7818608E-02  0.1327168E+00
         -1   -1    0    0    0  501 -0.00000000000E+00  0.00000000000E+00  0.35926866334E+02  0.35926866688E+02  0.50400000000E-02 0.  1.
          2   -1    0    0  501    0  0.00000000000E+00 -0.00000000000E+00 -0.45280924175E+02  0.45280924246E+02  0.25500000000E-02 0. -1.
         24    2    1    2    0    0 -0.88817841970E-15  0.71054273576E-14 -0.93540578403E+01  0.81207790934E+02  0.80667260461E+02 0.  0.
         66    2    3    3    0    0 -0.34537943965E+01  0.32654058706E+02 -0.28215614345E+02  0.43339786980E+02  0.19999992222E+01 0.  0.
        -13    1    3    3    0    0  0.34537943965E+01 -0.32654058706E+02  0.18861556505E+02  0.37868003955E+02  0.10566000000E+00 0.  1.
         13    1    4    4    0    0 -0.74309530298E+00  0.38280055953E+01 -0.34174276125E+01  0.51861154046E+01  0.10566000000E+00 0. -1.
        -13    1    4    4    0    0 -0.14174881495E+01  0.77503376165E+01 -0.66152861179E+01  0.10288351679E+02  0.10566000000E+00 0.  1.
         14    1    4    4    0    0 -0.12932109441E+01  0.21075715494E+02 -0.18182900615E+02  0.27865319896E+02  0.00000000000E+00 0. -1.
<mgrwt>
<rscale>  0 0.80667260E+02</rscale>
<asrwt>0</asrwt>
<pdfrwt beam="1">  1        2 0.69662961E-02 0.80667260E+02</pdfrwt>
<pdfrwt beam="2">  1       -1 0.55272102E-02 0.80667260E+02</pdfrwt>
<totfact> 0.14297923E+05</totfact>
</mgrwt>
</event>
<event>
 8    1  0.1673046E-013  0.8894233E+02  0.7818608E-02  0.1305433E+00
          2   -1    0    0  501    0  0.00000000000E+00  0.00000000000E+00  0.25783847846E+03  0.25783847847E+03  0.25500000000E-02 0. -1.
         -1   -1    0    0    0  501 -0.00000000000E+00 -0.00000000000E+00 -0.76702454814E+01  0.76702471372E+01  0.50400000000E-02 0.  1.
         24    2    1    2    0    0  0.00000000000E+00  0.71054273576E-14  0.25016823298E+03  0.26550872561E+03  0.88942332909E+02 0.  0.
         66    2    3    3    0    0 -0.28597777925E+02 -0.33579723130E+02  0.10872901800E+03  0.11735173655E+03  0.20000024351E+01 0.  0.
        -13    1    3    3    0    0  0.28597777925E+02  0.33579723130E+02  0.14143921498E+03  0.14815698906E+03  0.10566000000E+00 0.  1.
         13    1    4    4    0    0 -0.52356384607E+00 -0.85955457306E+00  0.26705405395E+01  0.28558543334E+01  0.10566000000E+00 0.  1.
        -13    1    4    4    0    0 -0.53623396455E+01 -0.62251428015E+01  0.21752089315E+02  0.23252347042E+02  0.10566000000E+00 0.  1.
         14    1    4    4    0    0 -0.22711874433E+02 -0.26495025755E+02  0.84306388142E+02  0.91243535177E+02  0.00000000000E+00 0. -1.
<mgrwt>
<rscale>  0 0.88942333E+02</rscale>
<asrwt>0</asrwt>
<pdfrwt beam="1">  1        2 0.39667457E-01 0.88942333E+02</pdfrwt>
<pdfrwt beam="2">  1       -1 0.11800379E-02 0.88942333E+02</pdfrwt>
<totfact> 0.18241711E+05</totfact>
</mgrwt>
</event>
<event>
 8    1  0.1673046E-013  0.8176063E+02  0.7818608E-02  0.1324128E+00
         -1   -1    0    0    0  501 -0.00000000000E+00  0.00000000000E+00  0.51655030997E+01  0.51655055585E+01  0.50400000000E-02 0.  1.
          2   -1    0    0  501    0  0.00000000000E+00 -0.00000000000E+00 -0.32353090938E+03  0.32353090939E+03  0.25500000000E-02 0. -1.
         24    2    1    2    0    0  0.17763568394E-14  0.35527136788E-14 -0.31836540628E+03  0.32869641495E+03  0.81760634073E+02 0.  0.
         66    2    3    3    0    0  0.87089431482E+01  0.18064292245E+02 -0.30237923684E+03  0.30305010679E+03  0.20000011756E+01 0.  0.
        -13    1    3    3    0    0 -0.87089431482E+01 -0.18064292245E+02 -0.15986169440E+02  0.25646308164E+02  0.10566000000E+00 0.  1.
         13    1    4    4    0    0  0.44286058854E+01  0.95327769934E+01 -0.16289664717E+03  0.16323545942E+03  0.10566000000E+00 0. -1.
        -13    1    4    4    0    0  0.24797225671E+01  0.35652364816E+01 -0.64847236376E+02  0.64992577767E+02  0.10566000000E+00 0.  1.
        -14    1    4    4    0    0  0.18006146957E+01  0.49662787696E+01 -0.74635353296E+02  0.74822069604E+02  0.00000000000E+00 0.  1.
<mgrwt>
<rscale>  0 0.81760634E+02</rscale>
<asrwt>0</asrwt>
<pdfrwt beam="1">  1        2 0.49773970E-01 0.81760634E+02</pdfrwt>
<pdfrwt beam="2">  1       -1 0.79469323E-03 0.81760634E+02</pdfrwt>
<totfact> 0.24746147E+05</totfact>
</mgrwt>
</event>
<event>
 8    1  0.1673046E-013  0.7798174E+02  0.7818608E-02  0.1334879E+00
          2   -1    0    0  501    0  0.00000000000E+00  0.00000000000E+00  0.32042121030E+03  0.32042121031E+03  0.25500000000E-02 0. -1.
         -1   -1    0    0    0  501 -0.00000000000E+00 -0.00000000000E+00 -0.47446526949E+01  0.47446553717E+01  0.50400000000E-02 0.  1.
         24    2    1    2    0    0  0.00000000000E+00 -0.41633363423E-16  0.31567655760E+03  0.32516586568E+03  0.77981736215E+02 0.  0.
         66    2    3    3    0    0  0.38478639012E+02  0.11924242229E+00  0.13235186117E+03  0.13784641831E+03  0.20000012534E+01 0.  0.
        -13    1    3    3    0    0 -0.38478639012E+02 -0.11924242229E+00  0.18332469643E+03  0.18731944737E+03  0.10566000000E+00 0.  1.
         13    1    4    4    0    0  0.15632172355E+02  0.60521047905E+00  0.54566088758E+02  0.56764428110E+02  0.10566000000E+00 0. -1.
        -13    1    4    4    0    0  0.31384682961E+01 -0.44481472675E+00  0.11319436149E+02  0.11755366525E+02  0.10566000000E+00 0.  1.
         14    1    4    4    0    0  0.19707998361E+02 -0.41153330006E-01  0.66466336268E+02  0.69326623673E+02  0.00000000000E+00 0. -1.
<mgrwt>
<rscale>  0 0.77981736E+02</rscale>
<asrwt>0</asrwt>
<pdfrwt beam="1">  1        2 0.49295576E-01 0.77981736E+02</pdfrwt>
<pdfrwt beam="2">  1       -1 0.72994670E-03 0.77981736E+02</pdfrwt>
<totfact> 0.27913589E+05</totfact>
</mgrwt>
</event>
<event>
 8    1  0.1673046E-013  0.7890857E+02  0.7818608E-02  0.1332178E+00
         -1   -1    0    0    0  501 -0.00000000000E+00  0.00000000000E+00  0.12306583774E+01  0.12306686977E+01  0.50400000000E-02 0.  1.
          2   -1    0    0  501    0  0.00000000000E+00 -0.00000000000E+00 -0.12648792409E+04  0.12648792409E+04  0.25500000000E-02 0. -1.
         24    2    1    2    0    0 -0.35527136788E-14  0.17763568394E-14 -0.12636485825E+04  0.12661099096E+04  0.78908574164E+02 0.  0.
         66    2    3    3    0    0 -0.19590314390E+02  0.13741237485E+02 -0.11350466008E+04  0.11353005716E+04  0.19999998400E+01 0.  0.
        -13    1    3    3    0    0  0.19590314390E+02 -0.13741237485E+02 -0.12860198179E+03  0.13080933801E+03  0.10566000000E+00 0.  1.
         13    1    4    4    0    0 -0.26353034725E+00  0.88922081885E-01 -0.11835451864E+02  0.11839190861E+02  0.10566000000E+00 0. -1.
        -13    1    4    4    0    0 -0.61083085050E+01  0.35108682637E+01 -0.34297576008E+03  0.34304813190E+03  0.10566000000E+00 0.  1.
         14    1    4    4    0    0 -0.13218475538E+02  0.10141447140E+02 -0.78023538881E+03  0.78041324886E+03  0.00000000000E+00 0. -1.
<mgrwt>
<rscale>  0 0.78908574E+02</rscale>
<asrwt>0</asrwt>
<pdfrwt beam="1">  1        2 0.19459577E+00 0.78908574E+02</pdfrwt>
<pdfrwt beam="2">  1       -1 0.18933387E-03 0.78908574E+02</pdfrwt>
<totfact> 0.36049173E+05</totfact>
</mgrwt>
</event>
<event>
 8    1  0.1673046E-013  0.8023913E+02  0.7818608E-02  0.1328374E+00
         -1   -1    0    0    0  501 -0.00000000000E+00  0.00000000000E+00  0.34157645576E+01  0.34157682759E+01  0.50400000000E-02 0.  1.
          2   -1    0    0  501    0  0.00000000000E+00 -0.00000000000E+00 -0.47122058455E+03  0.47122058456E+03  0.25500000000E-02 0. -1.
         24    2    1    2    0    0 -0.11102230246E-15 -0.71054273576E-14 -0.46780482000E+03  0.47463635284E+03  0.80239128998E+02 0.  0.
         66    2    3    3    0    0 -0.62102858972E+00 -0.37825345740E+02 -0.31261854836E+03  0.31490554014E+03  0.19999935784E+01 0.  0.
        -13    1    3    3    0    0  0.62102858972E+00  0.37825345740E+02 -0.15518627164E+03  0.15973081270E+03  0.10566000000E+00 0.  1.
         13    1    4    4    0    0 -0.17034393607E+00 -0.29052177334E+01 -0.24348316199E+02  0.24521846850E+02  0.10566000000E+00 0. -1.
        -13    1    4    4    0    0 -0.93064732277E+00 -0.10110137759E+02 -0.82039127228E+02  0.82665050356E+02  0.10566000000E+00 0.  1.
        -14    1    4    4    0    0  0.47996266913E+00 -0.24809990247E+02 -0.20623110493E+03  0.20771864293E+03  0.00000000000E+00 0.  1.
<mgrwt>
<rscale>  0 0.80239129E+02</rscale>
<asrwt>0</asrwt>
<pdfrwt beam="1">  1        2 0.72495423E-01 0.80239129E+02</pdfrwt>
<pdfrwt beam="2">  1       -1 0.52550290E-03 0.80239129E+02</pdfrwt>
<totfact> 0.29640726E+05</totfact>
</mgrwt>
</event>
<event>
 8    1  0.1673046E-013  0.7810662E+02  0.7818608E-02  0.1334512E+00
         -1   -1    0    0    0  501 -0.00000000000E+00  0.00000000000E+00  0.25871849855E+02  0.25871850345E+02  0.50400000000E-02 0.  1.
          2   -1    0    0  501    0  0.00000000000E+00 -0.00000000000E+00 -0.58950590837E+02  0.58950590892E+02  0.25500000000E-02 0. -1.
         24    2    1    2    0    0  0.00000000000E+00 -0.35527136788E-14 -0.33078740983E+02  0.84822441238E+02  0.78106615805E+02 0.  0.
         66    2    3    3    0    0  0.25818571126E+02 -0.20689183612E+02 -0.39030684143E+02  0.51205812541E+02  0.19999999569E+01 0.  0.
        -13    1    3    3    0    0 -0.25818571126E+02  0.20689183612E+02  0.59519431603E+01  0.33616628697E+02  0.10566000000E+00 0.  1.
         13    1    4    4    0    0  0.62173759401E+01 -0.46550435908E+01 -0.90345524987E+01  0.11914675711E+02  0.10566000000E+00 0. -1.
        -13    1    4    4    0    0  0.97792792422E+01 -0.90301554691E+01 -0.16037476873E+02  0.20842020986E+02  0.10566000000E+00 0.  1.
         14    1    4    4    0    0  0.98219159433E+01 -0.70039845525E+01 -0.13958654771E+02  0.18449115844E+02  0.00000000000E+00 0. -1.
<mgrwt>
<rscale>  0 0.78106616E+02</rscale>
<asrwt>0</asrwt>
<pdfrwt beam="1">  1        2 0.90693216E-02 0.78106616E+02</pdfrwt>
<pdfrwt beam="2">  1       -1 0.39802847E-02 0.78106616E+02</pdfrwt>
<totfact> 0.16545898E+05</totfact>
</mgrwt>
</event>
<event>
 8    1  0.1673046E-013  0.8110288E+02  0.7818608E-02  0.1325950E+00
          2   -1    0    0  501    0  0.00000000000E+00  0.00000000000E+00  0.36572795415E+02  0.36572795504E+02  0.25500000000E-02 0. -1.
         -1   -1    0    0    0  501 -0.00000000000E+00 -0.00000000000E+00 -0.44962908794E+02  0.44962909077E+02  0.50400000000E-02 0.  1.
         24    2    1    2    0    0  0.35527136788E-14  0.00000000000E+00 -0.83901133791E+01  0.81535704581E+02  0.81102879844E+02 0.  0.
         66    2    3    3    0    0 -0.26872437166E+02  0.52256694032E+01  0.25844626670E+02  0.37701196596E+02  0.19999992755E+01 0.  0.
        -13    1    3    3    0    0  0.26872437166E+02 -0.52256694032E+01 -0.34234740049E+02  0.43834507985E+02  0.10566000000E+00 0.  1.
         13    1    4    4    0    0 -0.35394509437E+01  0.11096178508E+00  0.35350137529E+01  0.50047489217E+01  0.10566000000E+00 0. -1.
        -13    1    4    4    0    0 -0.28034254945E+01  0.84036077191E+00  0.29405427675E+01  0.41501031955E+01  0.10566000000E+00 0.  1.
         14    1    4    4    0    0 -0.20529560728E+02  0.42743468463E+01  0.19369070150E+02  0.28546344479E+02  0.00000000000E+00 0. -1.
<mgrwt>
<rscale>  0 0.81102880E+02</rscale>
<asrwt>0</asrwt>
<pdfrwt beam="1">  1        2 0.56265839E-02 0.81102880E+02</pdfrwt>
<pdfrwt beam="2">  1       -1 0.69173706E-02 0.81102880E+02</pdfrwt>
<totfact> 0.13474814E+05</totfact>
</mgrwt>
</event>
<event>
 8    1  0.1673046E-013  0.7994707E+02  0.7818608E-02  0.1329202E+00
          2   -1    0    0  501    0  0.00000000000E+00  0.00000000000E+00  0.94490035035E+03  0.94490035036E+03  0.25500000000E-02 0. -1.
         -1   -1    0    0    0  501 -0.00000000000E+00 -0.00000000000E+00 -0.16910566593E+01  0.16910641698E+01  0.50400000000E-02 0.  1.
         24    2    1    2    0    0  0.00000000000E+00  0.00000000000E+00  0.94320929369E+03  0.94659141453E+03  0.79947072146E+02 0.  0.
         66    2    3    3    0    0  0.29528100315E+02  0.27382156958E+01  0.78882625628E+03  0.78938600769E+03  0.20000017273E+01 0.  0.
        -13    1    3    3    0    0 -0.29528100315E+02 -0.27382156958E+01  0.15438303742E+03  0.15720540684E+03  0.10566000000E+00 0.  1.
         13    1    4    4    0    0  0.33755096810E+01 -0.32047602259E-01  0.96181002877E+02  0.96240280398E+02  0.10566000000E+00 0. -1.
        -13    1    4    4    0    0  0.72093612017E+01  0.86083401669E+00  0.20757737926E+03  0.20770434629E+03  0.10566000000E+00 0.  1.
         14    1    4    4    0    0  0.18943229432E+02  0.19094292814E+01  0.48506787414E+03  0.48544138100E+03  0.00000000000E+00 0. -1.
<mgrwt>
<rscale>  0 0.79947072E+02</rscale>
<asrwt>0</asrwt>
<pdfrwt beam="1">  1        2 0.14536910E+00 0.79947072E+02</pdfrwt>
<pdfrwt beam="2">  1       -1 0.26016347E-03 0.79947072E+02</pdfrwt>
<totfact> 0.35169393E+05</totfact>
</mgrwt>
</event>
<event>
 8    1  0.1673046E-013  0.7921015E+02  0.7818608E-02  0.1331308E+00
         -1   -1    0    0    0  501 -0.00000000000E+00  0.00000000000E+00  0.59268478870E+01  0.59268500300E+01  0.50400000000E-02 0.  1.
          2   -1    0    0  501    0  0.00000000000E+00 -0.00000000000E+00 -0.26465360027E+03  0.26465360028E+03  0.25500000000E-02 0. -1.
         24    2    1    2    0    0  0.00000000000E+00  0.00000000000E+00 -0.25872675238E+03  0.27058045031E+03  0.79210148924E+02 0.  0.
         66    2    3    3    0    0  0.81974673334E+01  0.22210759931E+02 -0.23779422996E+03  0.23897826706E+03  0.19999991879E+01 0.  0.
        -13    1    3    3    0    0 -0.81974673334E+01 -0.22210759931E+02 -0.20932522424E+02  0.31602183255E+02  0.10566000000E+00 0.  1.
         13    1    4    4    0    0  0.25983131640E+01  0.64622009748E+01 -0.66583537306E+02  0.66946918353E+02  0.10566000000E+00 0. -1.
        -13    1    4    4    0    0  0.38503460188E+01  0.87376201080E+01 -0.10019620359E+03  0.10065019397E+03  0.10566000000E+00 0.  1.
        -14    1    4    4    0    0  0.17488081505E+01  0.70109388481E+01 -0.71014489067E+02  0.71381154732E+02  0.00000000000E+00 0.  1.
<mgrwt>
<rscale>  0 0.79210149E+02</rscale>
<asrwt>0</asrwt>
<pdfrwt beam="1">  1        2 0.40715929E-01 0.79210149E+02</pdfrwt>
<pdfrwt beam="2">  1       -1 0.91182312E-03 0.79210149E+02</pdfrwt>
<totfact> 0.25005882E+05</totfact>
</mgrwt>
</event>
<event>
 8    1  0.1673046E-013  0.7852209E+02  0.7818608E-02  0.1333299E+00
          2   -1    0    0  501    0  0.00000000000E+00  0.00000000000E+00  0.14824538932E+03  0.14824538934E+03  0.25500000000E-02 0. -1.
         -1   -1    0    0    0  501 -0.00000000000E+00 -0.00000000000E+00 -0.10397825669E+02  0.10397826891E+02  0.50400000000E-02 0.  1.
         24    2    1    2    0    0 -0.88817841970E-15  0.00000000000E+00  0.13784756365E+03  0.15864321623E+03  0.78522094039E+02 0.  0.
         66    2    3    3    0    0  0.79919222594E+01  0.14715388082E+02  0.14065604131E+03  0.14166345832E+03  0.19999999602E+01 0.  0.
        -13    1    3    3    0    0 -0.79919222594E+01 -0.14715388082E+02 -0.28084776591E+01  0.16979757908E+02  0.10566000000E+00 0.  1.
         13    1    4    4    0    0  0.33113613314E+01  0.57483356264E+01  0.56461582140E+02  0.56850065067E+02  0.10566000000E+00 0. -1.
        -13    1    4    4    0    0  0.28603903402E+01  0.68328303011E+01  0.63034253423E+02  0.63468083881E+02  0.10566000000E+00 0.  1.
        -14    1    4    4    0    0  0.18201705879E+01  0.21342221548E+01  0.21160205743E+02  0.21345309374E+02  0.00000000000E+00 0.  1.
<mgrwt>
<rscale>  0 0.78522094E+02</rscale>
<asrwt>0</asrwt>
<pdfrwt beam="1">  1        2 0.22806981E-01 0.78522094E+02</pdfrwt>
<pdfrwt beam="2">  1       -1 0.15996657E-02 0.78522094E+02</pdfrwt>
<totfact> 0.20965689E+05</totfact>
</mgrwt>
</event>
<event>
 8    1  0.1673046E-013  0.8052918E+02  0.7818608E-02  0.1327556E+00
         -1   -1    0    0    0  501 -0.00000000000E+00  0.00000000000E+00  0.10151314682E+03  0.10151314695E+03  0.50400000000E-02 0.  1.
          2   -1    0    0  501    0  0.00000000000E+00 -0.00000000000E+00 -0.15970712162E+02  0.15970712365E+02  0.25500000000E-02 0. -1.
         24    2    1    2    0    0 -0.35527136788E-14  0.00000000000E+00  0.85542434658E+02  0.11748385931E+03  0.80529181488E+02 0.  0.
         66    2    3    3    0    0 -0.22725766474E+02  0.33197130904E+02  0.41557602399E+02  0.57875247558E+02  0.20000001701E+01 0.  0.
        -13    1    3    3    0    0  0.22725766474E+02 -0.33197130904E+02  0.43984832259E+02  0.59608611752E+02  0.10566000000E+00 0.  1.
         13    1    4    4    0    0 -0.14195962586E+02  0.21028789160E+02  0.25711465186E+02  0.36122374414E+02  0.10566000000E+00 0. -1.
        -13    1    4    4    0    0 -0.29990421921E+01  0.39852650075E+01  0.46072575334E+01  0.67907714778E+01  0.10566000000E+00 0.  1.
        -14    1    4    4    0    0 -0.55307616959E+01  0.81830767370E+01  0.11238879680E+02  0.14962101667E+02  0.00000000000E+00 0.  1.
<mgrwt>
<rscale>  0 0.80529181E+02</rscale>
<asrwt>0</asrwt>
<pdfrwt beam="1">  1        2 0.24570327E-02 0.80529181E+02</pdfrwt>
<pdfrwt beam="2">  1       -1 0.15617407E-01 0.80529181E+02</pdfrwt>
<totfact> 0.11622139E+05</totfact>
</mgrwt>
</event>
<event>
 8    1  0.1673046E-013  0.7945045E+02  0.7818608E-02  0.1330618E+00
          2   -1    0    0  501    0  0.00000000000E+00  0.00000000000E+00  0.44806526140E+03  0.44806526141E+03  0.25500000000E-02 0. -1.
         -1   -1    0    0    0  501 -0.00000000000E+00 -0.00000000000E+00 -0.35220156607E+01  0.35220192668E+01  0.50400000000E-02 0.  1.
         24    2    1    2    0    0  0.00000000000E+00 -0.17763568394E-14  0.44454324574E+03  0.45158728068E+03  0.79450454588E+02 0.  0.
         66    2    3    3    0    0  0.37811149275E+02 -0.11143826065E+02  0.24920535105E+03  0.25231166216E+03  0.20000001684E+01 0.  0.
        -13    1    3    3    0    0 -0.37811149275E+02  0.11143826065E+02  0.19533789469E+03  0.19927561852E+03  0.10566000000E+00 0.  1.
         13    1    4    4    0    0  0.29857048214E+02 -0.92472559043E+01  0.19574412083E+03  0.19822393163E+03  0.10566000000E+00 0. -1.
        -13    1    4    4    0    0  0.87562111545E+00 -0.84157982567E-01  0.69027192565E+01  0.69593456641E+01  0.10566000000E+00 0.  1.
        -14    1    4    4    0    0  0.70784799451E+01 -0.18124121778E+01  0.46558510967E+02  0.47128384862E+02  0.00000000000E+00 0.  1.
<mgrwt>
<rscale>  0 0.79450455E+02</rscale>
<asrwt>0</asrwt>
<pdfrwt beam="1">  1        2 0.68933070E-01 0.79450455E+02</pdfrwt>
<pdfrwt beam="2">  1       -1 0.54184922E-03 0.79450455E+02</pdfrwt>
<totfact> 0.29908835E+05</totfact>
</mgrwt>
</event>
<event>
 8    1  0.1673046E-013  0.8215983E+02  0.7818608E-02  0.1323032E+00
          2   -1    0    0  501    0  0.00000000000E+00  0.00000000000E+00  0.55304584295E+03  0.55304584295E+03  0.25500000000E-02 0. -1.
         -1   -1    0    0    0  501 -0.00000000000E+00 -0.00000000000E+00 -0.30513891922E+01  0.30513933545E+01  0.50400000000E-02 0.  1.
         24    2    1    2    0    0  0.00000000000E+00  0.00000000000E+00  0.54999445375E+03  0.55609723631E+03  0.82159826360E+02 0.  0.
         66    2    3    3    0    0  0.34758934010E+02  0.20720998208E+02  0.32205852215E+03  0.32459703470E+03  0.19999977856E+01 0.  0.
        -13    1    3    3    0    0 -0.34758934010E+02 -0.20720998208E+02  0.22793593161E+03  0.23150020160E+03  0.10566000000E+00 0.  1.
         13    1    4    4    0    0  0.13249960525E+02  0.77564940515E+01  0.12921833873E+03  0.13012730260E+03  0.10566000000E+00 0. -1.
        -13    1    4    4    0    0  0.10868287493E+02  0.63017970542E+01  0.94632261679E+02  0.95462602278E+02  0.10566000000E+00 0.  1.
         14    1    4    4    0    0  0.10640685992E+02  0.66627071018E+01  0.98207921736E+02  0.99007129824E+02  0.00000000000E+00 0. -1.
<mgrwt>
<rscale>  0 0.82159826E+02</rscale>
<asrwt>0</asrwt>
<pdfrwt beam="1">  1        2 0.85084057E-01 0.82159826E+02</pdfrwt>
<pdfrwt beam="2">  1       -1 0.46944436E-03 0.82159826E+02</pdfrwt>
<totfact> 0.29307069E+05</totfact>
</mgrwt>
</event>
<event>
 8    1  0.1673046E-013  0.8242804E+02  0.7818608E-02  0.1322299E+00
          2   -1    0    0  501    0  0.00000000000E+00  0.00000000000E+00  0.23932925560E+03  0.23932925562E+03  0.25500000000E-02 0. -1.
         -1   -1    0    0    0  501 -0.00000000000E+00 -0.00000000000E+00 -0.70973153548E+01  0.70973171444E+01  0.50400000000E-02 0.  1.
         24    2    1    2    0    0  0.44408920985E-15 -0.35527136788E-14  0.23223194025E+03  0.24642657276E+03  0.82428039473E+02 0.  0.
         66    2    3    3    0    0 -0.16519201127E+01  0.22903176679E+02  0.21841374164E+03  0.21962660786E+03  0.19999998278E+01 0.  0.
        -13    1    3    3    0    0  0.16519201127E+01 -0.22903176679E+02  0.13818198607E+02  0.26799964903E+02  0.10566000000E+00 0.  1.
         13    1    4    4    0    0 -0.10460862160E+01  0.16573182516E+02  0.15164776339E+03  0.15255431813E+03  0.10566000000E+00 0. -1.
        -13    1    4    4    0    0 -0.13805238624E-01  0.17616896330E+01  0.15667014099E+02  0.15766110356E+02  0.10566000000E+00 0.  1.
        -14    1    4    4    0    0 -0.59202865810E+00  0.45683045295E+01  0.51098964153E+02  0.51306179371E+02  0.00000000000E+00 0.  1.
<mgrwt>
<rscale>  0 0.82428039E+02</rscale>
<asrwt>0</asrwt>
<pdfrwt beam="1">  1        2 0.36819880E-01 0.82428039E+02</pdfrwt>
<pdfrwt beam="2">  1       -1 0.10918950E-02 0.82428039E+02</pdfrwt>
<totfact> 0.21718926E+05</totfact>
</mgrwt>
</event>
<event>
 8    1  0.1673046E-013  0.7744833E+02  0.7818608E-02  0.1336453E+00
          2   -1    0    0  501    0  0.00000000000E+00  0.00000000000E+00  0.75575210773E+02  0.75575210816E+02  0.25500000000E-02 0. -1.
         -1   -1    0    0    0  501 -0.00000000000E+00 -0.00000000000E+00 -0.19841965910E+02  0.19841966550E+02  0.50400000000E-02 0.  1.
         24    2    1    2    0    0 -0.71054273576E-14 -0.35527136788E-14  0.55733244864E+02  0.95417177366E+02  0.77448325699E+02 0.  0.
         66    2    3    3    0    0  0.26310342835E+02  0.16418999067E+02  0.56401300349E+02  0.64396617529E+02  0.19999993971E+01 0.  0.
        -13    1    3    3    0    0 -0.26310342835E+02 -0.16418999067E+02 -0.66805548574E+00  0.31020559837E+02  0.10566000000E+00 0.  1.
         13    1    4    4    0    0  0.80092519539E+01  0.52173417872E+01  0.16303155022E+02  0.18899015844E+02  0.10566000000E+00 0. -1.
        -13    1    4    4    0    0  0.54785642017E+01  0.36437139059E+01  0.11146498755E+02  0.12943991473E+02  0.10566000000E+00 0.  1.
         14    1    4    4    0    0  0.12822526679E+02  0.75579433744E+01  0.28951646573E+02  0.32553610211E+02  0.00000000000E+00 0. -1.
<mgrwt>
<rscale>  0 0.77448326E+02</rscale>
<asrwt>0</asrwt>
<pdfrwt beam="1">  1        2 0.11626955E-01 0.77448326E+02</pdfrwt>
<pdfrwt beam="2">  1       -1 0.30526103E-02 0.77448326E+02</pdfrwt>
<totfact> 0.17958221E+05</totfact>
</mgrwt>
</event>
<event>
 8    1  0.1673046E-013  0.8040809E+02  0.7818608E-02  0.1327897E+00
         -1   -1    0    0    0  501 -0.00000000000E+00  0.00000000000E+00  0.46721647510E+01  0.46721674694E+01  0.50400000000E-02 0.  1.
          2   -1    0    0  501    0  0.00000000000E+00 -0.00000000000E+00 -0.34595629339E+03  0.34595629340E+03  0.25500000000E-02 0. -1.
         24    2    1    2    0    0  0.00000000000E+00  0.00000000000E+00 -0.34128412864E+03  0.35062846087E+03  0.80408091075E+02 0.  0.
         66    2    3    3    0    0 -0.24714853419E+02  0.48594294140E+01 -0.30725066586E+03  0.30828786821E+03  0.19999954639E+01 0.  0.
        -13    1    3    3    0    0  0.24714853419E+02 -0.48594294140E+01 -0.34033462780E+02  0.42340592658E+02  0.10566000000E+00 0.  1.
         13    1    4    4    0    0 -0.37233588113E+01  0.23282296484E+00 -0.46227300526E+02  0.46377711084E+02  0.10566000000E+00 0. -1.
        -13    1    4    4    0    0 -0.14937738455E+02  0.38881508138E+01 -0.18703859408E+03  0.18767445374E+03  0.10566000000E+00 0.  1.
        -14    1    4    4    0    0 -0.60537561529E+01  0.73845563538E+00 -0.73984771252E+02  0.74235703388E+02  0.00000000000E+00 0.  1.
<mgrwt>
<rscale>  0 0.80408091E+02</rscale>
<asrwt>0</asrwt>
<pdfrwt beam="1">  1        2 0.53224025E-01 0.80408091E+02</pdfrwt>
<pdfrwt beam="2">  1       -1 0.71879506E-03 0.80408091E+02</pdfrwt>
<totfact> 0.26482831E+05</totfact>
</mgrwt>
</event>
<event>
 8    1  0.1673046E-013  0.8194372E+02  0.7818608E-02  0.1323624E+00
          2   -1    0    0  501    0  0.00000000000E+00  0.00000000000E+00  0.16512337219E+03  0.16512337221E+03  0.25500000000E-02 0. -1.
         -1   -1    0    0    0  501 -0.00000000000E+00 -0.00000000000E+00 -0.10166296610E+02  0.10166297859E+02  0.50400000000E-02 0.  1.
         24    2    1    2    0    0  0.00000000000E+00  0.00000000000E+00  0.15495707558E+03  0.17528967007E+03  0.81943719467E+02 0.  0.
         66    2    3    3    0    0 -0.34955329991E+02 -0.96371680448E+01  0.11822113792E+03  0.12367290552E+03  0.20000013814E+01 0.  0.
        -13    1    3    3    0    0  0.34955329991E+02  0.96371680448E+01  0.36735937659E+02  0.51616764548E+02  0.10566000000E+00 0.  1.
         13    1    4    4    0    0 -0.63166172291E+01 -0.19346642413E+01  0.22314305293E+02  0.23271913623E+02  0.10566000000E+00 0. -1.
        -13    1    4    4    0    0 -0.10857033168E+01 -0.57445097604E+00  0.35015187690E+01  0.37122154223E+01  0.10566000000E+00 0.  1.
         14    1    4    4    0    0 -0.27553009446E+02 -0.71280528274E+01  0.92405313856E+02  0.96688776471E+02  0.00000000000E+00 0. -1.
<mgrwt>
<rscale>  0 0.81943719E+02</rscale>
<asrwt>0</asrwt>
<pdfrwt beam="1">  1        2 0.25403593E-01 0.81943719E+02</pdfrwt>
<pdfrwt beam="2">  1       -1 0.15640459E-02 0.81943719E+02</pdfrwt>
<totfact> 0.19393760E+05</totfact>
</mgrwt>
</event>
<event>
 8    1  0.1673046E-013  0.7933339E+02  0.7818608E-02  0.1330954E+00
          2   -1    0    0  501    0  0.00000000000E+00  0.00000000000E+00  0.52616306674E+03  0.52616306674E+03  0.25500000000E-02 0. -1.
         -1   -1    0    0    0  501 -0.00000000000E+00 -0.00000000000E+00 -0.29904141959E+01  0.29904184430E+01  0.50400000000E-02 0.  1.
         24    2    1    2    0    0 -0.35527136788E-14 -0.17763568394E-14  0.52317265254E+03  0.52915348519E+03  0.79333388417E+02 0.  0.
         66    2    3    3    0    0  0.31415322637E+02  0.13713060108E+02  0.39456232152E+03  0.39605352679E+03  0.20000027076E+01 0.  0.
        -13    1    3    3    0    0 -0.31415322637E+02 -0.13713060108E+02  0.12861033102E+03  0.13309995839E+03  0.10566000000E+00 0.  1.
         13    1    4    4    0    0  0.44474999066E+01  0.16121449507E+01  0.56865850216E+02  0.57062381230E+02  0.10566000000E+00 0. -1.
        -13    1    4    4    0    0  0.79582954536E+01  0.28441428627E+01  0.98760733360E+02  0.99121729368E+02  0.10566000000E+00 0.  1.
        -14    1    4    4    0    0  0.19009527277E+02  0.92567722951E+01  0.23893573794E+03  0.23986941620E+03  0.00000000000E+00 0.  1.
<mgrwt>
<rscale>  0 0.79333388E+02</rscale>
<asrwt>0</asrwt>
<pdfrwt beam="1">  1        2 0.80948155E-01 0.79333388E+02</pdfrwt>
<pdfrwt beam="2">  1       -1 0.46006410E-03 0.79333388E+02</pdfrwt>
<totfact> 0.31624252E+05</totfact>
</mgrwt>
</event>
<event>
 8    1  0.1673046E-013  0.8119855E+02  0.7818608E-02  0.1325684E+00
          2   -1    0    0  501    0  0.00000000000E+00  0.00000000000E+00  0.60135492541E+03  0.60135492542E+03  0.25500000000E-02 0. -1.
         -1   -1    0    0    0  501 -0.00000000000E+00 -0.00000000000E+00 -0.27409764967E+01  0.27409811304E+01  0.50400000000E-02 0.  1.
         24    2    1    2    0    0  0.00000000000E+00  0.00000000000E+00  0.59861394892E+03  0.60409590655E+03  0.81198549691E+02 0.  0.
         66    2    3    3    0    0  0.38501530862E+02  0.56847141822E+01  0.38483850722E+03  0.38680661899E+03  0.19999990692E+01 0.  0.
        -13    1    3    3    0    0 -0.38501530862E+02 -0.56847141822E+01  0.21377544169E+03  0.21728928756E+03  0.10566000000E+00 0.  1.
         13    1    4    4    0    0  0.46075063475E+01  0.53955667061E+00  0.41703916850E+02  0.41961268818E+02  0.10566000000E+00 0. -1.
        -13    1    4    4    0    0  0.85079914709E+01  0.74631600404E+00  0.84125195884E+02  0.84557688314E+02  0.10566000000E+00 0.  1.
         14    1    4    4    0    0  0.25386033043E+02  0.43988415075E+01  0.25900939449E+03  0.26028766186E+03  0.00000000000E+00 0. -1.
<mgrwt>
<rscale>  0 0.81198550E+02</rscale>
<asrwt>0</asrwt>
<pdfrwt beam="1">  1        2 0.92516341E-01 0.81198550E+02</pdfrwt>
<pdfrwt beam="2">  1       -1 0.42168815E-03 0.81198550E+02</pdfrwt>
<totfact> 0.30961265E+05</totfact>
</mgrwt>
</event>
<event>
 8    1  0.1673046E-013  0.8000862E+02  0.7818608E-02  0.1329027E+00
         -1   -1    0    0    0  501 -0.00000000000E+00  0.00000000000E+00  0.64298682729E+01  0.64298702481E+01  0.50400000000E-02 0.  1.
          2   -1    0    0  501    0  0.00000000000E+00 -0.00000000000E+00 -0.24889229342E+03  0.24889229344E+03  0.25500000000E-02 0. -1.
         24    2    1    2    0    0  0.00000000000E+00  0.00000000000E+00 -0.24246242515E+03  0.25532216369E+03  0.80008622402E+02 0.  0.
         66    2    3    3    0    0 -0.11882673046E+02  0.33977938512E+00 -0.24311746044E+03  0.24341613143E+03  0.20000255688E+01 0.  0.
        -13    1    3    3    0    0  0.11882673046E+02 -0.33977938512E+00  0.65503528774E+00  0.11906032253E+02  0.10566000000E+00 0.  1.
         13    1    4    4    0    0 -0.55110905164E+01  0.79845041496E-01 -0.11672451040E+03  0.11685461474E+03  0.10566000000E+00 0. -1.
        -13    1    4    4    0    0 -0.58708783246E+01 -0.14480991819E+00 -0.11137414554E+03  0.11152891840E+03  0.10566000000E+00 0.  1.
         14    1    4    4    0    0 -0.50070420518E+00  0.40474426182E+00 -0.15018804503E+02  0.15032598289E+02  0.00000000000E+00 0. -1.
<mgrwt>
<rscale>  0 0.80008622E+02</rscale>
<asrwt>0</asrwt>
<pdfrwt beam="1">  1        2 0.38291115E-01 0.80008622E+02</pdfrwt>
<pdfrwt beam="2">  1       -1 0.98921085E-03 0.80008622E+02</pdfrwt>
<totfact> 0.23823687E+05</totfact>
</mgrwt>
</event>
<event>
 8    1  0.1673046E-013  0.7663760E+02  0.7818608E-02  0.1338874E+00
          2   -1    0    0  501    0  0.00000000000E+00  0.00000000000E+00  0.10537894052E+03  0.10537894055E+03  0.25500000000E-02 0. -1.
         -1   -1    0    0    0  501 -0.00000000000E+00 -0.00000000000E+00 -0.13933811054E+02  0.13933811965E+02  0.50400000000E-02 0.  1.
         24    2    1    2    0    0  0.00000000000E+00 -0.22204460493E-15  0.91445129469E+02  0.11931275252E+03  0.76637596584E+02 0.  0.
         66    2    3    3    0    0 -0.36541976464E+02  0.10418492194E+01  0.63499169372E+02  0.73297653438E+02  0.19999987143E+01 0.  0.
        -13    1    3    3    0    0  0.36541976464E+02 -0.10418492194E+01  0.27945960097E+02  0.46015099082E+02  0.10566000000E+00 0.  1.
         13    1    4    4    0    0 -0.55709233572E+01  0.40246604182E+00  0.98473806112E+01  0.11321626866E+02  0.10566000000E+00 0. -1.
        -13    1    4    4    0    0 -0.56166199697E+01  0.31196930259E-01  0.84919859480E+01  0.10181963588E+02  0.10566000000E+00 0.  1.
        -14    1    4    4    0    0 -0.25354433137E+02  0.60818624734E+00  0.45159802813E+02  0.51794062983E+02  0.00000000000E+00 0.  1.
<mgrwt>
<rscale>  0 0.76637597E+02</rscale>
<asrwt>0</asrwt>
<pdfrwt beam="1">  1        2 0.16212145E-01 0.76637597E+02</pdfrwt>
<pdfrwt beam="2">  1       -1 0.21436632E-02 0.76637597E+02</pdfrwt>
<totfact> 0.20174511E+05</totfact>
</mgrwt>
</event>
<event>
 8    1  0.1673046E-013  0.7911847E+02  0.7818608E-02  0.1331572E+00
          2   -1    0    0  501    0  0.00000000000E+00  0.00000000000E+00  0.89924292851E+01  0.89924296466E+01  0.25500000000E-02 0. -1.
         -1   -1    0    0    0  501 -0.00000000000E+00 -0.00000000000E+00 -0.17402782763E+03  0.17402782770E+03  0.50400000000E-02 0.  1.
         24    2    1    2    0    0  0.00000000000E+00  0.71054273576E-14 -0.16503539834E+03  0.18302025735E+03  0.79118467461E+02 0.  0.
         66    2    3    3    0    0 -0.72006307924E+01  0.38567659305E+02 -0.93811452718E+02  0.10170497574E+03  0.20000004266E+01 0.  0.
        -13    1    3    3    0    0  0.72006307924E+01 -0.38567659305E+02 -0.71223945625E+02  0.81315281605E+02  0.10566000000E+00 0.  1.
         13    1    4    4    0    0 -0.37510741590E+01  0.20461549429E+02 -0.51536445615E+02  0.55576631357E+02  0.10566000000E+00 0. -1.
        -13    1    4    4    0    0 -0.32193054141E+01  0.17365985320E+02 -0.40883338746E+02  0.44535378347E+02  0.10566000000E+00 0.  1.
        -14    1    4    4    0    0 -0.23025121936E+00  0.74012455610E+00 -0.13916683575E+01  0.15929660385E+01  0.00000000000E+00 0.  1.
<mgrwt>
<rscale>  0 0.79118467E+02</rscale>
<asrwt>0</asrwt>
<pdfrwt beam="1">  1        2 0.13834508E-02 0.79118467E+02</pdfrwt>
<pdfrwt beam="2">  1       -1 0.26773509E-01 0.79118467E+02</pdfrwt>
<totfact> 0.10665581E+05</totfact>
</mgrwt>
</event>
<event>
 8    1  0.1673046E-013  0.7910701E+02  0.7818608E-02  0.1331605E+00
         -1   -1    0    0    0  501 -0.00000000000E+00  0.00000000000E+00  0.22584415157E+02  0.22584415719E+02  0.50400000000E-02 0.  1.
          2   -1    0    0  501    0  0.00000000000E+00 -0.00000000000E+00 -0.69272537284E+02  0.69272537331E+02  0.25500000000E-02 0. -1.
         24    2    1    2    0    0  0.00000000000E+00  0.00000000000E+00 -0.46688122127E+02  0.91856953050E+02  0.79107010283E+02 0.  0.
         66    2    3    3    0    0  0.41681922319E+01  0.37470648558E+02 -0.37149627864E+02  0.52967142474E+02  0.20000003782E+01 0.  0.
        -13    1    3    3    0    0 -0.41681922319E+01 -0.37470648558E+02 -0.95384942625E+01  0.38889810576E+02  0.10566000000E+00 0.  1.
         13    1    4    4    0    0 -0.43746759654E-01  0.16328414308E+01 -0.17805090439E+01  0.24185659817E+01  0.10566000000E+00 0.  1.
        -13    1    4    4    0    0  0.23612073423E+01  0.21922992457E+02 -0.22542265529E+02  0.31533439356E+02  0.10566000000E+00 0. -1.
         14    1    4    4    0    0  0.18507316493E+01  0.13914814670E+02 -0.12826853291E+02  0.19015137136E+02  0.00000000000E+00 0. -1.
<mgrwt>
<rscale>  0 0.79107010E+02</rscale>
<asrwt>0</asrwt>
<pdfrwt beam="1">  1        2 0.10657313E-01 0.79107010E+02</pdfrwt>
<pdfrwt beam="2">  1       -1 0.34745255E-02 0.79107010E+02</pdfrwt>
<totfact> 0.16602119E+05</totfact>
</mgrwt>
</event>
<event>
 8    1  0.1673046E-013  0.8037333E+02  0.7818608E-02  0.1327995E+00
          2   -1    0    0  501    0  0.00000000000E+00  0.00000000000E+00  0.23052638128E+03  0.23052638129E+03  0.25500000000E-02 0. -1.
         -1   -1    0    0    0  501 -0.00000000000E+00 -0.00000000000E+00 -0.70055662961E+01  0.70055681090E+01  0.50400000000E-02 0.  1.
         24    2    1    2    0    0 -0.35527136788E-14  0.00000000000E+00  0.22352081498E+03  0.23753194940E+03  0.80373330503E+02 0.  0.
         66    2    3    3    0    0  0.27035088668E+02  0.86566362656E+01  0.19579121697E+03  0.19784851280E+03  0.20000006929E+01 0.  0.
        -13    1    3    3    0    0 -0.27035088668E+02 -0.86566362656E+01  0.27729598009E+02  0.39683436601E+02  0.10566000000E+00 0.  1.
         13    1    4    4    0    0  0.56790961831E+01  0.20969175222E+01  0.37680232558E+02  0.38163598968E+02  0.10566000000E+00 0. -1.
        -13    1    4    4    0    0  0.47876719621E+01  0.13095440320E+01  0.38013301556E+02  0.38336131359E+02  0.10566000000E+00 0.  1.
         14    1    4    4    0    0  0.16568320522E+02  0.52501747114E+01  0.12009768286E+03  0.12134878247E+03  0.00000000000E+00 0. -1.
<mgrwt>
<rscale>  0 0.80373331E+02</rscale>
<asrwt>0</asrwt>
<pdfrwt beam="1">  1        2 0.35465594E-01 0.80373331E+02</pdfrwt>
<pdfrwt beam="2">  1       -1 0.10777797E-02 0.80373331E+02</pdfrwt>
<totfact> 0.22905223E+05</totfact>
</mgrwt>
</event>
<event>
 8    1  0.1673046E-013  0.8348870E+02  0.7818608E-02  0.1319433E+00
         -1   -1    0    0    0  501 -0.00000000000E+00  0.00000000000E+00  0.21373939263E+02  0.21373939858E+02  0.50400000000E-02 0.  1.
          2   -1    0    0  501    0  0.00000000000E+00 -0.00000000000E+00 -0.81528749235E+02  0.81528749275E+02  0.25500000000E-02 0. -1.
         24    2    1    2    0    0  0.71054273576E-14 -0.44408920985E-15 -0.60154809972E+02  0.10290268913E+03  0.83488695450E+02 0.  0.
         66    2    3    3    0    0  0.23953035221E+02 -0.25746820603E+01 -0.72077001570E+02  0.76022832352E+02  0.19999999059E+01 0.  0.
        -13    1    3    3    0    0 -0.23953035221E+02  0.25746820603E+01  0.11922191598E+02  0.26879856780E+02  0.10566000000E+00 0.  1.
         13    1    4    4    0    0  0.16281808175E+02 -0.11618054686E+01 -0.46866247223E+02  0.49627647155E+02  0.10566000000E+00 0. -1.
        -13    1    4    4    0    0  0.65899978301E+00 -0.13290475008E-01 -0.21200262404E+01  0.22226409171E+01  0.10566000000E+00 0.  1.
        -14    1    4    4    0    0  0.70122272623E+01 -0.13995861167E+01 -0.23090728107E+02  0.24172544280E+02  0.00000000000E+00 0.  1.
<mgrwt>
<rscale>  0 0.83488695E+02</rscale>
<asrwt>0</asrwt>
<pdfrwt beam="1">  1        2 0.12542884E-01 0.83488695E+02</pdfrwt>
<pdfrwt beam="2">  1       -1 0.32882984E-02 0.83488695E+02</pdfrwt>
<totfact> 0.14950004E+05</totfact>
</mgrwt>
</event>
<event>
 8    1  0.1673046E-013  0.8071221E+02  0.7818608E-02  0.1327042E+00
         -1   -1    0    0    0  501 -0.00000000000E+00  0.00000000000E+00  0.76378296586E+01  0.76378313215E+01  0.50400000000E-02 0.  1.
          2   -1    0    0  501    0  0.00000000000E+00 -0.00000000000E+00 -0.21323009608E+03  0.21323009609E+03  0.25500000000E-02 0. -1.
         24    2    1    2    0    0  0.44408920985E-15  0.35527136788E-14 -0.20559226642E+03  0.22086792741E+03  0.80712213134E+02 0.  0.
         66    2    3    3    0    0 -0.34702968207E+01 -0.22089776861E+02 -0.19470926168E+03  0.19599922906E+03  0.20000011564E+01 0.  0.
        -13    1    3    3    0    0  0.34702968207E+01  0.22089776861E+02 -0.10883004736E+02  0.24868698356E+02  0.10566000000E+00 0.  1.
         13    1    4    4    0    0 -0.19590245408E+01 -0.11556318484E+02 -0.10710358836E+03  0.10774310222E+03  0.10566000000E+00 0. -1.
        -13    1    4    4    0    0 -0.49535352650E-01 -0.20351883207E+01 -0.14161468896E+02  0.14307438995E+02  0.10566000000E+00 0.  1.
        -14    1    4    4    0    0 -0.14617369273E+01 -0.84982700566E+01 -0.73444204428E+02  0.73948687838E+02  0.00000000000E+00 0.  1.
<mgrwt>
<rscale>  0 0.80712213E+02</rscale>
<asrwt>0</asrwt>
<pdfrwt beam="1">  1        2 0.32804626E-01 0.80712213E+02</pdfrwt>
<pdfrwt beam="2">  1       -1 0.11750510E-02 0.80712213E+02</pdfrwt>
<totfact> 0.22036530E+05</totfact>
</mgrwt>
</event>
<event>
 8    1  0.1673046E-013  0.7908101E+02  0.7818608E-02  0.1331680E+00
          2   -1    0    0  501    0  0.00000000000E+00  0.00000000000E+00  0.81893433498E+03  0.81893433499E+03  0.25500000000E-02 0. -1.
         -1   -1    0    0    0  501 -0.00000000000E+00 -0.00000000000E+00 -0.19091261125E+01  0.19091327651E+01  0.50400000000E-02 0.  1.
         24    2    1    2    0    0 -0.35527136788E-14  0.00000000000E+00  0.81702520887E+03  0.82084346775E+03  0.79081013027E+02 0.  0.
         66    2    3    3    0    0  0.28337240262E+02 -0.21873910701E+01  0.69372842217E+03  0.69431326329E+03  0.19999987920E+01 0.  0.
        -13    1    3    3    0    0 -0.28337240262E+02  0.21873910701E+01  0.12329678671E+03  0.12653020446E+03  0.10566000000E+00 0.  1.
         13    1    4    4    0    0  0.16650354420E+02 -0.35289731068E+00  0.40742890238E+03  0.40776915098E+03  0.10566000000E+00 0. -1.
        -13    1    4    4    0    0  0.80770508591E+00 -0.12496232767E+00  0.20304890069E+02  0.20321607412E+02  0.10566000000E+00 0.  1.
         14    1    4    4    0    0  0.10879180756E+02 -0.17095314318E+01  0.26599462972E+03  0.26622250489E+03  0.00000000000E+00 0. -1.
<mgrwt>
<rscale>  0 0.79081013E+02</rscale>
<asrwt>0</asrwt>
<pdfrwt beam="1">  1        2 0.12598996E+00 0.79081013E+02</pdfrwt>
<pdfrwt beam="2">  1       -1 0.29371207E-03 0.79081013E+02</pdfrwt>
<totfact> 0.35550407E+05</totfact>
</mgrwt>
</event>
<event>
 8    1  0.1673046E-013  0.8160177E+02  0.7818608E-02  0.1324566E+00
          2   -1    0    0  501    0  0.00000000000E+00  0.00000000000E+00  0.14453795519E+04  0.14453795519E+04  0.25500000000E-02 0. -1.
         -1   -1    0    0    0  501 -0.00000000000E+00 -0.00000000000E+00 -0.11517420525E+01  0.11517530799E+01  0.50400000000E-02 0.  1.
         24    2    1    2    0    0  0.00000000000E+00  0.00000000000E+00  0.14442278098E+04  0.14465313050E+04  0.81601774222E+02 0.  0.
         66    2    3    3    0    0  0.22149396119E+02 -0.61443628367E+01  0.13195864219E+04  0.13197881170E+04  0.20000003456E+01 0.  0.
        -13    1    3    3    0    0 -0.22149396119E+02  0.61443628367E+01  0.12464138793E+03  0.12674318795E+03  0.10566000000E+00 0.  1.
         13    1    4    4    0    0  0.16900764429E+01 -0.17562136223E+00  0.78507952548E+02  0.78526409433E+02  0.10566000000E+00 0. -1.
        -13    1    4    4    0    0  0.11663999579E+02 -0.31650619237E+01  0.72221316655E+03  0.72231429143E+03  0.10566000000E+00 0.  1.
         14    1    4    4    0    0  0.87953200965E+01 -0.28036795508E+01  0.51886530281E+03  0.51894741615E+03  0.00000000000E+00 0. -1.
<mgrwt>
<rscale>  0 0.81601774E+02</rscale>
<asrwt>0</asrwt>
<pdfrwt beam="1">  1        2 0.22236492E+00 0.81601774E+02</pdfrwt>
<pdfrwt beam="2">  1       -1 0.17719287E-03 0.81601774E+02</pdfrwt>
<totfact> 0.31993238E+05</totfact>
</mgrwt>
</event>
<event>
 8    1  0.1673046E-013  0.7870396E+02  0.7818608E-02  0.1332770E+00
          2   -1    0    0  501    0  0.00000000000E+00  0.00000000000E+00  0.10836232622E+03  0.10836232625E+03  0.25500000000E-02 0. -1.
         -1   -1    0    0    0  501 -0.00000000000E+00 -0.00000000000E+00 -0.14290742601E+02  0.14290743490E+02  0.50400000000E-02 0.  1.
         24    2    1    2    0    0  0.11102230246E-15  0.00000000000E+00  0.94071583617E+02  0.12265306974E+03  0.78703955886E+02 0.  0.
         66    2    3    3    0    0 -0.70944663751E+00 -0.11501951037E+02  0.10566262627E+03  0.10630799017E+03  0.19999981184E+01 0.  0.
        -13    1    3    3    0    0  0.70944663751E+00  0.11501951037E+02 -0.11591042652E+02  0.16345079565E+02  0.10566000000E+00 0.  1.
         13    1    4    4    0    0 -0.91503863731E+00 -0.48015594898E+01  0.42568095900E+02  0.42847943029E+02  0.10566000000E+00 0. -1.
        -13    1    4    4    0    0 -0.51932830084E-02 -0.23012690046E+01  0.16952926334E+02  0.17108732897E+02  0.10566000000E+00 0.  1.
         14    1    4    4    0    0  0.21078528281E+00 -0.43991225428E+01  0.46141604035E+02  0.46351314248E+02  0.00000000000E+00 0. -1.
<mgrwt>
<rscale>  0 0.78703956E+02</rscale>
<asrwt>0</asrwt>
<pdfrwt beam="1">  1        2 0.16671127E-01 0.78703956E+02</pdfrwt>
<pdfrwt beam="2">  1       -1 0.21985759E-02 0.78703956E+02</pdfrwt>
<totfact> 0.18943595E+05</totfact>
</mgrwt>
</event>
<event>
 8    1  0.1673046E-013  0.7648002E+02  0.7818608E-02  0.1339348E+00
         -1   -1    0    0    0  501 -0.00000000000E+00  0.00000000000E+00  0.49895061039E+01  0.49895086494E+01  0.50400000000E-02 0.  1.
          2   -1    0    0  501    0  0.00000000000E+00 -0.00000000000E+00 -0.29307468148E+03  0.29307468149E+03  0.25500000000E-02 0. -1.
         24    2    1    2    0    0  0.00000000000E+00  0.00000000000E+00 -0.28808517538E+03  0.29806419014E+03  0.76480018126E+02 0.  0.
         66    2    3    3    0    0 -0.35720403963E+02  0.75240315959E+01 -0.18818787556E+03  0.19170611576E+03  0.20000005679E+01 0.  0.
        -13    1    3    3    0    0  0.35720403963E+02 -0.75240315959E+01 -0.99897299815E+02  0.10635807438E+03  0.10566000000E+00 0.  1.
         13    1    4    4    0    0 -0.26393664517E+01  0.71222526961E+00 -0.13487240993E+02  0.13761916790E+02  0.10566000000E+00 0. -1.
        -13    1    4    4    0    0 -0.20472120801E+02  0.40551586329E+01 -0.11228126535E+03  0.11420440339E+03  0.10566000000E+00 0.  1.
        -14    1    4    4    0    0 -0.12608916710E+02  0.27566476934E+01 -0.62419369219E+02  0.63739795581E+02  0.00000000000E+00 0.  1.
<mgrwt>
<rscale>  0 0.76480018E+02</rscale>
<asrwt>0</asrwt>
<pdfrwt beam="1">  1        2 0.45088399E-01 0.76480018E+02</pdfrwt>
<pdfrwt beam="2">  1       -1 0.76761675E-03 0.76480018E+02</pdfrwt>
<totfact> 0.28438683E+05</totfact>
</mgrwt>
</event>
<event>
 8    1  0.1673046E-013  0.7572563E+02  0.7818608E-02  0.1341639E+00
          2   -1    0    0  501    0  0.00000000000E+00  0.00000000000E+00  0.33422970434E+03  0.33422970435E+03  0.25500000000E-02 0. -1.
         -1   -1    0    0    0  501 -0.00000000000E+00 -0.00000000000E+00 -0.42892425802E+01  0.42892455412E+01  0.50400000000E-02 0.  1.
         24    2    1    2    0    0  0.71054273576E-14 -0.11102230246E-15  0.32994046176E+03  0.33851894989E+03  0.75725630595E+02 0.  0.
         66    2    3    3    0    0  0.37424540515E+02 -0.41187718418E+00  0.18990320539E+03  0.19356650869E+03  0.19999980009E+01 0.  0.
        -13    1    3    3    0    0 -0.37424540515E+02  0.41187718418E+00  0.14003725637E+03  0.14495244120E+03  0.10566000000E+00 0.  1.
         13    1    4    4    0    0  0.15270491168E+02  0.33266225625E-01  0.76263330481E+02  0.77777218691E+02  0.10566000000E+00 0. -1.
        -13    1    4    4    0    0  0.74384335319E+00 -0.25375529278E+00  0.37387093249E+01  0.38218851545E+01  0.10566000000E+00 0.  1.
        -14    1    4    4    0    0  0.21410205994E+02 -0.19138811702E+00  0.10990116558E+03  0.11196740484E+03  0.00000000000E+00 0.  1.
<mgrwt>
<rscale>  0 0.75725631E+02</rscale>
<asrwt>0</asrwt>
<pdfrwt beam="1">  1        2 0.51419952E-01 0.75725631E+02</pdfrwt>
<pdfrwt beam="2">  1       -1 0.65988373E-03 0.75725631E+02</pdfrwt>
<totfact> 0.30594442E+05</totfact>
</mgrwt>
</event>
<event>
 8    1  0.1673046E-013  0.7924814E+02  0.7818608E-02  0.1331199E+00
         -1   -1    0    0    0  501 -0.00000000000E+00  0.00000000000E+00  0.11163567956E+01  0.11163681725E+01  0.50400000000E-02 0.  1.
          2   -1    0    0  501    0  0.00000000000E+00 -0.00000000000E+00 -0.14064131512E+04  0.14064131512E+04  0.25500000000E-02 0. -1.
         24    2    1    2    0    0  0.00000000000E+00  0.00000000000E+00 -0.14052967944E+04  0.14075295194E+04  0.79248139086E+02 0.  0.
         66    2    3    3    0    0 -0.95009483920E+01  0.12342337661E+02 -0.13497187261E+04  0.13498100759E+04  0.19999978782E+01 0.  0.
        -13    1    3    3    0    0  0.95009483920E+01 -0.12342337661E+02 -0.55578068356E+02  0.57719443565E+02  0.10566000000E+00 0.  1.
         13    1    4    4    0    0 -0.42442397539E+01  0.59747255449E+01 -0.67952202815E+03  0.67956155632E+03  0.10566000000E+00 0. -1.
        -13    1    4    4    0    0 -0.27110520684E+01  0.41505922649E+01 -0.39704353841E+03  0.39707450154E+03  0.10566000000E+00 0.  1.
        -14    1    4    4    0    0 -0.25456565696E+01  0.22170198513E+01 -0.27315315953E+03  0.27317401799E+03  0.00000000000E+00 0.  1.
<mgrwt>
<rscale>  0 0.79248139E+02</rscale>
<asrwt>0</asrwt>
<pdfrwt beam="1">  1        2 0.21636984E+00 0.79248139E+02</pdfrwt>
<pdfrwt beam="2">  1       -1 0.17174920E-03 0.79248139E+02</pdfrwt>
<totfact> 0.34812787E+05</totfact>
</mgrwt>
</event>
<event>
 8    1  0.1673046E-013  0.8133958E+02  0.7818608E-02  0.1325292E+00
         -1   -1    0    0    0  501 -0.00000000000E+00  0.00000000000E+00  0.82311650894E+01  0.82311666324E+01  0.50400000000E-02 0.  1.
          2   -1    0    0  501    0  0.00000000000E+00 -0.00000000000E+00 -0.20094747605E+03  0.20094747607E+03  0.25500000000E-02 0. -1.
         24    2    1    2    0    0  0.00000000000E+00  0.35527136788E-14 -0.19271631096E+03  0.20917864270E+03  0.81339584772E+02 0.  0.
         66    2    3    3    0    0  0.34549878937E+02  0.21111448783E+02 -0.10555912359E+03  0.11307570893E+03  0.19999932520E+01 0.  0.
        -13    1    3    3    0    0 -0.34549878937E+02 -0.21111448783E+02 -0.87157187367E+02  0.96102933764E+02  0.10566000000E+00 0.  1.
         13    1    4    4    0    0  0.17970127558E+02  0.99628562933E+01 -0.53145192097E+02  0.56979001369E+02  0.10566000000E+00 0.  1.
        -13    1    4    4    0    0  0.10958416030E+02  0.76477345521E+01 -0.34478458321E+02  0.36977695681E+02  0.10566000000E+00 0. -1.
        -14    1    4    4    0    0  0.56213353489E+01  0.35008579374E+01 -0.17935473174E+02  0.19119011883E+02  0.00000000000E+00 0.  1.
<mgrwt>
<rscale>  0 0.81339585E+02</rscale>
<asrwt>0</asrwt>
<pdfrwt beam="1">  1        2 0.30914993E-01 0.81339585E+02</pdfrwt>
<pdfrwt beam="2">  1       -1 0.12663334E-02 0.81339585E+02</pdfrwt>
<totfact> 0.21146839E+05</totfact>
</mgrwt>
</event>
<event>
 8    1  0.1673046E-013  0.7835201E+02  0.7818608E-02  0.1333794E+00
         -1   -1    0    0    0  501 -0.00000000000E+00  0.00000000000E+00  0.12887547791E+02  0.12887548776E+02  0.50400000000E-02 0.  1.
          2   -1    0    0  501    0  0.00000000000E+00 -0.00000000000E+00 -0.11908855723E+03  0.11908855725E+03  0.25500000000E-02 0. -1.
         24    2    1    2    0    0  0.55511151231E-16  0.00000000000E+00 -0.10620100944E+03  0.13197610603E+03  0.78352014382E+02 0.  0.
         66    2    3    3    0    0  0.45616514813E+00 -0.36690543506E+02 -0.76128791857E+02  0.84533999167E+02  0.19999990632E+01 0.  0.
        -13    1    3    3    0    0 -0.45616514813E+00  0.36690543506E+02 -0.30072217580E+02  0.47442106863E+02  0.10566000000E+00 0.  1.
         13    1    4    4    0    0 -0.44645992374E-01 -0.53456534995E+00 -0.94104362020E+00  0.10883384164E+01  0.10566000000E+00 0. -1.
        -13    1    4    4    0    0  0.94665183083E+00 -0.22265715626E+02 -0.47266246273E+02  0.52256745429E+02  0.10566000000E+00 0. -1.
         14    1    4    4    0    0 -0.44584069032E+00 -0.13890262530E+02 -0.27921501963E+02  0.31188915322E+02  0.00000000000E+00 0. -1.
<mgrwt>
<rscale>  0 0.78352014E+02</rscale>
<asrwt>0</asrwt>
<pdfrwt beam="1">  1        2 0.18321316E-01 0.78352014E+02</pdfrwt>
<pdfrwt beam="2">  1       -1 0.19826998E-02 0.78352014E+02</pdfrwt>
<totfact> 0.19707106E+05</totfact>
</mgrwt>
</event>
<event>
 8    1  0.1673046E-013  0.8142968E+02  0.7818608E-02  0.1325042E+00
          2   -1    0    0  501    0  0.00000000000E+00  0.00000000000E+00  0.59731747157E+02  0.59731747211E+02  0.25500000000E-02 0. -1.
         -1   -1    0    0    0  501 -0.00000000000E+00 -0.00000000000E+00 -0.27752379690E+02  0.27752380148E+02  0.50400000000E-02 0.  1.
         24    2    1    2    0    0  0.00000000000E+00  0.88817841970E-15  0.31979367467E+02  0.87484127359E+02  0.81429678842E+02 0.  0.
         66    2    3    3    0    0 -0.29363165914E+02  0.74958904266E+01  0.45171651173E+02  0.54432177354E+02  0.19999940083E+01 0.  0.
        -13    1    3    3    0    0  0.29363165914E+02 -0.74958904266E+01 -0.13192283706E+02  0.33051950006E+02  0.10566000000E+00 0.  1.
         13    1    4    4    0    0 -0.15823149769E+02  0.36856859014E+01  0.22950219958E+02  0.28119034644E+02  0.10566000000E+00 0. -1.
        -13    1    4    4    0    0 -0.71176372676E+00  0.17035737912E+00  0.14918943611E+01  0.16650952104E+01  0.10566000000E+00 0.  1.
         14    1    4    4    0    0 -0.12828252418E+02  0.36398471461E+01  0.20729536854E+02  0.24648047499E+02  0.00000000000E+00 0. -1.
<mgrwt>
<rscale>  0 0.81429679E+02</rscale>
<asrwt>0</asrwt>
<pdfrwt beam="1">  1        2 0.91894995E-02 0.81429679E+02</pdfrwt>
<pdfrwt beam="2">  1       -1 0.42695970E-02 0.81429679E+02</pdfrwt>
<totfact> 0.14817485E+05</totfact>
</mgrwt>
</event>
<event>
 8    1  0.1673046E-013  0.7897636E+02  0.7818608E-02  0.1331982E+00
          2   -1    0    0  501    0  0.00000000000E+00  0.00000000000E+00  0.74263940707E+03  0.74263940708E+03  0.25500000000E-02 0. -1.
         -1   -1    0    0    0  501 -0.00000000000E+00 -0.00000000000E+00 -0.20996921255E+01  0.20996981744E+01  0.50400000000E-02 0.  1.
         24    2    1    2    0    0  0.35527136788E-14  0.22204460493E-15  0.74053971495E+03  0.74473910525E+03  0.78976360239E+02 0.  0.
         66    2    3    3    0    0 -0.18408589622E+02 -0.99023992047E+00  0.69953509657E+03  0.69978082860E+03  0.19999996667E+01 0.  0.
        -13    1    3    3    0    0  0.18408589622E+02  0.99023992047E+00  0.41004618376E+02  0.44958276649E+02  0.10566000000E+00 0.  1.
         13    1    4    4    0    0 -0.16270361183E+02 -0.12703563030E+01  0.61020119740E+03  0.61041940576E+03  0.10566000000E+00 0. -1.
        -13    1    4    4    0    0 -0.19918561109E+01  0.17947238857E+00  0.76164548886E+02  0.76190874599E+02  0.10566000000E+00 0.  1.
        -14    1    4    4    0    0 -0.14637232815E+00  0.10064399393E+00  0.13169350286E+02  0.13170548243E+02  0.00000000000E+00 0.  1.
<mgrwt>
<rscale>  0 0.78976360E+02</rscale>
<asrwt>0</asrwt>
<pdfrwt beam="1">  1        2 0.11425212E+00 0.78976360E+02</pdfrwt>
<pdfrwt beam="2">  1       -1 0.32303030E-03 0.78976360E+02</pdfrwt>
<totfact> 0.35037048E+05</totfact>
</mgrwt>
</event>
<event>
 8    1  0.1673046E-013  0.8075018E+02  0.7818608E-02  0.1326936E+00
          2   -1    0    0  501    0  0.00000000000E+00  0.00000000000E+00  0.11225341128E+03  0.11225341131E+03  0.25500000000E-02 0. -1.
         -1   -1    0    0    0  501 -0.00000000000E+00 -0.00000000000E+00 -0.14522032265E+02  0.14522033139E+02  0.50400000000E-02 0.  1.
         24    2    1    2    0    0  0.00000000000E+00  0.88817841970E-15  0.97731379017E+02  0.12677544445E+03  0.80750175671E+02 0.  0.
         66    2    3    3    0    0 -0.36054275628E+02  0.58486680902E+01  0.75816125457E+02  0.84179585353E+02  0.20000003469E+01 0.  0.
        -13    1    3    3    0    0  0.36054275628E+02 -0.58486680902E+01  0.21915253560E+02  0.42595859096E+02  0.10566000000E+00 0.  1.
         13    1    4    4    0    0 -0.13908808988E+02  0.17243965861E+01  0.29712204156E+02  0.32852012890E+02  0.10566000000E+00 0. -1.
        -13    1    4    4    0    0 -0.90310633358E+01  0.15277095183E+01  0.20076638977E+02  0.22067546261E+02  0.10566000000E+00 0.  1.
         14    1    4    4    0    0 -0.13114403304E+02  0.25965619858E+01  0.26027282324E+02  0.29260026202E+02  0.00000000000E+00 0. -1.
<mgrwt>
<rscale>  0 0.80750176E+02</rscale>
<asrwt>0</asrwt>
<pdfrwt beam="1">  1        2 0.17269756E-01 0.80750176E+02</pdfrwt>
<pdfrwt beam="2">  1       -1 0.22341589E-02 0.80750176E+02</pdfrwt>
<totfact> 0.17870207E+05</totfact>
</mgrwt>
</event>
<event>
 8    1  0.1673046E-013  0.8824097E+02  0.7818608E-02  0.1307168E+00
          2   -1    0    0  501    0  0.00000000000E+00  0.00000000000E+00  0.78773004211E+01  0.78773008338E+01  0.25500000000E-02 0. -1.
         -1   -1    0    0    0  501 -0.00000000000E+00 -0.00000000000E+00 -0.24711728199E+03  0.24711728204E+03  0.50400000000E-02 0.  1.
         24    2    1    2    0    0  0.00000000000E+00  0.00000000000E+00 -0.23923998157E+03  0.25499458288E+03  0.88240968460E+02 0.  0.
         66    2    3    3    0    0  0.18681936212E+02  0.39942947188E+02 -0.11853157326E+03  0.12648394218E+03  0.19999999713E+01 0.  0.
        -13    1    3    3    0    0 -0.18681936212E+02 -0.39942947188E+02 -0.12070840832E+03  0.12851064070E+03  0.10566000000E+00 0.  1.
         13    1    4    4    0    0  0.13760862521E+02  0.29148941292E+02 -0.87871555867E+02  0.93597241467E+02  0.10566000000E+00 0. -1.
        -13    1    4    4    0    0  0.37912573533E+01  0.86855835574E+01 -0.25309341870E+02  0.27025671943E+02  0.10566000000E+00 0.  1.
         14    1    4    4    0    0  0.11298163372E+01  0.21084223390E+01 -0.53506755184E+01  0.58610287680E+01  0.00000000000E+00 0. -1.
<mgrwt>
<rscale>  0 0.88240968E+02</rscale>
<asrwt>0</asrwt>
<pdfrwt beam="1">  1        2 0.12118926E-02 0.88240968E+02</pdfrwt>
<pdfrwt beam="2">  1       -1 0.38018038E-01 0.88240968E+02</pdfrwt>
<totfact> 0.72335674E+04</totfact>
</mgrwt>
</event>
<event>
 8    1  0.1673046E-013  0.7926691E+02  0.7818608E-02  0.1331145E+00
          2   -1    0    0  501    0  0.00000000000E+00  0.00000000000E+00  0.98860815670E+01  0.98860818959E+01  0.25500000000E-02 0. -1.
         -1   -1    0    0    0  501 -0.00000000000E+00 -0.00000000000E+00 -0.15889115122E+03  0.15889115130E+03  0.50400000000E-02 0.  1.
         24    2    1    2    0    0  0.55511151231E-16  0.00000000000E+00 -0.14900506966E+03  0.16877723320E+03  0.79266914050E+02 0.  0.
         66    2    3    3    0    0 -0.10039596374E+00  0.24039181195E+02 -0.75243696364E+01  0.25268724901E+02  0.20000019533E+01 0.  0.
        -13    1    3    3    0    0  0.10039596374E+00 -0.24039181195E+02 -0.14148070002E+03  0.14350850830E+03  0.10566000000E+00 0.  1.
         13    1    4    4    0    0  0.48526667371E+00  0.94819924286E+01 -0.33714473981E+01  0.10075787103E+02  0.10566000000E+00 0. -1.
        -13    1    4    4    0    0 -0.44113614685E+00  0.91239174273E+01 -0.31700958443E+01  0.96695988550E+01  0.10566000000E+00 0.  1.
         14    1    4    4    0    0 -0.14452649060E+00  0.54332713391E+01 -0.98282639402E+00  0.55233389423E+01  0.00000000000E+00 0. -1.
<mgrwt>
<rscale>  0 0.79266914E+02</rscale>
<asrwt>0</asrwt>
<pdfrwt beam="1">  1        2 0.15209358E-02 0.79266914E+02</pdfrwt>
<pdfrwt beam="2">  1       -1 0.24444791E-01 0.79266914E+02</pdfrwt>
<totfact> 0.10878206E+05</totfact>
</mgrwt>
</event>
<event>
 8    1  0.1673046E-013  0.8129863E+02  0.7818608E-02  0.1325406E+00
          2   -1    0    0  501    0  0.00000000000E+00  0.00000000000E+00  0.39839748439E+02  0.39839748521E+02  0.25500000000E-02 0. -1.
         -1   -1    0    0    0  501 -0.00000000000E+00 -0.00000000000E+00 -0.41475330815E+02  0.41475331122E+02  0.50400000000E-02 0.  1.
         24    2    1    2    0    0  0.17763568394E-14 -0.71054273576E-14 -0.16355823758E+01  0.81315079643E+02  0.81298628817E+02 0.  0.
         66    2    3    3    0    0  0.14129887126E+02 -0.32645098374E+02  0.18807245841E+02  0.40287326260E+02  0.20000007587E+01 0.  0.
        -13    1    3    3    0    0 -0.14129887126E+02  0.32645098374E+02 -0.20442828217E+02  0.41027753382E+02  0.10566000000E+00 0.  1.
         13    1    4    4    0    0  0.55083181870E+01 -0.12057955880E+02  0.75697571017E+01  0.15265918114E+02  0.10566000000E+00 0. -1.
        -13    1    4    4    0    0  0.35127231890E+01 -0.91905221467E+01  0.43417050870E+01  0.10754835593E+02  0.10566000000E+00 0.  1.
        -14    1    4    4    0    0  0.51088457497E+01 -0.11396620347E+02  0.68957836526E+01  0.14266572553E+02  0.00000000000E+00 0.  1.
<mgrwt>
<rscale>  0 0.81298629E+02</rscale>
<asrwt>0</asrwt>
<pdfrwt beam="1">  1        2 0.61291920E-02 0.81298629E+02</pdfrwt>
<pdfrwt beam="2">  1       -1 0.63808202E-02 0.81298629E+02</pdfrwt>
<totfact> 0.13622445E+05</totfact>
</mgrwt>
</event>
<event>
 8    1  0.1673046E-013  0.8110403E+02  0.7818608E-02  0.1325947E+00
         -1   -1    0    0    0  501 -0.00000000000E+00  0.00000000000E+00  0.32309509553E+02  0.32309509946E+02  0.50400000000E-02 0.  1.
          2   -1    0    0  501    0  0.00000000000E+00 -0.00000000000E+00 -0.50897268226E+02  0.50897268290E+02  0.25500000000E-02 0. -1.
         24    2    1    2    0    0  0.00000000000E+00 -0.17763568394E-14 -0.18587758673E+02  0.83206778236E+02  0.81104026854E+02 0.  0.
         66    2    3    3    0    0  0.11261800946E+02 -0.14384026505E+02 -0.46413853514E+02  0.49919677172E+02  0.19999979709E+01 0.  0.
        -13    1    3    3    0    0 -0.11261800946E+02  0.14384026505E+02  0.27826094841E+02  0.33287101063E+02  0.10566000000E+00 0.  1.
         13    1    4    4    0    0  0.77610445257E+00 -0.73794099133E+00 -0.40350281954E+01  0.41760641280E+01  0.10566000000E+00 0. -1.
        -13    1    4    4    0    0  0.16614847331E+01 -0.23046069835E+01 -0.65417458010E+01  0.71328358335E+01  0.10566000000E+00 0.  1.
         14    1    4    4    0    0  0.88242117606E+01 -0.11341478530E+02 -0.35837079518E+02  0.38610777211E+02  0.00000000000E+00 0. -1.
<mgrwt>
<rscale>  0 0.81104027E+02</rscale>
<asrwt>0</asrwt>
<pdfrwt beam="1">  1        2 0.78303490E-02 0.81104027E+02</pdfrwt>
<pdfrwt beam="2">  1       -1 0.49706938E-02 0.81104027E+02</pdfrwt>
<totfact> 0.14448190E+05</totfact>
</mgrwt>
</event>
<event>
 8    1  0.1673046E-013  0.8073432E+02  0.7818608E-02  0.1326980E+00
         -1   -1    0    0    0  501 -0.00000000000E+00  0.00000000000E+00  0.16225308515E+01  0.16225386793E+01  0.50400000000E-02 0.  1.
          2   -1    0    0  501    0  0.00000000000E+00 -0.00000000000E+00 -0.10042974332E+04  0.10042974332E+04  0.25500000000E-02 0. -1.
         24    2    1    2    0    0 -0.17763568394E-14 -0.17763568394E-14 -0.10026749024E+04  0.10059199719E+04  0.80734317565E+02 0.  0.
         66    2    3    3    0    0  0.13169130298E+02 -0.11735494751E+02 -0.95369971283E+03  0.95386492234E+03  0.20000008594E+01 0.  0.
        -13    1    3    3    0    0 -0.13169130298E+02  0.11735494751E+02 -0.48975189549E+02  0.52055049566E+02  0.10566000000E+00 0.  1.
         13    1    4    4    0    0  0.91672006822E+01 -0.88353858561E+01 -0.69987381996E+03  0.69998962610E+03  0.10566000000E+00 0. -1.
        -13    1    4    4    0    0  0.11615002722E+01 -0.12443718035E+01 -0.77641885173E+02  0.77660614480E+02  0.10566000000E+00 0.  1.
        -14    1    4    4    0    0  0.28404293435E+01 -0.16557370915E+01 -0.17618400769E+03  0.17621468177E+03  0.00000000000E+00 0.  1.
<mgrwt>
<rscale>  0 0.80734318E+02</rscale>
<asrwt>0</asrwt>
<pdfrwt beam="1">  1        2 0.15450680E+00 0.80734318E+02</pdfrwt>
<pdfrwt beam="2">  1       -1 0.24962154E-03 0.80734318E+02</pdfrwt>
<totfact> 0.34410841E+05</totfact>
</mgrwt>
</event>
<event>
 8    1  0.1673046E-013  0.7585515E+02  0.7818608E-02  0.1341243E+00
          2   -1    0    0  501    0  0.00000000000E+00  0.00000000000E+00  0.22534354102E+03  0.22534354103E+03  0.25500000000E-02 0. -1.
         -1   -1    0    0    0  501 -0.00000000000E+00 -0.00000000000E+00 -0.63835901335E+01  0.63835921231E+01  0.50400000000E-02 0.  1.
         24    2    1    2    0    0  0.00000000000E+00  0.00000000000E+00  0.21895995089E+03  0.23172713316E+03  0.75855152423E+02 0.  0.
         66    2    3    3    0    0 -0.34036112569E+02  0.12155672655E+02  0.74687737212E+02  0.82996839878E+02  0.20000008454E+01 0.  0.
        -13    1    3    3    0    0  0.34036112569E+02 -0.12155672655E+02  0.14427221367E+03  0.14873029328E+03  0.10566000000E+00 0.  1.
         13    1    4    4    0    0 -0.19469371926E+02  0.64427977111E+01  0.42334223512E+02  0.47040022640E+02  0.10566000000E+00 0. -1.
        -13    1    4    4    0    0 -0.95053977605E+00  0.48529889735E+00  0.16953317128E+01  0.20060793947E+01  0.10566000000E+00 0. -1.
        -14    1    4    4    0    0 -0.13616200866E+02  0.52275760465E+01  0.30658181987E+02  0.33950737843E+02  0.00000000000E+00 0.  1.
<mgrwt>
<rscale>  0 0.75855152E+02</rscale>
<asrwt>0</asrwt>
<pdfrwt beam="1">  1        2 0.34668234E-01 0.75855152E+02</pdfrwt>
<pdfrwt beam="2">  1       -1 0.98209105E-03 0.75855152E+02</pdfrwt>
<totfact> 0.26450533E+05</totfact>
</mgrwt>
</event>
<event>
 8    1  0.1673046E-013  0.7832806E+02  0.7818608E-02  0.1333864E+00
         -1   -1    0    0    0  501 -0.00000000000E+00  0.00000000000E+00  0.36956970647E+02  0.36956970991E+02  0.50400000000E-02 0.  1.
          2   -1    0    0  501    0  0.00000000000E+00 -0.00000000000E+00 -0.41502895125E+02  0.41502895203E+02  0.25500000000E-02 0. -1.
         24    2    1    2    0    0 -0.35527136788E-14  0.00000000000E+00 -0.45459244777E+01  0.78459866194E+02  0.78328061216E+02 0.  0.
         66    2    3    3    0    0  0.25238500658E+02  0.19816564805E+02 -0.24720587791E+02  0.40555956634E+02  0.20000004008E+01 0.  0.
        -13    1    3    3    0    0 -0.25238500658E+02 -0.19816564805E+02  0.20174663313E+02  0.37903909560E+02  0.10566000000E+00 0.  1.
         13    1    4    4    0    0  0.18176587300E+01  0.17414197918E+01 -0.20797351589E+01  0.32669387072E+01  0.10566000000E+00 0. -1.
        -13    1    4    4    0    0  0.55427885905E+01  0.51149957777E+01 -0.60432378823E+01  0.96652767835E+01  0.10566000000E+00 0.  1.
         14    1    4    4    0    0  0.17878053338E+02  0.12960149235E+02 -0.16597614750E+02  0.27623741143E+02  0.00000000000E+00 0. -1.
<mgrwt>
<rscale>  0 0.78328061E+02</rscale>
<asrwt>0</asrwt>
<pdfrwt beam="1">  1        2 0.63850607E-02 0.78328061E+02</pdfrwt>
<pdfrwt beam="2">  1       -1 0.56856879E-02 0.78328061E+02</pdfrwt>
<totfact> 0.15224898E+05</totfact>
</mgrwt>
</event>
<event>
 8    1  0.1673046E-013  0.7735703E+02  0.7818608E-02  0.1336724E+00
         -1   -1    0    0    0  501 -0.00000000000E+00  0.00000000000E+00  0.44465198118E+01  0.44465226682E+01  0.50400000000E-02 0.  1.
          2   -1    0    0  501    0  0.00000000000E+00 -0.00000000000E+00 -0.33644893277E+03  0.33644893278E+03  0.25500000000E-02 0. -1.
         24    2    1    2    0    0  0.00000000000E+00  0.00000000000E+00 -0.33200241296E+03  0.34089545545E+03  0.77357025117E+02 0.  0.
         66    2    3    3    0    0 -0.16698715484E+02  0.74752398177E+01 -0.31615586055E+03  0.31669110261E+03  0.20000003884E+01 0.  0.
        -13    1    3    3    0    0  0.16698715484E+02 -0.74752398177E+01 -0.15846552408E+02  0.24204352840E+02  0.10566000000E+00 0.  1.
         13    1    4    4    0    0 -0.10040343472E+02  0.45820091034E+01 -0.18888247576E+03  0.18920466199E+03  0.10566000000E+00 0. -1.
        -13    1    4    4    0    0 -0.69906919527E+00  0.33721143634E+00 -0.21680585110E+02  0.21694730789E+02  0.10566000000E+00 0.  1.
         14    1    4    4    0    0 -0.59593028168E+01  0.25560192779E+01 -0.10559279968E+03  0.10579170983E+03  0.00000000000E+00 0. -1.
<mgrwt>
<rscale>  0 0.77357025E+02</rscale>
<asrwt>0</asrwt>
<pdfrwt beam="1">  1        2 0.51761354E-01 0.77357025E+02</pdfrwt>
<pdfrwt beam="2">  1       -1 0.68408046E-03 0.77357025E+02</pdfrwt>
<totfact> 0.29009687E+05</totfact>
</mgrwt>
</event>
<event>
 8    1  0.1673046E-013  0.8085254E+02  0.7818608E-02  0.1326649E+00
          2   -1    0    0  501    0  0.00000000000E+00  0.00000000000E+00  0.57598548527E+03  0.57598548528E+03  0.25500000000E-02 0. -1.
         -1   -1    0    0    0  501 -0.00000000000E+00 -0.00000000000E+00 -0.28373665274E+01  0.28373710036E+01  0.50400000000E-02 0.  1.
         24    2    1    2    0    0  0.00000000000E+00  0.00000000000E+00  0.57314811874E+03  0.57882285628E+03  0.80852538198E+02 0.  0.
         66    2    3    3    0    0 -0.10731629795E+02 -0.38167496215E+02  0.34236496074E+03  0.34465880518E+03  0.20000001040E+01 0.  0.
        -13    1    3    3    0    0  0.10731629795E+02  0.38167496215E+02  0.23078315800E+03  0.23416405110E+03  0.10566000000E+00 0.  1.
         13    1    4    4    0    0 -0.36119797744E+01 -0.13768258800E+02  0.12308547103E+03  0.12390583397E+03  0.10566000000E+00 0. -1.
        -13    1    4    4    0    0 -0.25291067649E+01 -0.10173557203E+02  0.95848986109E+02  0.96420625124E+02  0.10566000000E+00 0.  1.
        -14    1    4    4    0    0 -0.45905432559E+01 -0.14225680213E+02  0.12343050360E+03  0.12433234609E+03  0.00000000000E+00 0.  1.
<mgrwt>
<rscale>  0 0.80852538E+02</rscale>
<asrwt>0</asrwt>
<pdfrwt beam="1">  1        2 0.88613083E-01 0.80852538E+02</pdfrwt>
<pdfrwt beam="2">  1       -1 0.43651861E-03 0.80852538E+02</pdfrwt>
<totfact> 0.30927133E+05</totfact>
</mgrwt>
</event>
<event>
 8    1  0.1673046E-013  0.8230055E+02  0.7818608E-02  0.1322647E+00
          2   -1    0    0  501    0  0.00000000000E+00  0.00000000000E+00  0.86939010572E+02  0.86939010610E+02  0.25500000000E-02 0. -1.
         -1   -1    0    0    0  501 -0.00000000000E+00 -0.00000000000E+00 -0.19477390785E+02  0.19477391437E+02  0.50400000000E-02 0.  1.
         24    2    1    2    0    0  0.00000000000E+00  0.00000000000E+00  0.67461619787E+02  0.10641640205E+03  0.82300549696E+02 0.  0.
         66    2    3    3    0    0  0.37537406970E+02  0.16448502367E+02  0.29322197535E+02  0.50432146707E+02  0.20000002656E+01 0.  0.
        -13    1    3    3    0    0 -0.37537406970E+02 -0.16448502367E+02  0.38139422252E+02  0.55984255339E+02  0.10566000000E+00 0.  1.
         13    1    4    4    0    0  0.26312987022E+02  0.10640265042E+02  0.20060572313E+02  0.34756672046E+02  0.10566000000E+00 0. -1.
        -13    1    4    4    0    0  0.32388111380E+01  0.16789142216E+01  0.24375281606E+01  0.43887763808E+01  0.10566000000E+00 0.  1.
         14    1    4    4    0    0  0.79856088102E+01  0.41293231037E+01  0.68240970614E+01  0.11286698280E+02  0.00000000000E+00 0. -1.
<mgrwt>
<rscale>  0 0.82300550E+02</rscale>
<asrwt>0</asrwt>
<pdfrwt beam="1">  1        2 0.13375233E-01 0.82300550E+02</pdfrwt>
<pdfrwt beam="2">  1       -1 0.29965217E-02 0.82300550E+02</pdfrwt>
<totfact> 0.15807636E+05</totfact>
</mgrwt>
</event>
<event>
 8    1  0.1673046E-013  0.8680070E+02  0.7818608E-02  0.1310790E+00
          2   -1    0    0  501    0  0.00000000000E+00  0.00000000000E+00  0.13107674796E+04  0.13107674796E+04  0.25500000000E-02 0. -1.
         -1   -1    0    0    0  501 -0.00000000000E+00 -0.00000000000E+00 -0.14370090804E+01  0.14370179187E+01  0.50400000000E-02 0.  1.
         24    2    1    2    0    0  0.00000000000E+00  0.00000000000E+00  0.13093304705E+04  0.13122044975E+04  0.86800704397E+02 0.  0.
         66    2    3    3    0    0  0.15466478206E+02 -0.24380754122E+02  0.11443950205E+04  0.11447609340E+04  0.20000005158E+01 0.  0.
        -13    1    3    3    0    0 -0.15466478206E+02  0.24380754122E+02  0.16493545004E+03  0.16744356352E+03  0.10566000000E+00 0.  1.
         13    1    4    4    0    0  0.13696386136E+02 -0.21731746076E+02  0.10185153957E+04  0.10188392818E+04  0.10566000000E+00 0. -1.
        -13    1    4    4    0    0  0.61365043848E+00 -0.67565185364E+00  0.46522443474E+02  0.46531516020E+02  0.10566000000E+00 0.  1.
        -14    1    4    4    0    0  0.11564416316E+01 -0.19733561924E+01  0.79357181302E+02  0.79390136138E+02  0.00000000000E+00 0.  1.
<mgrwt>
<rscale>  0 0.86800704E+02</rscale>
<asrwt>0</asrwt>
<pdfrwt beam="1">  1        2 0.20165769E+00 0.86800704E+02</pdfrwt>
<pdfrwt beam="2">  1       -1 0.22107774E-03 0.86800704E+02</pdfrwt>
<totfact> 0.27935985E+05</totfact>
</mgrwt>
</event>
<event>
 8    1  0.1673046E-013  0.8071750E+02  0.7818608E-02  0.1327028E+00
          2   -1    0    0  501    0  0.00000000000E+00  0.00000000000E+00  0.96055009185E+02  0.96055009218E+02  0.25500000000E-02 0. -1.
         -1   -1    0    0    0  501 -0.00000000000E+00 -0.00000000000E+00 -0.16957249166E+02  0.16957249915E+02  0.50400000000E-02 0.  1.
         24    2    1    2    0    0  0.00000000000E+00  0.00000000000E+00  0.79097760018E+02  0.11301225913E+03  0.80717501662E+02 0.  0.
         66    2    3    3    0    0 -0.31115288927E+02 -0.20673514793E+02  0.18281116229E+02  0.41638379144E+02  0.19999970581E+01 0.  0.
        -13    1    3    3    0    0  0.31115288927E+02  0.20673514793E+02  0.60816643789E+02  0.71373879990E+02  0.10566000000E+00 0.  1.
         13    1    4    4    0    0 -0.16822316832E+02 -0.11554678781E+02  0.10537158072E+02  0.22968321871E+02  0.10566000000E+00 0. -1.
        -13    1    4    4    0    0 -0.44080680623E+00 -0.20729439576E+00  0.38471532931E+00  0.62964396856E+00  0.10566000000E+00 0. -1.
         14    1    4    4    0    0 -0.13852165290E+02 -0.89115416164E+01  0.73592428276E+01  0.18040413304E+02  0.00000000000E+00 0. -1.
<mgrwt>
<rscale>  0 0.80717502E+02</rscale>
<asrwt>0</asrwt>
<pdfrwt beam="1">  1        2 0.14777693E-01 0.80717502E+02</pdfrwt>
<pdfrwt beam="2">  1       -1 0.26088077E-02 0.80717502E+02</pdfrwt>
<totfact> 0.17113820E+05</totfact>
</mgrwt>
</event>
<event>
 8    1  0.1673046E-013  0.8134500E+02  0.7818608E-02  0.1325277E+00
          2   -1    0    0  501    0  0.00000000000E+00  0.00000000000E+00  0.60430660784E+03  0.60430660785E+03  0.25500000000E-02 0. -1.
         -1   -1    0    0    0  501 -0.00000000000E+00 -0.00000000000E+00 -0.27374365280E+01  0.27374411677E+01  0.50400000000E-02 0.  1.
         24    2    1    2    0    0 -0.22204460493E-15 -0.35527136788E-14  0.60156917131E+03  0.60704404901E+03  0.81345003345E+02 0.  0.
         66    2    3    3    0    0 -0.11116428875E+01 -0.16693162417E+02  0.57741919560E+03  0.57766497632E+03  0.19999993058E+01 0.  0.
        -13    1    3    3    0    0  0.11116428875E+01  0.16693162417E+02  0.24149975708E+02  0.29379072690E+02  0.10566000000E+00 0.  1.
         13    1    4    4    0    0 -0.12129789960E+01 -0.80341889838E+01  0.29960956254E+03  0.29971973682E+03  0.10566000000E+00 0. -1.
        -13    1    4    4    0    0  0.52831350591E-01 -0.42685982565E+01  0.12747011995E+03  0.12754162601E+03  0.10566000000E+00 0.  1.
         14    1    4    4    0    0  0.48504757912E-01 -0.43903751766E+01  0.15033951312E+03  0.15040361349E+03  0.00000000000E+00 0. -1.
<mgrwt>
<rscale>  0 0.81345003E+02</rscale>
<asrwt>0</asrwt>
<pdfrwt beam="1">  1        2 0.92970356E-01 0.81345003E+02</pdfrwt>
<pdfrwt beam="2">  1       -1 0.42114395E-03 0.81345003E+02</pdfrwt>
<totfact> 0.30858063E+05</totfact>
</mgrwt>
</event>
<event>
 8    1  0.1673046E-013  0.7577043E+02  0.7818608E-02  0.1341502E+00
          2   -1    0    0  501    0  0.00000000000E+00  0.00000000000E+00  0.14054081621E+02  0.14054081852E+02  0.25500000000E-02 0. -1.
         -1   -1    0    0    0  501 -0.00000000000E+00 -0.00000000000E+00 -0.10212617093E+03  0.10212617105E+03  0.50400000000E-02 0.  1.
         24    2    1    2    0    0  0.00000000000E+00  0.35527136788E-14 -0.88072089305E+02  0.11618025290E+03  0.75770431237E+02 0.  0.
         66    2    3    3    0    0  0.19742737804E+02  0.23652718973E+02 -0.10331602468E+02  0.32557162380E+02  0.20000004573E+01 0.  0.
        -13    1    3    3    0    0 -0.19742737804E+02 -0.23652718973E+02 -0.77740486836E+02  0.83623090522E+02  0.10566000000E+00 0.  1.
         13    1    4    4    0    0  0.45308201467E+01  0.61074358480E+01 -0.22865841069E+01  0.79415826352E+01  0.10566000000E+00 0. -1.
        -13    1    4    4    0    0  0.28531093578E+01  0.25721287449E+01 -0.15410542500E+01  0.41403008978E+01  0.10566000000E+00 0.  1.
        -14    1    4    4    0    0  0.12358808300E+02  0.14973154380E+02 -0.65039641114E+01  0.20475278847E+02  0.00000000000E+00 0.  1.
<mgrwt>
<rscale>  0 0.75770431E+02</rscale>
<asrwt>0</asrwt>
<pdfrwt beam="1">  1        2 0.21621665E-02 0.75770431E+02</pdfrwt>
<pdfrwt beam="2">  1       -1 0.15711718E-01 0.75770431E+02</pdfrwt>
<totfact> 0.13511893E+05</totfact>
</mgrwt>
</event>
<event>
 8    1  0.1673046E-013  0.7904427E+02  0.7818608E-02  0.1331786E+00
          2   -1    0    0  501    0  0.00000000000E+00  0.00000000000E+00  0.18142388414E+03  0.18142388416E+03  0.25500000000E-02 0. -1.
         -1   -1    0    0    0  501 -0.00000000000E+00 -0.00000000000E+00 -0.86096663755E+01  0.86096678506E+01  0.50400000000E-02 0.  1.
         24    2    1    2    0    0 -0.35527136788E-14  0.00000000000E+00  0.17281421776E+03  0.19003355201E+03  0.79044272578E+02 0.  0.
         66    2    3    3    0    0 -0.20297178008E+02 -0.86644112999E+01  0.16521198654E+03  0.16669147537E+03  0.20000013461E+01 0.  0.
        -13    1    3    3    0    0  0.20297178008E+02  0.86644112999E+01  0.76022312229E+01  0.23342076640E+02  0.10566000000E+00 0.  1.
         13    1    4    4    0    0 -0.24444438692E+01 -0.13359377223E+01  0.22639230928E+02  0.22810216493E+02  0.10566000000E+00 0. -1.
        -13    1    4    4    0    0 -0.11505477021E+02 -0.50015527191E+01  0.87403373584E+02  0.88299220885E+02  0.10566000000E+00 0.  1.
         14    1    4    4    0    0 -0.63472571169E+01 -0.23269208586E+01  0.55169382028E+02  0.55582037989E+02  0.00000000000E+00 0. -1.
<mgrwt>
<rscale>  0 0.79044273E+02</rscale>
<asrwt>0</asrwt>
<pdfrwt beam="1">  1        2 0.27911364E-01 0.79044273E+02</pdfrwt>
<pdfrwt beam="2">  1       -1 0.13245643E-02 0.79044273E+02</pdfrwt>
<totfact> 0.22019588E+05</totfact>
</mgrwt>
</event>
<event>
 8    1  0.1673046E-013  0.7831000E+02  0.7818608E-02  0.1333917E+00
         -1   -1    0    0    0  501 -0.00000000000E+00  0.00000000000E+00  0.21304566592E+01  0.21304626207E+01  0.50400000000E-02 0.  1.
          2   -1    0    0  501    0  0.00000000000E+00 -0.00000000000E+00 -0.71961651685E+03  0.71961651685E+03  0.25500000000E-02 0. -1.
         24    2    1    2    0    0  0.00000000000E+00  0.88817841970E-15 -0.71748606019E+03  0.72174697947E+03  0.78309998171E+02 0.  0.
         66    2    3    3    0    0  0.19681532118E+02 -0.42961371707E+01 -0.66814819008E+03  0.66845480283E+03  0.20000024828E+01 0.  0.
        -13    1    3    3    0    0 -0.19681532118E+02  0.42961371707E+01 -0.49337870105E+02  0.53292176645E+02  0.10566000000E+00 0.  1.
         13    1    4    4    0    0  0.83515884245E+01 -0.13150225707E+01 -0.27087987618E+03  0.27101180196E+03  0.10566000000E+00 0. -1.
        -13    1    4    4    0    0  0.10107385820E+02 -0.24176432731E+01 -0.33969625288E+03  0.33985520392E+03  0.10566000000E+00 0.  1.
        -14    1    4    4    0    0  0.12225578736E+01 -0.56347132695E+00 -0.57572061016E+02  0.57587796948E+02  0.00000000000E+00 0.  1.
<mgrwt>
<rscale>  0 0.78309998E+02</rscale>
<asrwt>0</asrwt>
<pdfrwt beam="1">  1        2 0.11071004E+00 0.78309998E+02</pdfrwt>
<pdfrwt beam="2">  1       -1 0.32776360E-03 0.78309998E+02</pdfrwt>
<totfact> 0.35577663E+05</totfact>
</mgrwt>
</event>
<event>
 8    1  0.1673046E-013  0.8026677E+02  0.7818608E-02  0.1328296E+00
         -1   -1    0    0    0  501 -0.00000000000E+00  0.00000000000E+00  0.82815187877E+01  0.82815203213E+01  0.50400000000E-02 0.  1.
          2   -1    0    0  501    0  0.00000000000E+00 -0.00000000000E+00 -0.19449190556E+03  0.19449190557E+03  0.25500000000E-02 0. -1.
         24    2    1    2    0    0  0.00000000000E+00  0.00000000000E+00 -0.18621038677E+03  0.20277342590E+03  0.80266768394E+02 0.  0.
         66    2    3    3    0    0  0.12292720514E+02  0.13437536432E+02 -0.18343868809E+03  0.18435137822E+03  0.19999997115E+01 0.  0.
        -13    1    3    3    0    0 -0.12292720514E+02 -0.13437536432E+02 -0.27716986763E+01  0.18422047676E+02  0.10566000000E+00 0.  1.
         13    1    4    4    0    0  0.96940110138E+00  0.10752310833E+01 -0.14941768921E+02  0.15012111208E+02  0.10566000000E+00 0.  1.
        -13    1    4    4    0    0  0.29779416440E+01  0.33654231639E+01 -0.53932688337E+02  0.54119684448E+02  0.10566000000E+00 0.  1.
         14    1    4    4    0    0  0.83453777688E+01  0.89968821848E+01 -0.11456423084E+03  0.11521958256E+03  0.00000000000E+00 0. -1.
<mgrwt>
<rscale>  0 0.80266768E+02</rscale>
<asrwt>0</asrwt>
<pdfrwt beam="1">  1        2 0.29921828E-01 0.80266768E+02</pdfrwt>
<pdfrwt beam="2">  1       -1 0.12740801E-02 0.80266768E+02</pdfrwt>
<totfact> 0.21655049E+05</totfact>
</mgrwt>
</event>
<event>
 8    1  0.1673046E-013  0.7910406E+02  0.7818608E-02  0.1331613E+00
         -1   -1    0    0    0  501 -0.00000000000E+00  0.00000000000E+00  0.11462603462E+02  0.11462604570E+02  0.50400000000E-02 0.  1.
          2   -1    0    0  501    0  0.00000000000E+00 -0.00000000000E+00 -0.13647536290E+03  0.13647536292E+03  0.25500000000E-02 0. -1.
         24    2    1    2    0    0  0.00000000000E+00  0.00000000000E+00 -0.12501275944E+03  0.14793796749E+03  0.79104059338E+02 0.  0.
         66    2    3    3    0    0  0.11899580966E+02 -0.36032861862E+02 -0.41856461532E+02  0.56532561709E+02  0.20000000563E+01 0.  0.
        -13    1    3    3    0    0 -0.11899580966E+02  0.36032861862E+02 -0.83156297907E+02  0.91405405785E+02  0.10566000000E+00 0.  1.
         13    1    4    4    0    0  0.77529208640E+01 -0.25092262995E+02 -0.29946924412E+02  0.39831631776E+02  0.10566000000E+00 0. -1.
        -13    1    4    4    0    0  0.24795148957E+01 -0.70426863246E+01 -0.74613342224E+01  0.10556045528E+02  0.10566000000E+00 0.  1.
         14    1    4    4    0    0  0.16671452065E+01 -0.38979125421E+01 -0.44482028981E+01  0.61448844047E+01  0.00000000000E+00 0. -1.
<mgrwt>
<rscale>  0 0.79104059E+02</rscale>
<asrwt>0</asrwt>
<pdfrwt beam="1">  1        2 0.20996209E-01 0.79104059E+02</pdfrwt>
<pdfrwt beam="2">  1       -1 0.17634776E-02 0.79104059E+02</pdfrwt>
<totfact> 0.20028228E+05</totfact>
</mgrwt>
</event>
<event>
 8    1  0.1673046E-013  0.7166561E+02  0.7818608E-02  0.1354519E+00
         -1   -1    0    0    0  501 -0.00000000000E+00  0.00000000000E+00  0.80935760852E+01  0.80935776545E+01  0.50400000000E-02 0.  1.
          2   -1    0    0  501    0  0.00000000000E+00 -0.00000000000E+00 -0.15864305105E+03  0.15864305107E+03  0.25500000000E-02 0. -1.
         24    2    1    2    0    0  0.35527136788E-14 -0.35527136788E-14 -0.15054947497E+03  0.16673662873E+03  0.71665605045E+02 0.  0.
         66    2    3    3    0    0 -0.21148685012E+02  0.26634218421E+02 -0.10138027342E+03  0.10695142978E+03  0.20000059883E+01 0.  0.
        -13    1    3    3    0    0  0.21148685012E+02 -0.26634218421E+02 -0.49169201543E+02  0.59785198947E+02  0.10566000000E+00 0.  1.
         13    1    4    4    0    0 -0.51282136270E+01  0.76995016082E+01 -0.26978846777E+02  0.28521049025E+02  0.10566000000E+00 0.  1.
        -13    1    4    4    0    0 -0.98711719449E+01  0.11660010903E+02 -0.44674847706E+02  0.47214924244E+02  0.10566000000E+00 0. -1.
         14    1    4    4    0    0 -0.61492994402E+01  0.72747059104E+01 -0.29726578939E+02  0.31215456510E+02  0.00000000000E+00 0. -1.
<mgrwt>
<rscale>  0 0.71665605E+02</rscale>
<asrwt>0</asrwt>
<pdfrwt beam="1">  1        2 0.24406621E-01 0.71665605E+02</pdfrwt>
<pdfrwt beam="2">  1       -1 0.12451658E-02 0.71665605E+02</pdfrwt>
<totfact> 0.27249897E+05</totfact>
</mgrwt>
</event>
<event>
 8    1  0.1673046E-013  0.8231665E+02  0.7818608E-02  0.1322603E+00
          2   -1    0    0  501    0  0.00000000000E+00  0.00000000000E+00  0.29832701611E+03  0.29832701612E+03  0.25500000000E-02 0. -1.
         -1   -1    0    0    0  501 -0.00000000000E+00 -0.00000000000E+00 -0.56783577850E+01  0.56783600217E+01  0.50400000000E-02 0.  1.
         24    2    1    2    0    0  0.00000000000E+00  0.35527136788E-14  0.29264865832E+03  0.30400537614E+03  0.82316653869E+02 0.  0.
         66    2    3    3    0    0 -0.99053815403E+01 -0.27103547745E+02  0.25466894372E+03  0.25630643727E+03  0.20000020421E+01 0.  0.
        -13    1    3    3    0    0  0.99053815403E+01  0.27103547745E+02  0.37979714606E+02  0.47698938871E+02  0.10566000000E+00 0.  1.
         13    1    4    4    0    0 -0.20732205365E+01 -0.65702474281E+01  0.65917655285E+02  0.66276804667E+02  0.10566000000E+00 0. -1.
        -13    1    4    4    0    0 -0.30531303860E+01 -0.70263471089E+01  0.69215841976E+02  0.69638603542E+02  0.10566000000E+00 0.  1.
        -14    1    4    4    0    0 -0.47790306178E+01 -0.13506953208E+02  0.11953544646E+03  0.12039102906E+03  0.00000000000E+00 0.  1.
<mgrwt>
<rscale>  0 0.82316654E+02</rscale>
<asrwt>0</asrwt>
<pdfrwt beam="1">  1        2 0.45896453E-01 0.82316654E+02</pdfrwt>
<pdfrwt beam="2">  1       -1 0.87359389E-03 0.82316654E+02</pdfrwt>
<totfact> 0.23605545E+05</totfact>
</mgrwt>
</event>
<event>
 8    1  0.1673046E-013  0.7869549E+02  0.7818608E-02  0.1332795E+00
         -1   -1    0    0    0  501 -0.00000000000E+00  0.00000000000E+00  0.20545884194E+02  0.20545884812E+02  0.50400000000E-02 0.  1.
          2   -1    0    0  501    0  0.00000000000E+00 -0.00000000000E+00 -0.75355481995E+02  0.75355482038E+02  0.25500000000E-02 0. -1.
         24    2    1    2    0    0  0.00000000000E+00  0.00000000000E+00 -0.54809597800E+02  0.95901366850E+02  0.78695490040E+02 0.  0.
         66    2    3    3    0    0  0.32993370192E+02 -0.10406897476E+02 -0.50200697729E+02  0.60999803624E+02  0.19999995039E+01 0.  0.
        -13    1    3    3    0    0 -0.32993370192E+02  0.10406897476E+02 -0.46089000710E+01  0.34901563226E+02  0.10566000000E+00 0.  1.
         13    1    4    4    0    0  0.57247842923E+01 -0.25709141056E+01 -0.88126013854E+01  0.10819235728E+02  0.10566000000E+00 0. -1.
        -13    1    4    4    0    0  0.13946613947E+02 -0.38514719790E+01 -0.21243173766E+02  0.25702635521E+02  0.10566000000E+00 0.  1.
         14    1    4    4    0    0  0.13321971952E+02 -0.39845113917E+01 -0.20144922578E+02  0.24477932376E+02  0.00000000000E+00 0. -1.
<mgrwt>
<rscale>  0 0.78695490E+02</rscale>
<asrwt>0</asrwt>
<pdfrwt beam="1">  1        2 0.11593151E-01 0.78695490E+02</pdfrwt>
<pdfrwt beam="2">  1       -1 0.31609054E-02 0.78695490E+02</pdfrwt>
<totfact> 0.17189763E+05</totfact>
</mgrwt>
</event>
<event>
 8    1  0.1673046E-013  0.7261597E+02  0.7818608E-02  0.1351417E+00
          2   -1    0    0  501    0  0.00000000000E+00  0.00000000000E+00  0.14442273534E+02  0.14442273759E+02  0.25500000000E-02 0. -1.
         -1   -1    0    0    0  501 -0.00000000000E+00 -0.00000000000E+00 -0.91278557782E+02  0.91278557921E+02  0.50400000000E-02 0.  1.
         24    2    1    2    0    0  0.00000000000E+00  0.17763568394E-14 -0.76836284248E+02  0.10572083168E+03  0.72615973961E+02 0.  0.
         66    2    3    3    0    0  0.93826257151E+01  0.12279107819E+02  0.93417985088E+01  0.18168086060E+02  0.19999993906E+01 0.  0.
        -13    1    3    3    0    0 -0.93826257151E+01 -0.12279107819E+02 -0.86178082757E+02  0.87552745621E+02  0.10566000000E+00 0.  1.
         13    1    4    4    0    0  0.28465295840E+00  0.36097456941E+00  0.53364772698E-01  0.47470178117E+00  0.10566000000E+00 0. -1.
        -13    1    4    4    0    0  0.30206587889E+00  0.29665355459E+00  0.54089520391E+00  0.69496675018E+00  0.10566000000E+00 0.  1.
         14    1    4    4    0    0  0.87959068779E+01  0.11621479695E+02  0.87475385322E+01  0.16998417528E+02  0.00000000000E+00 0. -1.
<mgrwt>
<rscale>  0 0.72615974E+02</rscale>
<asrwt>0</asrwt>
<pdfrwt beam="1">  1        2 0.22218883E-02 0.72615974E+02</pdfrwt>
<pdfrwt beam="2">  1       -1 0.14042855E-01 0.72615974E+02</pdfrwt>
<totfact> 0.15366127E+05</totfact>
</mgrwt>
</event>
<event>
 8    1  0.1673046E-013  0.8222111E+02  0.7818608E-02  0.1322864E+00
         -1   -1    0    0    0  501 -0.00000000000E+00  0.00000000000E+00  0.59548995308E+01  0.59549016636E+01  0.50400000000E-02 0.  1.
          2   -1    0    0  501    0  0.00000000000E+00 -0.00000000000E+00 -0.28381294729E+03  0.28381294730E+03  0.25500000000E-02 0. -1.
         24    2    1    2    0    0  0.88817841970E-15  0.71054273576E-14 -0.27785804776E+03  0.28976784897E+03  0.82221114012E+02 0.  0.
         66    2    3    3    0    0  0.50307687564E+01  0.36654680112E+02 -0.20197573462E+03  0.20534622366E+03  0.19999965091E+01 0.  0.
        -13    1    3    3    0    0 -0.50307687564E+01 -0.36654680112E+02 -0.75882313136E+02  0.84421625306E+02  0.10566000000E+00 0.  1.
         13    1    4    4    0    0  0.24627839068E+00  0.48050398336E+01 -0.25383982340E+02  0.25836152661E+02  0.10566000000E+00 0. -1.
        -13    1    4    4    0    0  0.22193814005E+01  0.13241446081E+02 -0.70066847592E+02  0.71341683774E+02  0.10566000000E+00 0.  1.
        -14    1    4    4    0    0  0.25651089652E+01  0.18608194197E+02 -0.10652490469E+03  0.10816838723E+03  0.00000000000E+00 0.  1.
<mgrwt>
<rscale>  0 0.82221114E+02</rscale>
<asrwt>0</asrwt>
<pdfrwt beam="1">  1        2 0.43663520E-01 0.82221114E+02</pdfrwt>
<pdfrwt beam="2">  1       -1 0.91613878E-03 0.82221114E+02</pdfrwt>
<totfact> 0.23252577E+05</totfact>
</mgrwt>
</event>
<event>
 8    1  0.1673046E-013  0.7738161E+02  0.7818608E-02  0.1336651E+00
         -1   -1    0    0    0  501 -0.00000000000E+00  0.00000000000E+00  0.30899458926E+01  0.30899500029E+01  0.50400000000E-02 0.  1.
          2   -1    0    0  501    0  0.00000000000E+00 -0.00000000000E+00 -0.48446721591E+03  0.48446721592E+03  0.25500000000E-02 0. -1.
         24    2    1    2    0    0  0.00000000000E+00  0.00000000000E+00 -0.48137727002E+03  0.48755716592E+03  0.77381612481E+02 0.  0.
         66    2    3    3    0    0  0.12372314496E+02  0.20523752187E+02 -0.43202830304E+03  0.43269706862E+03  0.19999991271E+01 0.  0.
        -13    1    3    3    0    0 -0.12372314496E+02 -0.20523752187E+02 -0.49348966984E+02  0.54860097305E+02  0.10566000000E+00 0.  1.
         13    1    4    4    0    0  0.82663601276E+01  0.12512879475E+02 -0.28020235699E+03  0.28060341568E+03  0.10566000000E+00 0. -1.
        -13    1    4    4    0    0  0.11653834936E+01  0.19189597879E+01 -0.35166595457E+02  0.35238347371E+02  0.10566000000E+00 0.  1.
         14    1    4    4    0    0  0.29405708744E+01  0.60919129244E+01 -0.11665935059E+03  0.11685530557E+03  0.00000000000E+00 0. -1.
<mgrwt>
<rscale>  0 0.77381612E+02</rscale>
<asrwt>0</asrwt>
<pdfrwt beam="1">  1        2 0.74533358E-01 0.77381612E+02</pdfrwt>
<pdfrwt beam="2">  1       -1 0.47537699E-03 0.77381612E+02</pdfrwt>
<totfact> 0.32871202E+05</totfact>
</mgrwt>
</event>
<event>
 8    1  0.1673046E-013  0.7969174E+02  0.7818608E-02  0.1329929E+00
          2   -1    0    0  501    0  0.00000000000E+00  0.00000000000E+00  0.14688202542E+03  0.14688202544E+03  0.25500000000E-02 0. -1.
         -1   -1    0    0    0  501 -0.00000000000E+00 -0.00000000000E+00 -0.10809309123E+02  0.10809310298E+02  0.50400000000E-02 0.  1.
         24    2    1    2    0    0  0.35527136788E-14  0.35527136788E-14  0.13607271630E+03  0.15769133574E+03  0.79691738888E+02 0.  0.
         66    2    3    3    0    0 -0.19500563696E+02 -0.13572344491E+02  0.13131322823E+03  0.13346027282E+03  0.19999985882E+01 0.  0.
        -13    1    3    3    0    0  0.19500563696E+02  0.13572344491E+02  0.47594880688E+01  0.24231062919E+02  0.10566000000E+00 0.  1.
         13    1    4    4    0    0 -0.13991041142E+01 -0.93352708004E+00  0.72831446920E+01  0.74755819688E+01  0.10566000000E+00 0. -1.
        -13    1    4    4    0    0 -0.22193043770E+01 -0.19947423759E+01  0.17200670875E+02  0.17457907998E+02  0.10566000000E+00 0.  1.
         14    1    4    4    0    0 -0.15882155205E+02 -0.10644075035E+02  0.10682941266E+03  0.10852678286E+03  0.00000000000E+00 0. -1.
<mgrwt>
<rscale>  0 0.79691739E+02</rscale>
<asrwt>0</asrwt>
<pdfrwt beam="1">  1        2 0.22597234E-01 0.79691739E+02</pdfrwt>
<pdfrwt beam="2">  1       -1 0.16629708E-02 0.79691739E+02</pdfrwt>
<totfact> 0.20100227E+05</totfact>
</mgrwt>
</event>
<event>
 8    1  0.1673046E-013  0.7930221E+02  0.7818608E-02  0.1331043E+00
         -1   -1    0    0    0  501 -0.00000000000E+00  0.00000000000E+00  0.18063524592E+03  0.18063524599E+03  0.50400000000E-02 0.  1.
          2   -1    0    0  501    0  0.00000000000E+00 -0.00000000000E+00 -0.87037831979E+01  0.87037835714E+01  0.25500000000E-02 0. -1.
         24    2    1    2    0    0  0.17763568394E-14 -0.71054273576E-14  0.17193146272E+03  0.18933902956E+03  0.79302208301E+02 0.  0.
         66    2    3    3    0    0 -0.57316014483E+01  0.38601482742E+02  0.69603371165E+02  0.79822020787E+02  0.19999999969E+01 0.  0.
        -13    1    3    3    0    0  0.57316014483E+01 -0.38601482742E+02  0.10232809155E+03  0.10951700877E+03  0.10566000000E+00 0.  1.
         13    1    4    4    0    0 -0.11088707880E+01  0.70590591182E+01  0.11370714782E+02  0.13429975009E+02  0.10566000000E+00 0. -1.
        -13    1    4    4    0    0 -0.11737583062E+01  0.66971918921E+01  0.11958075881E+02  0.13756337834E+02  0.10566000000E+00 0. -1.
         14    1    4    4    0    0 -0.34489723541E+01  0.24845231732E+02  0.46274580502E+02  0.52635707944E+02  0.00000000000E+00 0. -1.
<mgrwt>
<rscale>  0 0.79302208E+02</rscale>
<asrwt>0</asrwt>
<pdfrwt beam="1">  1        2 0.13390435E-02 0.79302208E+02</pdfrwt>
<pdfrwt beam="2">  1       -1 0.27790039E-01 0.79302208E+02</pdfrwt>
<totfact> 0.10492961E+05</totfact>
</mgrwt>
</event>
<event>
 8    1  0.1673046E-013  0.7963261E+02  0.7818608E-02  0.1330097E+00
          2   -1    0    0  501    0  0.00000000000E+00  0.00000000000E+00  0.44654565271E+02  0.44654565344E+02  0.25500000000E-02 0. -1.
         -1   -1    0    0    0  501 -0.00000000000E+00 -0.00000000000E+00 -0.35502259062E+02  0.35502259420E+02  0.50400000000E-02 0.  1.
         24    2    1    2    0    0 -0.88817841970E-15  0.00000000000E+00  0.91523062089E+01  0.80156824764E+02  0.79632605428E+02 0.  0.
         66    2    3    3    0    0  0.49272504956E+01 -0.10242588081E+02  0.42963309733E+02  0.44486339326E+02  0.19999988557E+01 0.  0.
        -13    1    3    3    0    0 -0.49272504956E+01  0.10242588081E+02 -0.33811003524E+02  0.35670485438E+02  0.10566000000E+00 0.  1.
         13    1    4    4    0    0  0.86177833578E+00 -0.97477797371E+00  0.57516160419E+01  0.58978898877E+01  0.10566000000E+00 0. -1.
        -13    1    4    4    0    0  0.22968211459E+01 -0.38304121249E+01  0.17808382127E+02  0.18360203769E+02  0.10566000000E+00 0.  1.
         14    1    4    4    0    0  0.17686510139E+01 -0.54373979824E+01  0.19403311563E+02  0.20228245669E+02  0.00000000000E+00 0. -1.
<mgrwt>
<rscale>  0 0.79632605E+02</rscale>
<asrwt>0</asrwt>
<pdfrwt beam="1">  1        2 0.68699331E-02 0.79632605E+02</pdfrwt>
<pdfrwt beam="2">  1       -1 0.54618861E-02 0.79632605E+02</pdfrwt>
<totfact> 0.14771330E+05</totfact>
</mgrwt>
</event>
<event>
 8    1  0.1673046E-013  0.7855697E+02  0.7818608E-02  0.1333197E+00
         -1   -1    0    0    0  501 -0.00000000000E+00  0.00000000000E+00  0.40723663884E+01  0.40723695072E+01  0.50400000000E-02 0.  1.
          2   -1    0    0  501    0  0.00000000000E+00 -0.00000000000E+00 -0.37884581837E+03  0.37884581838E+03  0.25500000000E-02 0. -1.
         24    2    1    2    0    0  0.35527136788E-14 -0.35527136788E-14 -0.37477345198E+03  0.38291818789E+03  0.78556974888E+02 0.  0.
         66    2    3    3    0    0  0.26215060985E+02 -0.22736253396E+02 -0.27694054907E+03  0.27911330025E+03  0.20000040405E+01 0.  0.
        -13    1    3    3    0    0 -0.26215060985E+02  0.22736253396E+02 -0.97832902909E+02  0.10380488763E+03  0.10566000000E+00 0.  1.
         13    1    4    4    0    0  0.17618973227E+01 -0.16763127459E+01 -0.20415631664E+02  0.20560240438E+02  0.10566000000E+00 0. -1.
        -13    1    4    4    0    0  0.17990985404E+02 -0.15328462706E+02 -0.18147761418E+03  0.18301030828E+03  0.10566000000E+00 0.  1.
        -14    1    4    4    0    0  0.64621782591E+01 -0.57314779446E+01 -0.75047303228E+02  0.75542751532E+02  0.00000000000E+00 0.  1.
<mgrwt>
<rscale>  0 0.78556975E+02</rscale>
<asrwt>0</asrwt>
<pdfrwt beam="1">  1        2 0.58283944E-01 0.78556975E+02</pdfrwt>
<pdfrwt beam="2">  1       -1 0.62651845E-03 0.78556975E+02</pdfrwt>
<totfact> 0.29067871E+05</totfact>
</mgrwt>
</event>
<event>
 8    1  0.1673046E-013  0.7879043E+02  0.7818608E-02  0.1332519E+00
          2   -1    0    0  501    0  0.00000000000E+00  0.00000000000E+00  0.89154670049E+02  0.89154670086E+02  0.25500000000E-02 0. -1.
         -1   -1    0    0    0  501 -0.00000000000E+00 -0.00000000000E+00 -0.17407759207E+02  0.17407759936E+02  0.50400000000E-02 0.  1.
         24    2    1    2    0    0  0.00000000000E+00  0.00000000000E+00  0.71746910842E+02  0.10656243002E+03  0.78790432648E+02 0.  0.
         66    2    3    3    0    0  0.30921363134E+02  0.24710654605E+01  0.68685169948E+02  0.75391573699E+02  0.19999878759E+01 0.  0.
        -13    1    3    3    0    0 -0.30921363134E+02 -0.24710654605E+01  0.30617408942E+01  0.31170856323E+02  0.10566000000E+00 0.  1.
         13    1    4    4    0    0  0.15080599618E+02  0.17025505050E+01  0.32367107839E+02  0.35748622309E+02  0.10566000000E+00 0. -1.
        -13    1    4    4    0    0  0.22434907896E+01 -0.22702304115E+00  0.49976197288E+01  0.54838086558E+01  0.10566000000E+00 0.  1.
         14    1    4    4    0    0  0.13597272726E+02  0.99553799663E+00  0.31320442380E+02  0.34159142735E+02  0.00000000000E+00 0. -1.
<mgrwt>
<rscale>  0 0.78790433E+02</rscale>
<asrwt>0</asrwt>
<pdfrwt beam="1">  1        2 0.13716103E-01 0.78790433E+02</pdfrwt>
<pdfrwt beam="2">  1       -1 0.26781168E-02 0.78790433E+02</pdfrwt>
<totfact> 0.17894248E+05</totfact>
</mgrwt>
</event>
<event>
 8    1  0.1673046E-013  0.7921144E+02  0.7818608E-02  0.1331304E+00
         -1   -1    0    0    0  501 -0.00000000000E+00  0.00000000000E+00  0.10390592885E+03  0.10390592898E+03  0.50400000000E-02 0.  1.
          2   -1    0    0  501    0  0.00000000000E+00 -0.00000000000E+00 -0.15096472166E+02  0.15096472382E+02  0.25500000000E-02 0. -1.
         24    2    1    2    0    0  0.00000000000E+00  0.00000000000E+00  0.88809456687E+02  0.11900240136E+03  0.79211438137E+02 0.  0.
         66    2    3    3    0    0  0.12127173989E+02  0.21132067958E+02 -0.24288196800E+01  0.24566884291E+02  0.19999983953E+01 0.  0.
        -13    1    3    3    0    0 -0.12127173989E+02 -0.21132067958E+02  0.91238276367E+02  0.94435517066E+02  0.10566000000E+00 0.  1.
         13    1    4    4    0    0  0.10451304226E+01  0.21582102915E+01 -0.27030008641E+00  0.24154493236E+01  0.10566000000E+00 0. -1.
        -13    1    4    4    0    0  0.79103638965E+01  0.14620654492E+02 -0.10826908301E+01  0.16658954896E+02  0.10566000000E+00 0.  1.
        -14    1    4    4    0    0  0.31716796703E+01  0.43532031743E+01 -0.10758287635E+01  0.54924800715E+01  0.00000000000E+00 0.  1.
<mgrwt>
<rscale>  0 0.79211438E+02</rscale>
<asrwt>0</asrwt>
<pdfrwt beam="1">  1        2 0.23225342E-02 0.79211438E+02</pdfrwt>
<pdfrwt beam="2">  1       -1 0.15985528E-01 0.79211438E+02</pdfrwt>
<totfact> 0.12049825E+05</totfact>
</mgrwt>
</event>
<event>
 8    1  0.1673046E-013  0.7993999E+02  0.7818608E-02  0.1329222E+00
         -1   -1    0    0    0  501 -0.00000000000E+00  0.00000000000E+00  0.11612138501E+01  0.11612247876E+01  0.50400000000E-02 0.  1.
          2   -1    0    0  501    0  0.00000000000E+00 -0.00000000000E+00 -0.13757957596E+04  0.13757957596E+04  0.25500000000E-02 0. -1.
         24    2    1    2    0    0  0.00000000000E+00  0.00000000000E+00 -0.13746345457E+04  0.13769569844E+04  0.79939993065E+02 0.  0.
         66    2    3    3    0    0  0.19521049117E+02  0.85236662909E+01 -0.12698024216E+04  0.12699826432E+04  0.19999991646E+01 0.  0.
        -13    1    3    3    0    0 -0.19521049117E+02 -0.85236662909E+01 -0.10483212416E+03  0.10697434116E+03  0.10566000000E+00 0.  1.
         13    1    4    4    0    0  0.11543058726E+02  0.56533701080E+01 -0.78193384842E+03  0.78203948575E+03  0.10566000000E+00 0. -1.
        -13    1    4    4    0    0  0.42578221998E+01  0.12165572971E+01 -0.27472996326E+03  0.27476566914E+03  0.10566000000E+00 0.  1.
         14    1    4    4    0    0  0.37201681911E+01  0.16537388857E+01 -0.21313860987E+03  0.21317748831E+03  0.00000000000E+00 0. -1.
<mgrwt>
<rscale>  0 0.79939993E+02</rscale>
<asrwt>0</asrwt>
<pdfrwt beam="1">  1        2 0.21165958E+00 0.79939993E+02</pdfrwt>
<pdfrwt beam="2">  1       -1 0.17865023E-03 0.79939993E+02</pdfrwt>
<totfact> 0.34241917E+05</totfact>
</mgrwt>
</event>
<event>
 8    1  0.1673046E-013  0.8602680E+02  0.7818608E-02  0.1312769E+00
          2   -1    0    0  501    0  0.00000000000E+00  0.00000000000E+00  0.65698342988E+03  0.65698342989E+03  0.25500000000E-02 0. -1.
         -1   -1    0    0    0  501 -0.00000000000E+00 -0.00000000000E+00 -0.28161305457E+01  0.28161350557E+01  0.50400000000E-02 0.  1.
         24    2    1    2    0    0  0.00000000000E+00  0.00000000000E+00  0.65416729934E+03  0.65979956495E+03  0.86026800345E+02 0.  0.
         66    2    3    3    0    0 -0.30212302014E+02  0.23525482914E+02  0.47714632980E+03  0.47868450108E+03  0.19999976781E+01 0.  0.
        -13    1    3    3    0    0  0.30212302014E+02 -0.23525482914E+02  0.17702096954E+03  0.18111506386E+03  0.10566000000E+00 0.  1.
         13    1    4    4    0    0 -0.17339075294E+02  0.12712874579E+02  0.26798196702E+03  0.26884308904E+03  0.10566000000E+00 0. -1.
        -13    1    4    4    0    0 -0.11850080902E+01  0.13469383588E+01  0.24037119506E+02  0.24104206382E+02  0.10566000000E+00 0.  1.
        -14    1    4    4    0    0 -0.11688218630E+02  0.94656699762E+01  0.18512724328E+03  0.18573720566E+03  0.00000000000E+00 0.  1.
<mgrwt>
<rscale>  0 0.86026800E+02</rscale>
<asrwt>0</asrwt>
<pdfrwt beam="1">  1        2 0.10107437E+00 0.86026800E+02</pdfrwt>
<pdfrwt beam="2">  1       -1 0.43325124E-03 0.86026800E+02</pdfrwt>
<totfact> 0.27257186E+05</totfact>
</mgrwt>
</event>
<event>
 8    1  0.1673046E-013  0.8006278E+02  0.7818608E-02  0.1328873E+00
          2   -1    0    0  501    0  0.00000000000E+00  0.00000000000E+00  0.40842156406E+02  0.40842156485E+02  0.25500000000E-02 0. -1.
         -1   -1    0    0    0  501 -0.00000000000E+00 -0.00000000000E+00 -0.39236720518E+02  0.39236720841E+02  0.50400000000E-02 0.  1.
         24    2    1    2    0    0  0.00000000000E+00  0.35527136788E-14  0.16054358879E+01  0.80078877326E+02  0.80062782674E+02 0.  0.
         66    2    3    3    0    0 -0.82043755758E+01 -0.25237467124E+02  0.30746934530E+02  0.40664671353E+02  0.19999969704E+01 0.  0.
        -13    1    3    3    0    0  0.82043755758E+01  0.25237467124E+02 -0.29141498642E+02  0.39414205973E+02  0.10566000000E+00 0.  1.
         13    1    4    4    0    0 -0.29276951666E+01 -0.91933145164E+01  0.11552159063E+02  0.15051643559E+02  0.10566000000E+00 0. -1.
        -13    1    4    4    0    0 -0.45223420188E+01 -0.11618846528E+02  0.14229439608E+02  0.18919230629E+02  0.10566000000E+00 0.  1.
         14    1    4    4    0    0 -0.75433839037E+00 -0.44253060789E+01  0.49653358582E+01  0.66937971648E+01  0.00000000000E+00 0. -1.
<mgrwt>
<rscale>  0 0.80062783E+02</rscale>
<asrwt>0</asrwt>
<pdfrwt beam="1">  1        2 0.62834087E-02 0.80062783E+02</pdfrwt>
<pdfrwt beam="2">  1       -1 0.60364186E-02 0.80062783E+02</pdfrwt>
<totfact> 0.14285559E+05</totfact>
</mgrwt>
</event>
<event>
 8    1  0.1673046E-013  0.8098014E+02  0.7818608E-02  0.1326293E+00
          2   -1    0    0  501    0  0.00000000000E+00  0.00000000000E+00  0.12915292629E+04  0.12915292629E+04  0.25500000000E-02 0. -1.
         -1   -1    0    0    0  501 -0.00000000000E+00 -0.00000000000E+00 -0.12693784199E+01  0.12693884254E+01  0.50400000000E-02 0.  1.
         24    2    1    2    0    0 -0.35527136788E-14  0.00000000000E+00  0.12902598844E+04  0.12927986513E+04  0.80980141864E+02 0.  0.
         66    2    3    3    0    0  0.21582374896E+02  0.49562212148E+01  0.11862129258E+04  0.11864212862E+04  0.19999997140E+01 0.  0.
        -13    1    3    3    0    0 -0.21582374896E+02 -0.49562212148E+01  0.10404695863E+03  0.10637736507E+03  0.10566000000E+00 0.  1.
         13    1    4    4    0    0  0.77308851167E+01  0.22831141628E+01  0.45603204603E+03  0.45610329681E+03  0.10566000000E+00 0. -1.
        -13    1    4    4    0    0  0.36348325559E+01  0.49069139105E+00  0.16830002744E+03  0.16834002253E+03  0.10566000000E+00 0.  1.
        -14    1    4    4    0    0  0.10216657224E+02  0.21824156609E+01  0.56188085234E+03  0.56197796687E+03  0.00000000000E+00 0.  1.
<mgrwt>
<rscale>  0 0.80980142E+02</rscale>
<asrwt>0</asrwt>
<pdfrwt beam="1">  1        2 0.19869725E+00 0.80980142E+02</pdfrwt>
<pdfrwt beam="2">  1       -1 0.19528932E-03 0.80980142E+02</pdfrwt>
<totfact> 0.33580417E+05</totfact>
</mgrwt>
</event>
<event>
 8    1  0.1673046E-013  0.7775561E+02  0.7818608E-02  0.1335544E+00
          2   -1    0    0  501    0  0.00000000000E+00  0.00000000000E+00  0.12972078143E+03  0.12972078145E+03  0.25500000000E-02 0. -1.
         -1   -1    0    0    0  501 -0.00000000000E+00 -0.00000000000E+00 -0.11651822713E+02  0.11651823803E+02  0.50400000000E-02 0.  1.
         24    2    1    2    0    0 -0.88817841970E-15  0.00000000000E+00  0.11806895872E+03  0.14137260526E+03  0.77755607548E+02 0.  0.
         66    2    3    3    0    0 -0.65868837797E+01 -0.19747310358E+02  0.11871746038E+03  0.12054533893E+03  0.20000084208E+01 0.  0.
        -13    1    3    3    0    0  0.65868837797E+01  0.19747310358E+02 -0.64850166537E+00  0.20827266329E+02  0.10566000000E+00 0.  1.
         13    1    4    4    0    0 -0.34496177460E+01 -0.10908313687E+02  0.63732050517E+02  0.64750881054E+02  0.10566000000E+00 0. -1.
        -13    1    4    4    0    0 -0.26991131856E+01 -0.65973698442E+01  0.38922475208E+02  0.39569947451E+02  0.10566000000E+00 0.  1.
        -14    1    4    4    0    0 -0.43815284806E+00 -0.22416268273E+01  0.16062934655E+02  0.16224510424E+02  0.00000000000E+00 0.  1.
<mgrwt>
<rscale>  0 0.77755608E+02</rscale>
<asrwt>0</asrwt>
<pdfrwt beam="1">  1        2 0.19957044E-01 0.77755608E+02</pdfrwt>
<pdfrwt beam="2">  1       -1 0.17925881E-02 0.77755608E+02</pdfrwt>
<totfact> 0.20636932E+05</totfact>
</mgrwt>
</event>
<event>
 8    1  0.1673046E-013  0.8026913E+02  0.7818608E-02  0.1328289E+00
          2   -1    0    0  501    0  0.00000000000E+00  0.00000000000E+00  0.16271950342E+02  0.16271950541E+02  0.25500000000E-02 0. -1.
         -1   -1    0    0    0  501 -0.00000000000E+00 -0.00000000000E+00 -0.98991413992E+02  0.98991414120E+02  0.50400000000E-02 0.  1.
         24    2    1    2    0    0  0.00000000000E+00  0.00000000000E+00 -0.82719463651E+02  0.11526336466E+03  0.80269132090E+02 0.  0.
         66    2    3    3    0    0  0.20672008629E+02 -0.33891035183E+02 -0.33155860499E+02  0.51761426676E+02  0.19999999056E+01 0.  0.
        -13    1    3    3    0    0 -0.20672008629E+02  0.33891035183E+02 -0.49563603151E+02  0.63501937985E+02  0.10566000000E+00 0.  1.
         13    1    4    4    0    0  0.87766784318E+01 -0.15216196220E+02 -0.14606577916E+02  0.22845699686E+02  0.10566000000E+00 0. -1.
        -13    1    4    4    0    0  0.43684467108E+01 -0.70151604328E+01 -0.61012973997E+01  0.10272915679E+02  0.10566000000E+00 0.  1.
        -14    1    4    4    0    0  0.75268834860E+01 -0.11659678531E+02 -0.12447985184E+02  0.18642811311E+02  0.00000000000E+00 0.  1.
<mgrwt>
<rscale>  0 0.80269132E+02</rscale>
<asrwt>0</asrwt>
<pdfrwt beam="1">  1        2 0.25033771E-02 0.80269132E+02</pdfrwt>
<pdfrwt beam="2">  1       -1 0.15229448E-01 0.80269132E+02</pdfrwt>
<totfact> 0.11779752E+05</totfact>
</mgrwt>
</event>
<event>
 8    1  0.1673046E-013  0.7923486E+02  0.7818608E-02  0.1331237E+00
         -1   -1    0    0    0  501 -0.00000000000E+00  0.00000000000E+00  0.11039116115E+02  0.11039117266E+02  0.50400000000E-02 0.  1.
          2   -1    0    0  501    0  0.00000000000E+00 -0.00000000000E+00 -0.14217992534E+03  0.14217992536E+03  0.25500000000E-02 0. -1.
         24    2    1    2    0    0  0.00000000000E+00  0.00000000000E+00 -0.13114080922E+03  0.15321904263E+03  0.79234860888E+02 0.  0.
         66    2    3    3    0    0  0.68067859910E+01  0.18752787151E+02 -0.13174279711E+03  0.13325976120E+03  0.20000008080E+01 0.  0.
        -13    1    3    3    0    0 -0.68067859910E+01 -0.18752787151E+02  0.60198789174E+00  0.19959281423E+02  0.10566000000E+00 0.  1.
         13    1    4    4    0    0  0.50609322862E+01  0.13541621707E+02 -0.97867455510E+02  0.98929462578E+02  0.10566000000E+00 0. -1.
        -13    1    4    4    0    0  0.55387224969E-02  0.11109464461E+01 -0.69242221368E+01  0.70135760435E+01  0.10566000000E+00 0.  1.
        -14    1    4    4    0    0  0.17403149823E+01  0.41002189973E+01 -0.26951119468E+02  0.27316722582E+02  0.00000000000E+00 0.  1.
<mgrwt>
<rscale>  0 0.79234861E+02</rscale>
<asrwt>0</asrwt>
<pdfrwt beam="1">  1        2 0.21873833E-01 0.79234861E+02</pdfrwt>
<pdfrwt beam="2">  1       -1 0.16983258E-02 0.79234861E+02</pdfrwt>
<totfact> 0.20198998E+05</totfact>
</mgrwt>
</event>
<event>
 8    1  0.1673046E-013  0.7834568E+02  0.7818608E-02  0.1333813E+00
         -1   -1    0    0    0  501 -0.00000000000E+00  0.00000000000E+00  0.52283421710E+01  0.52283446002E+01  0.50400000000E-02 0.  1.
          2   -1    0    0  501    0  0.00000000000E+00 -0.00000000000E+00 -0.29349858683E+03  0.29349858684E+03  0.25500000000E-02 0. -1.
         24    2    1    2    0    0  0.00000000000E+00 -0.17763568394E-14 -0.28827024466E+03  0.29872693144E+03  0.78345680242E+02 0.  0.
         66    2    3    3    0    0 -0.23859630660E+02 -0.14858537479E+02 -0.24812326284E+03  0.24971826461E+03  0.20000017385E+01 0.  0.
        -13    1    3    3    0    0  0.23859630660E+02  0.14858537479E+02 -0.40146981821E+02  0.49008666832E+02  0.10566000000E+00 0.  1.
         13    1    4    4    0    0 -0.10665501186E+02 -0.64310236787E+01 -0.11369438616E+03  0.11437454083E+03  0.10566000000E+00 0. -1.
        -13    1    4    4    0    0 -0.75638598603E+01 -0.54912081968E+01 -0.77390207619E+02  0.77952682717E+02  0.10566000000E+00 0.  1.
        -14    1    4    4    0    0 -0.56302696140E+01 -0.29363056040E+01 -0.57038669061E+02  0.57391041067E+02  0.00000000000E+00 0.  1.
<mgrwt>
<rscale>  0 0.78345680E+02</rscale>
<asrwt>0</asrwt>
<pdfrwt beam="1">  1        2 0.45153616E-01 0.78345680E+02</pdfrwt>
<pdfrwt beam="2">  1       -1 0.80436075E-03 0.78345680E+02</pdfrwt>
<totfact> 0.26716234E+05</totfact>
</mgrwt>
</event>
<event>
 8    1  0.1673046E-013  0.8128401E+02  0.7818608E-02  0.1325447E+00
         -1   -1    0    0    0  501 -0.00000000000E+00  0.00000000000E+00  0.31175637711E+01  0.31175678450E+01  0.50400000000E-02 0.  1.
          2   -1    0    0  501    0  0.00000000000E+00 -0.00000000000E+00 -0.52982765497E+03  0.52982765498E+03  0.25500000000E-02 0. -1.
         24    2    1    2    0    0  0.17763568394E-14  0.00000000000E+00 -0.52671009120E+03  0.53294522283E+03  0.81284010464E+02 0.  0.
         66    2    3    3    0    0 -0.12339074720E+02 -0.37831818870E+02 -0.31688812422E+03  0.31938312816E+03  0.19999998341E+01 0.  0.
        -13    1    3    3    0    0  0.12339074720E+02  0.37831818870E+02 -0.20982196698E+03  0.21356209466E+03  0.10566000000E+00 0.  1.
         13    1    4    4    0    0 -0.59205963526E+01 -0.16409429385E+02 -0.14312878738E+03  0.14418801536E+03  0.10566000000E+00 0. -1.
        -13    1    4    4    0    0 -0.62639198727E+01 -0.21183496453E+02 -0.17203010564E+03  0.17344262921E+03  0.10566000000E+00 0.  1.
         14    1    4    4    0    0 -0.15455849461E+00 -0.23889303261E+00 -0.17292311979E+01  0.17524835933E+01  0.00000000000E+00 0. -1.
<mgrwt>
<rscale>  0 0.81284010E+02</rscale>
<asrwt>0</asrwt>
<pdfrwt beam="1">  1        2 0.81511876E-01 0.81284010E+02</pdfrwt>
<pdfrwt beam="2">  1       -1 0.47962593E-03 0.81284010E+02</pdfrwt>
<totfact> 0.29748094E+05</totfact>
</mgrwt>
</event>
<event>
 8    1  0.1673046E-013  0.7928645E+02  0.7818608E-02  0.1331089E+00
          2   -1    0    0  501    0  0.00000000000E+00  0.00000000000E+00  0.35343499521E+03  0.35343499522E+03  0.25500000000E-02 0. -1.
         -1   -1    0    0    0  501 -0.00000000000E+00 -0.00000000000E+00 -0.44466022204E+01  0.44466050767E+01  0.50400000000E-02 0.  1.
         24    2    1    2    0    0 -0.35527136788E-14  0.00000000000E+00  0.34898839299E+03  0.35788160030E+03  0.79286451484E+02 0.  0.
         66    2    3    3    0    0 -0.19141740688E+02 -0.24027039080E+01  0.33079743635E+03  0.33136554308E+03  0.20000064107E+01 0.  0.
        -13    1    3    3    0    0  0.19141740688E+02  0.24027039080E+01  0.18190956647E+02  0.26516057219E+02  0.10566000000E+00 0.  1.
         13    1    4    4    0    0 -0.83315839699E+01 -0.17277853225E+01  0.15787294682E+03  0.15810211585E+03  0.10566000000E+00 0. -1.
        -13    1    4    4    0    0 -0.83254332173E+01 -0.49869814887E+00  0.13272362309E+03  0.13298546097E+03  0.10566000000E+00 0. -1.
         14    1    4    4    0    0 -0.24847235008E+01 -0.17622043665E+00  0.40200866429E+02  0.40277966261E+02  0.00000000000E+00 0. -1.
<mgrwt>
<rscale>  0 0.79286451E+02</rscale>
<asrwt>0</asrwt>
<pdfrwt beam="1">  1        2 0.54374621E-01 0.79286451E+02</pdfrwt>
<pdfrwt beam="2">  1       -1 0.68409280E-03 0.79286451E+02</pdfrwt>
<totfact> 0.27684747E+05</totfact>
</mgrwt>
</event>
<event>
 8    1  0.1673046E-013  0.8043449E+02  0.7818608E-02  0.1327823E+00
          2   -1    0    0  501    0  0.00000000000E+00  0.00000000000E+00  0.56838710100E+02  0.56838710157E+02  0.25500000000E-02 0. -1.
         -1   -1    0    0    0  501 -0.00000000000E+00 -0.00000000000E+00 -0.28456427188E+02  0.28456427634E+02  0.50400000000E-02 0.  1.
         24    2    1    2    0    0  0.00000000000E+00  0.00000000000E+00  0.28382282912E+02  0.85295137792E+02  0.80434486059E+02 0.  0.
         66    2    3    3    0    0 -0.20723975796E+01  0.13087905160E+02  0.54438052799E+02  0.56063264748E+02  0.19999921251E+01 0.  0.
        -13    1    3    3    0    0  0.20723975796E+01 -0.13087905160E+02 -0.26055769887E+02  0.29231873044E+02  0.10566000000E+00 0.  1.
         13    1    4    4    0    0 -0.17807519351E+01  0.94354090319E+01  0.36523676161E+02  0.37764905738E+02  0.10566000000E+00 0. -1.
        -13    1    4    4    0    0 -0.40241172723E+00  0.13631280169E+01  0.61773381673E+01  0.63396154503E+01  0.10566000000E+00 0.  1.
        -14    1    4    4    0    0  0.11076608273E+00  0.22893681111E+01  0.11737038471E+02  0.11958743560E+02  0.00000000000E+00 0.  1.
<mgrwt>
<rscale>  0 0.80434486E+02</rscale>
<asrwt>0</asrwt>
<pdfrwt beam="1">  1        2 0.87444169E-02 0.80434486E+02</pdfrwt>
<pdfrwt beam="2">  1       -1 0.43779120E-02 0.80434486E+02</pdfrwt>
<totfact> 0.15149121E+05</totfact>
</mgrwt>
</event>
<event>
 8    1  0.1673046E-013  0.7999560E+02  0.7818608E-02  0.1329064E+00
         -1   -1    0    0    0  501 -0.00000000000E+00  0.00000000000E+00  0.35225270787E+03  0.35225270790E+03  0.50400000000E-02 0.  1.
          2   -1    0    0  501    0  0.00000000000E+00 -0.00000000000E+00 -0.45416940521E+01  0.45416947680E+01  0.25500000000E-02 0. -1.
         24    2    1    2    0    0  0.00000000000E+00  0.00000000000E+00  0.34771101382E+03  0.35679440267E+03  0.79995603937E+02 0.  0.
         66    2    3    3    0    0  0.56394518403E+01  0.30803584336E+02  0.28476623989E+03  0.28648992235E+03  0.20000002393E+01 0.  0.
        -13    1    3    3    0    0 -0.56394518403E+01 -0.30803584336E+02  0.62944773928E+02  0.70304480326E+02  0.10566000000E+00 0.  1.
         13    1    4    4    0    0  0.28288731437E+01  0.15336359001E+02  0.14085637035E+03  0.14171709375E+03  0.10566000000E+00 0. -1.
        -13    1    4    4    0    0  0.19655043283E+01  0.12224468219E+02  0.10824372382E+03  0.10894960184E+03  0.10566000000E+00 0.  1.
        -14    1    4    4    0    0  0.84507436826E+00  0.32427571156E+01  0.35666145715E+02  0.35823226747E+02  0.00000000000E+00 0.  1.
<mgrwt>
<rscale>  0 0.79995604E+02</rscale>
<asrwt>0</asrwt>
<pdfrwt beam="1">  1        2 0.69872209E-03 0.79995604E+02</pdfrwt>
<pdfrwt beam="2">  1       -1 0.54192734E-01 0.79995604E+02</pdfrwt>
<totfact> 0.80649371E+04</totfact>
</mgrwt>
</event>
<event>
 8    1  0.1673046E-013  0.8045077E+02  0.7818608E-02  0.1327777E+00
         -1   -1    0    0    0  501 -0.00000000000E+00  0.00000000000E+00  0.35828325766E+01  0.35828361215E+01  0.50400000000E-02 0.  1.
          2   -1    0    0  501    0  0.00000000000E+00 -0.00000000000E+00 -0.45162052648E+03  0.45162052649E+03  0.25500000000E-02 0. -1.
         24    2    1    2    0    0  0.00000000000E+00  0.00000000000E+00 -0.44803769391E+03  0.45520336261E+03  0.80450768623E+02 0.  0.
         66    2    3    3    0    0 -0.95857770667E+01 -0.21296032270E+02 -0.40929797763E+03  0.40996858734E+03  0.20000008692E+01 0.  0.
        -13    1    3    3    0    0  0.95857770667E+01  0.21296032270E+02 -0.38739716278E+02  0.45234775270E+02  0.10566000000E+00 0.  1.
         13    1    4    4    0    0 -0.27310759126E+01 -0.49073345605E+01 -0.90786477890E+02  0.90960081574E+02  0.10566000000E+00 0. -1.
        -13    1    4    4    0    0 -0.23239419552E+01 -0.42764665305E+01 -0.86522862805E+02  0.86659712810E+02  0.10566000000E+00 0.  1.
         14    1    4    4    0    0 -0.45307591989E+01 -0.12112231179E+02 -0.23198863693E+03  0.23234879296E+03  0.00000000000E+00 0. -1.
<mgrwt>
<rscale>  0 0.80450769E+02</rscale>
<asrwt>0</asrwt>
<pdfrwt beam="1">  1        2 0.69480036E-01 0.80450769E+02</pdfrwt>
<pdfrwt beam="2">  1       -1 0.55120564E-03 0.80450769E+02</pdfrwt>
<totfact> 0.29025264E+05</totfact>
</mgrwt>
</event>
<event>
 8    1  0.1673046E-013  0.8051451E+02  0.7818608E-02  0.1327598E+00
          2   -1    0    0  501    0  0.00000000000E+00  0.00000000000E+00  0.15897805452E+03  0.15897805454E+03  0.25500000000E-02 0. -1.
         -1   -1    0    0    0  501 -0.00000000000E+00 -0.00000000000E+00 -0.10194153096E+02  0.10194154342E+02  0.50400000000E-02 0.  1.
         24    2    1    2    0    0 -0.35527136788E-14 -0.35527136788E-14  0.14878390142E+03  0.16917220888E+03  0.80514513816E+02 0.  0.
         66    2    3    3    0    0 -0.27189909558E+02  0.27555893160E+02  0.97456790749E+02  0.10488300385E+03  0.20000008704E+01 0.  0.
        -13    1    3    3    0    0  0.27189909558E+02 -0.27555893160E+02  0.51327110675E+02  0.64289205034E+02  0.10566000000E+00 0.  1.
         13    1    4    4    0    0 -0.63496696284E+01  0.59030074199E+01  0.20571134836E+02  0.22323676970E+02  0.10566000000E+00 0. -1.
        -13    1    4    4    0    0 -0.31070893754E+00  0.51197454912E+00  0.14918678074E+01  0.16110529392E+01  0.10566000000E+00 0.  1.
         14    1    4    4    0    0 -0.20529530992E+02  0.21140911191E+02  0.75393788106E+02  0.80948273939E+02  0.00000000000E+00 0. -1.
<mgrwt>
<rscale>  0 0.80514514E+02</rscale>
<asrwt>0</asrwt>
<pdfrwt beam="1">  1        2 0.24458162E-01 0.80514514E+02</pdfrwt>
<pdfrwt beam="2">  1       -1 0.15683314E-02 0.80514514E+02</pdfrwt>
<totfact> 0.20067933E+05</totfact>
</mgrwt>
</event>
<event>
 8    1  0.1673046E-013  0.7838214E+02  0.7818608E-02  0.1333706E+00
          2   -1    0    0  501    0  0.00000000000E+00  0.00000000000E+00  0.17581849501E+03  0.17581849503E+03  0.25500000000E-02 0. -1.
         -1   -1    0    0    0  501 -0.00000000000E+00 -0.00000000000E+00 -0.87359399719E+01  0.87359414257E+01  0.50400000000E-02 0.  1.
         24    2    1    2    0    0  0.00000000000E+00  0.00000000000E+00  0.16708255504E+03  0.18455443645E+03  0.78382139654E+02 0.  0.
         66    2    3    3    0    0  0.36164874478E+01  0.37294032214E+02  0.11044264020E+03  0.11664261909E+03  0.19999986223E+01 0.  0.
        -13    1    3    3    0    0 -0.36164874478E+01 -0.37294032214E+02  0.56639914836E+02  0.67911817359E+02  0.10566000000E+00 0.  1.
         13    1    4    4    0    0  0.13826001612E+01  0.72821727821E+01  0.21476728293E+02  0.22720093439E+02  0.10566000000E+00 0. -1.
        -13    1    4    4    0    0  0.10463776031E+00  0.59712622162E+01  0.17853564499E+02  0.18826254298E+02  0.10566000000E+00 0.  1.
         14    1    4    4    0    0  0.21292495263E+01  0.24040597216E+02  0.71112347406E+02  0.75096271356E+02  0.00000000000E+00 0. -1.
<mgrwt>
<rscale>  0 0.78382140E+02</rscale>
<asrwt>0</asrwt>
<pdfrwt beam="1">  1        2 0.27048997E-01 0.78382140E+02</pdfrwt>
<pdfrwt beam="2">  1       -1 0.13439910E-02 0.78382140E+02</pdfrwt>
<totfact> 0.22276506E+05</totfact>
</mgrwt>
</event>
<event>
 8    1  0.1673046E-013  0.8071822E+02  0.7818608E-02  0.1327026E+00
         -1   -1    0    0    0  501 -0.00000000000E+00  0.00000000000E+00  0.10777908989E+02  0.10777910167E+02  0.50400000000E-02 0.  1.
          2   -1    0    0  501    0  0.00000000000E+00 -0.00000000000E+00 -0.15112926483E+03  0.15112926485E+03  0.25500000000E-02 0. -1.
         24    2    1    2    0    0  0.00000000000E+00  0.00000000000E+00 -0.14035135584E+03  0.16190717502E+03  0.80718215019E+02 0.  0.
         66    2    3    3    0    0 -0.37026967116E+02  0.68261529570E+01 -0.99234643150E+02  0.10615605050E+03  0.19999998659E+01 0.  0.
        -13    1    3    3    0    0  0.37026967116E+02 -0.68261529570E+01 -0.41116712688E+02  0.55751124512E+02  0.10566000000E+00 0.  1.
         13    1    4    4    0    0 -0.12583778144E+02  0.25365445967E+01 -0.33190487197E+02  0.35586586451E+02  0.10566000000E+00 0. -1.
        -13    1    4    4    0    0 -0.80277502163E+01  0.86979857303E+00 -0.22835897077E+02  0.24221698587E+02  0.10566000000E+00 0.  1.
        -14    1    4    4    0    0 -0.16415438756E+02  0.34198097873E+01 -0.43208258876E+02  0.46347765466E+02  0.00000000000E+00 0.  1.
<mgrwt>
<rscale>  0 0.80718215E+02</rscale>
<asrwt>0</asrwt>
<pdfrwt beam="1">  1        2 0.23250655E-01 0.80718215E+02</pdfrwt>
<pdfrwt beam="2">  1       -1 0.16581400E-02 0.80718215E+02</pdfrwt>
<totfact> 0.19607800E+05</totfact>
</mgrwt>
</event>
<event>
 8    1  0.1673046E-013  0.7881408E+02  0.7818608E-02  0.1332451E+00
         -1   -1    0    0    0  501 -0.00000000000E+00  0.00000000000E+00  0.30720964142E+03  0.30720964146E+03  0.50400000000E-02 0.  1.
          2   -1    0    0  501    0  0.00000000000E+00 -0.00000000000E+00 -0.50549019117E+01  0.50549025549E+01  0.25500000000E-02 0. -1.
         24    2    1    2    0    0  0.35527136788E-14  0.35527136788E-14  0.30215473951E+03  0.31226454402E+03  0.78814077691E+02 0.  0.
         66    2    3    3    0    0  0.24558378587E+02  0.30680154127E+02  0.16129424504E+03  0.16602475503E+03  0.19999961286E+01 0.  0.
        -13    1    3    3    0    0 -0.24558378587E+02 -0.30680154127E+02  0.14086049447E+03  0.14623978899E+03  0.10566000000E+00 0.  1.
         13    1    4    4    0    0  0.54067007175E+00  0.36548929894E+00  0.23976072875E+01  0.24870848990E+01  0.10566000000E+00 0. -1.
        -13    1    4    4    0    0  0.23895118151E+01  0.29872780912E+01  0.16619179066E+02  0.17054086723E+02  0.10566000000E+00 0.  1.
         14    1    4    4    0    0  0.21628196700E+02  0.27327386737E+02  0.14227745868E+03  0.14648358341E+03  0.00000000000E+00 0. -1.
<mgrwt>
<rscale>  0 0.78814078E+02</rscale>
<asrwt>0</asrwt>
<pdfrwt beam="1">  1        2 0.77767712E-03 0.78814078E+02</pdfrwt>
<pdfrwt beam="2">  1       -1 0.47263031E-01 0.78814078E+02</pdfrwt>
<totfact> 0.88937589E+04</totfact>
</mgrwt>
</event>
<event>
 8    1  0.1673046E-013  0.8002902E+02  0.7818608E-02  0.1328969E+00
          2   -1    0    0  501    0  0.00000000000E+00  0.00000000000E+00  0.46181524602E+03  0.46181524603E+03  0.25500000000E-02 0. -1.
         -1   -1    0    0    0  501 -0.00000000000E+00 -0.00000000000E+00 -0.34671011448E+01  0.34671048081E+01  0.50400000000E-02 0.  1.
         24    2    1    2    0    0  0.35527136788E-14  0.35527136788E-14  0.45834814487E+03  0.46528235083E+03  0.80029020287E+02 0.  0.
         66    2    3    3    0    0 -0.21646714309E+02 -0.22168787139E+02  0.37629757361E+03  0.37757634891E+03  0.19999981685E+01 0.  0.
        -13    1    3    3    0    0  0.21646714309E+02  0.22168787139E+02  0.82050571267E+02  0.87706001920E+02  0.10566000000E+00 0.  1.
         13    1    4    4    0    0 -0.10178990348E+02 -0.10545419589E+02  0.17631232802E+03  0.17692050727E+03  0.10566000000E+00 0. -1.
        -13    1    4    4    0    0 -0.71889731682E+01 -0.82086673225E+01  0.13089577155E+03  0.13134982957E+03  0.10566000000E+00 0.  1.
        -14    1    4    4    0    0 -0.42787507933E+01 -0.34147002272E+01  0.69089474040E+02  0.69306012071E+02  0.00000000000E+00 0.  1.
<mgrwt>
<rscale>  0 0.80029020E+02</rscale>
<asrwt>0</asrwt>
<pdfrwt beam="1">  1        2 0.71048468E-01 0.80029020E+02</pdfrwt>
<pdfrwt beam="2">  1       -1 0.53340070E-03 0.80029020E+02</pdfrwt>
<totfact> 0.29646022E+05</totfact>
</mgrwt>
</event>
<event>
 8    1  0.1673046E-013  0.7618153E+02  0.7818608E-02  0.1340251E+00
         -1   -1    0    0    0  501 -0.00000000000E+00  0.00000000000E+00  0.23907602301E+01  0.23907655426E+01  0.50400000000E-02 0.  1.
          2   -1    0    0  501    0  0.00000000000E+00 -0.00000000000E+00 -0.60688008997E+03  0.60688008998E+03  0.25500000000E-02 0. -1.
         24    2    1    2    0    0  0.00000000000E+00  0.00000000000E+00 -0.60448932974E+03  0.60927085552E+03  0.76181530664E+02 0.  0.
         66    2    3    3    0    0 -0.36153915754E+02  0.11759563770E+01 -0.39722098470E+03  0.39886965182E+03  0.19999898965E+01 0.  0.
        -13    1    3    3    0    0  0.36153915754E+02 -0.11759563770E+01 -0.20726834505E+03  0.21040120370E+03  0.10566000000E+00 0.  1.
         13    1    4    4    0    0 -0.10207838958E+02  0.66018664695E+00 -0.11970526425E+03  0.12014157181E+03  0.10566000000E+00 0. -1.
        -13    1    4    4    0    0 -0.20186100316E+02  0.30039809722E+00 -0.21984942980E+03  0.22077443655E+03  0.10566000000E+00 0.  1.
        -14    1    4    4    0    0 -0.57599764798E+01  0.21537163279E+00 -0.57666290646E+02  0.57953643465E+02  0.00000000000E+00 0.  1.
<mgrwt>
<rscale>  0 0.76181531E+02</rscale>
<asrwt>0</asrwt>
<pdfrwt beam="1">  1        2 0.93366045E-01 0.76181531E+02</pdfrwt>
<pdfrwt beam="2">  1       -1 0.36781016E-03 0.76181531E+02</pdfrwt>
<totfact> 0.36632371E+05</totfact>
</mgrwt>
</event>
<event>
 8    1  0.1673046E-013  0.8109054E+02  0.7818608E-02  0.1325985E+00
         -1   -1    0    0    0  501 -0.00000000000E+00  0.00000000000E+00  0.14805735823E+02  0.14805736681E+02  0.50400000000E-02 0.  1.
          2   -1    0    0  501    0  0.00000000000E+00 -0.00000000000E+00 -0.11103257479E+03  0.11103257482E+03  0.25500000000E-02 0. -1.
         24    2    1    2    0    0  0.71054273576E-14  0.35527136788E-14 -0.96226838963E+02  0.12583831150E+03  0.81090542626E+02 0.  0.
         66    2    3    3    0    0 -0.33321319979E+02 -0.18757133793E+02 -0.68949422402E+02  0.78868011821E+02  0.20000014554E+01 0.  0.
        -13    1    3    3    0    0  0.33321319979E+02  0.18757133793E+02 -0.27277416562E+02  0.46970299675E+02  0.10566000000E+00 0.  1.
         13    1    4    4    0    0 -0.34313572998E+01 -0.15357008125E+01 -0.69932643917E+01  0.79403715777E+01  0.10566000000E+00 0. -1.
        -13    1    4    4    0    0 -0.10637619970E+02 -0.69443106232E+01 -0.22813656532E+02  0.26112382064E+02  0.10566000000E+00 0.  1.
         14    1    4    4    0    0 -0.19252342709E+02 -0.10277122357E+02 -0.39142501478E+02  0.44815258179E+02  0.00000000000E+00 0. -1.
<mgrwt>
<rscale>  0 0.81090543E+02</rscale>
<asrwt>0</asrwt>
<pdfrwt beam="1">  1        2 0.17081934E-01 0.81090543E+02</pdfrwt>
<pdfrwt beam="2">  1       -1 0.22778057E-02 0.81090543E+02</pdfrwt>
<totfact> 0.17613886E+05</totfact>
</mgrwt>
</event>
<event>
 8    1  0.1673046E-013  0.8039919E+02  0.7818608E-02  0.1327922E+00
         -1   -1    0    0    0  501 -0.00000000000E+00  0.00000000000E+00  0.10062377161E+02  0.10062378423E+02  0.50400000000E-02 0.  1.
          2   -1    0    0  501    0  0.00000000000E+00 -0.00000000000E+00 -0.16059896036E+03  0.16059896038E+03  0.25500000000E-02 0. -1.
         24    2    1    2    0    0  0.00000000000E+00  0.00000000000E+00 -0.15053658320E+03  0.17066133880E+03  0.80399189555E+02 0.  0.
         66    2    3    3    0    0  0.38537923562E+02 -0.10302701289E+02 -0.65204643660E+02  0.76465435093E+02  0.20000006979E+01 0.  0.
        -13    1    3    3    0    0 -0.38537923562E+02  0.10302701289E+02 -0.85331939537E+02  0.94195903709E+02  0.10566000000E+00 0.  1.
         13    1    4    4    0    0  0.20876629300E+02 -0.52170184470E+01 -0.33533917307E+02  0.39844519151E+02  0.10566000000E+00 0. -1.
        -13    1    4    4    0    0  0.56095413826E+01 -0.14782035209E+01 -0.10363901978E+02  0.11877443682E+02  0.10566000000E+00 0.  1.
         14    1    4    4    0    0  0.12051752880E+02 -0.36074793206E+01 -0.21306824375E+02  0.24743472260E+02  0.00000000000E+00 0. -1.
<mgrwt>
<rscale>  0 0.80399190E+02</rscale>
<asrwt>0</asrwt>
<pdfrwt beam="1">  1        2 0.24707531E-01 0.80399190E+02</pdfrwt>
<pdfrwt beam="2">  1       -1 0.15480582E-02 0.80399190E+02</pdfrwt>
<totfact> 0.20211566E+05</totfact>
</mgrwt>
</event>
<event>
 8    1  0.1673046E-013  0.7986486E+02  0.7818608E-02  0.1329435E+00
         -1   -1    0    0    0  501 -0.00000000000E+00  0.00000000000E+00  0.51217508453E+01  0.51217533251E+01  0.50400000000E-02 0.  1.
          2   -1    0    0  501    0  0.00000000000E+00 -0.00000000000E+00 -0.31133853545E+03  0.31133853546E+03  0.25500000000E-02 0. -1.
         24    2    1    2    0    0  0.35527136788E-14  0.00000000000E+00 -0.30621678460E+03  0.31646028879E+03  0.79864855879E+02 0.  0.
         66    2    3    3    0    0  0.23397586122E+02 -0.26985454659E+02 -0.22374594805E+03  0.22658753515E+03  0.20000046061E+01 0.  0.
        -13    1    3    3    0    0 -0.23397586122E+02  0.26985454659E+02 -0.82470836558E+02  0.89872753636E+02  0.10566000000E+00 0.  1.
         13    1    4    4    0    0  0.36874401608E+01 -0.41891715244E+01 -0.32311655895E+02  0.32790252267E+02  0.10566000000E+00 0. -1.
        -13    1    4    4    0    0  0.14368112705E+01 -0.22788005196E+01 -0.17174019151E+02  0.17384345149E+02  0.10566000000E+00 0.  1.
         14    1    4    4    0    0  0.18273334690E+02 -0.20517482615E+02 -0.17426027300E+03  0.17641293773E+03  0.00000000000E+00 0. -1.
<mgrwt>
<rscale>  0 0.79864856E+02</rscale>
<asrwt>0</asrwt>
<pdfrwt beam="1">  1        2 0.47898221E-01 0.79864856E+02</pdfrwt>
<pdfrwt beam="2">  1       -1 0.78796211E-03 0.79864856E+02</pdfrwt>
<totfact> 0.25953673E+05</totfact>
</mgrwt>
</event>
<event>
 8    1  0.1673046E-013  0.7917753E+02  0.7818608E-02  0.1331402E+00
          2   -1    0    0  501    0  0.00000000000E+00  0.00000000000E+00  0.93079950819E+02  0.93079950854E+02  0.25500000000E-02 0. -1.
         -1   -1    0    0    0  501 -0.00000000000E+00 -0.00000000000E+00 -0.16837891862E+02  0.16837892617E+02  0.50400000000E-02 0.  1.
         24    2    1    2    0    0  0.00000000000E+00  0.00000000000E+00  0.76242058957E+02  0.10991784347E+03  0.79177526857E+02 0.  0.
         66    2    3    3    0    0 -0.32547112943E+02  0.18116804347E+02  0.56652845412E+02  0.67831246886E+02  0.20000000497E+01 0.  0.
        -13    1    3    3    0    0  0.32547112943E+02 -0.18116804347E+02  0.19589213545E+02  0.42086596584E+02  0.10566000000E+00 0.  1.
         13    1    4    4    0    0 -0.13752037835E+02  0.80836305522E+01  0.24462534554E+02  0.29204287157E+02  0.10566000000E+00 0. -1.
        -13    1    4    4    0    0 -0.29749457413E+00  0.32228938950E+00  0.83637703261E+00  0.95029682126E+00  0.10566000000E+00 0. -1.
        -14    1    4    4    0    0 -0.18497580534E+02  0.97108844052E+01  0.31353933825E+02  0.37676662908E+02  0.00000000000E+00 0.  1.
<mgrwt>
<rscale>  0 0.79177527E+02</rscale>
<asrwt>0</asrwt>
<pdfrwt beam="1">  1        2 0.14319993E-01 0.79177527E+02</pdfrwt>
<pdfrwt beam="2">  1       -1 0.25904449E-02 0.79177527E+02</pdfrwt>
<totfact> 0.17866721E+05</totfact>
</mgrwt>
</event>
<event>
 8    1  0.1673046E-013  0.8009706E+02  0.7818608E-02  0.1328776E+00
         -1   -1    0    0    0  501 -0.00000000000E+00  0.00000000000E+00  0.12456462606E+02  0.12456463625E+02  0.50400000000E-02 0.  1.
          2   -1    0    0  501    0  0.00000000000E+00 -0.00000000000E+00 -0.12875923705E+03  0.12875923708E+03  0.25500000000E-02 0. -1.
         24    2    1    2    0    0 -0.35527136788E-14 -0.17763568394E-14 -0.11630277444E+03  0.14121570070E+03  0.80097058504E+02 0.  0.
         66    2    3    3    0    0 -0.13805380182E+02 -0.12161169442E+02 -0.12085417650E+03  0.12226289118E+03  0.20000040663E+01 0.  0.
        -13    1    3    3    0    0  0.13805380182E+02  0.12161169442E+02  0.45514020581E+01  0.18952809526E+02  0.10566000000E+00 0.  1.
         13    1    4    4    0    0 -0.39022387253E+01 -0.34798685769E+01 -0.38170488440E+02  0.38527059376E+02  0.10566000000E+00 0.  1.
        -13    1    4    4    0    0 -0.54469787174E+01 -0.49354160433E+01 -0.42147697523E+02  0.42783962874E+02  0.10566000000E+00 0. -1.
         14    1    4    4    0    0 -0.44561627397E+01 -0.37458848220E+01 -0.40535990540E+02  0.40951868926E+02  0.00000000000E+00 0. -1.
<mgrwt>
<rscale>  0 0.80097059E+02</rscale>
<asrwt>0</asrwt>
<pdfrwt beam="1">  1        2 0.19809113E-01 0.80097059E+02</pdfrwt>
<pdfrwt beam="2">  1       -1 0.19163790E-02 0.80097059E+02</pdfrwt>
<totfact> 0.19028617E+05</totfact>
</mgrwt>
</event>
<event>
 8    1  0.1673046E-013  0.7869711E+02  0.7818608E-02  0.1332790E+00
          2   -1    0    0  501    0  0.00000000000E+00  0.00000000000E+00  0.88246256752E+02  0.88246256789E+02  0.25500000000E-02 0. -1.
         -1   -1    0    0    0  501 -0.00000000000E+00 -0.00000000000E+00 -0.17545319994E+02  0.17545320718E+02  0.50400000000E-02 0.  1.
         24    2    1    2    0    0  0.00000000000E+00  0.00000000000E+00  0.70700936758E+02  0.10579157751E+03  0.78697111846E+02 0.  0.
         66    2    3    3    0    0 -0.24079621498E+02  0.19237453274E+02  0.68202392471E+02  0.74869713599E+02  0.19999738932E+01 0.  0.
        -13    1    3    3    0    0  0.24079621498E+02 -0.19237453274E+02  0.24985442868E+01  0.30921863908E+02  0.10566000000E+00 0.  1.
         13    1    4    4    0    0 -0.89917447989E+00  0.78988705790E+00  0.21615654299E+01  0.24730478065E+01  0.10566000000E+00 0. -1.
        -13    1    4    4    0    0 -0.11378090016E+02  0.82646532807E+01  0.30316291604E+02  0.33419367542E+02  0.10566000000E+00 0.  1.
        -14    1    4    4    0    0 -0.11802357002E+02  0.10182912935E+02  0.35724535437E+02  0.38977298250E+02  0.00000000000E+00 0.  1.
<mgrwt>
<rscale>  0 0.78697112E+02</rscale>
<asrwt>0</asrwt>
<pdfrwt beam="1">  1        2 0.13576347E-01 0.78697112E+02</pdfrwt>
<pdfrwt beam="2">  1       -1 0.26992801E-02 0.78697112E+02</pdfrwt>
<totfact> 0.17902333E+05</totfact>
</mgrwt>
</event>
<event>
 8    1  0.1673046E-013  0.8023528E+02  0.7818608E-02  0.1328385E+00
          2   -1    0    0  501    0  0.00000000000E+00  0.00000000000E+00  0.10301584284E+03  0.10301584287E+03  0.25500000000E-02 0. -1.
         -1   -1    0    0    0  501 -0.00000000000E+00 -0.00000000000E+00 -0.15623082924E+02  0.15623083737E+02  0.50400000000E-02 0.  1.
         24    2    1    2    0    0 -0.35527136788E-14  0.00000000000E+00  0.87392759912E+02  0.11863892660E+03  0.80235281646E+02 0.  0.
         66    2    3    3    0    0 -0.20979273838E+02 -0.10044153714E+02  0.92009645754E+02  0.94925180517E+02  0.20000074461E+01 0.  0.
        -13    1    3    3    0    0  0.20979273838E+02  0.10044153714E+02 -0.46168858420E+01  0.23713746088E+02  0.10566000000E+00 0.  1.
         13    1    4    4    0    0 -0.61609193073E+01 -0.33550469453E+01  0.29119555685E+02  0.29952845508E+02  0.10566000000E+00 0. -1.
        -13    1    4    4    0    0 -0.34863144207E+01 -0.20287017933E+01  0.13964717894E+02  0.14535973620E+02  0.10566000000E+00 0.  1.
        -14    1    4    4    0    0 -0.11332040110E+02 -0.46604049751E+01  0.48925372175E+02  0.50436361388E+02  0.00000000000E+00 0.  1.
<mgrwt>
<rscale>  0 0.80235282E+02</rscale>
<asrwt>0</asrwt>
<pdfrwt beam="1">  1        2 0.15848591E-01 0.80235282E+02</pdfrwt>
<pdfrwt beam="2">  1       -1 0.24035513E-02 0.80235282E+02</pdfrwt>
<totfact> 0.17734722E+05</totfact>
</mgrwt>
</event>
<event>
 8    1  0.1673046E-013  0.7885723E+02  0.7818608E-02  0.1332326E+00
         -1   -1    0    0    0  501 -0.00000000000E+00  0.00000000000E+00  0.13089800195E+02  0.13089801166E+02  0.50400000000E-02 0.  1.
          2   -1    0    0  501    0  0.00000000000E+00 -0.00000000000E+00 -0.11876541437E+03  0.11876541440E+03  0.25500000000E-02 0. -1.
         24    2    1    2    0    0  0.00000000000E+00  0.00000000000E+00 -0.10567561418E+03  0.13185521557E+03  0.78857228205E+02 0.  0.
         66    2    3    3    0    0 -0.14512714258E+02 -0.25105331429E+02 -0.97479273301E+02  0.10172072189E+03  0.19999993538E+01 0.  0.
        -13    1    3    3    0    0  0.14512714258E+02  0.25105331429E+02 -0.81963408769E+01  0.30134493676E+02  0.10566000000E+00 0.  1.
         13    1    4    4    0    0 -0.44086039736E+01 -0.75544382139E+01 -0.28160116513E+02  0.29487432099E+02  0.10566000000E+00 0.  1.
        -13    1    4    4    0    0 -0.58867972319E+01 -0.97418154684E+01 -0.36359010701E+02  0.38099162372E+02  0.10566000000E+00 0. -1.
        -14    1    4    4    0    0 -0.42173130520E+01 -0.78090777468E+01 -0.32960146087E+02  0.34134127420E+02  0.00000000000E+00 0.  1.
<mgrwt>
<rscale>  0 0.78857228E+02</rscale>
<asrwt>0</asrwt>
<pdfrwt beam="1">  1        2 0.18271602E-01 0.78857228E+02</pdfrwt>
<pdfrwt beam="2">  1       -1 0.20138156E-02 0.78857228E+02</pdfrwt>
<totfact> 0.19357200E+05</totfact>
</mgrwt>
</event>
<event>
 8    1  0.1673046E-013  0.8149450E+02  0.7818608E-02  0.1324863E+00
          2   -1    0    0  501    0  0.00000000000E+00  0.00000000000E+00  0.86113970369E+02  0.86113970407E+02  0.25500000000E-02 0. -1.
         -1   -1    0    0    0  501 -0.00000000000E+00 -0.00000000000E+00 -0.19280707370E+02  0.19280708028E+02  0.50400000000E-02 0.  1.
         24    2    1    2    0    0  0.35527136788E-14  0.00000000000E+00  0.66833262999E+02  0.10539467844E+03  0.81494497970E+02 0.  0.
         66    2    3    3    0    0  0.26538540562E+02  0.23170262061E+02  0.59851735185E+02  0.69479388184E+02  0.19999996749E+01 0.  0.
        -13    1    3    3    0    0 -0.26538540562E+02 -0.23170262061E+02  0.69815278146E+01  0.35915290251E+02  0.10566000000E+00 0.  1.
         13    1    4    4    0    0  0.83910248470E+01  0.64960404650E+01  0.18708186944E+02  0.21508492798E+02  0.10566000000E+00 0. -1.
        -13    1    4    4    0    0  0.34839127901E+01  0.26871348698E+01  0.74242490212E+01  0.86306998385E+01  0.10566000000E+00 0. -1.
         14    1    4    4    0    0  0.14663602925E+02  0.13987086726E+02  0.33719299220E+02  0.39340195547E+02  0.00000000000E+00 0. -1.
<mgrwt>
<rscale>  0 0.81494498E+02</rscale>
<asrwt>0</asrwt>
<pdfrwt beam="1">  1        2 0.13248303E-01 0.81494498E+02</pdfrwt>
<pdfrwt beam="2">  1       -1 0.29662628E-02 0.81494498E+02</pdfrwt>
<totfact> 0.16191686E+05</totfact>
</mgrwt>
</event>
<event>
 8    1  0.1673046E-013  0.8130889E+02  0.7818608E-02  0.1325378E+00
         -1   -1    0    0    0  501 -0.00000000000E+00  0.00000000000E+00  0.81194948717E+02  0.81194948874E+02  0.50400000000E-02 0.  1.
          2   -1    0    0  501    0  0.00000000000E+00 -0.00000000000E+00 -0.20355746258E+02  0.20355746418E+02  0.25500000000E-02 0. -1.
         24    2    1    2    0    0 -0.35527136788E-14 -0.35527136788E-14  0.60839202459E+02  0.10155069529E+03  0.81308887327E+02 0.  0.
         66    2    3    3    0    0  0.31121356976E+02 -0.26112561108E+02  0.29674048770E+02  0.50348325462E+02  0.19999997065E+01 0.  0.
        -13    1    3    3    0    0 -0.31121356976E+02  0.26112561108E+02  0.31165153689E+02  0.51202369829E+02  0.10566000000E+00 0.  1.
         13    1    4    4    0    0  0.16390268138E+02 -0.14815693305E+02  0.15739760394E+02  0.27127419322E+02  0.10566000000E+00 0. -1.
        -13    1    4    4    0    0  0.10174141490E+02 -0.78300153436E+01  0.92666957687E+01  0.15833670132E+02  0.10566000000E+00 0.  1.
        -14    1    4    4    0    0  0.45569473474E+01 -0.34668524591E+01  0.46675926075E+01  0.73872360088E+01  0.00000000000E+00 0.  1.
<mgrwt>
<rscale>  0 0.81308887E+02</rscale>
<asrwt>0</asrwt>
<pdfrwt beam="1">  1        2 0.31316533E-02 0.81308887E+02</pdfrwt>
<pdfrwt beam="2">  1       -1 0.12491530E-01 0.81308887E+02</pdfrwt>
<totfact> 0.11892317E+05</totfact>
</mgrwt>
</event>
<event>
 8    1  0.1673046E-013  0.8046038E+02  0.7818608E-02  0.1327750E+00
          2   -1    0    0  501    0  0.00000000000E+00  0.00000000000E+00  0.32332066361E+03  0.32332066362E+03  0.25500000000E-02 0. -1.
         -1   -1    0    0    0  501 -0.00000000000E+00 -0.00000000000E+00 -0.50057671809E+01  0.50057697181E+01  0.50400000000E-02 0.  1.
         24    2    1    2    0    0 -0.35527136788E-14  0.00000000000E+00  0.31831489643E+03  0.32832643334E+03  0.80460384911E+02 0.  0.
         66    2    3    3    0    0  0.24867574937E+02  0.19194240765E+02  0.26164909620E+03  0.26353569912E+03  0.20000007178E+01 0.  0.
        -13    1    3    3    0    0 -0.24867574937E+02 -0.19194240765E+02  0.56665800228E+02  0.64790734224E+02  0.10566000000E+00 0.  1.
         13    1    4    4    0    0  0.77688982030E+01  0.69376279904E+01  0.87647938473E+02  0.88264708373E+02  0.10566000000E+00 0. -1.
        -13    1    4    4    0    0  0.13950940023E+02  0.98011224619E+01  0.13808279795E+03  0.13913145217E+03  0.10566000000E+00 0.  1.
         14    1    4    4    0    0  0.31477367107E+01  0.24554903124E+01  0.35918359783E+02  0.36139538577E+02  0.00000000000E+00 0. -1.
<mgrwt>
<rscale>  0 0.80460385E+02</rscale>
<asrwt>0</asrwt>
<pdfrwt beam="1">  1        2 0.49741658E-01 0.80460385E+02</pdfrwt>
<pdfrwt beam="2">  1       -1 0.77011796E-03 0.80460385E+02</pdfrwt>
<totfact> 0.25802721E+05</totfact>
</mgrwt>
</event>
<event>
 8    1  0.1673046E-013  0.8047812E+02  0.7818608E-02  0.1327700E+00
          2   -1    0    0  501    0  0.00000000000E+00  0.00000000000E+00  0.43544497001E+02  0.43544497075E+02  0.25500000000E-02 0. -1.
         -1   -1    0    0    0  501 -0.00000000000E+00 -0.00000000000E+00 -0.37184536116E+02  0.37184536457E+02  0.50400000000E-02 0.  1.
         24    2    1    2    0    0  0.00000000000E+00  0.00000000000E+00  0.63599608849E+01  0.80729033532E+02  0.80478119713E+02 0.  0.
         66    2    3    3    0    0  0.31629658038E+02  0.19103297236E+02 -0.12735923480E+02  0.39135341744E+02  0.19999984063E+01 0.  0.
        -13    1    3    3    0    0 -0.31629658038E+02 -0.19103297236E+02  0.19095884365E+02  0.41593691789E+02  0.10566000000E+00 0.  1.
         13    1    4    4    0    0  0.30102346416E+02  0.18464482296E+02 -0.11946599686E+02  0.37280300083E+02  0.10566000000E+00 0. -1.
        -13    1    4    4    0    0  0.61241794166E+00  0.26156729988E+00 -0.44207272716E+00  0.80626640717E+00  0.10566000000E+00 0.  1.
         14    1    4    4    0    0  0.91489368067E+00  0.37724763964E+00 -0.34725106741E+00  0.10487752535E+01  0.00000000000E+00 0. -1.
<mgrwt>
<rscale>  0 0.80478120E+02</rscale>
<asrwt>0</asrwt>
<pdfrwt beam="1">  1        2 0.66991534E-02 0.80478120E+02</pdfrwt>
<pdfrwt beam="2">  1       -1 0.57206979E-02 0.80478120E+02</pdfrwt>
<totfact> 0.14272241E+05</totfact>
</mgrwt>
</event>
<event>
 8    1  0.1673046E-013  0.8394786E+02  0.7818608E-02  0.1318207E+00
         -1   -1    0    0    0  501 -0.00000000000E+00  0.00000000000E+00  0.32529863354E+02  0.32529863745E+02  0.50400000000E-02 0.  1.
          2   -1    0    0  501    0  0.00000000000E+00 -0.00000000000E+00 -0.54159792656E+02  0.54159792716E+02  0.25500000000E-02 0. -1.
         24    2    1    2    0    0  0.17763568394E-14  0.00000000000E+00 -0.21629929302E+02  0.86689656461E+02  0.83947857005E+02 0.  0.
         66    2    3    3    0    0  0.15332130730E+02  0.15838138668E+02  0.26036148336E+02  0.34173116299E+02  0.19999970602E+01 0.  0.
        -13    1    3    3    0    0 -0.15332130730E+02 -0.15838138668E+02 -0.47666077638E+02  0.52516540162E+02  0.10566000000E+00 0.  1.
         13    1    4    4    0    0  0.42429062717E+01  0.49620056940E+01  0.71116389297E+01  0.96545495203E+01  0.10566000000E+00 0. -1.
        -13    1    4    4    0    0  0.82056511409E+01  0.84521875134E+01  0.15080441890E+02  0.19136433211E+02  0.10566000000E+00 0.  1.
        -14    1    4    4    0    0  0.28835733176E+01  0.24239454603E+01  0.38440675160E+01  0.53821335676E+01  0.00000000000E+00 0.  1.
<mgrwt>
<rscale>  0 0.83947857E+02</rscale>
<asrwt>0</asrwt>
<pdfrwt beam="1">  1        2 0.83322758E-02 0.83947857E+02</pdfrwt>
<pdfrwt beam="2">  1       -1 0.50045944E-02 0.83947857E+02</pdfrwt>
<totfact> 0.13327819E+05</totfact>
</mgrwt>
</event>
<event>
 8    1  0.1673046E-013  0.8105552E+02  0.7818608E-02  0.1326082E+00
         -1   -1    0    0    0  501 -0.00000000000E+00  0.00000000000E+00  0.41600231686E+01  0.41600262217E+01  0.50400000000E-02 0.  1.
          2   -1    0    0  501    0  0.00000000000E+00 -0.00000000000E+00 -0.39482918669E+03  0.39482918670E+03  0.25500000000E-02 0. -1.
         24    2    1    2    0    0  0.00000000000E+00  0.35527136788E-14 -0.39066916353E+03  0.39898921292E+03  0.81055516160E+02 0.  0.
         66    2    3    3    0    0  0.32379362319E+02  0.24320395972E+02 -0.19167397884E+03  0.19591533608E+03  0.19999956641E+01 0.  0.
        -13    1    3    3    0    0 -0.32379362319E+02 -0.24320395972E+02 -0.19899518469E+03  0.20307387684E+03  0.10566000000E+00 0.  1.
         13    1    4    4    0    0  0.44327199019E+01  0.31394830348E+01 -0.26673680429E+02  0.27221347342E+02  0.10566000000E+00 0. -1.
        -13    1    4    4    0    0  0.26357143889E+02  0.19606171699E+02 -0.15580718575E+03  0.15923250704E+03  0.10566000000E+00 0.  1.
        -14    1    4    4    0    0  0.15894985279E+01  0.15747412377E+01 -0.91931126563E+01  0.94614816941E+01  0.00000000000E+00 0.  1.
<mgrwt>
<rscale>  0 0.81055516E+02</rscale>
<asrwt>0</asrwt>
<pdfrwt beam="1">  1        2 0.60742923E-01 0.81055516E+02</pdfrwt>
<pdfrwt beam="2">  1       -1 0.64000411E-03 0.81055516E+02</pdfrwt>
<totfact> 0.27177743E+05</totfact>
</mgrwt>
</event>
<event>
 8    1  0.1673046E-013  0.7955780E+02  0.7818608E-02  0.1330311E+00
         -1   -1    0    0    0  501 -0.00000000000E+00  0.00000000000E+00  0.36149711466E+01  0.36149746600E+01  0.50400000000E-02 0.  1.
          2   -1    0    0  501    0  0.00000000000E+00 -0.00000000000E+00 -0.43772415478E+03  0.43772415479E+03  0.25500000000E-02 0. -1.
         24    2    1    2    0    0  0.00000000000E+00  0.00000000000E+00 -0.43410918363E+03  0.44133912945E+03  0.79557802047E+02 0.  0.
         66    2    3    3    0    0  0.32579008130E+01 -0.18961724921E+02 -0.41017362331E+03  0.41062947068E+03  0.20000000984E+01 0.  0.
        -13    1    3    3    0    0 -0.32579008130E+01  0.18961724921E+02 -0.23935560322E+02  0.30709658768E+02  0.10566000000E+00 0.  1.
         13    1    4    4    0    0  0.17608314700E+01 -0.98169233143E+01 -0.20168191125E+03  0.20192839572E+03  0.10566000000E+00 0. -1.
        -13    1    4    4    0    0  0.72908803264E+00 -0.16894721524E+01 -0.37832287037E+02  0.37877156599E+02  0.10566000000E+00 0.  1.
        -14    1    4    4    0    0  0.76798131033E+00 -0.74553294541E+01 -0.17065942503E+03  0.17082391836E+03  0.00000000000E+00 0.  1.
<mgrwt>
<rscale>  0 0.79557802E+02</rscale>
<asrwt>0</asrwt>
<pdfrwt beam="1">  1        2 0.67342136E-01 0.79557802E+02</pdfrwt>
<pdfrwt beam="2">  1       -1 0.55615003E-03 0.79557802E+02</pdfrwt>
<totfact> 0.29569656E+05</totfact>
</mgrwt>
</event>
<event>
 8    1  0.1673046E-013  0.8047757E+02  0.7818608E-02  0.1327702E+00
         -1   -1    0    0    0  501 -0.00000000000E+00  0.00000000000E+00  0.41279609728E+01  0.41279640495E+01  0.50400000000E-02 0.  1.
          2   -1    0    0  501    0  0.00000000000E+00 -0.00000000000E+00 -0.39224193141E+03  0.39224193141E+03  0.25500000000E-02 0. -1.
         24    2    1    2    0    0  0.00000000000E+00  0.00000000000E+00 -0.38811397043E+03  0.39636989546E+03  0.80477574420E+02 0.  0.
         66    2    3    3    0    0 -0.91896160237E+01  0.17257120326E+02 -0.36725427050E+03  0.36777976623E+03  0.19999994516E+01 0.  0.
        -13    1    3    3    0    0  0.91896160237E+01 -0.17257120326E+02 -0.20859699930E+02  0.28590129238E+02  0.10566000000E+00 0.  1.
         13    1    4    4    0    0 -0.15305935649E+01  0.29558610735E+01 -0.54721902125E+02  0.54823148100E+02  0.10566000000E+00 0. -1.
        -13    1    4    4    0    0 -0.56469105484E+01  0.90658850178E+01 -0.20471516544E+03  0.20499362915E+03  0.10566000000E+00 0.  1.
         14    1    4    4    0    0 -0.20121119104E+01  0.52353742351E+01 -0.10781720294E+03  0.10796298897E+03  0.00000000000E+00 0. -1.
<mgrwt>
<rscale>  0 0.80477574E+02</rscale>
<asrwt>0</asrwt>
<pdfrwt beam="1">  1        2 0.60344883E-01 0.80477574E+02</pdfrwt>
<pdfrwt beam="2">  1       -1 0.63507147E-03 0.80477574E+02</pdfrwt>
<totfact> 0.27627228E+05</totfact>
</mgrwt>
</event>
<event>
 8    1  0.1673046E-013  0.8080279E+02  0.7818608E-02  0.1326789E+00
          2   -1    0    0  501    0  0.00000000000E+00  0.00000000000E+00  0.87120423252E+03  0.87120423252E+03  0.25500000000E-02 0. -1.
         -1   -1    0    0    0  501 -0.00000000000E+00 -0.00000000000E+00 -0.18735789205E+01  0.18735856994E+01  0.50400000000E-02 0.  1.
         24    2    1    2    0    0  0.00000000000E+00  0.00000000000E+00  0.86933065360E+03  0.87307781822E+03  0.80802793180E+02 0.  0.
         66    2    3    3    0    0  0.24445209878E+02  0.21115836591E+02  0.69667649426E+03  0.69742783461E+03  0.19999995234E+01 0.  0.
        -13    1    3    3    0    0 -0.24445209878E+02 -0.21115836591E+02  0.17265415934E+03  0.17564998361E+03  0.10566000000E+00 0.  1.
         13    1    4    4    0    0  0.63460679001E+01  0.56964113113E+01  0.19812712303E+03  0.19831058904E+03  0.10566000000E+00 0. -1.
        -13    1    4    4    0    0  0.17223463982E+02  0.14954292414E+02  0.47690028597E+03  0.47744546547E+03  0.10566000000E+00 0.  1.
         14    1    4    4    0    0  0.87567799613E+00  0.46513286574E+00  0.21649085257E+02  0.21671780107E+02  0.00000000000E+00 0. -1.
<mgrwt>
<rscale>  0 0.80802793E+02</rscale>
<asrwt>0</asrwt>
<pdfrwt beam="1">  1        2 0.13403123E+00 0.80802793E+02</pdfrwt>
<pdfrwt beam="2">  1       -1 0.28824384E-03 0.80802793E+02</pdfrwt>
<totfact> 0.33919685E+05</totfact>
</mgrwt>
</event>
<event>
 8    1  0.1673046E-013  0.7890668E+02  0.7818608E-02  0.1332183E+00
         -1   -1    0    0    0  501 -0.00000000000E+00  0.00000000000E+00  0.91815933401E+01  0.91815947234E+01  0.50400000000E-02 0.  1.
          2   -1    0    0  501    0  0.00000000000E+00 -0.00000000000E+00 -0.16953115196E+03  0.16953115198E+03  0.25500000000E-02 0. -1.
         24    2    1    2    0    0 -0.35527136788E-14 -0.35527136788E-14 -0.16034955862E+03  0.17871274670E+03  0.78906684662E+02 0.  0.
         66    2    3    3    0    0 -0.18385858088E+02 -0.26559479086E+02 -0.13142983652E+03  0.13535600331E+03  0.19999995653E+01 0.  0.
        -13    1    3    3    0    0  0.18385858088E+02  0.26559479086E+02 -0.28919722101E+02  0.43356743390E+02  0.10566000000E+00 0.  1.
         13    1    4    4    0    0 -0.23131506234E+01 -0.36750109309E+01 -0.16222404911E+02  0.16793866627E+02  0.10566000000E+00 0. -1.
        -13    1    4    4    0    0 -0.42838585072E+01 -0.62382771432E+01 -0.28507243932E+02  0.29494773538E+02  0.10566000000E+00 0.  1.
        -14    1    4    4    0    0 -0.11788848958E+02 -0.16646191012E+02 -0.86700187675E+02  0.89067363146E+02  0.00000000000E+00 0.  1.
<mgrwt>
<rscale>  0 0.78906685E+02</rscale>
<asrwt>0</asrwt>
<pdfrwt beam="1">  1        2 0.26081714E-01 0.78906685E+02</pdfrwt>
<pdfrwt beam="2">  1       -1 0.14125531E-02 0.78906685E+02</pdfrwt>
<totfact> 0.21623000E+05</totfact>
</mgrwt>
</event>
<event>
 8    1  0.1673046E-013  0.7844820E+02  0.7818608E-02  0.1333514E+00
          2   -1    0    0  501    0  0.00000000000E+00  0.00000000000E+00  0.27942066647E+03  0.27942066648E+03  0.25500000000E-02 0. -1.
         -1   -1    0    0    0  501 -0.00000000000E+00 -0.00000000000E+00 -0.55061416808E+01  0.55061439874E+01  0.50400000000E-02 0.  1.
         24    2    1    2    0    0  0.00000000000E+00  0.35527136788E-14  0.27391452479E+03  0.28492681047E+03  0.78448202233E+02 0.  0.
         66    2    3    3    0    0 -0.34178009935E+02  0.18443544572E+02  0.15634185223E+03  0.16110578965E+03  0.20000002662E+01 0.  0.
        -13    1    3    3    0    0  0.34178009935E+02 -0.18443544572E+02  0.11757267256E+03  0.12382102082E+03  0.10566000000E+00 0.  1.
         13    1    4    4    0    0 -0.92362449417E+01  0.46519288805E+01  0.42985378383E+02  0.44212018521E+02  0.10566000000E+00 0. -1.
        -13    1    4    4    0    0 -0.24262996656E+02  0.13638925044E+02  0.11009804204E+03  0.11356189197E+03  0.10566000000E+00 0.  1.
        -14    1    4    4    0    0 -0.67876833793E+00  0.15269064735E+00  0.32584318119E+01  0.33318791640E+01  0.00000000000E+00 0.  1.
<mgrwt>
<rscale>  0 0.78448202E+02</rscale>
<asrwt>0</asrwt>
<pdfrwt beam="1">  1        2 0.42987784E-01 0.78448202E+02</pdfrwt>
<pdfrwt beam="2">  1       -1 0.84709912E-03 0.78448202E+02</pdfrwt>
<totfact> 0.26155901E+05</totfact>
</mgrwt>
</event>
<event>
 8    1  0.1673046E-013  0.7890915E+02  0.7818608E-02  0.1332176E+00
          2   -1    0    0  501    0  0.00000000000E+00  0.00000000000E+00  0.13634766738E+03  0.13634766741E+03  0.25500000000E-02 0. -1.
         -1   -1    0    0    0  501 -0.00000000000E+00 -0.00000000000E+00 -0.11416868197E+02  0.11416869310E+02  0.50400000000E-02 0.  1.
         24    2    1    2    0    0  0.00000000000E+00  0.00000000000E+00  0.12493079919E+03  0.14776453672E+03  0.78909148556E+02 0.  0.
         66    2    3    3    0    0 -0.21091953630E+02 -0.18766815355E+02  0.11404741929E+03  0.11750692629E+03  0.20000034938E+01 0.  0.
        -13    1    3    3    0    0  0.21091953630E+02  0.18766815355E+02  0.10883379897E+02  0.30257610423E+02  0.10566000000E+00 0.  1.
         13    1    4    4    0    0 -0.14084283618E+02 -0.12958786368E+02  0.74306805667E+02  0.76732064495E+02  0.10566000000E+00 0. -1.
        -13    1    4    4    0    0 -0.54629619731E+01 -0.41868150684E+01  0.29572876724E+02  0.30363457901E+02  0.10566000000E+00 0.  1.
        -14    1    4    4    0    0 -0.15447080387E+01 -0.16212139184E+01  0.10167736897E+02  0.10411403897E+02  0.00000000000E+00 0.  1.
<mgrwt>
<rscale>  0 0.78909149E+02</rscale>
<asrwt>0</asrwt>
<pdfrwt beam="1">  1        2 0.20976562E-01 0.78909149E+02</pdfrwt>
<pdfrwt beam="2">  1       -1 0.17564416E-02 0.78909149E+02</pdfrwt>
<totfact> 0.20153958E+05</totfact>
</mgrwt>
</event>
<event>
 8    1  0.1673046E-013  0.9004160E+02  0.7818608E-02  0.1302751E+00
         -1   -1    0    0    0  501 -0.00000000000E+00  0.00000000000E+00  0.10799266065E+02  0.10799267241E+02  0.50400000000E-02 0.  1.
          2   -1    0    0  501    0  0.00000000000E+00 -0.00000000000E+00 -0.18768610186E+03  0.18768610187E+03  0.25500000000E-02 0. -1.
         24    2    1    2    0    0  0.71054273576E-14 -0.17763568394E-14 -0.17688683579E+03  0.19848536911E+03  0.90041596366E+02 0.  0.
         66    2    3    3    0    0 -0.41808838028E+02  0.14254684292E+02 -0.10741019673E+03  0.11615560839E+03  0.20000093738E+01 0.  0.
        -13    1    3    3    0    0  0.41808838028E+02 -0.14254684292E+02 -0.69476639064E+02  0.82329760726E+02  0.10566000000E+00 0.  1.
         13    1    4    4    0    0 -0.29923127499E+02  0.99773466091E+01 -0.76008989087E+02  0.82294098152E+02  0.10566000000E+00 0. -1.
        -13    1    4    4    0    0 -0.10182811530E+02  0.32944915503E+01 -0.26756435328E+02  0.28817725807E+02  0.10566000000E+00 0.  1.
        -14    1    4    4    0    0 -0.17028989993E+01  0.98284613302E+00 -0.46447723121E+01  0.50437844278E+01  0.00000000000E+00 0.  1.
<mgrwt>
<rscale>  0 0.90041596E+02</rscale>
<asrwt>0</asrwt>
<pdfrwt beam="1">  1        2 0.28874782E-01 0.90041596E+02</pdfrwt>
<pdfrwt beam="2">  1       -1 0.16614258E-02 0.90041596E+02</pdfrwt>
<totfact> 0.15759392E+05</totfact>
</mgrwt>
</event>
<event>
 8    1  0.1673046E-013  0.7853688E+02  0.7818608E-02  0.1333256E+00
         -1   -1    0    0    0  501 -0.00000000000E+00  0.00000000000E+00  0.21704867240E+01  0.21704925756E+01  0.50400000000E-02 0.  1.
          2   -1    0    0  501    0  0.00000000000E+00 -0.00000000000E+00 -0.71044355511E+03  0.71044355511E+03  0.25500000000E-02 0. -1.
         24    2    1    2    0    0  0.00000000000E+00  0.00000000000E+00 -0.70827306839E+03  0.71261404769E+03  0.78536880283E+02 0.  0.
         66    2    3    3    0    0  0.27629375408E+02  0.16575204041E+01 -0.60678123619E+03  0.60741550718E+03  0.20000022699E+01 0.  0.
        -13    1    3    3    0    0 -0.27629375408E+02 -0.16575204041E+01 -0.10149183219E+03  0.10519854051E+03  0.10566000000E+00 0.  1.
         13    1    4    4    0    0  0.56921662541E+01  0.64530109274E+00 -0.11284694778E+03  0.11299230929E+03  0.10566000000E+00 0. -1.
        -13    1    4    4    0    0  0.35015703261E+01  0.16910145529E+00 -0.86926164656E+02  0.86996889921E+02  0.10566000000E+00 0.  1.
         14    1    4    4    0    0  0.18435638827E+02  0.84311785610E+00 -0.40700812375E+03  0.40742630797E+03  0.00000000000E+00 0. -1.
<mgrwt>
<rscale>  0 0.78536880E+02</rscale>
<asrwt>0</asrwt>
<pdfrwt beam="1">  1        2 0.10929882E+00 0.78536880E+02</pdfrwt>
<pdfrwt beam="2">  1       -1 0.33392205E-03 0.78536880E+02</pdfrwt>
<totfact> 0.35211910E+05</totfact>
</mgrwt>
</event>
<event>
 8    1  0.1673046E-013  0.7044708E+02  0.7818608E-02  0.1358579E+00
          2   -1    0    0  501    0  0.00000000000E+00  0.00000000000E+00  0.13008359534E+03  0.13008359537E+03  0.25500000000E-02 0. -1.
         -1   -1    0    0    0  501 -0.00000000000E+00 -0.00000000000E+00 -0.95376949964E+01  0.95376963281E+01  0.50400000000E-02 0.  1.
         24    2    1    2    0    0  0.17763568394E-14  0.00000000000E+00  0.12054590035E+03  0.13962129170E+03  0.70447079461E+02 0.  0.
         66    2    3    3    0    0  0.84708482925E+01 -0.90548488950E+01  0.12560332699E+03  0.12622971645E+03  0.20000008883E+01 0.  0.
        -13    1    3    3    0    0 -0.84708482925E+01  0.90548488950E+01 -0.50574266463E+01  0.13391575248E+02  0.10566000000E+00 0.  1.
         13    1    4    4    0    0  0.40183368245E+00 -0.80203677136E+00  0.74537507687E+01  0.75082819505E+01  0.10566000000E+00 0. -1.
        -13    1    4    4    0    0  0.45010930350E+01 -0.43417973212E+01  0.71250282369E+02  0.71524296181E+02  0.10566000000E+00 0.  1.
         14    1    4    4    0    0  0.35679215751E+01 -0.39110148025E+01  0.46899293857E+02  0.47197138318E+02  0.00000000000E+00 0. -1.
<mgrwt>
<rscale>  0 0.70447079E+02</rscale>
<asrwt>0</asrwt>
<pdfrwt beam="1">  1        2 0.20012859E-01 0.70447079E+02</pdfrwt>
<pdfrwt beam="2">  1       -1 0.14673379E-02 0.70447079E+02</pdfrwt>
<totfact> 0.26790813E+05</totfact>
</mgrwt>
</event>
<event>
 8    1  0.1673046E-013  0.8236412E+02  0.7818608E-02  0.1322473E+00
         -1   -1    0    0    0  501 -0.00000000000E+00  0.00000000000E+00  0.87075550821E+01  0.87075565407E+01  0.50400000000E-02 0.  1.
          2   -1    0    0  501    0  0.00000000000E+00 -0.00000000000E+00 -0.19476902115E+03  0.19476902117E+03  0.25500000000E-02 0. -1.
         24    2    1    2    0    0  0.00000000000E+00 -0.71054273576E-14 -0.18606146607E+03  0.20347657771E+03  0.82364121560E+02 0.  0.
         66    2    3    3    0    0 -0.22731721407E+01  0.35514958088E+02 -0.42007534735E+02  0.55091855259E+02  0.19999954526E+01 0.  0.
        -13    1    3    3    0    0  0.22731721407E+01 -0.35514958088E+02 -0.14405393134E+03  0.14838472245E+03  0.10566000000E+00 0.  1.
         13    1    4    4    0    0 -0.63208636706E+00  0.57995079925E+01 -0.77748082610E+01  0.97207321566E+01  0.10566000000E+00 0. -1.
        -13    1    4    4    0    0 -0.10167595113E+01  0.24585289994E+02 -0.28076461261E+02  0.37333217448E+02  0.10566000000E+00 0.  1.
        -14    1    4    4    0    0 -0.62432626229E+00  0.51301601011E+01 -0.61562652128E+01  0.80379056548E+01  0.00000000000E+00 0.  1.
<mgrwt>
<rscale>  0 0.82364122E+02</rscale>
<asrwt>0</asrwt>
<pdfrwt beam="1">  1        2 0.29964462E-01 0.82364122E+02</pdfrwt>
<pdfrwt beam="2">  1       -1 0.13396241E-02 0.82364122E+02</pdfrwt>
<totfact> 0.20237177E+05</totfact>
</mgrwt>
</event>
<event>
 8    1  0.1673046E-013  0.8100082E+02  0.7818608E-02  0.1326235E+00
         -1   -1    0    0    0  501 -0.00000000000E+00  0.00000000000E+00  0.38863608030E+01  0.38863640710E+01  0.50400000000E-02 0.  1.
          2   -1    0    0  501    0  0.00000000000E+00 -0.00000000000E+00 -0.42206135681E+03  0.42206135682E+03  0.25500000000E-02 0. -1.
         24    2    1    2    0    0  0.00000000000E+00  0.00000000000E+00 -0.41817499601E+03  0.42594772089E+03  0.81000824964E+02 0.  0.
         66    2    3    3    0    0 -0.35272427961E+02  0.11903349565E+02 -0.29276526368E+03  0.29512935050E+03  0.20000007992E+01 0.  0.
        -13    1    3    3    0    0  0.35272427961E+02 -0.11903349565E+02 -0.12540973233E+03  0.13081837039E+03  0.10566000000E+00 0.  1.
         13    1    4    4    0    0 -0.27310607390E+02  0.94368712966E+01 -0.22405051016E+03  0.22590610014E+03  0.10566000000E+00 0. -1.
        -13    1    4    4    0    0 -0.61679168831E+01  0.20989549691E+01 -0.51180537916E+02  0.51593676319E+02  0.10566000000E+00 0.  1.
        -14    1    4    4    0    0 -0.17939036878E+01  0.36752329898E+00 -0.17534215605E+02  0.17629574036E+02  0.00000000000E+00 0.  1.
<mgrwt>
<rscale>  0 0.81000825E+02</rscale>
<asrwt>0</asrwt>
<pdfrwt beam="1">  1        2 0.64932480E-01 0.81000825E+02</pdfrwt>
<pdfrwt beam="2">  1       -1 0.59790225E-03 0.81000825E+02</pdfrwt>
<totfact> 0.27864715E+05</totfact>
</mgrwt>
</event>
<event>
 8    1  0.1673046E-013  0.8056186E+02  0.7818608E-02  0.1327464E+00
         -1   -1    0    0    0  501 -0.00000000000E+00  0.00000000000E+00  0.57651155770E+00  0.57653358771E+00  0.50400000000E-02 0.  1.
          2   -1    0    0  501    0  0.00000000000E+00 -0.00000000000E+00 -0.28143796686E+04  0.28143796686E+04  0.25500000000E-02 0. -1.
         24    2    1    2    0    0  0.17763568394E-14 -0.22204460493E-15 -0.28138031571E+04  0.28149562022E+04  0.80561862320E+02 0.  0.
         66    2    3    3    0    0  0.10913355173E+02 -0.17091533966E+01 -0.27603814840E+04  0.27604043109E+04  0.20000011944E+01 0.  0.
        -13    1    3    3    0    0 -0.10913355173E+02  0.17091533966E+01 -0.53421673057E+02  0.54551891285E+02  0.10566000000E+00 0.  1.
         13    1    4    4    0    0  0.31384808655E+01 -0.12325074526E+01 -0.83772068291E+03  0.83772747530E+03  0.10566000000E+00 0. -1.
        -13    1    4    4    0    0  0.34891606442E+01  0.27266595830E+00 -0.86332674911E+03  0.86333384938E+03  0.10566000000E+00 0.  1.
        -14    1    4    4    0    0  0.42857136630E+01 -0.74931190228E+00 -0.10593340520E+04  0.10593429863E+04  0.00000000000E+00 0.  1.
<mgrwt>
<rscale>  0 0.80561862E+02</rscale>
<asrwt>0</asrwt>
<pdfrwt beam="1">  1        2 0.43297049E+00 0.80561862E+02</pdfrwt>
<pdfrwt beam="2">  1       -1 0.88698034E-04 0.80561862E+02</pdfrwt>
<totfact> 0.16465391E+05</totfact>
</mgrwt>
</event>
<event>
 8    1  0.1673046E-013  0.7847625E+02  0.7818608E-02  0.1333432E+00
          2   -1    0    0  501    0  0.00000000000E+00  0.00000000000E+00  0.20524375804E+02  0.20524375963E+02  0.25500000000E-02 0. -1.
         -1   -1    0    0    0  501 -0.00000000000E+00 -0.00000000000E+00 -0.75014727785E+02  0.75014727954E+02  0.50400000000E-02 0.  1.
         24    2    1    2    0    0  0.00000000000E+00 -0.71054273576E-14 -0.54490351981E+02  0.95539103917E+02  0.78476250664E+02 0.  0.
         66    2    3    3    0    0 -0.95544188246E+01 -0.35098820346E+02 -0.94362894786E+01  0.37633199031E+02  0.20000003538E+01 0.  0.
        -13    1    3    3    0    0  0.95544188246E+01  0.35098820346E+02 -0.45054062502E+02  0.57905904887E+02  0.10566000000E+00 0.  1.
         13    1    4    4    0    0 -0.53717231465E+01 -0.18435852410E+02 -0.52525179623E+01  0.19908193605E+02  0.10566000000E+00 0. -1.
        -13    1    4    4    0    0 -0.15307005490E+01 -0.58055777299E+01 -0.20600328454E+01  0.63484388875E+01  0.10566000000E+00 0.  1.
         14    1    4    4    0    0 -0.26519951291E+01 -0.10857390206E+02 -0.21237386708E+01  0.11376566538E+02  0.00000000000E+00 0. -1.
<mgrwt>
<rscale>  0 0.78476251E+02</rscale>
<asrwt>0</asrwt>
<pdfrwt beam="1">  1        2 0.31575963E-02 0.78476251E+02</pdfrwt>
<pdfrwt beam="2">  1       -1 0.11540727E-01 0.78476251E+02</pdfrwt>
<totfact> 0.13186836E+05</totfact>
</mgrwt>
</event>
<event>
 8    1  0.1673046E-013  0.8086432E+02  0.7818608E-02  0.1326616E+00
          2   -1    0    0  501    0  0.00000000000E+00  0.00000000000E+00  0.25235958741E+03  0.25235958743E+03  0.25500000000E-02 0. -1.
         -1   -1    0    0    0  501 -0.00000000000E+00 -0.00000000000E+00 -0.64778967313E+01  0.64778986920E+01  0.50400000000E-02 0.  1.
         24    2    1    2    0    0 -0.88817841970E-15  0.00000000000E+00  0.24588169068E+03  0.25883748612E+03  0.80864320979E+02 0.  0.
         66    2    3    3    0    0 -0.78214392031E+01 -0.32358764376E+02  0.19632172966E+03  0.19913434178E+03  0.19999993003E+01 0.  0.
        -13    1    3    3    0    0  0.78214392031E+01  0.32358764376E+02  0.49559961026E+02  0.59703144340E+02  0.10566000000E+00 0.  1.
         13    1    4    4    0    0 -0.58333039366E+01 -0.25954905833E+02  0.15874300256E+03  0.16095662956E+03  0.10566000000E+00 0. -1.
        -13    1    4    4    0    0 -0.22380033434E+00 -0.15918508861E+01  0.89611979579E+01  0.91048508340E+01  0.10566000000E+00 0. -1.
        -14    1    4    4    0    0 -0.17643349322E+01 -0.48120076567E+01  0.28617529138E+02  0.29072861390E+02  0.00000000000E+00 0.  1.
<mgrwt>
<rscale>  0 0.80864321E+02</rscale>
<asrwt>0</asrwt>
<pdfrwt beam="1">  1        2 0.38824551E-01 0.80864321E+02</pdfrwt>
<pdfrwt beam="2">  1       -1 0.99659968E-03 0.80864321E+02</pdfrwt>
<totfact> 0.23281472E+05</totfact>
</mgrwt>
</event>
<event>
 8    1  0.1673046E-013  0.8163952E+02  0.7818608E-02  0.1324462E+00
          2   -1    0    0  501    0  0.00000000000E+00  0.00000000000E+00  0.44306479744E+02  0.44306479817E+02  0.25500000000E-02 0. -1.
         -1   -1    0    0    0  501 -0.00000000000E+00 -0.00000000000E+00 -0.37607428259E+02  0.37607428597E+02  0.50400000000E-02 0.  1.
         24    2    1    2    0    0  0.00000000000E+00  0.00000000000E+00  0.66990514851E+01  0.81913908414E+02  0.81639519234E+02 0.  0.
         66    2    3    3    0    0  0.21151947486E+02 -0.34613949621E+02  0.76924343398E+01  0.41336471772E+02  0.19999904143E+01 0.  0.
        -13    1    3    3    0    0 -0.21151947486E+02  0.34613949621E+02 -0.99338285472E+00  0.40577436641E+02  0.10566000000E+00 0.  1.
         13    1    4    4    0    0  0.21563557084E+01 -0.34280276573E+01  0.25802856529E+00  0.40594317751E+01  0.10566000000E+00 0.  1.
        -13    1    4    4    0    0  0.92118490483E+01 -0.16027322908E+02  0.37207880648E+01  0.18857058900E+02  0.10566000000E+00 0.  1.
         14    1    4    4    0    0  0.97837427298E+01 -0.15158599056E+02  0.37136177097E+01  0.18419981098E+02  0.00000000000E+00 0. -1.
<mgrwt>
<rscale>  0 0.81639519E+02</rscale>
<asrwt>0</asrwt>
<pdfrwt beam="1">  1        2 0.68163815E-02 0.81639519E+02</pdfrwt>
<pdfrwt beam="2">  1       -1 0.57857582E-02 0.81639519E+02</pdfrwt>
<totfact> 0.13769515E+05</totfact>
</mgrwt>
</event>
<event>
 8    1  0.1673046E-013  0.7927779E+02  0.7818608E-02  0.1331114E+00
          2   -1    0    0  501    0  0.00000000000E+00  0.00000000000E+00  0.89838462496E+02  0.89838462532E+02  0.25500000000E-02 0. -1.
         -1   -1    0    0    0  501 -0.00000000000E+00 -0.00000000000E+00 -0.17489635236E+02  0.17489635962E+02  0.50400000000E-02 0.  1.
         24    2    1    2    0    0  0.71054273576E-14  0.00000000000E+00  0.72348827259E+02  0.10732809849E+03  0.79277789579E+02 0.  0.
         66    2    3    3    0    0  0.33303876399E+02  0.78076905250E+01  0.63244331229E+02  0.71930199876E+02  0.20000017847E+01 0.  0.
        -13    1    3    3    0    0 -0.33303876399E+02 -0.78076905250E+01  0.91044960309E+01  0.35397898618E+02  0.10566000000E+00 0.  1.
         13    1    4    4    0    0  0.92158610794E+00 -0.15732090622E-01  0.14346384874E+01  0.17084847316E+01  0.10566000000E+00 0.  1.
        -13    1    4    4    0    0  0.43865435149E+01  0.13186529421E+01  0.81647445990E+01  0.93624157135E+01  0.10566000000E+00 0. -1.
         14    1    4    4    0    0  0.27995746776E+02  0.65047696736E+01  0.53644948142E+02  0.60859299431E+02  0.00000000000E+00 0. -1.
<mgrwt>
<rscale>  0 0.79277790E+02</rscale>
<asrwt>0</asrwt>
<pdfrwt beam="1">  1        2 0.13821302E-01 0.79277790E+02</pdfrwt>
<pdfrwt beam="2">  1       -1 0.26907132E-02 0.79277790E+02</pdfrwt>
<totfact> 0.17636655E+05</totfact>
</mgrwt>
</event>
<event>
 8    1  0.1673046E-013  0.7674633E+02  0.7818608E-02  0.1338547E+00
          2   -1    0    0  501    0  0.00000000000E+00  0.00000000000E+00  0.35176988957E+03  0.35176988958E+03  0.25500000000E-02 0. -1.
         -1   -1    0    0    0  501 -0.00000000000E+00 -0.00000000000E+00 -0.41859725505E+01  0.41859755846E+01  0.50400000000E-02 0.  1.
         24    2    1    2    0    0  0.00000000000E+00  0.00000000000E+00  0.34758391702E+03  0.35595586516E+03  0.76746326126E+02 0.  0.
         66    2    3    3    0    0  0.45514782937E+01  0.37389644487E+02  0.20728879869E+03  0.21069254268E+03  0.20000016818E+01 0.  0.
        -13    1    3    3    0    0 -0.45514782937E+01 -0.37389644487E+02  0.14029511833E+03  0.14526332249E+03  0.10566000000E+00 0.  1.
         13    1    4    4    0    0  0.18570049750E+01  0.15940979846E+02  0.86809850354E+02  0.88280941252E+02  0.10566000000E+00 0. -1.
        -13    1    4    4    0    0  0.50433736400E-01  0.27558560127E+01  0.17592195397E+02  0.17807127473E+02  0.10566000000E+00 0.  1.
         14    1    4    4    0    0  0.26440395824E+01  0.18692808628E+02  0.10288675294E+03  0.10460447395E+03  0.00000000000E+00 0. -1.
<mgrwt>
<rscale>  0 0.76746326E+02</rscale>
<asrwt>0</asrwt>
<pdfrwt beam="1">  1        2 0.54118463E-01 0.76746326E+02</pdfrwt>
<pdfrwt beam="2">  1       -1 0.64399580E-03 0.76746326E+02</pdfrwt>
<totfact> 0.30089512E+05</totfact>
</mgrwt>
</event>
<event>
 8    1  0.1673046E-013  0.7964111E+02  0.7818608E-02  0.1330073E+00
         -1   -1    0    0    0  501 -0.00000000000E+00  0.00000000000E+00  0.88457690830E+02  0.88457690973E+02  0.50400000000E-02 0.  1.
          2   -1    0    0  501    0  0.00000000000E+00 -0.00000000000E+00 -0.17925817664E+02  0.17925817846E+02  0.25500000000E-02 0. -1.
         24    2    1    2    0    0  0.71054273576E-14  0.00000000000E+00  0.70531873165E+02  0.10638350882E+03  0.79641106324E+02 0.  0.
         66    2    3    3    0    0  0.33300933199E+02  0.20440328190E+02  0.25210907156E+02  0.46544054507E+02  0.20000004605E+01 0.  0.
        -13    1    3    3    0    0 -0.33300933199E+02 -0.20440328190E+02  0.45320966009E+02  0.59839454313E+02  0.10566000000E+00 0.  1.
         13    1    4    4    0    0  0.43445264171E+01  0.23765347548E+01  0.37339161822E+01  0.62029123257E+01  0.10566000000E+00 0. -1.
        -13    1    4    4    0    0  0.26321240624E+02  0.16499991358E+02  0.19924931665E+02  0.36906252704E+02  0.10566000000E+00 0.  1.
        -14    1    4    4    0    0  0.26351661580E+01  0.15638020775E+01  0.15520593092E+01  0.34348894767E+01  0.00000000000E+00 0.  1.
<mgrwt>
<rscale>  0 0.79641106E+02</rscale>
<asrwt>0</asrwt>
<pdfrwt beam="1">  1        2 0.27578181E-02 0.79641106E+02</pdfrwt>
<pdfrwt beam="2">  1       -1 0.13608876E-01 0.79641106E+02</pdfrwt>
<totfact> 0.12299383E+05</totfact>
</mgrwt>
</event>
<event>
 8    1  0.1673046E-013  0.7729394E+02  0.7818608E-02  0.1336911E+00
          2   -1    0    0  501    0  0.00000000000E+00  0.00000000000E+00  0.14030003335E+03  0.14030003338E+03  0.25500000000E-02 0. -1.
         -1   -1    0    0    0  501 -0.00000000000E+00 -0.00000000000E+00 -0.10645672109E+02  0.10645673302E+02  0.50400000000E-02 0.  1.
         24    2    1    2    0    0  0.00000000000E+00  0.00000000000E+00  0.12965436125E+03  0.15094570668E+03  0.77293938799E+02 0.  0.
         66    2    3    3    0    0  0.37888152174E+02 -0.67177303996E+01  0.71330730193E+02  0.81072270525E+02  0.20000003210E+01 0.  0.
        -13    1    3    3    0    0 -0.37888152174E+02  0.67177303996E+01  0.58323631052E+02  0.69873436154E+02  0.10566000000E+00 0.  1.
         13    1    4    4    0    0  0.55095007406E+01 -0.97501147286E+00  0.11774886563E+02  0.13037038137E+02  0.10566000000E+00 0. -1.
        -13    1    4    4    0    0  0.18961137290E+02 -0.34010833059E+01  0.35616263902E+02  0.40492240163E+02  0.10566000000E+00 0. -1.
        -14    1    4    4    0    0  0.13417514143E+02 -0.23416356209E+01  0.23939579727E+02  0.27542992225E+02  0.00000000000E+00 0.  1.
<mgrwt>
<rscale>  0 0.77293939E+02</rscale>
<asrwt>0</asrwt>
<pdfrwt beam="1">  1        2 0.21584620E-01 0.77293939E+02</pdfrwt>
<pdfrwt beam="2">  1       -1 0.16377958E-02 0.77293939E+02</pdfrwt>
<totfact> 0.21481039E+05</totfact>
</mgrwt>
</event>
<event>
 8    1  0.1673046E-013  0.7980752E+02  0.7818608E-02  0.1329599E+00
          2   -1    0    0  501    0  0.00000000000E+00  0.00000000000E+00  0.22834066448E+03  0.22834066450E+03  0.25500000000E-02 0. -1.
         -1   -1    0    0    0  501 -0.00000000000E+00 -0.00000000000E+00 -0.69733955328E+01  0.69733973541E+01  0.50400000000E-02 0.  1.
         24    2    1    2    0    0  0.00000000000E+00  0.00000000000E+00  0.22136726895E+03  0.23531406185E+03  0.79807518082E+02 0.  0.
         66    2    3    3    0    0 -0.13290170831E+02 -0.34980019246E+02  0.70102426162E+02  0.79489499555E+02  0.19999996330E+01 0.  0.
        -13    1    3    3    0    0  0.13290170831E+02  0.34980019246E+02  0.15126484279E+03  0.15582456230E+03  0.10566000000E+00 0.  1.
         13    1    4    4    0    0 -0.79174170804E+01 -0.21145789765E+02  0.41853572420E+02  0.47555889292E+02  0.10566000000E+00 0. -1.
        -13    1    4    4    0    0 -0.21760777048E+01 -0.64909764173E+01  0.11921597575E+02  0.13747863172E+02  0.10566000000E+00 0.  1.
         14    1    4    4    0    0 -0.31966760456E+01 -0.73432530631E+01  0.16327256168E+02  0.18185747091E+02  0.00000000000E+00 0. -1.
<mgrwt>
<rscale>  0 0.79807518E+02</rscale>
<asrwt>0</asrwt>
<pdfrwt beam="1">  1        2 0.35129336E-01 0.79807518E+02</pdfrwt>
<pdfrwt beam="2">  1       -1 0.10728301E-02 0.79807518E+02</pdfrwt>
<totfact> 0.23256484E+05</totfact>
</mgrwt>
</event>
<event>
 8    1  0.1673046E-013  0.7929254E+02  0.7818608E-02  0.1331071E+00
         -1   -1    0    0    0  501 -0.00000000000E+00  0.00000000000E+00  0.96150979506E+02  0.96150979638E+02  0.50400000000E-02 0.  1.
          2   -1    0    0  501    0  0.00000000000E+00 -0.00000000000E+00 -0.16347484678E+02  0.16347484877E+02  0.25500000000E-02 0. -1.
         24    2    1    2    0    0  0.00000000000E+00  0.00000000000E+00  0.79803494828E+02  0.11249846452E+03  0.79292538940E+02 0.  0.
         66    2    3    3    0    0 -0.19991371879E+02  0.69508827774E+01 -0.75935532943E+01  0.22575025382E+02  0.19999996012E+01 0.  0.
        -13    1    3    3    0    0  0.19991371879E+02 -0.69508827774E+01  0.87397048122E+02  0.89923439133E+02  0.10566000000E+00 0.  1.
         13    1    4    4    0    0 -0.76680023170E+01  0.27132468180E+01 -0.36284938124E+01  0.89071375431E+01  0.10566000000E+00 0. -1.
        -13    1    4    4    0    0 -0.25919760602E+00  0.15659281334E+00 -0.23350733362E+00  0.39672965432E+00  0.10566000000E+00 0.  1.
         14    1    4    4    0    0 -0.12064171956E+02  0.40810431460E+01 -0.37315521483E+01  0.13271158185E+02  0.00000000000E+00 0. -1.
<mgrwt>
<rscale>  0 0.79292539E+02</rscale>
<asrwt>0</asrwt>
<pdfrwt beam="1">  1        2 0.25149977E-02 0.79292539E+02</pdfrwt>
<pdfrwt beam="2">  1       -1 0.14792458E-01 0.79292539E+02</pdfrwt>
<totfact> 0.12219660E+05</totfact>
</mgrwt>
</event>
<event>
 8    1  0.1673046E-013  0.8039799E+02  0.7818608E-02  0.1327926E+00
          2   -1    0    0  501    0  0.00000000000E+00  0.00000000000E+00  0.66099840466E+02  0.66099840515E+02  0.25500000000E-02 0. -1.
         -1   -1    0    0    0  501 -0.00000000000E+00 -0.00000000000E+00 -0.24447246221E+02  0.24447246741E+02  0.50400000000E-02 0.  1.
         24    2    1    2    0    0  0.00000000000E+00  0.00000000000E+00  0.41652594244E+02  0.90547087256E+02  0.80397987557E+02 0.  0.
         66    2    3    3    0    0  0.24792227958E+02  0.17909081343E+02 -0.84984678983E+01  0.31805875490E+02  0.19999993397E+01 0.  0.
        -13    1    3    3    0    0 -0.24792227958E+02 -0.17909081343E+02  0.50151062142E+02  0.58741211766E+02  0.10566000000E+00 0.  1.
         13    1    4    4    0    0  0.40176982069E+01  0.27953076688E+01 -0.20617433959E+01  0.53120235044E+01  0.10566000000E+00 0. -1.
        -13    1    4    4    0    0  0.13992577491E+02  0.10571896833E+02 -0.44272799012E+01  0.18087819074E+02  0.10566000000E+00 0.  1.
         14    1    4    4    0    0  0.67819522603E+01  0.45418768418E+01 -0.20094446012E+01  0.84060329116E+01  0.00000000000E+00 0. -1.
<mgrwt>
<rscale>  0 0.80397988E+02</rscale>
<asrwt>0</asrwt>
<pdfrwt beam="1">  1        2 0.10169206E-01 0.80397988E+02</pdfrwt>
<pdfrwt beam="2">  1       -1 0.37611149E-02 0.80397988E+02</pdfrwt>
<totfact> 0.15711439E+05</totfact>
</mgrwt>
</event>
<event>
 8    1  0.1673046E-013  0.7714904E+02  0.7818608E-02  0.1337342E+00
         -1   -1    0    0    0  501 -0.00000000000E+00  0.00000000000E+00  0.24523655876E+02  0.24523656394E+02  0.50400000000E-02 0.  1.
          2   -1    0    0  501    0  0.00000000000E+00 -0.00000000000E+00 -0.60675852282E+02  0.60675852335E+02  0.25500000000E-02 0. -1.
         24    2    1    2    0    0  0.35527136788E-14 -0.35527136788E-14 -0.36152196406E+02  0.85199508729E+02  0.77149043952E+02 0.  0.
         66    2    3    3    0    0  0.12377271188E+02 -0.28800136055E+02 -0.42864661042E+02  0.53141545220E+02  0.19999958105E+01 0.  0.
        -13    1    3    3    0    0 -0.12377271188E+02  0.28800136055E+02  0.67124646360E+01  0.32057963510E+02  0.10566000000E+00 0.  1.
         13    1    4    4    0    0  0.74033817965E+01 -0.18971841933E+02 -0.27279974307E+02  0.34043340179E+02  0.10566000000E+00 0. -1.
        -13    1    4    4    0    0  0.45926308195E+01 -0.87383064631E+01 -0.14212126416E+02  0.17304506898E+02  0.10566000000E+00 0.  1.
         14    1    4    4    0    0  0.38125857232E+00 -0.10899876589E+01 -0.13725603190E+01  0.17936981421E+01  0.00000000000E+00 0. -1.
<mgrwt>
<rscale>  0 0.77149044E+02</rscale>
<asrwt>0</asrwt>
<pdfrwt beam="1">  1        2 0.93347465E-02 0.77149044E+02</pdfrwt>
<pdfrwt beam="2">  1       -1 0.37728702E-02 0.77149044E+02</pdfrwt>
<totfact> 0.17221207E+05</totfact>
</mgrwt>
</event>
<event>
 8    1  0.1673046E-013  0.7851427E+02  0.7818608E-02  0.1333321E+00
          2   -1    0    0  501    0  0.00000000000E+00  0.00000000000E+00  0.60796419515E+01  0.60796424862E+01  0.25500000000E-02 0. -1.
         -1   -1    0    0    0  501 -0.00000000000E+00 -0.00000000000E+00 -0.25348902768E+03  0.25348902773E+03  0.50400000000E-02 0.  1.
         24    2    1    2    0    0 -0.44408920985E-15  0.00000000000E+00 -0.24740938572E+03  0.25956867021E+03  0.78514268838E+02 0.  0.
         66    2    3    3    0    0  0.31770715646E+01 -0.38006083106E+02 -0.93383581362E+02  0.10089127513E+03  0.19999981127E+01 0.  0.
        -13    1    3    3    0    0 -0.31770715646E+01  0.38006083106E+02 -0.15402580436E+03  0.15867739508E+03  0.10566000000E+00 0.  1.
         13    1    4    4    0    0  0.11929065266E+01 -0.18562840771E+02 -0.46061394388E+02  0.49675600656E+02  0.10566000000E+00 0. -1.
        -13    1    4    4    0    0  0.13259736501E+01 -0.16861533899E+02 -0.41397103810E+02  0.44719133482E+02  0.10566000000E+00 0.  1.
        -14    1    4    4    0    0  0.65819138795E+00 -0.25817084364E+01 -0.59250831639E+01  0.64965409914E+01  0.00000000000E+00 0.  1.
<mgrwt>
<rscale>  0 0.78514269E+02</rscale>
<asrwt>0</asrwt>
<pdfrwt beam="1">  1        2 0.93532977E-03 0.78514269E+02</pdfrwt>
<pdfrwt beam="2">  1       -1 0.38998304E-01 0.78514269E+02</pdfrwt>
<totfact> 0.96676850E+04</totfact>
</mgrwt>
</event>
<event>
 8    1  0.1673046E-013  0.7833551E+02  0.7818608E-02  0.1333842E+00
         -1   -1    0    0    0  501 -0.00000000000E+00  0.00000000000E+00  0.71617115532E+02  0.71617115709E+02  0.50400000000E-02 0.  1.
          2   -1    0    0  501    0  0.00000000000E+00 -0.00000000000E+00 -0.21421040946E+02  0.21421041097E+02  0.25500000000E-02 0. -1.
         24    2    1    2    0    0  0.00000000000E+00  0.00000000000E+00  0.50196074586E+02  0.93038156806E+02  0.78335513773E+02 0.  0.
         66    2    3    3    0    0  0.29269646648E+02 -0.13124383826E+02 -0.15265957945E+01  0.32175956213E+02  0.19999994349E+01 0.  0.
        -13    1    3    3    0    0 -0.29269646648E+02  0.13124383826E+02  0.51722670381E+02  0.60862200594E+02  0.10566000000E+00 0.  1.
         13    1    4    4    0    0  0.15766962551E+02 -0.74956550712E+01 -0.12869396079E+01  0.17505694234E+02  0.10566000000E+00 0. -1.
        -13    1    4    4    0    0  0.83058325770E+00 -0.17342755676E+00 -0.17939112741E+00  0.87366519766E+00  0.10566000000E+00 0.  1.
        -14    1    4    4    0    0  0.12672100839E+02 -0.54553011984E+01 -0.60265059287E-01  0.13796596781E+02  0.00000000000E+00 0.  1.
<mgrwt>
<rscale>  0 0.78335514E+02</rscale>
<asrwt>0</asrwt>
<pdfrwt beam="1">  1        2 0.32955447E-02 0.78335514E+02</pdfrwt>
<pdfrwt beam="2">  1       -1 0.11018018E-01 0.78335514E+02</pdfrwt>
<totfact> 0.13366618E+05</totfact>
</mgrwt>
</event>
<event>
 8    1  0.1673046E-013  0.8315145E+02  0.7818608E-02  0.1320339E+00
          2   -1    0    0  501    0  0.00000000000E+00  0.00000000000E+00  0.25988493432E+03  0.25988493433E+03  0.25500000000E-02 0. -1.
         -1   -1    0    0    0  501 -0.00000000000E+00 -0.00000000000E+00 -0.66511774409E+01  0.66511793505E+01  0.50400000000E-02 0.  1.
         24    2    1    2    0    0  0.00000000000E+00  0.00000000000E+00  0.25323375688E+03  0.26653611368E+03  0.83151453831E+02 0.  0.
         66    2    3    3    0    0 -0.85167561009E+01  0.19422867112E+02  0.24122531102E+03  0.24216406335E+03  0.20000001114E+01 0.  0.
        -13    1    3    3    0    0  0.85167561009E+01 -0.19422867112E+02  0.12008445856E+02  0.24372050330E+02  0.10566000000E+00 0.  1.
         13    1    4    4    0    0 -0.66336090980E+01  0.14997154915E+02  0.17830725632E+03  0.17905978958E+03  0.10566000000E+00 0. -1.
        -13    1    4    4    0    0 -0.17144901733E+00  0.90518753530E+00  0.11280650340E+02  0.11318701135E+02  0.10566000000E+00 0.  1.
         14    1    4    4    0    0 -0.17116979856E+01  0.35205246625E+01  0.51637404363E+02  0.51785572636E+02  0.00000000000E+00 0. -1.
<mgrwt>
<rscale>  0 0.83151454E+02</rscale>
<asrwt>0</asrwt>
<pdfrwt beam="1">  1        2 0.39982301E-01 0.83151454E+02</pdfrwt>
<pdfrwt beam="2">  1       -1 0.10232581E-02 0.83151454E+02</pdfrwt>
<totfact> 0.21862652E+05</totfact>
</mgrwt>
</event>
<event>
 8    1  0.1673046E-013  0.7911159E+02  0.7818608E-02  0.1331592E+00
          2   -1    0    0  501    0  0.00000000000E+00  0.00000000000E+00  0.31148623058E+02  0.31148623163E+02  0.25500000000E-02 0. -1.
         -1   -1    0    0    0  501 -0.00000000000E+00 -0.00000000000E+00 -0.50232106075E+02  0.50232106328E+02  0.50400000000E-02 0.  1.
         24    2    1    2    0    0  0.00000000000E+00  0.00000000000E+00 -0.19083483017E+02  0.81380729490E+02  0.79111590859E+02 0.  0.
         66    2    3    3    0    0  0.31790529534E+02 -0.17345457619E+02  0.67545545008E+01  0.36893450243E+02  0.19999990663E+01 0.  0.
        -13    1    3    3    0    0 -0.31790529534E+02  0.17345457619E+02 -0.25838037517E+02  0.44487279247E+02  0.10566000000E+00 0.  1.
         13    1    4    4    0    0  0.13898859101E+02 -0.70492778420E+01  0.20692576131E+01  0.15721437386E+02  0.10566000000E+00 0. -1.
        -13    1    4    4    0    0  0.11808017855E+02 -0.65814903527E+01  0.30187385696E+01  0.13851687533E+02  0.10566000000E+00 0.  1.
        -14    1    4    4    0    0  0.60836525783E+01 -0.37146894244E+01  0.16665583181E+01  0.73203253234E+01  0.00000000000E+00 0.  1.
<mgrwt>
<rscale>  0 0.79111591E+02</rscale>
<asrwt>0</asrwt>
<pdfrwt beam="1">  1        2 0.47920959E-02 0.79111591E+02</pdfrwt>
<pdfrwt beam="2">  1       -1 0.77280163E-02 0.79111591E+02</pdfrwt>
<totfact> 0.13985267E+05</totfact>
</mgrwt>
</event>
<event>
 8    1  0.1673046E-013  0.7894500E+02  0.7818608E-02  0.1332072E+00
          2   -1    0    0  501    0  0.00000000000E+00  0.00000000000E+00  0.10298302765E+02  0.10298303081E+02  0.25500000000E-02 0. -1.
         -1   -1    0    0    0  501 -0.00000000000E+00 -0.00000000000E+00 -0.15129466034E+03  0.15129466043E+03  0.50400000000E-02 0.  1.
         24    2    1    2    0    0  0.00000000000E+00  0.00000000000E+00 -0.14099635758E+03  0.16159296351E+03  0.78944999875E+02 0.  0.
         66    2    3    3    0    0 -0.23511511696E+02  0.96294956763E+01 -0.87770975787E+01  0.26954699081E+02  0.19999978629E+01 0.  0.
        -13    1    3    3    0    0  0.23511511696E+02 -0.96294956763E+01 -0.13221926000E+03  0.13463826443E+03  0.10566000000E+00 0.  1.
         13    1    4    4    0    0 -0.19035876316E+02  0.78469736048E+01 -0.71850844111E+01  0.21807709277E+02  0.10566000000E+00 0. -1.
        -13    1    4    4    0    0 -0.36422051331E+01  0.14944138081E+01 -0.16348355311E+01  0.42641273563E+01  0.10566000000E+00 0.  1.
        -14    1    4    4    0    0 -0.83343024639E+00  0.28810826344E+00  0.42822363393E-01  0.88286244788E+00  0.00000000000E+00 0.  1.
<mgrwt>
<rscale>  0 0.78945000E+02</rscale>
<asrwt>0</asrwt>
<pdfrwt beam="1">  1        2 0.15843544E-02 0.78945000E+02</pdfrwt>
<pdfrwt beam="2">  1       -1 0.23276100E-01 0.78945000E+02</pdfrwt>
<totfact> 0.11130909E+05</totfact>
</mgrwt>
</event>
<event>
 8    1  0.1673046E-013  0.8867834E+02  0.7818608E-02  0.1306084E+00
          2   -1    0    0  501    0  0.00000000000E+00  0.00000000000E+00  0.32142574434E+02  0.32142574535E+02  0.25500000000E-02 0. -1.
         -1   -1    0    0    0  501 -0.00000000000E+00 -0.00000000000E+00 -0.61163801936E+02  0.61163802143E+02  0.50400000000E-02 0.  1.
         24    2    1    2    0    0  0.00000000000E+00  0.00000000000E+00 -0.29021227502E+02  0.93306376678E+02  0.88678341680E+02 0.  0.
         66    2    3    3    0    0 -0.84776307455E+01  0.18731601595E+02  0.26789174498E+02  0.33829025889E+02  0.20000002405E+01 0.  0.
        -13    1    3    3    0    0  0.84776307455E+01 -0.18731601595E+02 -0.55810402001E+02  0.59477350789E+02  0.10566000000E+00 0.  1.
         13    1    4    4    0    0 -0.26741950056E+01  0.49839828373E+01  0.73134288664E+01  0.92460158809E+01  0.10566000000E+00 0.  1.
        -13    1    4    4    0    0 -0.49093512730E+00  0.21078072408E+01  0.22312705224E+01  0.31102412838E+01  0.10566000000E+00 0. -1.
         14    1    4    4    0    0 -0.53125006126E+01  0.11639811517E+02  0.17244475110E+02  0.21472768725E+02  0.00000000000E+00 0. -1.
<mgrwt>
<rscale>  0 0.88678342E+02</rscale>
<asrwt>0</asrwt>
<pdfrwt beam="1">  1        2 0.49450115E-02 0.88678342E+02</pdfrwt>
<pdfrwt beam="2">  1       -1 0.94098157E-02 0.88678342E+02</pdfrwt>
<totfact> 0.10204502E+05</totfact>
</mgrwt>
</event>
<event>
 8    1  0.1673046E-013  0.7729195E+02  0.7818608E-02  0.1336917E+00
         -1   -1    0    0    0  501 -0.00000000000E+00  0.00000000000E+00  0.50427801440E+02  0.50427801691E+02  0.50400000000E-02 0.  1.
          2   -1    0    0  501    0  0.00000000000E+00 -0.00000000000E+00 -0.29616822256E+02  0.29616822365E+02  0.25500000000E-02 0. -1.
         24    2    1    2    0    0 -0.52041704279E-17 -0.71054273576E-14  0.20810979184E+02  0.80044624057E+02  0.77291946448E+02 0.  0.
         66    2    3    3    0    0 -0.11540273791E-01  0.19578112271E+02 -0.24062836645E+02  0.31085731868E+02  0.20000012774E+01 0.  0.
        -13    1    3    3    0    0  0.11540273791E-01 -0.19578112271E+02  0.44873815829E+02  0.48958892189E+02  0.10566000000E+00 0.  1.
         13    1    4    4    0    0 -0.39726191569E+00  0.10904365203E+02 -0.13027918788E+02  0.16994141034E+02  0.10566000000E+00 0. -1.
        -13    1    4    4    0    0  0.59076355732E+00  0.31496577676E+01 -0.35033685167E+01  0.47491157738E+01  0.10566000000E+00 0.  1.
        -14    1    4    4    0    0 -0.20504191542E+00  0.55240893010E+01 -0.75315493403E+01  0.93424750606E+01  0.00000000000E+00 0.  1.
<mgrwt>
<rscale>  0 0.77291946E+02</rscale>
<asrwt>0</asrwt>
<pdfrwt beam="1">  1        2 0.45564343E-02 0.77291946E+02</pdfrwt>
<pdfrwt beam="2">  1       -1 0.77581232E-02 0.77291946E+02</pdfrwt>
<totfact> 0.14777923E+05</totfact>
</mgrwt>
</event>
<event>
 8    1  0.1673046E-013  0.7916286E+02  0.7818608E-02  0.1331444E+00
         -1   -1    0    0    0  501 -0.00000000000E+00  0.00000000000E+00  0.53126887551E+01  0.53126911457E+01  0.50400000000E-02 0.  1.
          2   -1    0    0  501    0  0.00000000000E+00 -0.00000000000E+00 -0.29489571801E+03  0.29489571802E+03  0.25500000000E-02 0. -1.
         24    2    1    2    0    0 -0.35527136788E-14  0.00000000000E+00 -0.28958302925E+03  0.30020840917E+03  0.79162858096E+02 0.  0.
         66    2    3    3    0    0 -0.25346610983E+02 -0.40038809514E+01 -0.25904371063E+03  0.26031927660E+03  0.19999999987E+01 0.  0.
        -13    1    3    3    0    0  0.25346610983E+02  0.40038809514E+01 -0.30539318621E+02  0.39889132566E+02  0.10566000000E+00 0.  1.
         13    1    4    4    0    0 -0.18377795372E+02 -0.33712760543E+01 -0.19071614231E+03  0.19162924350E+03  0.10566000000E+00 0. -1.
        -13    1    4    4    0    0 -0.68977487936E+01 -0.61878685407E+00 -0.66223606621E+02  0.66584826151E+02  0.10566000000E+00 0.  1.
         14    1    4    4    0    0 -0.71066816804E-01 -0.13818042961E-01 -0.21039617043E+01  0.21052069456E+01  0.00000000000E+00 0. -1.
<mgrwt>
<rscale>  0 0.79162858E+02</rscale>
<asrwt>0</asrwt>
<pdfrwt beam="1">  1        2 0.45368559E-01 0.79162858E+02</pdfrwt>
<pdfrwt beam="2">  1       -1 0.81733715E-03 0.79162858E+02</pdfrwt>
<totfact> 0.26044834E+05</totfact>
</mgrwt>
</event>
<event>
 8    1  0.1673046E-013  0.7845558E+02  0.7818608E-02  0.1333492E+00
         -1   -1    0    0    0  501 -0.00000000000E+00  0.00000000000E+00  0.27931182341E+01  0.27931227813E+01  0.50400000000E-02 0.  1.
          2   -1    0    0  501    0  0.00000000000E+00 -0.00000000000E+00 -0.55093201102E+03  0.55093201103E+03  0.25500000000E-02 0. -1.
         24    2    1    2    0    0  0.00000000000E+00  0.17763568394E-14 -0.54813889279E+03  0.55372513381E+03  0.78455579950E+02 0.  0.
         66    2    3    3    0    0  0.89475712475E+01 -0.13591247991E+02 -0.52596818558E+03  0.52622363430E+03  0.19999998427E+01 0.  0.
        -13    1    3    3    0    0 -0.89475712475E+01  0.13591247991E+02 -0.22170707207E+02  0.27501499510E+02  0.10566000000E+00 0.  1.
         13    1    4    4    0    0  0.40147995924E+01 -0.65707199435E+01 -0.26899074006E+03  0.26910095202E+03  0.10566000000E+00 0. -1.
        -13    1    4    4    0    0  0.23758520437E+01 -0.32872718699E+01 -0.10664644436E+03  0.10672359668E+03  0.10566000000E+00 0.  1.
        -14    1    4    4    0    0  0.25569196115E+01 -0.37332561772E+01 -0.15033100116E+03  0.15039908560E+03  0.00000000000E+00 0.  1.
<mgrwt>
<rscale>  0 0.78455580E+02</rscale>
<asrwt>0</asrwt>
<pdfrwt beam="1">  1        2 0.84758685E-01 0.78455580E+02</pdfrwt>
<pdfrwt beam="2">  1       -1 0.42971129E-03 0.78455580E+02</pdfrwt>
<totfact> 0.33011322E+05</totfact>
</mgrwt>
</event>
<event>
 8    1  0.1673046E-013  0.7335865E+02  0.7818608E-02  0.1349030E+00
          2   -1    0    0  501    0  0.00000000000E+00  0.00000000000E+00  0.74591592902E+03  0.74591592902E+03  0.25500000000E-02 0. -1.
         -1   -1    0    0    0  501 -0.00000000000E+00 -0.00000000000E+00 -0.18036485299E+01  0.18036555716E+01  0.50400000000E-02 0.  1.
         24    2    1    2    0    0  0.00000000000E+00  0.00000000000E+00  0.74411228049E+03  0.74771958459E+03  0.73358647835E+02 0.  0.
         66    2    3    3    0    0  0.14634908869E+02 -0.11744964145E+02  0.69323770343E+03  0.69349451203E+03  0.20000023406E+01 0.  0.
        -13    1    3    3    0    0 -0.14634908869E+02  0.11744964145E+02  0.50874577054E+02  0.54225072567E+02  0.10566000000E+00 0.  1.
         13    1    4    4    0    0  0.13471155199E+02 -0.10977771605E+02  0.62567420915E+03  0.62591549801E+03  0.10566000000E+00 0. -1.
        -13    1    4    4    0    0  0.10090572245E+01 -0.79762141370E+00  0.60264278296E+02  0.60278095515E+02  0.10566000000E+00 0.  1.
         14    1    4    4    0    0  0.15469644531E+00  0.30428874183E-01  0.72992159867E+01  0.73009184989E+01  0.00000000000E+00 0. -1.
<mgrwt>
<rscale>  0 0.73358648E+02</rscale>
<asrwt>0</asrwt>
<pdfrwt beam="1">  1        2 0.11475647E+00 0.73358648E+02</pdfrwt>
<pdfrwt beam="2">  1       -1 0.27748453E-03 0.73358648E+02</pdfrwt>
<totfact> 0.42438716E+05</totfact>
</mgrwt>
</event>
<event>
 8    1  0.1673046E-013  0.7916124E+02  0.7818608E-02  0.1331449E+00
         -1   -1    0    0    0  501 -0.00000000000E+00  0.00000000000E+00  0.37561550047E+01  0.37561583860E+01  0.50400000000E-02 0.  1.
          2   -1    0    0  501    0  0.00000000000E+00 -0.00000000000E+00 -0.41708206641E+03  0.41708206641E+03  0.25500000000E-02 0. -1.
         24    2    1    2    0    0 -0.88817841970E-15  0.00000000000E+00 -0.41332591140E+03  0.42083822480E+03  0.79161243149E+02 0.  0.
         66    2    3    3    0    0 -0.72905786508E+01 -0.25080160349E+02 -0.36471864790E+03  0.36565811779E+03  0.20000004098E+01 0.  0.
        -13    1    3    3    0    0  0.72905786508E+01  0.25080160349E+02 -0.48607263503E+02  0.55180107008E+02  0.10566000000E+00 0.  1.
         13    1    4    4    0    0 -0.10856327833E+01 -0.23863132827E+01 -0.37398447130E+02  0.37490373450E+02  0.10566000000E+00 0. -1.
        -13    1    4    4    0    0 -0.23705493360E+01 -0.11308999689E+02 -0.16246555965E+03  0.16287597187E+03  0.10566000000E+00 0.  1.
        -14    1    4    4    0    0 -0.38343965314E+01 -0.11384847377E+02 -0.16485464112E+03  0.16529177247E+03  0.00000000000E+00 0.  1.
<mgrwt>
<rscale>  0 0.79161243E+02</rscale>
<asrwt>0</asrwt>
<pdfrwt beam="1">  1        2 0.64166435E-01 0.79161243E+02</pdfrwt>
<pdfrwt beam="2">  1       -1 0.57787059E-03 0.79161243E+02</pdfrwt>
<totfact> 0.29466528E+05</totfact>
</mgrwt>
</event>
<event>
 8    1  0.1673046E-013  0.6992289E+02  0.7818608E-02  0.1360355E+00
          2   -1    0    0  501    0  0.00000000000E+00  0.00000000000E+00  0.10303527015E+04  0.10303527015E+04  0.25500000000E-02 0. -1.
         -1   -1    0    0    0  501 -0.00000000000E+00 -0.00000000000E+00 -0.11862898495E+01  0.11863005557E+01  0.50400000000E-02 0.  1.
         24    2    1    2    0    0  0.00000000000E+00  0.00000000000E+00  0.10291664117E+04  0.10315390021E+04  0.69922885374E+02 0.  0.
         66    2    3    3    0    0  0.22118868604E+02  0.18660216749E+01  0.91293065905E+03  0.91320266896E+03  0.19999931733E+01 0.  0.
        -13    1    3    3    0    0 -0.22118868604E+02 -0.18660216749E+01  0.11623575261E+03  0.11833633311E+03  0.10566000000E+00 0.  1.
         13    1    4    4    0    0  0.13510944279E+02  0.10353144335E+01  0.52350565480E+03  0.52368100907E+03  0.10566000000E+00 0. -1.
        -13    1    4    4    0    0  0.49825490384E+00 -0.55231367145E-01  0.19653351053E+02  0.19660027470E+02  0.10566000000E+00 0.  1.
         14    1    4    4    0    0  0.81096694213E+01  0.88593860856E+00  0.36977165320E+03  0.36986163242E+03  0.00000000000E+00 0. -1.
<mgrwt>
<rscale>  0 0.69922885E+02</rscale>
<asrwt>0</asrwt>
<pdfrwt beam="1">  1        2 0.15851625E+00 0.69922885E+02</pdfrwt>
<pdfrwt beam="2">  1       -1 0.18250644E-03 0.69922885E+02</pdfrwt>
<totfact> 0.49897848E+05</totfact>
</mgrwt>
</event>
<event>
 8    1  0.1673046E-013  0.7656638E+02  0.7818608E-02  0.1339088E+00
          2   -1    0    0  501    0  0.00000000000E+00  0.00000000000E+00  0.50467233760E+02  0.50467233824E+02  0.25500000000E-02 0. -1.
         -1   -1    0    0    0  501 -0.00000000000E+00 -0.00000000000E+00 -0.29040677811E+02  0.29040678248E+02  0.50400000000E-02 0.  1.
         24    2    1    2    0    0  0.00000000000E+00  0.00000000000E+00  0.21426555948E+02  0.79507912072E+02  0.76566381541E+02 0.  0.
         66    2    3    3    0    0  0.36013282817E+02 -0.54200501025E+01  0.22886657952E+02  0.43059639901E+02  0.19999984456E+01 0.  0.
        -13    1    3    3    0    0 -0.36013282817E+02  0.54200501025E+01 -0.14601020037E+01  0.36448272171E+02  0.10566000000E+00 0.  1.
         13    1    4    4    0    0  0.35633979156E+01 -0.48390200623E+00  0.24195340289E+01  0.43355824072E+01  0.10566000000E+00 0. -1.
        -13    1    4    4    0    0  0.17747075252E+00  0.58940725904E-01  0.16708569003E+00  0.27212412716E+00  0.10566000000E+00 0. -1.
        -14    1    4    4    0    0  0.32272414149E+02 -0.49950888221E+01  0.20300038233E+02  0.38451933367E+02  0.00000000000E+00 0.  1.
<mgrwt>
<rscale>  0 0.76566382E+02</rscale>
<asrwt>0</asrwt>
<pdfrwt beam="1">  1        2 0.77641898E-02 0.76566382E+02</pdfrwt>
<pdfrwt beam="2">  1       -1 0.44677967E-02 0.76566382E+02</pdfrwt>
<totfact> 0.16878195E+05</totfact>
</mgrwt>
</event>
<event>
 8    1  0.1673046E-013  0.7876612E+02  0.7818608E-02  0.1332590E+00
          2   -1    0    0  501    0  0.00000000000E+00  0.00000000000E+00  0.58200741953E+02  0.58200742008E+02  0.25500000000E-02 0. -1.
         -1   -1    0    0    0  501 -0.00000000000E+00 -0.00000000000E+00 -0.26649582451E+02  0.26649582928E+02  0.50400000000E-02 0.  1.
         24    2    1    2    0    0  0.71054273576E-14  0.00000000000E+00  0.31551159501E+02  0.84850324936E+02  0.78766122006E+02 0.  0.
         66    2    3    3    0    0 -0.38102222906E+02  0.12383282032E+01  0.26324433531E+02  0.46371204942E+02  0.20000000016E+01 0.  0.
        -13    1    3    3    0    0  0.38102222906E+02 -0.12383282032E+01  0.52267259709E+01  0.38479119994E+02  0.10566000000E+00 0.  1.
         13    1    4    4    0    0 -0.14171326896E+02  0.81064413260E+00  0.96069947780E+01  0.17140278954E+02  0.10566000000E+00 0. -1.
        -13    1    4    4    0    0 -0.18831282535E+02  0.92723142266E+00  0.13095267786E+02  0.22955917809E+02  0.10566000000E+00 0.  1.
         14    1    4    4    0    0 -0.50996134742E+01 -0.49954735204E+00  0.36221709665E+01  0.62750081796E+01  0.00000000000E+00 0. -1.
<mgrwt>
<rscale>  0 0.78766122E+02</rscale>
<asrwt>0</asrwt>
<pdfrwt beam="1">  1        2 0.89539603E-02 0.78766122E+02</pdfrwt>
<pdfrwt beam="2">  1       -1 0.40999358E-02 0.78766122E+02</pdfrwt>
<totfact> 0.16125410E+05</totfact>
</mgrwt>
</event>
<event>
 8    1  0.1673046E-013  0.7916474E+02  0.7818608E-02  0.1331439E+00
         -1   -1    0    0    0  501 -0.00000000000E+00  0.00000000000E+00  0.54321084830E+01  0.54321108211E+01  0.50400000000E-02 0.  1.
          2   -1    0    0  501    0  0.00000000000E+00 -0.00000000000E+00 -0.28842642707E+03  0.28842642708E+03  0.25500000000E-02 0. -1.
         24    2    1    2    0    0 -0.35527136788E-14  0.88817841970E-15 -0.28299431858E+03  0.29385853790E+03  0.79164739282E+02 0.  0.
         66    2    3    3    0    0  0.30375241886E+02 -0.66350637017E+01 -0.23236635392E+03  0.23444573322E+03  0.20000001155E+01 0.  0.
        -13    1    3    3    0    0 -0.30375241886E+02  0.66350637017E+01 -0.50627964662E+02  0.59412804679E+02  0.10566000000E+00 0.  1.
         13    1    4    4    0    0  0.91440540786E+01 -0.22819643946E+01 -0.64226528669E+02  0.64914399292E+02  0.10566000000E+00 0. -1.
        -13    1    4    4    0    0  0.10896078135E+02 -0.20671477650E+01 -0.85347230920E+02  0.86064851178E+02  0.10566000000E+00 0.  1.
         14    1    4    4    0    0  0.10335109672E+02 -0.22859515421E+01 -0.82792594332E+02  0.83466482750E+02  0.00000000000E+00 0. -1.
<mgrwt>
<rscale>  0 0.79164739E+02</rscale>
<asrwt>0</asrwt>
<pdfrwt beam="1">  1        2 0.44373285E-01 0.79164739E+02</pdfrwt>
<pdfrwt beam="2">  1       -1 0.83570940E-03 0.79164739E+02</pdfrwt>
<totfact> 0.25834984E+05</totfact>
</mgrwt>
</event>
<event>
 8    1  0.1673046E-013  0.7926510E+02  0.7818608E-02  0.1331150E+00
          2   -1    0    0  501    0  0.00000000000E+00  0.00000000000E+00  0.14352016318E+03  0.14352016320E+03  0.25500000000E-02 0. -1.
         -1   -1    0    0    0  501 -0.00000000000E+00 -0.00000000000E+00 -0.10944378909E+02  0.10944380070E+02  0.50400000000E-02 0.  1.
         24    2    1    2    0    0 -0.35527136788E-14  0.00000000000E+00  0.13257578427E+03  0.15446454327E+03  0.79265102999E+02 0.  0.
         66    2    3    3    0    0  0.24353304973E+02  0.28018763232E+02  0.93233415622E+02  0.10037232857E+03  0.19999996297E+01 0.  0.
        -13    1    3    3    0    0 -0.24353304973E+02 -0.28018763232E+02  0.39342368648E+02  0.54092214699E+02  0.10566000000E+00 0.  1.
         13    1    4    4    0    0  0.15914451076E+02  0.19215573328E+02  0.63063954202E+02  0.67820214501E+02  0.10566000000E+00 0. -1.
        -13    1    4    4    0    0  0.32465110047E+01  0.30017223541E+01  0.10135801350E+02  0.11058743321E+02  0.10566000000E+00 0.  1.
         14    1    4    4    0    0  0.51923428919E+01  0.58014675498E+01  0.20033660070E+02  0.21493370751E+02  0.00000000000E+00 0. -1.
<mgrwt>
<rscale>  0 0.79265103E+02</rscale>
<asrwt>0</asrwt>
<pdfrwt beam="1">  1        2 0.22080023E-01 0.79265103E+02</pdfrwt>
<pdfrwt beam="2">  1       -1 0.16837509E-02 0.79265103E+02</pdfrwt>
<totfact> 0.20238655E+05</totfact>
</mgrwt>
</event>
<event>
 8    1  0.1673046E-013  0.7882867E+02  0.7818608E-02  0.1332409E+00
          2   -1    0    0  501    0  0.00000000000E+00  0.00000000000E+00  0.98909803930E+02  0.98909803962E+02  0.25500000000E-02 0. -1.
         -1   -1    0    0    0  501 -0.00000000000E+00 -0.00000000000E+00 -0.15706126945E+02  0.15706127754E+02  0.50400000000E-02 0.  1.
         24    2    1    2    0    0 -0.44408920985E-15  0.00000000000E+00  0.83203676984E+02  0.11461593172E+03  0.78828674602E+02 0.  0.
         66    2    3    3    0    0 -0.35421429900E+01  0.36832789205E+02  0.61259204377E+02  0.71595329912E+02  0.20000016838E+01 0.  0.
        -13    1    3    3    0    0  0.35421429900E+01 -0.36832789205E+02  0.21944472607E+02  0.43020601804E+02  0.10566000000E+00 0.  1.
         13    1    4    4    0    0 -0.11769354014E+01  0.16381985389E+02  0.26958165171E+02  0.31567522165E+02  0.10566000000E+00 0. -1.
        -13    1    4    4    0    0 -0.13323307286E+01  0.12718105187E+02  0.22527660075E+02  0.25904284147E+02  0.10566000000E+00 0.  1.
        -14    1    4    4    0    0 -0.10328768599E+01  0.77326986290E+01  0.11773379132E+02  0.14123523600E+02  0.00000000000E+00 0.  1.
<mgrwt>
<rscale>  0 0.78828675E+02</rscale>
<asrwt>0</asrwt>
<pdfrwt beam="1">  1        2 0.15216893E-01 0.78828675E+02</pdfrwt>
<pdfrwt beam="2">  1       -1 0.24163272E-02 0.78828675E+02</pdfrwt>
<totfact> 0.18383466E+05</totfact>
</mgrwt>
</event>
<event>
 8    1  0.1673046E-013  0.8268842E+02  0.7818608E-02  0.1321591E+00
          2   -1    0    0  501    0  0.00000000000E+00  0.00000000000E+00  0.42759317799E+03  0.42759317800E+03  0.25500000000E-02 0. -1.
         -1   -1    0    0    0  501 -0.00000000000E+00 -0.00000000000E+00 -0.39975917969E+01  0.39975949740E+01  0.50400000000E-02 0.  1.
         24    2    1    2    0    0 -0.71054273576E-14  0.00000000000E+00  0.42359558619E+03  0.43159077297E+03  0.82688419213E+02 0.  0.
         66    2    3    3    0    0  0.37517772311E+02 -0.43798807418E+01  0.29934917981E+03  0.30172951139E+03  0.20000001983E+01 0.  0.
        -13    1    3    3    0    0 -0.37517772311E+02  0.43798807418E+01  0.12424640639E+03  0.12986126158E+03  0.10566000000E+00 0.  1.
         13    1    4    4    0    0  0.61645102961E+01 -0.99085161738E+00  0.46107744179E+02  0.46528681600E+02  0.10566000000E+00 0. -1.
        -13    1    4    4    0    0  0.12933167122E+02 -0.10397420001E+01  0.99879619145E+02  0.10071890269E+03  0.10566000000E+00 0.  1.
         14    1    4    4    0    0  0.18420094893E+02 -0.23492871242E+01  0.15336181648E+03  0.15448192710E+03  0.00000000000E+00 0. -1.
<mgrwt>
<rscale>  0 0.82688419E+02</rscale>
<asrwt>0</asrwt>
<pdfrwt beam="1">  1        2 0.65783564E-01 0.82688419E+02</pdfrwt>
<pdfrwt beam="2">  1       -1 0.61501439E-03 0.82688419E+02</pdfrwt>
<totfact> 0.26519719E+05</totfact>
</mgrwt>
</event>
<event>
 8    1  0.1673046E-013  0.7900577E+02  0.7818608E-02  0.1331897E+00
         -1   -1    0    0    0  501 -0.00000000000E+00  0.00000000000E+00  0.15998431280E+02  0.15998432073E+02  0.50400000000E-02 0.  1.
          2   -1    0    0  501    0  0.00000000000E+00 -0.00000000000E+00 -0.97539431510E+02  0.97539431544E+02  0.25500000000E-02 0. -1.
         24    2    1    2    0    0 -0.35527136788E-14  0.00000000000E+00 -0.81541000231E+02  0.11353786362E+03  0.79005770397E+02 0.  0.
         66    2    3    3    0    0 -0.31526608867E+02 -0.23671733019E+02 -0.43739938964E+02  0.58919099372E+02  0.19999998716E+01 0.  0.
        -13    1    3    3    0    0  0.31526608867E+02  0.23671733019E+02 -0.37801061267E+02  0.54618764245E+02  0.10566000000E+00 0.  1.
         13    1    4    4    0    0 -0.75155347766E+01 -0.57601775779E+01 -0.10553573024E+02  0.14179279824E+02  0.10566000000E+00 0. -1.
        -13    1    4    4    0    0 -0.46039465270E+01 -0.26512552752E+01 -0.61269478645E+01  0.81102485984E+01  0.10566000000E+00 0.  1.
        -14    1    4    4    0    0 -0.19407127563E+02 -0.15260300166E+02 -0.27059418075E+02  0.36629570950E+02  0.00000000000E+00 0.  1.
<mgrwt>
<rscale>  0 0.79005770E+02</rscale>
<asrwt>0</asrwt>
<pdfrwt beam="1">  1        2 0.15006066E-01 0.79005770E+02</pdfrwt>
<pdfrwt beam="2">  1       -1 0.24612972E-02 0.79005770E+02</pdfrwt>
<totfact> 0.18202909E+05</totfact>
</mgrwt>
</event>
<event>
 8    1  0.1673046E-013  0.7820147E+02  0.7818608E-02  0.1334234E+00
          2   -1    0    0  501    0  0.00000000000E+00  0.00000000000E+00  0.10601748239E+02  0.10601748546E+02  0.25500000000E-02 0. -1.
         -1   -1    0    0    0  501 -0.00000000000E+00 -0.00000000000E+00 -0.14420899002E+03  0.14420899011E+03  0.50400000000E-02 0.  1.
         24    2    1    2    0    0  0.35527136788E-14  0.35527136788E-14 -0.13360724179E+03  0.15481073866E+03  0.78201468952E+02 0.  0.
         66    2    3    3    0    0  0.31697237360E+02  0.22162981857E+02 -0.55833939041E+02  0.67951021845E+02  0.19999999732E+01 0.  0.
        -13    1    3    3    0    0 -0.31697237360E+02 -0.22162981857E+02 -0.77773302744E+02  0.86859716812E+02  0.10566000000E+00 0.  1.
         13    1    4    4    0    0  0.21468490474E+02  0.14025514245E+02 -0.36807357934E+02  0.44859824957E+02  0.10566000000E+00 0. -1.
        -13    1    4    4    0    0  0.44197637988E+01  0.35918996094E+01 -0.87778987413E+01  0.10464163855E+02  0.10566000000E+00 0.  1.
         14    1    4    4    0    0  0.58089830871E+01  0.45455680022E+01 -0.10248682366E+02  0.12627033033E+02  0.00000000000E+00 0. -1.
<mgrwt>
<rscale>  0 0.78201469E+02</rscale>
<asrwt>0</asrwt>
<pdfrwt beam="1">  1        2 0.16310383E-02 0.78201469E+02</pdfrwt>
<pdfrwt beam="2">  1       -1 0.22185997E-01 0.78201469E+02</pdfrwt>
<totfact> 0.11538526E+05</totfact>
</mgrwt>
</event>
<event>
 8    1  0.1673046E-013  0.8039376E+02  0.7818608E-02  0.1327938E+00
         -1   -1    0    0    0  501 -0.00000000000E+00  0.00000000000E+00  0.18998202021E+01  0.18998268874E+01  0.50400000000E-02 0.  1.
          2   -1    0    0  501    0  0.00000000000E+00 -0.00000000000E+00 -0.85049439566E+03  0.85049439566E+03  0.25500000000E-02 0. -1.
         24    2    1    2    0    0  0.17763568394E-14  0.35527136788E-14 -0.84859457545E+03  0.85239422255E+03  0.80393763080E+02 0.  0.
         66    2    3    3    0    0  0.89724685438E+01  0.15135235054E+02 -0.80746400011E+03  0.80765815294E+03  0.20000003064E+01 0.  0.
        -13    1    3    3    0    0 -0.89724685438E+01 -0.15135235054E+02 -0.41130575340E+02  0.44736069606E+02  0.10566000000E+00 0.  1.
         13    1    4    4    0    0  0.71304139632E+01  0.12429685860E+02 -0.63200205031E+03  0.63216449019E+03  0.10566000000E+00 0. -1.
        -13    1    4    4    0    0  0.11983142445E+01  0.20822953624E+01 -0.13834562138E+03  0.13836652063E+03  0.10566000000E+00 0.  1.
         14    1    4    4    0    0  0.64374033613E+00  0.62325383245E+00 -0.37116328414E+02  0.37127142118E+02  0.00000000000E+00 0. -1.
<mgrwt>
<rscale>  0 0.80393763E+02</rscale>
<asrwt>0</asrwt>
<pdfrwt beam="1">  1        2 0.13084499E+00 0.80393763E+02</pdfrwt>
<pdfrwt beam="2">  1       -1 0.29228122E-03 0.80393763E+02</pdfrwt>
<totfact> 0.34258394E+05</totfact>
</mgrwt>
</event>
<event>
 8    1  0.1673046E-013  0.8000340E+02  0.7818608E-02  0.1329042E+00
         -1   -1    0    0    0  501 -0.00000000000E+00  0.00000000000E+00  0.62354089771E+02  0.62354089975E+02  0.50400000000E-02 0.  1.
          2   -1    0    0  501    0  0.00000000000E+00 -0.00000000000E+00 -0.25662086554E+02  0.25662086681E+02  0.25500000000E-02 0. -1.
         24    2    1    2    0    0  0.35527136788E-14  0.00000000000E+00  0.36692003217E+02  0.88016176655E+02  0.80003401509E+02 0.  0.
         66    2    3    3    0    0 -0.22282965369E+02  0.16701491192E+02 -0.13197292684E+02  0.30881044178E+02  0.20000004227E+01 0.  0.
        -13    1    3    3    0    0  0.22282965369E+02 -0.16701491192E+02  0.49889295901E+02  0.57135132477E+02  0.10566000000E+00 0.  1.
         13    1    4    4    0    0 -0.29240224582E+00  0.44674654491E+00 -0.19204619479E+00  0.57717183341E+00  0.10566000000E+00 0.  1.
        -13    1    4    4    0    0 -0.49612300653E+01  0.39503706424E+01 -0.34989985812E+01  0.72438516744E+01  0.10566000000E+00 0.  1.
         14    1    4    4    0    0 -0.17029333058E+02  0.12304374004E+02 -0.95062479082E+01  0.23060020670E+02  0.00000000000E+00 0. -1.
<mgrwt>
<rscale>  0 0.80003402E+02</rscale>
<asrwt>0</asrwt>
<pdfrwt beam="1">  1        2 0.39480134E-02 0.80003402E+02</pdfrwt>
<pdfrwt beam="2">  1       -1 0.95929368E-02 0.80003402E+02</pdfrwt>
<totfact> 0.13045911E+05</totfact>
</mgrwt>
</event>
<event>
 8    1  0.1673046E-013  0.8158670E+02  0.7818608E-02  0.1324608E+00
         -1   -1    0    0    0  501 -0.00000000000E+00  0.00000000000E+00  0.10252560602E+02  0.10252561841E+02  0.50400000000E-02 0.  1.
          2   -1    0    0  501    0  0.00000000000E+00 -0.00000000000E+00 -0.16231040417E+03  0.16231040419E+03  0.25500000000E-02 0. -1.
         24    2    1    2    0    0  0.00000000000E+00  0.00000000000E+00 -0.15205784357E+03  0.17256296603E+03  0.81586699006E+02 0.  0.
         66    2    3    3    0    0  0.38096146263E+02 -0.78087114919E+01 -0.10196163007E+03  0.10914424556E+03  0.19999992802E+01 0.  0.
        -13    1    3    3    0    0 -0.38096146263E+02  0.78087114919E+01 -0.50096213502E+02  0.63418720474E+02  0.10566000000E+00 0.  1.
         13    1    4    4    0    0  0.16949345019E+02 -0.40115692818E+01 -0.44623445670E+02  0.47902359568E+02  0.10566000000E+00 0. -1.
        -13    1    4    4    0    0  0.20391119412E+02 -0.37340969992E+01 -0.54686030051E+02  0.58483453028E+02  0.10566000000E+00 0.  1.
        -14    1    4    4    0    0  0.75568183235E+00 -0.63045210788E-01 -0.26521543439E+01  0.27584329599E+01  0.00000000000E+00 0.  1.
<mgrwt>
<rscale>  0 0.81586699E+02</rscale>
<asrwt>0</asrwt>
<pdfrwt beam="1">  1        2 0.24970830E-01 0.81586699E+02</pdfrwt>
<pdfrwt beam="2">  1       -1 0.15773172E-02 0.81586699E+02</pdfrwt>
<totfact> 0.19508499E+05</totfact>
</mgrwt>
</event>
<event>
 8    1  0.1673046E-013  0.8262624E+02  0.7818608E-02  0.1321760E+00
         -1   -1    0    0    0  501 -0.00000000000E+00  0.00000000000E+00  0.20224536326E+03  0.20224536332E+03  0.50400000000E-02 0.  1.
          2   -1    0    0  501    0  0.00000000000E+00 -0.00000000000E+00 -0.84391244924E+01  0.84391248777E+01  0.25500000000E-02 0. -1.
         24    2    1    2    0    0  0.00000000000E+00  0.71054273576E-14  0.19380623877E+03  0.21068448820E+03  0.82626239071E+02 0.  0.
         66    2    3    3    0    0 -0.38098732310E+01 -0.30337072652E+02  0.16771132156E+03  0.17048736169E+03  0.20000018940E+01 0.  0.
        -13    1    3    3    0    0  0.38098732310E+01  0.30337072652E+02  0.26094917208E+02  0.40197126505E+02  0.10566000000E+00 0.  1.
         13    1    4    4    0    0 -0.34976741216E+01 -0.26202483366E+02  0.14135819872E+03  0.14380874580E+03  0.10566000000E+00 0. -1.
        -13    1    4    4    0    0 -0.72961897688E-01 -0.18384864411E+01  0.11181485841E+02  0.11332349513E+02  0.10566000000E+00 0.  1.
         14    1    4    4    0    0 -0.23923721170E+00 -0.22961028449E+01  0.15171636993E+02  0.15346266379E+02  0.00000000000E+00 0. -1.
<mgrwt>
<rscale>  0 0.82626239E+02</rscale>
<asrwt>0</asrwt>
<pdfrwt beam="1">  1        2 0.12983269E-02 0.82626239E+02</pdfrwt>
<pdfrwt beam="2">  1       -1 0.31114671E-01 0.82626239E+02</pdfrwt>
<totfact> 0.91425653E+04</totfact>
</mgrwt>
</event>
<event>
 8    1  0.1673046E-013  0.7806816E+02  0.7818608E-02  0.1334625E+00
         -1   -1    0    0    0  501 -0.00000000000E+00  0.00000000000E+00  0.44036370922E+02  0.44036371210E+02  0.50400000000E-02 0.  1.
          2   -1    0    0  501    0  0.00000000000E+00 -0.00000000000E+00 -0.34600018645E+02  0.34600018739E+02  0.25500000000E-02 0. -1.
         24    2    1    2    0    0  0.00000000000E+00  0.00000000000E+00  0.94363522765E+01  0.78636389949E+02  0.78068156633E+02 0.  0.
         66    2    3    3    0    0 -0.35227349762E+02  0.16629391917E+02  0.26689120074E+01  0.39097646183E+02  0.19999997328E+01 0.  0.
        -13    1    3    3    0    0  0.35227349762E+02 -0.16629391917E+02  0.67674402690E+01  0.39538743767E+02  0.10566000000E+00 0.  1.
         13    1    4    4    0    0 -0.22054552353E+02  0.10431021938E+02  0.80483437863E+00  0.24410416231E+02  0.10566000000E+00 0. -1.
        -13    1    4    4    0    0 -0.89045968571E+01  0.39700642120E+01  0.10963008878E+01  0.98115388552E+01  0.10566000000E+00 0.  1.
         14    1    4    4    0    0 -0.42682005520E+01  0.22283057670E+01  0.76777674098E+00  0.48756910964E+01  0.00000000000E+00 0. -1.
<mgrwt>
<rscale>  0 0.78068157E+02</rscale>
<asrwt>0</asrwt>
<pdfrwt beam="1">  1        2 0.53230798E-02 0.78068157E+02</pdfrwt>
<pdfrwt beam="2">  1       -1 0.67748263E-02 0.78068157E+02</pdfrwt>
<totfact> 0.14814519E+05</totfact>
</mgrwt>
</event>
<event>
 8    1  0.1673046E-013  0.7974484E+02  0.7818608E-02  0.1329777E+00
         -1   -1    0    0    0  501 -0.00000000000E+00  0.00000000000E+00  0.27439973801E+02  0.27439974264E+02  0.50400000000E-02 0.  1.
          2   -1    0    0  501    0  0.00000000000E+00 -0.00000000000E+00 -0.57937733935E+02  0.57937733991E+02  0.25500000000E-02 0. -1.
         24    2    1    2    0    0  0.00000000000E+00  0.00000000000E+00 -0.30497760134E+02  0.85377708255E+02  0.79744841173E+02 0.  0.
         66    2    3    3    0    0  0.91862616366E+01 -0.32764786586E+02 -0.37456693500E+02  0.50645064237E+02  0.20000001777E+01 0.  0.
        -13    1    3    3    0    0 -0.91862616366E+01  0.32764786586E+02  0.69589333658E+01  0.34732644018E+02  0.10566000000E+00 0.  1.
         13    1    4    4    0    0  0.60544500855E+00 -0.16282350729E+01 -0.16504120260E+01  0.23984863982E+01  0.10566000000E+00 0. -1.
        -13    1    4    4    0    0  0.90664189766E+00 -0.18774728703E+01 -0.23326969170E+01  0.31304221523E+01  0.10566000000E+00 0.  1.
         14    1    4    4    0    0  0.76741747304E+01 -0.29259078643E+02 -0.33473584557E+02  0.45116155686E+02  0.00000000000E+00 0. -1.
<mgrwt>
<rscale>  0 0.79744841E+02</rscale>
<asrwt>0</asrwt>
<pdfrwt beam="1">  1        2 0.89134975E-02 0.79744841E+02</pdfrwt>
<pdfrwt beam="2">  1       -1 0.42215345E-02 0.79744841E+02</pdfrwt>
<totfact> 0.15576649E+05</totfact>
</mgrwt>
</event>
<event>
 8    1  0.1673046E-013  0.7982798E+02  0.7818608E-02  0.1329540E+00
         -1   -1    0    0    0  501 -0.00000000000E+00  0.00000000000E+00  0.28553212956E+01  0.28553257437E+01  0.50400000000E-02 0.  1.
          2   -1    0    0  501    0  0.00000000000E+00 -0.00000000000E+00 -0.55794962989E+03  0.55794962990E+03  0.25500000000E-02 0. -1.
         24    2    1    2    0    0  0.88817841970E-15  0.00000000000E+00 -0.55509430860E+03  0.56080495564E+03  0.79827982788E+02 0.  0.
         66    2    3    3    0    0 -0.49887253344E+01 -0.35712395302E+02 -0.39753226693E+03  0.39916934479E+03  0.20000018454E+01 0.  0.
        -13    1    3    3    0    0  0.49887253344E+01  0.35712395302E+02 -0.15756204167E+03  0.16163561086E+03  0.10566000000E+00 0.  1.
         13    1    4    4    0    0 -0.29464316632E+01 -0.22934250132E+02 -0.25118790703E+03  0.25224994964E+03  0.10566000000E+00 0. -1.
        -13    1    4    4    0    0 -0.53149020913E-01 -0.31634595645E+01 -0.36818609031E+02  0.36954450831E+02  0.10566000000E+00 0.  1.
        -14    1    4    4    0    0 -0.19891446504E+01 -0.96146856051E+01 -0.10952575086E+03  0.10996494431E+03  0.00000000000E+00 0.  1.
<mgrwt>
<rscale>  0 0.79827983E+02</rscale>
<asrwt>0</asrwt>
<pdfrwt beam="1">  1        2 0.85838318E-01 0.79827983E+02</pdfrwt>
<pdfrwt beam="2">  1       -1 0.43928099E-03 0.79827983E+02</pdfrwt>
<totfact> 0.31674763E+05</totfact>
</mgrwt>
</event>
<event>
 8    1  0.1673046E-013  0.7980512E+02  0.7818608E-02  0.1329605E+00
          2   -1    0    0  501    0  0.00000000000E+00  0.00000000000E+00  0.19367737284E+02  0.19367737452E+02  0.25500000000E-02 0. -1.
         -1   -1    0    0    0  501 -0.00000000000E+00 -0.00000000000E+00 -0.82209625279E+02  0.82209625434E+02  0.50400000000E-02 0.  1.
         24    2    1    2    0    0  0.00000000000E+00  0.17763568394E-14 -0.62841887995E+02  0.10157736289E+03  0.79805123671E+02 0.  0.
         66    2    3    3    0    0 -0.28336691626E+02 -0.85171177985E+01  0.25867230955E+01  0.29769120315E+02  0.20000000150E+01 0.  0.
        -13    1    3    3    0    0  0.28336691626E+02  0.85171177985E+01 -0.65428611090E+02  0.71808242571E+02  0.10566000000E+00 0.  1.
         13    1    4    4    0    0 -0.20239561401E+02 -0.60673425792E+01  0.24851563578E+01  0.21275329794E+02  0.10566000000E+00 0. -1.
        -13    1    4    4    0    0 -0.50300964464E+01 -0.11811744506E+01 -0.95782053424E-01  0.51688859129E+01  0.10566000000E+00 0.  1.
         14    1    4    4    0    0 -0.30670337789E+01 -0.12686007688E+01  0.19734879106E+00  0.33249046086E+01  0.00000000000E+00 0. -1.
<mgrwt>
<rscale>  0 0.79805124E+02</rscale>
<asrwt>0</asrwt>
<pdfrwt beam="1">  1        2 0.29796520E-02 0.79805124E+02</pdfrwt>
<pdfrwt beam="2">  1       -1 0.12647634E-01 0.79805124E+02</pdfrwt>
<totfact> 0.12421936E+05</totfact>
</mgrwt>
</event>
<event>
 8    1  0.1673046E-013  0.7957310E+02  0.7818608E-02  0.1330267E+00
         -1   -1    0    0    0  501 -0.00000000000E+00  0.00000000000E+00  0.16502430501E+01  0.16502507464E+01  0.50400000000E-02 0.  1.
          2   -1    0    0  501    0  0.00000000000E+00 -0.00000000000E+00 -0.95923184396E+03  0.95923184396E+03  0.25500000000E-02 0. -1.
         24    2    1    2    0    0  0.00000000000E+00  0.00000000000E+00 -0.95758160091E+03  0.96088209471E+03  0.79573095534E+02 0.  0.
         66    2    3    3    0    0 -0.53859908494E+01 -0.17819231410E+02 -0.90335738847E+03  0.90355138493E+03  0.19999984044E+01 0.  0.
        -13    1    3    3    0    0  0.53859908494E+01  0.17819231410E+02 -0.54224212434E+02  0.57330709778E+02  0.10566000000E+00 0.  1.
         13    1    4    4    0    0 -0.48958301739E+01 -0.16335642295E+02 -0.84233571172E+03  0.84250832920E+03  0.10566000000E+00 0. -1.
        -13    1    4    4    0    0 -0.48983082838E+00 -0.11798118760E+01 -0.43994711558E+02  0.44013380913E+02  0.10566000000E+00 0. -1.
         14    1    4    4    0    0 -0.32984719706E-03 -0.30377723877E+00 -0.17026965190E+02  0.17029674815E+02  0.00000000000E+00 0. -1.
<mgrwt>
<rscale>  0 0.79573096E+02</rscale>
<asrwt>0</asrwt>
<pdfrwt beam="1">  1        2 0.14757368E+00 0.79573096E+02</pdfrwt>
<pdfrwt beam="2">  1       -1 0.25388491E-03 0.79573096E+02</pdfrwt>
<totfact> 0.35640337E+05</totfact>
</mgrwt>
</event>
<event>
 8    1  0.1673046E-013  0.8000649E+02  0.7818608E-02  0.1329033E+00
          2   -1    0    0  501    0  0.00000000000E+00  0.00000000000E+00  0.35167962625E+02  0.35167962718E+02  0.25500000000E-02 0. -1.
         -1   -1    0    0    0  501 -0.00000000000E+00 -0.00000000000E+00 -0.45503338359E+02  0.45503338638E+02  0.50400000000E-02 0.  1.
         24    2    1    2    0    0  0.00000000000E+00  0.00000000000E+00 -0.10335375734E+02  0.80671301356E+02  0.80006492679E+02 0.  0.
         66    2    3    3    0    0  0.35989553831E+02 -0.10822761486E+02 -0.18917779126E+02  0.42121995744E+02  0.20000018074E+01 0.  0.
        -13    1    3    3    0    0 -0.35989553831E+02  0.10822761486E+02  0.85824033920E+01  0.38549305612E+02  0.10566000000E+00 0.  1.
         13    1    4    4    0    0  0.15932204265E+02 -0.49712157045E+01 -0.77186365792E+01  0.18388491863E+02  0.10566000000E+00 0. -1.
        -13    1    4    4    0    0  0.16652756473E+02 -0.45959393711E+01 -0.88481566215E+01  0.19409739733E+02  0.10566000000E+00 0.  1.
        -14    1    4    4    0    0  0.34045930934E+01 -0.12556064103E+01 -0.23509859250E+01  0.43237641481E+01  0.00000000000E+00 0.  1.
<mgrwt>
<rscale>  0 0.80006493E+02</rscale>
<asrwt>0</asrwt>
<pdfrwt beam="1">  1        2 0.54104558E-02 0.80006493E+02</pdfrwt>
<pdfrwt beam="2">  1       -1 0.70005136E-02 0.80006493E+02</pdfrwt>
<totfact> 0.13884214E+05</totfact>
</mgrwt>
</event>
<event>
 8    1  0.1673046E-013  0.7955890E+02  0.7818608E-02  0.1330308E+00
         -1   -1    0    0    0  501 -0.00000000000E+00  0.00000000000E+00  0.87158773377E+02  0.87158773522E+02  0.50400000000E-02 0.  1.
          2   -1    0    0  501    0  0.00000000000E+00 -0.00000000000E+00 -0.18155423689E+02  0.18155423868E+02  0.25500000000E-02 0. -1.
         24    2    1    2    0    0  0.11102230246E-15 -0.35527136788E-14  0.69003349688E+02  0.10531419739E+03  0.79558895818E+02 0.  0.
         66    2    3    3    0    0 -0.73301721118E+00  0.24042635240E+02 -0.73744293688E+01  0.25238221460E+02  0.19999976032E+01 0.  0.
        -13    1    3    3    0    0  0.73301721118E+00 -0.24042635240E+02  0.76377779057E+02  0.80075975930E+02  0.10566000000E+00 0.  1.
         13    1    4    4    0    0 -0.25869945153E+00  0.15955799664E+02 -0.52580999847E+01  0.16802179853E+02  0.10566000000E+00 0. -1.
        -13    1    4    4    0    0 -0.78169963859E+00  0.65225914578E+01 -0.16288684513E+01  0.67690198787E+01  0.10566000000E+00 0.  1.
         14    1    4    4    0    0  0.30738187894E+00  0.15642441181E+01 -0.48746093277E+00  0.16670217280E+01  0.00000000000E+00 0. -1.
<mgrwt>
<rscale>  0 0.79558896E+02</rscale>
<asrwt>0</asrwt>
<pdfrwt beam="1">  1        2 0.27931421E-02 0.79558896E+02</pdfrwt>
<pdfrwt beam="2">  1       -1 0.13409042E-01 0.79558896E+02</pdfrwt>
<totfact> 0.12368573E+05</totfact>
</mgrwt>
</event>
<event>
 8    1  0.1673046E-013  0.8036383E+02  0.7818608E-02  0.1328022E+00
         -1   -1    0    0    0  501 -0.00000000000E+00  0.00000000000E+00  0.19011787001E+03  0.19011787007E+03  0.50400000000E-02 0.  1.
          2   -1    0    0  501    0  0.00000000000E+00 -0.00000000000E+00 -0.84925545565E+01  0.84925549394E+01  0.25500000000E-02 0. -1.
         24    2    1    2    0    0  0.35527136788E-14 -0.35527136788E-14  0.18162531545E+03  0.19861042501E+03  0.80363833354E+02 0.  0.
         66    2    3    3    0    0  0.22570141400E+02 -0.24112111050E+02  0.34416191726E+02  0.47741798540E+02  0.19999732020E+01 0.  0.
        -13    1    3    3    0    0 -0.22570141400E+02  0.24112111050E+02  0.14720912372E+03  0.15086862647E+03  0.10566000000E+00 0.  1.
         13    1    4    4    0    0  0.38911424520E+01 -0.41656729636E+01  0.63616793995E+01  0.85425961884E+01  0.10566000000E+00 0. -1.
        -13    1    4    4    0    0  0.82082145267E+01 -0.87025236601E+01  0.13460129981E+02  0.18008191662E+02  0.10566000000E+00 0.  1.
         14    1    4    4    0    0  0.10470784421E+02 -0.11243914427E+02  0.14594382345E+02  0.21191010690E+02  0.00000000000E+00 0. -1.
<mgrwt>
<rscale>  0 0.80363833E+02</rscale>
<asrwt>0</asrwt>
<pdfrwt beam="1">  1        2 0.13065468E-02 0.80363833E+02</pdfrwt>
<pdfrwt beam="2">  1       -1 0.29248904E-01 0.80363833E+02</pdfrwt>
<totfact> 0.99958108E+04</totfact>
</mgrwt>
</event>
<event>
 8    1  0.1673046E-013  0.8016926E+02  0.7818608E-02  0.1328572E+00
          2   -1    0    0  501    0  0.00000000000E+00  0.00000000000E+00  0.28069867635E+03  0.28069867636E+03  0.25500000000E-02 0. -1.
         -1   -1    0    0    0  501 -0.00000000000E+00 -0.00000000000E+00 -0.57242069224E+01  0.57242091411E+01  0.50400000000E-02 0.  1.
         24    2    1    2    0    0  0.00000000000E+00  0.17763568394E-14  0.27497446943E+03  0.28642288550E+03  0.80169261582E+02 0.  0.
         66    2    3    3    0    0  0.29778858251E+02 -0.88830895606E+01  0.22789142540E+03  0.23000911167E+03  0.20000005807E+01 0.  0.
        -13    1    3    3    0    0 -0.29778858251E+02  0.88830895606E+01  0.47083044026E+02  0.56413773829E+02  0.10566000000E+00 0.  1.
         13    1    4    4    0    0  0.57277783706E+01 -0.18268709952E+01  0.40095529219E+02  0.40543896336E+02  0.10566000000E+00 0. -1.
        -13    1    4    4    0    0  0.19374120636E+02 -0.58505326228E+01  0.14803259500E+03  0.14940965708E+03  0.10566000000E+00 0.  1.
        -14    1    4    4    0    0  0.46769592439E+01 -0.12056859426E+01  0.39763301182E+02  0.40055558257E+02  0.00000000000E+00 0.  1.
<mgrwt>
<rscale>  0 0.80169262E+02</rscale>
<asrwt>0</asrwt>
<pdfrwt beam="1">  1        2 0.43184421E-01 0.80169262E+02</pdfrwt>
<pdfrwt beam="2">  1       -1 0.88064720E-03 0.80169262E+02</pdfrwt>
<totfact> 0.24749974E+05</totfact>
</mgrwt>
</event>
<event>
 8    1  0.1673046E-013  0.7967009E+02  0.7818608E-02  0.1329990E+00
          2   -1    0    0  501    0  0.00000000000E+00  0.00000000000E+00  0.71656952718E+02  0.71656952763E+02  0.25500000000E-02 0. -1.
         -1   -1    0    0    0  501 -0.00000000000E+00 -0.00000000000E+00 -0.22144825337E+02  0.22144825911E+02  0.50400000000E-02 0.  1.
         24    2    1    2    0    0  0.00000000000E+00  0.22204460493E-15  0.49512127381E+02  0.93801778674E+02  0.79670088017E+02 0.  0.
         66    2    3    3    0    0  0.16014019461E+02 -0.12847895864E+01  0.67656722506E+02  0.69566742057E+02  0.19999991429E+01 0.  0.
        -13    1    3    3    0    0 -0.16014019461E+02  0.12847895864E+01 -0.18144595125E+02  0.24235036617E+02  0.10566000000E+00 0.  1.
         13    1    4    4    0    0  0.96660298452E+01 -0.66473456696E+00  0.40531064423E+02  0.41673161055E+02  0.10566000000E+00 0. -1.
        -13    1    4    4    0    0  0.12673154994E+01 -0.56737675958E+00  0.48611610790E+01  0.50566842925E+01  0.10566000000E+00 0.  1.
         14    1    4    4    0    0  0.50806741160E+01 -0.52678259843E-01  0.22264497004E+02  0.22836896709E+02  0.00000000000E+00 0. -1.
<mgrwt>
<rscale>  0 0.79670088E+02</rscale>
<asrwt>0</asrwt>
<pdfrwt beam="1">  1        2 0.11024147E-01 0.79670088E+02</pdfrwt>
<pdfrwt beam="2">  1       -1 0.34068962E-02 0.79670088E+02</pdfrwt>
<totfact> 0.16421915E+05</totfact>
</mgrwt>
</event>
<event>
 8    1  0.1673046E-013  0.8111102E+02  0.7818608E-02  0.1325928E+00
          2   -1    0    0  501    0  0.00000000000E+00  0.00000000000E+00  0.23123078388E+03  0.23123078390E+03  0.25500000000E-02 0. -1.
         -1   -1    0    0    0  501 -0.00000000000E+00 -0.00000000000E+00 -0.71130206698E+01  0.71130224554E+01  0.50400000000E-02 0.  1.
         24    2    1    2    0    0  0.00000000000E+00  0.00000000000E+00  0.22411776321E+03  0.23834380635E+03  0.81111024151E+02 0.  0.
         66    2    3    3    0    0 -0.30142403693E+02 -0.18015214454E+02  0.17159997978E+03  0.17516753555E+03  0.19999991760E+01 0.  0.
        -13    1    3    3    0    0  0.30142403693E+02  0.18015214454E+02  0.52517783433E+02  0.63176270806E+02  0.10566000000E+00 0.  1.
         13    1    4    4    0    0 -0.26514433027E+01 -0.12209762985E+01  0.15230519917E+02  0.15508089363E+02  0.10566000000E+00 0. -1.
        -13    1    4    4    0    0 -0.14256872709E+02 -0.82512063291E+01  0.77112117914E+02  0.78851954437E+02  0.10566000000E+00 0.  1.
         14    1    4    4    0    0 -0.13234087681E+02 -0.85430318265E+01  0.79257341948E+02  0.80807491746E+02  0.00000000000E+00 0. -1.
<mgrwt>
<rscale>  0 0.81111024E+02</rscale>
<asrwt>0</asrwt>
<pdfrwt beam="1">  1        2 0.35573965E-01 0.81111024E+02</pdfrwt>
<pdfrwt beam="2">  1       -1 0.10943111E-02 0.81111024E+02</pdfrwt>
<totfact> 0.22384690E+05</totfact>
</mgrwt>
</event>
<event>
 8    1  0.1673046E-013  0.7868180E+02  0.7818608E-02  0.1332834E+00
          2   -1    0    0  501    0  0.00000000000E+00  0.00000000000E+00  0.63969931657E+02  0.63969931708E+02  0.25500000000E-02 0. -1.
         -1   -1    0    0    0  501 -0.00000000000E+00 -0.00000000000E+00 -0.24194278403E+02  0.24194278928E+02  0.50400000000E-02 0.  1.
         24    2    1    2    0    0  0.17763568394E-14  0.88817841970E-15  0.39775653254E+02  0.88164210637E+02  0.78681798692E+02 0.  0.
         66    2    3    3    0    0 -0.12612997156E+02 -0.72926644128E+01  0.60817593246E+02  0.62570362662E+02  0.19999959675E+01 0.  0.
        -13    1    3    3    0    0  0.12612997156E+02  0.72926644128E+01 -0.21041939992E+02  0.25593847975E+02  0.10566000000E+00 0.  1.
         13    1    4    4    0    0 -0.95318011478E+00 -0.59878902477E+00  0.32204761182E+01  0.34131702406E+01  0.10566000000E+00 0. -1.
        -13    1    4    4    0    0 -0.39758406799E+01 -0.27496578586E+01  0.19015812397E+02  0.19620912635E+02  0.10566000000E+00 0.  1.
         14    1    4    4    0    0 -0.76839763615E+01 -0.39442175294E+01  0.38581304731E+02  0.39536279786E+02  0.00000000000E+00 0. -1.
<mgrwt>
<rscale>  0 0.78681799E+02</rscale>
<asrwt>0</asrwt>
<pdfrwt beam="1">  1        2 0.98415279E-02 0.78681799E+02</pdfrwt>
<pdfrwt beam="2">  1       -1 0.37221968E-02 0.78681799E+02</pdfrwt>
<totfact> 0.16529100E+05</totfact>
</mgrwt>
</event>
<event>
 8    1  0.1673046E-013  0.8044078E+02  0.7818608E-02  0.1327805E+00
          2   -1    0    0  501    0  0.00000000000E+00  0.00000000000E+00  0.17236205752E+04  0.17236205752E+04  0.25500000000E-02 0. -1.
         -1   -1    0    0    0  501 -0.00000000000E+00 -0.00000000000E+00 -0.93852911555E+00  0.93854264812E+00  0.50400000000E-02 0.  1.
         24    2    1    2    0    0 -0.83266726847E-16  0.00000000000E+00  0.17226820461E+04  0.17245591179E+04  0.80440779819E+02 0.  0.
         66    2    3    3    0    0  0.14331067269E+00  0.20739773373E+02  0.16000405369E+04  0.16001762023E+04  0.19999999745E+01 0.  0.
        -13    1    3    3    0    0 -0.14331067269E+00 -0.20739773373E+02  0.12264150919E+03  0.12438291553E+03  0.10566000000E+00 0.  1.
         13    1    4    4    0    0 -0.17359650454E+00  0.10058441410E+02  0.76651191052E+03  0.76657792983E+03  0.10566000000E+00 0. -1.
        -13    1    4    4    0    0 -0.39469291503E+00  0.70899497338E+01  0.56867581176E+03  0.56872015370E+03  0.10566000000E+00 0. -1.
         14    1    4    4    0    0  0.71160009226E+00  0.35913822291E+01  0.26485281462E+03  0.26487811879E+03  0.00000000000E+00 0. -1.
<mgrwt>
<rscale>  0 0.80440780E+02</rscale>
<asrwt>0</asrwt>
<pdfrwt beam="1">  1        2 0.26516842E+00 0.80440780E+02</pdfrwt>
<pdfrwt beam="2">  1       -1 0.14439230E-03 0.80440780E+02</pdfrwt>
<totfact> 0.30638120E+05</totfact>
</mgrwt>
</event>
<event>
 8    1  0.1673046E-013  0.7987583E+02  0.7818608E-02  0.1329404E+00
          2   -1    0    0  501    0  0.00000000000E+00  0.00000000000E+00  0.20722949713E+02  0.20722949870E+02  0.25500000000E-02 0. -1.
         -1   -1    0    0    0  501 -0.00000000000E+00 -0.00000000000E+00 -0.76969602905E+02  0.76969603070E+02  0.50400000000E-02 0.  1.
         24    2    1    2    0    0  0.00000000000E+00  0.22204460493E-15 -0.56246653192E+02  0.97692552940E+02  0.79875834297E+02 0.  0.
         66    2    3    3    0    0 -0.35843638419E+02  0.10617803130E+01 -0.67064187206E+01  0.36535870655E+02  0.19999999811E+01 0.  0.
        -13    1    3    3    0    0  0.35843638419E+02 -0.10617803130E+01 -0.49540234471E+02  0.61156682285E+02  0.10566000000E+00 0.  1.
         13    1    4    4    0    0 -0.16800515292E+02  0.13517803640E+00 -0.34437573830E+01  0.17150691418E+02  0.10566000000E+00 0. -1.
        -13    1    4    4    0    0 -0.63347712891E+00 -0.14541083145E+00 -0.22480720522E+00  0.69580162250E+00  0.10566000000E+00 0.  1.
         14    1    4    4    0    0 -0.18409645999E+02  0.10720131080E+01 -0.30378541324E+01  0.18689377615E+02  0.00000000000E+00 0. -1.
<mgrwt>
<rscale>  0 0.79875834E+02</rscale>
<asrwt>0</asrwt>
<pdfrwt beam="1">  1        2 0.31881462E-02 0.79875834E+02</pdfrwt>
<pdfrwt beam="2">  1       -1 0.11841477E-01 0.79875834E+02</pdfrwt>
<totfact> 0.12560740E+05</totfact>
</mgrwt>
</event>
<event>
 8    1  0.1673046E-013  0.8833333E+02  0.7818608E-02  0.1306939E+00
         -1   -1    0    0    0  501 -0.00000000000E+00  0.00000000000E+00  0.83448882874E+01  0.83448898094E+01  0.50400000000E-02 0.  1.
          2   -1    0    0  501    0  0.00000000000E+00 -0.00000000000E+00 -0.23375917414E+03  0.23375917415E+03  0.25500000000E-02 0. -1.
         24    2    1    2    0    0  0.00000000000E+00  0.00000000000E+00 -0.22541428585E+03  0.24210406396E+03  0.88333331881E+02 0.  0.
         66    2    3    3    0    0  0.27812231823E+02 -0.17521420843E+02 -0.19352164735E+03  0.19630371482E+03  0.20000075828E+01 0.  0.
        -13    1    3    3    0    0 -0.27812231823E+02  0.17521420843E+02 -0.31892638503E+02  0.45800349147E+02  0.10566000000E+00 0.  1.
         13    1    4    4    0    0  0.19725271231E+02 -0.12255437091E+02 -0.13889308261E+03  0.14082109793E+03  0.10566000000E+00 0. -1.
        -13    1    4    4    0    0  0.66906581811E+01 -0.39272486157E+01 -0.44368420391E+02  0.45041714894E+02  0.10566000000E+00 0. -1.
         14    1    4    4    0    0  0.13963024110E+01 -0.13387351363E+01 -0.10260144353E+02  0.10440901989E+02  0.00000000000E+00 0. -1.
<mgrwt>
<rscale>  0 0.88333332E+02</rscale>
<asrwt>0</asrwt>
<pdfrwt beam="1">  1        2 0.35962945E-01 0.88333332E+02</pdfrwt>
<pdfrwt beam="2">  1       -1 0.12838293E-02 0.88333332E+02</pdfrwt>
<totfact> 0.17929943E+05</totfact>
</mgrwt>
</event>
<event>
 8    1  0.1673046E-013  0.7974856E+02  0.7818608E-02  0.1329767E+00
          2   -1    0    0  501    0  0.00000000000E+00  0.00000000000E+00  0.22220804105E+03  0.22220804107E+03  0.25500000000E-02 0. -1.
         -1   -1    0    0    0  501 -0.00000000000E+00 -0.00000000000E+00 -0.71552671272E+01  0.71552689023E+01  0.50400000000E-02 0.  1.
         24    2    1    2    0    0  0.88817841970E-15  0.00000000000E+00  0.21505277392E+03  0.22936330997E+03  0.79748557273E+02 0.  0.
         66    2    3    3    0    0 -0.74669526050E+01 -0.20302719136E+02  0.20384579304E+03  0.20500015397E+03  0.20000005288E+01 0.  0.
        -13    1    3    3    0    0  0.74669526050E+01  0.20302719136E+02  0.11206980881E+02  0.24363155995E+02  0.10566000000E+00 0.  1.
         13    1    4    4    0    0 -0.16114970540E+01 -0.70614424375E+01  0.67523204672E+02  0.67910641473E+02  0.10566000000E+00 0. -1.
        -13    1    4    4    0    0 -0.32069095654E+01 -0.70095969868E+01  0.72127859161E+02  0.72538665208E+02  0.10566000000E+00 0.  1.
         14    1    4    4    0    0 -0.26485459857E+01 -0.62316797120E+01  0.64194729210E+02  0.64550847292E+02  0.00000000000E+00 0. -1.
<mgrwt>
<rscale>  0 0.79748557E+02</rscale>
<asrwt>0</asrwt>
<pdfrwt beam="1">  1        2 0.34185849E-01 0.79748557E+02</pdfrwt>
<pdfrwt beam="2">  1       -1 0.11008106E-02 0.79748557E+02</pdfrwt>
<totfact> 0.23078328E+05</totfact>
</mgrwt>
</event>
<event>
 8    1  0.1673046E-013  0.8368550E+02  0.7818608E-02  0.1318906E+00
          2   -1    0    0  501    0  0.00000000000E+00  0.00000000000E+00  0.47383725978E+02  0.47383726047E+02  0.25500000000E-02 0. -1.
         -1   -1    0    0    0  501 -0.00000000000E+00 -0.00000000000E+00 -0.36949723251E+02  0.36949723595E+02  0.50400000000E-02 0.  1.
         24    2    1    2    0    0  0.00000000000E+00 -0.35527136788E-14  0.10434002727E+02  0.84333449642E+02  0.83685496447E+02 0.  0.
         66    2    3    3    0    0 -0.15362875370E+02 -0.27557060557E+02  0.32880648044E+02  0.45613008319E+02  0.19999964845E+01 0.  0.
        -13    1    3    3    0    0  0.15362875370E+02  0.27557060557E+02 -0.22446645317E+02  0.38720441322E+02  0.10566000000E+00 0.  1.
         13    1    4    4    0    0 -0.93519118287E+01 -0.15963419501E+02  0.20078910833E+02  0.27303165408E+02  0.10566000000E+00 0. -1.
        -13    1    4    4    0    0 -0.43323527615E+01 -0.74802035594E+01  0.82681074515E+01  0.11962252740E+02  0.10566000000E+00 0.  1.
         14    1    4    4    0    0 -0.16786107795E+01 -0.41134374971E+01  0.45336297592E+01  0.63475901715E+01  0.00000000000E+00 0. -1.
<mgrwt>
<rscale>  0 0.83685496E+02</rscale>
<asrwt>0</asrwt>
<pdfrwt beam="1">  1        2 0.72898040E-02 0.83685496E+02</pdfrwt>
<pdfrwt beam="2">  1       -1 0.56845729E-02 0.83685496E+02</pdfrwt>
<totfact> 0.13047503E+05</totfact>
</mgrwt>
</event>
<event>
 8    1  0.1751312E-013  0.7922758E+02  0.7818608E-02  0.1331258E+00
          2   -1    0    0  501    0  0.00000000000E+00  0.00000000000E+00  0.41933018424E+03  0.41933018425E+03  0.25500000000E-02 0. -1.
         -1   -1    0    0    0  501 -0.00000000000E+00 -0.00000000000E+00 -0.37422818967E+01  0.37422852905E+01  0.50400000000E-02 0.  1.
         24    2    1    2    0    0  0.00000000000E+00  0.00000000000E+00  0.41558790234E+03  0.42307246954E+03  0.79227582994E+02 0.  0.
         66    2    3    3    0    0  0.11730882810E+02 -0.47780865041E+01  0.40821408796E+03  0.40841545672E+03  0.19999899802E+01 0.  0.
        -13    1    3    3    0    0 -0.11730882810E+02  0.47780865041E+01  0.73738143896E+01  0.14657012821E+02  0.10566000000E+00 0.  1.
         13    1    4    4    0    0  0.63458296334E+01 -0.25610924911E+01  0.20566920225E+03  0.20578304271E+03  0.10566000000E+00 0. -1.
        -13    1    4    4    0    0  0.26005695023E+01 -0.13494912233E+01  0.82412428721E+02  0.82464560024E+02  0.10566000000E+00 0.  1.
        -14    1    4    4    0    0  0.27844836739E+01 -0.86750278970E+00  0.12013245698E+03  0.12016785398E+03  0.00000000000E+00 0.  1.
<mgrwt>
<rscale>  0 0.79227583E+02</rscale>
<asrwt>0</asrwt>
<pdfrwt beam="1">  1        2 0.64512268E-01 0.79227583E+02</pdfrwt>
<pdfrwt beam="2">  1       -1 0.57573655E-03 0.79227583E+02</pdfrwt>
<totfact> 0.29456729E+05</totfact>
</mgrwt>
</event>
<event>
 8    1  0.1673046E-013  0.7761564E+02  0.7818608E-02  0.1335957E+00
         -1   -1    0    0    0  501 -0.00000000000E+00  0.00000000000E+00  0.37218098676E+01  0.37218132801E+01  0.50400000000E-02 0.  1.
          2   -1    0    0  501    0  0.00000000000E+00 -0.00000000000E+00 -0.40465428227E+03  0.40465428228E+03  0.25500000000E-02 0. -1.
         24    2    1    2    0    0  0.00000000000E+00  0.00000000000E+00 -0.40093247241E+03  0.40837609556E+03  0.77615642732E+02 0.  0.
         66    2    3    3    0    0 -0.23866522730E+02  0.13985352188E+02 -0.34361561407E+03  0.34473307240E+03  0.19999984169E+01 0.  0.
        -13    1    3    3    0    0  0.23866522730E+02 -0.13985352188E+02 -0.57316858338E+02  0.63643023159E+02  0.10566000000E+00 0.  1.
         13    1    4    4    0    0 -0.11111123573E+02  0.66478080114E+01 -0.17176585057E+03  0.17225321188E+03  0.10566000000E+00 0. -1.
        -13    1    4    4    0    0 -0.97941357678E+01  0.53190277755E+01 -0.13021280111E+03  0.13068895091E+03  0.10566000000E+00 0.  1.
         14    1    4    4    0    0 -0.29612633898E+01  0.20185164011E+01 -0.41636962394E+02  0.41790909618E+02  0.00000000000E+00 0. -1.
<mgrwt>
<rscale>  0 0.77615643E+02</rscale>
<asrwt>0</asrwt>
<pdfrwt beam="1">  1        2 0.62254470E-01 0.77615643E+02</pdfrwt>
<pdfrwt beam="2">  1       -1 0.57258672E-03 0.77615643E+02</pdfrwt>
<totfact> 0.30697139E+05</totfact>
</mgrwt>
</event>
<event>
 8    1  0.1673046E-013  0.8149755E+02  0.7818608E-02  0.1324855E+00
         -1   -1    0    0    0  501 -0.00000000000E+00  0.00000000000E+00  0.37917325436E+02  0.37917325771E+02  0.50400000000E-02 0.  1.
          2   -1    0    0  501    0  0.00000000000E+00 -0.00000000000E+00 -0.43791659090E+02  0.43791659164E+02  0.25500000000E-02 0. -1.
         24    2    1    2    0    0  0.88817841970E-15  0.17763568394E-14 -0.58743336541E+01  0.81708984935E+02  0.81497548572E+02 0.  0.
         66    2    3    3    0    0  0.59024810589E+01 -0.82756717966E+01 -0.42476398347E+02  0.43721508971E+02  0.19999759382E+01 0.  0.
        -13    1    3    3    0    0 -0.59024810589E+01  0.82756717966E+01  0.36602064693E+02  0.37987475965E+02  0.10566000000E+00 0.  1.
         13    1    4    4    0    0  0.20764015971E+01 -0.24173172198E+01 -0.12623608031E+02  0.13020042622E+02  0.10566000000E+00 0. -1.
        -13    1    4    4    0    0  0.77569177596E+00 -0.11436962142E+01 -0.36630616990E+01  0.39164938157E+01  0.10566000000E+00 0.  1.
        -14    1    4    4    0    0  0.30503876859E+01 -0.47146583626E+01 -0.26189728617E+02  0.26784972532E+02  0.00000000000E+00 0.  1.
<mgrwt>
<rscale>  0 0.81497549E+02</rscale>
<asrwt>0</asrwt>
<pdfrwt beam="1">  1        2 0.67371783E-02 0.81497549E+02</pdfrwt>
<pdfrwt beam="2">  1       -1 0.58334347E-02 0.81497549E+02</pdfrwt>
<totfact> 0.13801550E+05</totfact>
</mgrwt>
</event>
<event>
 8    1  0.1673046E-013  0.7912051E+02  0.7818608E-02  0.1331566E+00
         -1   -1    0    0    0  501 -0.00000000000E+00  0.00000000000E+00  0.11231441325E+02  0.11231442455E+02  0.50400000000E-02 0.  1.
          2   -1    0    0  501    0  0.00000000000E+00 -0.00000000000E+00 -0.13934220467E+03  0.13934220470E+03  0.25500000000E-02 0. -1.
         24    2    1    2    0    0 -0.35527136788E-14 -0.71054273576E-14 -0.12811076335E+03  0.15057364715E+03  0.79120512705E+02 0.  0.
         66    2    3    3    0    0 -0.20631071402E+02 -0.33710724021E+02 -0.62236494684E+02  0.73752527287E+02  0.19999973337E+01 0.  0.
        -13    1    3    3    0    0  0.20631071402E+02  0.33710724021E+02 -0.65874268663E+02  0.76821119864E+02  0.10566000000E+00 0.  1.
         13    1    4    4    0    0 -0.11129132517E+02 -0.18659577449E+02 -0.33338147639E+02  0.39792972661E+02  0.10566000000E+00 0. -1.
        -13    1    4    4    0    0 -0.70314152385E+01 -0.10550725469E+02 -0.21334276560E+02  0.24817758330E+02  0.10566000000E+00 0.  1.
        -14    1    4    4    0    0 -0.24705236465E+01 -0.45004211037E+01 -0.75640704852E+01  0.91417962953E+01  0.00000000000E+00 0.  1.
<mgrwt>
<rscale>  0 0.79120513E+02</rscale>
<asrwt>0</asrwt>
<pdfrwt beam="1">  1        2 0.21437261E-01 0.79120513E+02</pdfrwt>
<pdfrwt beam="2">  1       -1 0.17279142E-02 0.79120513E+02</pdfrwt>
<totfact> 0.20148013E+05</totfact>
</mgrwt>
</event>
<event>
 8    1  0.1673046E-013  0.7983657E+02  0.7818608E-02  0.1329516E+00
          2   -1    0    0  501    0  0.00000000000E+00  0.00000000000E+00  0.57660070117E+03  0.57660070118E+03  0.25500000000E-02 0. -1.
         -1   -1    0    0    0  501 -0.00000000000E+00 -0.00000000000E+00 -0.27635554922E+01  0.27635600880E+01  0.50400000000E-02 0.  1.
         24    2    1    2    0    0 -0.35527136788E-14  0.00000000000E+00  0.57383714568E+03  0.57936426126E+03  0.79836567247E+02 0.  0.
         66    2    3    3    0    0 -0.17576799392E+02  0.33968328547E+02  0.36941595251E+03  0.37139593050E+03  0.20000001626E+01 0.  0.
        -13    1    3    3    0    0  0.17576799392E+02 -0.33968328547E+02  0.20442119317E+03  0.20796833076E+03  0.10566000000E+00 0.  1.
         13    1    4    4    0    0 -0.15099720184E+01  0.37058728006E+01  0.35105369778E+02  0.35332869399E+02  0.10566000000E+00 0. -1.
        -13    1    4    4    0    0 -0.23540397224E+01  0.48192283502E+01  0.49774978887E+02  0.50063221552E+02  0.10566000000E+00 0.  1.
         14    1    4    4    0    0 -0.13712787651E+02  0.25443227396E+02  0.28453560385E+03  0.28599983955E+03  0.00000000000E+00 0. -1.
<mgrwt>
<rscale>  0 0.79836567E+02</rscale>
<asrwt>0</asrwt>
<pdfrwt beam="1">  1        2 0.88707745E-01 0.79836567E+02</pdfrwt>
<pdfrwt beam="2">  1       -1 0.42516300E-03 0.79836567E+02</pdfrwt>
<totfact> 0.31972358E+05</totfact>
</mgrwt>
</event>
<event>
 8    1  0.1673046E-013  0.7234935E+02  0.7818608E-02  0.1352281E+00
         -1   -1    0    0    0  501 -0.00000000000E+00  0.00000000000E+00  0.23176374594E+03  0.23176374600E+03  0.50400000000E-02 0.  1.
          2   -1    0    0  501    0  0.00000000000E+00 -0.00000000000E+00 -0.56462980813E+01  0.56462986572E+01  0.25500000000E-02 0. -1.
         24    2    1    2    0    0 -0.35527136788E-14 -0.35527136788E-14  0.22611744786E+03  0.23741004465E+03  0.72349354355E+02 0.  0.
         66    2    3    3    0    0  0.27825329515E+02  0.22508882692E+02  0.96508372133E+02  0.10295030184E+03  0.19999986166E+01 0.  0.
        -13    1    3    3    0    0 -0.27825329515E+02 -0.22508882692E+02  0.12960907573E+03  0.13445974281E+03  0.10566000000E+00 0.  1.
         13    1    4    4    0    0  0.11494883629E+02  0.86665418072E+01  0.36988007482E+02  0.39690869959E+02  0.10566000000E+00 0. -1.
        -13    1    4    4    0    0  0.53735359069E+01  0.45115542371E+01  0.18326151871E+02  0.19623659603E+02  0.10566000000E+00 0.  1.
        -14    1    4    4    0    0  0.10956909978E+02  0.93307866481E+01  0.41194212780E+02  0.43635772278E+02  0.00000000000E+00 0.  1.
<mgrwt>
<rscale>  0 0.72349354E+02</rscale>
<asrwt>0</asrwt>
<pdfrwt beam="1">  1        2 0.86866167E-03 0.72349354E+02</pdfrwt>
<pdfrwt beam="2">  1       -1 0.35655945E-01 0.72349354E+02</pdfrwt>
<totfact> 0.12275533E+05</totfact>
</mgrwt>
</event>
<event>
 8    1  0.1673046E-013  0.7341115E+02  0.7818608E-02  0.1348863E+00
         -1   -1    0    0    0  501 -0.00000000000E+00  0.00000000000E+00  0.18704884052E+02  0.18704884731E+02  0.50400000000E-02 0.  1.
          2   -1    0    0  501    0  0.00000000000E+00 -0.00000000000E+00 -0.72029273104E+02  0.72029273149E+02  0.25500000000E-02 0. -1.
         24    2    1    2    0    0  0.00000000000E+00  0.00000000000E+00 -0.53324389052E+02  0.90734157880E+02  0.73411149959E+02 0.  0.
         66    2    3    3    0    0  0.11835909989E+02 -0.63664796794E+01 -0.68862348075E+02  0.70190054994E+02  0.20000022215E+01 0.  0.
        -13    1    3    3    0    0 -0.11835909989E+02  0.63664796794E+01  0.15537959022E+02  0.20544102886E+02  0.10566000000E+00 0.  1.
         13    1    4    4    0    0  0.22764825449E+01 -0.11603447414E+01 -0.13543470527E+02  0.13782798361E+02  0.10566000000E+00 0. -1.
        -13    1    4    4    0    0  0.96356962100E+01 -0.51428489827E+01 -0.54963562566E+02  0.56038378912E+02  0.10566000000E+00 0.  1.
        -14    1    4    4    0    0 -0.76268766352E-01 -0.63285955356E-01 -0.35531498178E+00  0.36887772113E+00  0.00000000000E+00 0.  1.
<mgrwt>
<rscale>  0 0.73411150E+02</rscale>
<asrwt>0</asrwt>
<pdfrwt beam="1">  1        2 0.11081426E-01 0.73411150E+02</pdfrwt>
<pdfrwt beam="2">  1       -1 0.28776746E-02 0.73411150E+02</pdfrwt>
<totfact> 0.20485920E+05</totfact>
</mgrwt>
</event>
<event>
 8    1  0.1673046E-013  0.7800012E+02  0.7818608E-02  0.1334825E+00
         -1   -1    0    0    0  501 -0.00000000000E+00  0.00000000000E+00  0.71654059538E+02  0.71654059715E+02  0.50400000000E-02 0.  1.
          2   -1    0    0  501    0  0.00000000000E+00 -0.00000000000E+00 -0.21227056421E+02  0.21227056574E+02  0.25500000000E-02 0. -1.
         24    2    1    2    0    0  0.71054273576E-14  0.17763568394E-14  0.50427003117E+02  0.92881116289E+02  0.78000122563E+02 0.  0.
         66    2    3    3    0    0  0.34277041918E+02  0.14066188580E+02  0.10830602161E+02  0.38653269232E+02  0.20000038253E+01 0.  0.
        -13    1    3    3    0    0 -0.34277041918E+02 -0.14066188580E+02  0.39596400955E+02  0.54227847058E+02  0.10566000000E+00 0.  1.
         13    1    4    4    0    0  0.20064717535E+02  0.76149134296E+01  0.62074990926E+01  0.22341083352E+02  0.10566000000E+00 0. -1.
        -13    1    4    4    0    0  0.74456461124E+01  0.36132927818E+01  0.19556170973E+01  0.85046536099E+01  0.10566000000E+00 0.  1.
        -14    1    4    4    0    0  0.67666782706E+01  0.28379823689E+01  0.26674859715E+01  0.78075322703E+01  0.00000000000E+00 0.  1.
<mgrwt>
<rscale>  0 0.78000123E+02</rscale>
<asrwt>0</asrwt>
<pdfrwt beam="1">  1        2 0.32657009E-02 0.78000123E+02</pdfrwt>
<pdfrwt beam="2">  1       -1 0.11023702E-01 0.78000123E+02</pdfrwt>
<totfact> 0.13506793E+05</totfact>
</mgrwt>
</event>
<event>
 8    1  0.1673046E-013  0.7916973E+02  0.7818608E-02  0.1331424E+00
         -1   -1    0    0    0  501 -0.00000000000E+00  0.00000000000E+00  0.40678734785E+01  0.40678766007E+01  0.50400000000E-02 0.  1.
          2   -1    0    0  501    0  0.00000000000E+00 -0.00000000000E+00 -0.38520394564E+03  0.38520394565E+03  0.25500000000E-02 0. -1.
         24    2    1    2    0    0  0.00000000000E+00  0.00000000000E+00 -0.38113607216E+03  0.38927182225E+03  0.79169729660E+02 0.  0.
         66    2    3    3    0    0 -0.19928595639E+02  0.33381175677E+01 -0.35791289917E+03  0.35848840332E+03  0.19999924928E+01 0.  0.
        -13    1    3    3    0    0  0.19928595639E+02 -0.33381175677E+01 -0.23223172987E+02  0.30783418924E+02  0.10566000000E+00 0.  1.
         13    1    4    4    0    0 -0.78174022921E+01  0.13951139047E+01 -0.13804046660E+03  0.13826872280E+03  0.10566000000E+00 0. -1.
        -13    1    4    4    0    0 -0.37390685304E+00  0.22687520219E+00 -0.12664450135E+02  0.12672440173E+02  0.10566000000E+00 0.  1.
        -14    1    4    4    0    0 -0.11737286494E+02  0.17161284608E+01 -0.20720798244E+03  0.20754724035E+03  0.00000000000E+00 0.  1.
<mgrwt>
<rscale>  0 0.79169730E+02</rscale>
<asrwt>0</asrwt>
<pdfrwt beam="1">  1        2 0.59262117E-01 0.79169730E+02</pdfrwt>
<pdfrwt beam="2">  1       -1 0.62582724E-03 0.79169730E+02</pdfrwt>
<totfact> 0.28652248E+05</totfact>
</mgrwt>
</event>
<event>
 8    1  0.1673046E-013  0.8228553E+02  0.7818608E-02  0.1322688E+00
          2   -1    0    0  501    0  0.00000000000E+00  0.00000000000E+00  0.98836714507E+03  0.98836714508E+03  0.25500000000E-02 0. -1.
         -1   -1    0    0    0  501 -0.00000000000E+00 -0.00000000000E+00 -0.17126464991E+01  0.17126539150E+01  0.50400000000E-02 0.  1.
         24    2    1    2    0    0  0.00000000000E+00  0.00000000000E+00  0.98665449858E+03  0.99007979899E+03  0.82285532231E+02 0.  0.
         66    2    3    3    0    0  0.13603619496E+02  0.19229141352E+02  0.89914275687E+03  0.89945345381E+03  0.20000003774E+01 0.  0.
        -13    1    3    3    0    0 -0.13603619496E+02 -0.19229141352E+02  0.87511741704E+02  0.90626345180E+02  0.10566000000E+00 0.  1.
         13    1    4    4    0    0  0.10005698618E+02  0.13903150017E+02  0.64914061387E+03  0.64936658316E+03  0.10566000000E+00 0. -1.
        -13    1    4    4    0    0  0.29138845679E+01  0.39995337410E+01  0.20590124921E+03  0.20596073068E+03  0.10566000000E+00 0.  1.
         14    1    4    4    0    0  0.68403630983E+00  0.13264575938E+01  0.44100893792E+02  0.44126139970E+02  0.00000000000E+00 0. -1.
<mgrwt>
<rscale>  0 0.82285532E+02</rscale>
<asrwt>0</asrwt>
<pdfrwt beam="1">  1        2 0.15205695E+00 0.82285532E+02</pdfrwt>
<pdfrwt beam="2">  1       -1 0.26348384E-03 0.82285532E+02</pdfrwt>
<totfact> 0.32725575E+05</totfact>
</mgrwt>
</event>
<event>
 8    1  0.1673046E-013  0.7824195E+02  0.7818608E-02  0.1334116E+00
         -1   -1    0    0    0  501 -0.00000000000E+00  0.00000000000E+00  0.63917117299E+01  0.63917137169E+01  0.50400000000E-02 0.  1.
          2   -1    0    0  501    0  0.00000000000E+00 -0.00000000000E+00 -0.23944297662E+03  0.23944297664E+03  0.25500000000E-02 0. -1.
         24    2    1    2    0    0  0.00000000000E+00  0.00000000000E+00 -0.23305126489E+03  0.24583469035E+03  0.78241951106E+02 0.  0.
         66    2    3    3    0    0  0.32507633779E+02  0.33341530794E+01 -0.18403222129E+03  0.18692169832E+03  0.19999997153E+01 0.  0.
        -13    1    3    3    0    0 -0.32507633779E+02 -0.33341530794E+01 -0.49019043604E+02  0.58912992036E+02  0.10566000000E+00 0.  1.
         13    1    4    4    0    0  0.16019570569E+02  0.98817331671E+00 -0.92893544752E+02  0.94269957825E+02  0.10566000000E+00 0. -1.
        -13    1    4    4    0    0  0.32025918773E+01  0.21468688331E+00 -0.16386209410E+02  0.16697955205E+02  0.10566000000E+00 0.  1.
         14    1    4    4    0    0  0.13285471333E+02  0.21312928794E+01 -0.74752467128E+02  0.75953785288E+02  0.00000000000E+00 0. -1.
<mgrwt>
<rscale>  0 0.78241951E+02</rscale>
<asrwt>0</asrwt>
<pdfrwt beam="1">  1        2 0.36837374E-01 0.78241951E+02</pdfrwt>
<pdfrwt beam="2">  1       -1 0.98334061E-03 0.78241951E+02</pdfrwt>
<totfact> 0.24916304E+05</totfact>
</mgrwt>
</event>
<event>
 8    1  0.1673046E-013  0.7860071E+02  0.7818608E-02  0.1333070E+00
          2   -1    0    0  501    0  0.00000000000E+00  0.00000000000E+00  0.21235383133E+03  0.21235383135E+03  0.25500000000E-02 0. -1.
         -1   -1    0    0    0  501 -0.00000000000E+00 -0.00000000000E+00 -0.72733216842E+01  0.72733234304E+01  0.50400000000E-02 0.  1.
         24    2    1    2    0    0  0.00000000000E+00  0.00000000000E+00  0.20508050965E+03  0.21962715478E+03  0.78600710419E+02 0.  0.
         66    2    3    3    0    0  0.33086293040E+02  0.16887652872E+02  0.13823869470E+03  0.14315667030E+03  0.19999830964E+01 0.  0.
        -13    1    3    3    0    0 -0.33086293040E+02 -0.16887652872E+02  0.66841814946E+02  0.76470484476E+02  0.10566000000E+00 0.  1.
         13    1    4    4    0    0  0.19631485373E+02  0.10376332892E+02  0.80378876390E+02  0.83389678234E+02  0.10566000000E+00 0. -1.
        -13    1    4    4    0    0  0.19805270148E+01  0.12666780872E+01  0.98476670562E+01  0.10124952895E+02  0.10566000000E+00 0.  1.
         14    1    4    4    0    0  0.11474280652E+02  0.52446418937E+01  0.48012151257E+02  0.49642039175E+02  0.00000000000E+00 0. -1.
<mgrwt>
<rscale>  0 0.78600710E+02</rscale>
<asrwt>0</asrwt>
<pdfrwt beam="1">  1        2 0.32669819E-01 0.78600710E+02</pdfrwt>
<pdfrwt beam="2">  1       -1 0.11189728E-02 0.78600710E+02</pdfrwt>
<totfact> 0.23596527E+05</totfact>
</mgrwt>
</event>
<event>
 8    1  0.1673046E-013  0.7923019E+02  0.7818608E-02  0.1331250E+00
         -1   -1    0    0    0  501 -0.00000000000E+00  0.00000000000E+00  0.62816682668E+01  0.62816702887E+01  0.50400000000E-02 0.  1.
          2   -1    0    0  501    0  0.00000000000E+00 -0.00000000000E+00 -0.24983100362E+03  0.24983100363E+03  0.25500000000E-02 0. -1.
         24    2    1    2    0    0  0.00000000000E+00  0.00000000000E+00 -0.24354933535E+03  0.25611267392E+03  0.79230189904E+02 0.  0.
         66    2    3    3    0    0  0.33687309425E+02  0.15207487735E+02 -0.75994957866E+02  0.84530090078E+02  0.20000019857E+01 0.  0.
        -13    1    3    3    0    0 -0.33687309425E+02 -0.15207487735E+02 -0.16755437748E+03  0.17158258384E+03  0.10566000000E+00 0.  1.
         13    1    4    4    0    0  0.15846258009E+02  0.77671249131E+01 -0.36055436527E+02  0.40142717764E+02  0.10566000000E+00 0.  1.
        -13    1    4    4    0    0  0.16144254670E+02  0.69810872568E+01 -0.35701785581E+02  0.39799512508E+02  0.10566000000E+00 0. -1.
        -14    1    4    4    0    0  0.16967967451E+01  0.45927556526E+00 -0.42377357582E+01  0.45878598055E+01  0.00000000000E+00 0.  1.
<mgrwt>
<rscale>  0 0.79230190E+02</rscale>
<asrwt>0</asrwt>
<pdfrwt beam="1">  1        2 0.38435531E-01 0.79230190E+02</pdfrwt>
<pdfrwt beam="2">  1       -1 0.96641086E-03 0.79230190E+02</pdfrwt>
<totfact> 0.24476656E+05</totfact>
</mgrwt>
</event>
<event>
 8    1  0.1673046E-013  0.7258174E+02  0.7818608E-02  0.1351527E+00
          2   -1    0    0  501    0  0.00000000000E+00  0.00000000000E+00  0.10614787855E+03  0.10614787858E+03  0.25500000000E-02 0. -1.
         -1   -1    0    0    0  501 -0.00000000000E+00 -0.00000000000E+00 -0.12407476809E+02  0.12407477833E+02  0.50400000000E-02 0.  1.
         24    2    1    2    0    0  0.00000000000E+00  0.17763568394E-14  0.93740401742E+02  0.11855535642E+03  0.72581744371E+02 0.  0.
         66    2    3    3    0    0 -0.33793376305E+02  0.13036651414E+02  0.49770446951E+02  0.61587693214E+02  0.20000008995E+01 0.  0.
        -13    1    3    3    0    0  0.33793376305E+02 -0.13036651414E+02  0.43969954791E+02  0.56967663201E+02  0.10566000000E+00 0.  1.
         13    1    4    4    0    0 -0.20123656219E+02  0.76787711264E+01  0.30331548893E+02  0.37201331803E+02  0.10566000000E+00 0.  1.
        -13    1    4    4    0    0 -0.81324349225E+01  0.26070824447E+01  0.11433687061E+02  0.14271430919E+02  0.10566000000E+00 0. -1.
        -14    1    4    4    0    0 -0.55372851635E+01  0.27507978426E+01  0.80052109973E+01  0.10114930492E+02  0.00000000000E+00 0.  1.
<mgrwt>
<rscale>  0 0.72581744E+02</rscale>
<asrwt>0</asrwt>
<pdfrwt beam="1">  1        2 0.16330443E-01 0.72581744E+02</pdfrwt>
<pdfrwt beam="2">  1       -1 0.19088427E-02 0.72581744E+02</pdfrwt>
<totfact> 0.23348314E+05</totfact>
</mgrwt>
</event>
<event>
 8    1  0.1673046E-013  0.7849955E+02  0.7818608E-02  0.1333364E+00
          2   -1    0    0  501    0  0.00000000000E+00  0.00000000000E+00  0.60872548004E+03  0.60872548005E+03  0.25500000000E-02 0. -1.
         -1   -1    0    0    0  501 -0.00000000000E+00 -0.00000000000E+00 -0.25307687200E+01  0.25307737385E+01  0.50400000000E-02 0.  1.
         24    2    1    2    0    0 -0.71054273576E-14  0.00000000000E+00  0.60619471132E+03  0.61125625379E+03  0.78499552595E+02 0.  0.
         66    2    3    3    0    0  0.36215028788E+02  0.19196843302E+01  0.41965959704E+03  0.42122843077E+03  0.19999996136E+01 0.  0.
        -13    1    3    3    0    0 -0.36215028788E+02 -0.19196843302E+01  0.18653511428E+03  0.19002782302E+03  0.10566000000E+00 0.  1.
         13    1    4    4    0    0  0.21745344968E+02  0.18786739907E+01  0.25205453815E+03  0.25299780791E+03  0.10566000000E+00 0. -1.
        -13    1    4    4    0    0  0.38262133721E+00 -0.30019107115E-02  0.57463074936E+01  0.57600019050E+01  0.10566000000E+00 0. -1.
        -14    1    4    4    0    0  0.14087062482E+02  0.44012250214E-01  0.16185875140E+03  0.16247062095E+03  0.00000000000E+00 0.  1.
<mgrwt>
<rscale>  0 0.78499553E+02</rscale>
<asrwt>0</asrwt>
<pdfrwt beam="1">  1        2 0.93650043E-01 0.78499553E+02</pdfrwt>
<pdfrwt beam="2">  1       -1 0.38934955E-03 0.78499553E+02</pdfrwt>
<totfact> 0.33921158E+05</totfact>
</mgrwt>
</event>
<event>
 8    1  0.1673046E-013  0.8056224E+02  0.7818608E-02  0.1327463E+00
         -1   -1    0    0    0  501 -0.00000000000E+00  0.00000000000E+00  0.15362189358E+01  0.15362272034E+01  0.50400000000E-02 0.  1.
          2   -1    0    0  501    0  0.00000000000E+00 -0.00000000000E+00 -0.10562063025E+04  0.10562063025E+04  0.25500000000E-02 0. -1.
         24    2    1    2    0    0 -0.35527136788E-14 -0.88817841970E-15 -0.10546700835E+04  0.10577425297E+04  0.80562236714E+02 0.  0.
         66    2    3    3    0    0 -0.24223974278E+02 -0.72226339130E+01 -0.93901233101E+03  0.93935463226E+03  0.19999996746E+01 0.  0.
        -13    1    3    3    0    0  0.24223974278E+02  0.72226339130E+01 -0.11565775251E+03  0.11838789740E+03  0.10566000000E+00 0.  1.
         13    1    4    4    0    0 -0.17633672478E+02 -0.51768958129E+01 -0.67945883097E+03  0.67970733467E+03  0.10566000000E+00 0. -1.
        -13    1    4    4    0    0 -0.46304961664E+01 -0.18740424658E+01 -0.17839184598E+03  0.17846180378E+03  0.10566000000E+00 0.  1.
         14    1    4    4    0    0 -0.19598056332E+01 -0.17169563429E+00 -0.81161654057E+02  0.81185493820E+02  0.00000000000E+00 0. -1.
<mgrwt>
<rscale>  0 0.80562237E+02</rscale>
<asrwt>0</asrwt>
<pdfrwt beam="1">  1        2 0.16249270E+00 0.80562237E+02</pdfrwt>
<pdfrwt beam="2">  1       -1 0.23634286E-03 0.80562237E+02</pdfrwt>
<totfact> 0.34637620E+05</totfact>
</mgrwt>
</event>
<event>
 8    1  0.1673046E-013  0.8065354E+02  0.7818608E-02  0.1327207E+00
          2   -1    0    0  501    0  0.00000000000E+00  0.00000000000E+00  0.16882097359E+02  0.16882097551E+02  0.25500000000E-02 0. -1.
         -1   -1    0    0    0  501 -0.00000000000E+00 -0.00000000000E+00 -0.96329764660E+02  0.96329764792E+02  0.50400000000E-02 0.  1.
         24    2    1    2    0    0  0.00000000000E+00  0.00000000000E+00 -0.79447667302E+02  0.11321186234E+03  0.80653542610E+02 0.  0.
         66    2    3    3    0    0  0.98946649528E+01 -0.35767120886E+02 -0.17685280100E+02  0.41157750955E+02  0.20000001153E+01 0.  0.
        -13    1    3    3    0    0 -0.98946649528E+01  0.35767120886E+02 -0.61762387202E+02  0.72054111388E+02  0.10566000000E+00 0.  1.
         13    1    4    4    0    0  0.81051166600E+01 -0.26522355183E+02 -0.12746056910E+02  0.30522145588E+02  0.10566000000E+00 0. -1.
        -13    1    4    4    0    0  0.75761113927E+00 -0.35539568087E+01 -0.18746227333E+01  0.40902271409E+01  0.10566000000E+00 0. -1.
         14    1    4    4    0    0  0.10319371536E+01 -0.56908088948E+01 -0.30646004563E+01  0.65453782261E+01  0.00000000000E+00 0. -1.
<mgrwt>
<rscale>  0 0.80653543E+02</rscale>
<asrwt>0</asrwt>
<pdfrwt beam="1">  1        2 0.25972458E-02 0.80653543E+02</pdfrwt>
<pdfrwt beam="2">  1       -1 0.14819964E-01 0.80653543E+02</pdfrwt>
<totfact> 0.11708336E+05</totfact>
</mgrwt>
</event>
<event>
 8    1  0.1673046E-013  0.7980685E+02  0.7818608E-02  0.1329600E+00
          2   -1    0    0  501    0  0.00000000000E+00  0.00000000000E+00  0.26251406923E+03  0.26251406924E+03  0.25500000000E-02 0. -1.
         -1   -1    0    0    0  501 -0.00000000000E+00 -0.00000000000E+00 -0.60655154100E+01  0.60655175039E+01  0.50400000000E-02 0.  1.
         24    2    1    2    0    0  0.71054273576E-14  0.00000000000E+00  0.25644855382E+03  0.26857958675E+03  0.79806852215E+02 0.  0.
         66    2    3    3    0    0 -0.39540915543E+02  0.49007699533E+01  0.12269650624E+03  0.12901912334E+03  0.19999994648E+01 0.  0.
        -13    1    3    3    0    0  0.39540915543E+02 -0.49007699533E+01  0.13375204758E+03  0.13956046340E+03  0.10566000000E+00 0.  1.
         13    1    4    4    0    0 -0.46212012012E+01  0.39128399677E+00  0.15903718934E+02  0.16566473483E+02  0.10566000000E+00 0. -1.
        -13    1    4    4    0    0 -0.35006221512E+01  0.46371395167E+00  0.11741454829E+02  0.12261415564E+02  0.10566000000E+00 0.  1.
         14    1    4    4    0    0 -0.31419092190E+02  0.40457720049E+01  0.95051332474E+02  0.10019123430E+03  0.00000000000E+00 0. -1.
<mgrwt>
<rscale>  0 0.79806852E+02</rscale>
<asrwt>0</asrwt>
<pdfrwt beam="1">  1        2 0.40386762E-01 0.79806852E+02</pdfrwt>
<pdfrwt beam="2">  1       -1 0.93315680E-03 0.79806852E+02</pdfrwt>
<totfact> 0.24446279E+05</totfact>
</mgrwt>
</event>
<event>
 8    1  0.1673046E-013  0.8218576E+02  0.7818608E-02  0.1322961E+00
          2   -1    0    0  501    0  0.00000000000E+00  0.00000000000E+00  0.94914679574E+02  0.94914679608E+02  0.25500000000E-02 0. -1.
         -1   -1    0    0    0  501 -0.00000000000E+00 -0.00000000000E+00 -0.17790977714E+02  0.17790978428E+02  0.50400000000E-02 0.  1.
         24    2    1    2    0    0 -0.71054273576E-14 -0.88817841970E-15  0.77123701860E+02  0.11270565804E+03  0.82185764976E+02 0.  0.
         66    2    3    3    0    0 -0.36870179415E+02 -0.47904544100E+01  0.62505250568E+02  0.72754827435E+02  0.19999957169E+01 0.  0.
        -13    1    3    3    0    0  0.36870179415E+02  0.47904544100E+01  0.14618451292E+02  0.39950830602E+02  0.10566000000E+00 0.  1.
         13    1    4    4    0    0 -0.85131234082E+01 -0.11979115897E+01  0.15332933118E+02  0.17578915336E+02  0.10566000000E+00 0. -1.
        -13    1    4    4    0    0 -0.48684813023E+01 -0.11480659969E+01  0.85147851003E+01  0.98758743949E+01  0.10566000000E+00 0.  1.
         14    1    4    4    0    0 -0.23488574705E+02 -0.24444768233E+01  0.38657532350E+02  0.45300037704E+02  0.00000000000E+00 0. -1.
<mgrwt>
<rscale>  0 0.82185765E+02</rscale>
<asrwt>0</asrwt>
<pdfrwt beam="1">  1        2 0.14602258E-01 0.82185765E+02</pdfrwt>
<pdfrwt beam="2">  1       -1 0.27370736E-02 0.82185765E+02</pdfrwt>
<totfact> 0.16250639E+05</totfact>
</mgrwt>
</event>
<event>
 8    1  0.1673046E-013  0.7946992E+02  0.7818608E-02  0.1330562E+00
          2   -1    0    0  501    0  0.00000000000E+00  0.00000000000E+00  0.45326555449E+02  0.45326555521E+02  0.25500000000E-02 0. -1.
         -1   -1    0    0    0  501 -0.00000000000E+00 -0.00000000000E+00 -0.34833159257E+02  0.34833159622E+02  0.50400000000E-02 0.  1.
         24    2    1    2    0    0  0.35527136788E-14  0.00000000000E+00  0.10493396192E+02  0.80159715143E+02  0.79469922412E+02 0.  0.
         66    2    3    3    0    0 -0.23634700236E+02  0.61036863102E+01  0.36842925660E+02  0.44240877341E+02  0.20000037334E+01 0.  0.
        -13    1    3    3    0    0  0.23634700236E+02 -0.61036863102E+01 -0.26349529468E+02  0.35918837802E+02  0.10566000000E+00 0.  1.
         13    1    4    4    0    0 -0.10391834039E+02  0.26614989861E+01  0.17042211373E+02  0.20137574930E+02  0.10566000000E+00 0. -1.
        -13    1    4    4    0    0 -0.19239042563E+01  0.66502176110E-01  0.29989111001E+01  0.35651734809E+01  0.10566000000E+00 0.  1.
        -14    1    4    4    0    0 -0.11318961941E+02  0.33756851479E+01  0.16801803186E+02  0.20538128930E+02  0.00000000000E+00 0.  1.
<mgrwt>
<rscale>  0 0.79469922E+02</rscale>
<asrwt>0</asrwt>
<pdfrwt beam="1">  1        2 0.69733162E-02 0.79469922E+02</pdfrwt>
<pdfrwt beam="2">  1       -1 0.53589476E-02 0.79469922E+02</pdfrwt>
<totfact> 0.14901399E+05</totfact>
</mgrwt>
</event>
<event>
 8    1  0.1673046E-013  0.7998277E+02  0.7818608E-02  0.1329100E+00
          2   -1    0    0  501    0  0.00000000000E+00  0.00000000000E+00  0.16578843369E+03  0.16578843371E+03  0.25500000000E-02 0. -1.
         -1   -1    0    0    0  501 -0.00000000000E+00 -0.00000000000E+00 -0.96466959458E+01  0.96466972624E+01  0.50400000000E-02 0.  1.
         24    2    1    2    0    0 -0.71054273576E-14  0.17763568394E-14  0.15614173775E+03  0.17543513098E+03  0.79982766354E+02 0.  0.
         66    2    3    3    0    0 -0.35585851147E+02  0.10002201596E+02  0.11144994646E+03  0.11743716367E+03  0.20000017882E+01 0.  0.
        -13    1    3    3    0    0  0.35585851147E+02 -0.10002201596E+02  0.44691791289E+02  0.57997967303E+02  0.10566000000E+00 0.  1.
         13    1    4    4    0    0 -0.20947354211E+02  0.55430249961E+01  0.62799949629E+02  0.66433136400E+02  0.10566000000E+00 0. -1.
        -13    1    4    4    0    0 -0.76444262499E+01  0.22295643639E+01  0.24313302552E+02  0.25584293130E+02  0.10566000000E+00 0.  1.
        -14    1    4    4    0    0 -0.69940706865E+01  0.22296122360E+01  0.24336694279E+02  0.25419734144E+02  0.00000000000E+00 0.  1.
<mgrwt>
<rscale>  0 0.79982766E+02</rscale>
<asrwt>0</asrwt>
<pdfrwt beam="1">  1        2 0.25505916E-01 0.79982766E+02</pdfrwt>
<pdfrwt beam="2">  1       -1 0.14841070E-02 0.79982766E+02</pdfrwt>
<totfact> 0.20707820E+05</totfact>
</mgrwt>
</event>
<event>
 8    1  0.1673046E-013  0.7701389E+02  0.7818608E-02  0.1337746E+00
          2   -1    0    0  501    0  0.00000000000E+00  0.00000000000E+00  0.10921377284E+03  0.10921377287E+03  0.25500000000E-02 0. -1.
         -1   -1    0    0    0  501 -0.00000000000E+00 -0.00000000000E+00 -0.13576903139E+02  0.13576904074E+02  0.50400000000E-02 0.  1.
         24    2    1    2    0    0  0.00000000000E+00  0.00000000000E+00  0.95636869706E+02  0.12279067695E+03  0.77013891594E+02 0.  0.
         66    2    3    3    0    0  0.22526393116E+02 -0.11182886308E+02  0.94287911369E+02  0.97604843915E+02  0.19999980630E+01 0.  0.
        -13    1    3    3    0    0 -0.22526393116E+02  0.11182886308E+02  0.13489583360E+01  0.25185833034E+02  0.10566000000E+00 0.  1.
         13    1    4    4    0    0  0.58187001396E+01 -0.31200663115E+01  0.22962577952E+02  0.23893162941E+02  0.10566000000E+00 0. -1.
        -13    1    4    4    0    0  0.21751605154E+01 -0.61111674876E+00  0.95175577828E+01  0.97826303790E+01  0.10566000000E+00 0.  1.
         14    1    4    4    0    0  0.14532532461E+02 -0.74517032475E+01  0.61807775635E+02  0.63929050594E+02  0.00000000000E+00 0. -1.
<mgrwt>
<rscale>  0 0.77013892E+02</rscale>
<asrwt>0</asrwt>
<pdfrwt beam="1">  1        2 0.16802120E-01 0.77013892E+02</pdfrwt>
<pdfrwt beam="2">  1       -1 0.20887543E-02 0.77013892E+02</pdfrwt>
<totfact> 0.20116855E+05</totfact>
</mgrwt>
</event>
<event>
 8    1  0.1673046E-013  0.8014934E+02  0.7818608E-02  0.1328628E+00
          2   -1    0    0  501    0  0.00000000000E+00  0.00000000000E+00  0.40441200295E+03  0.40441200295E+03  0.25500000000E-02 0. -1.
         -1   -1    0    0    0  501 -0.00000000000E+00 -0.00000000000E+00 -0.39711444654E+01  0.39711476636E+01  0.50400000000E-02 0.  1.
         24    2    1    2    0    0  0.11102230246E-15  0.00000000000E+00  0.40044085848E+03  0.40838315062E+03  0.80149339160E+02 0.  0.
         66    2    3    3    0    0  0.57638017550E+00 -0.21669100185E+02  0.37193477308E+03  0.37257127848E+03  0.20000017996E+01 0.  0.
        -13    1    3    3    0    0 -0.57638017550E+00  0.21669100185E+02  0.28506085402E+02  0.35811872137E+02  0.10566000000E+00 0.  1.
         13    1    4    4    0    0  0.57791410329E+00 -0.18728885316E+02  0.33013698833E+03  0.33066833437E+03  0.10566000000E+00 0. -1.
        -13    1    4    4    0    0  0.14856321887E+00 -0.23601446345E+01  0.33057504769E+02  0.33142150493E+02  0.10566000000E+00 0.  1.
        -14    1    4    4    0    0 -0.15009714665E+00 -0.58007023442E+00  0.87402799837E+01  0.87607936183E+01  0.00000000000E+00 0.  1.
<mgrwt>
<rscale>  0 0.80149339E+02</rscale>
<asrwt>0</asrwt>
<pdfrwt beam="1">  1        2 0.62217203E-01 0.80149339E+02</pdfrwt>
<pdfrwt beam="2">  1       -1 0.61094582E-03 0.80149339E+02</pdfrwt>
<totfact> 0.28224151E+05</totfact>
</mgrwt>
</event>
<event>
 8    1  0.1673046E-013  0.7983492E+02  0.7818608E-02  0.1329521E+00
          2   -1    0    0  501    0  0.00000000000E+00  0.00000000000E+00  0.58586614109E+02  0.58586614165E+02  0.25500000000E-02 0. -1.
         -1   -1    0    0    0  501 -0.00000000000E+00 -0.00000000000E+00 -0.27197397301E+02  0.27197397768E+02  0.50400000000E-02 0.  1.
         24    2    1    2    0    0  0.00000000000E+00 -0.35527136788E-14  0.31389216808E+02  0.85784011933E+02  0.79834915742E+02 0.  0.
         66    2    3    3    0    0  0.15559009185E+01  0.31050678713E+02 -0.11154917253E+02  0.33090748766E+02  0.19999997005E+01 0.  0.
        -13    1    3    3    0    0 -0.15559009185E+01 -0.31050678713E+02  0.42544134061E+02  0.52693263167E+02  0.10566000000E+00 0.  1.
         13    1    4    4    0    0  0.23396930313E+00  0.20640737060E+02 -0.74354266421E+01  0.21940635847E+02  0.10566000000E+00 0. -1.
        -13    1    4    4    0    0  0.43027007197E+00  0.40188343394E+01 -0.17262180182E+01  0.43962659683E+01  0.10566000000E+00 0.  1.
         14    1    4    4    0    0  0.89166154336E+00  0.63911073134E+01 -0.19932725922E+01  0.67538469502E+01  0.00000000000E+00 0. -1.
<mgrwt>
<rscale>  0 0.79834916E+02</rscale>
<asrwt>0</asrwt>
<pdfrwt beam="1">  1        2 0.90133253E-02 0.79834916E+02</pdfrwt>
<pdfrwt beam="2">  1       -1 0.41842150E-02 0.79834916E+02</pdfrwt>
<totfact> 0.15568394E+05</totfact>
</mgrwt>
</event>
<event>
 8    1  0.1673046E-013  0.8407363E+02  0.7818608E-02  0.1317873E+00
          2   -1    0    0  501    0  0.00000000000E+00  0.00000000000E+00  0.29794134257E+03  0.29794134258E+03  0.25500000000E-02 0. -1.
         -1   -1    0    0    0  501 -0.00000000000E+00 -0.00000000000E+00 -0.59310120112E+01  0.59310141526E+01  0.50400000000E-02 0.  1.
         24    2    1    2    0    0  0.00000000000E+00  0.00000000000E+00  0.29201033056E+03  0.30387235674E+03  0.84073634594E+02 0.  0.
         66    2    3    3    0    0 -0.32097830837E+02  0.21558029825E+01  0.24375360148E+03  0.24587544909E+03  0.19999998160E+01 0.  0.
        -13    1    3    3    0    0  0.32097830837E+02 -0.21558029825E+01  0.48256729078E+02  0.57996907644E+02  0.10566000000E+00 0.  1.
         13    1    4    4    0    0 -0.98174434467E+01  0.50260573946E+00  0.70653951175E+02  0.71334611438E+02  0.10566000000E+00 0. -1.
        -13    1    4    4    0    0 -0.10269481931E+02  0.12521043553E+00  0.81262637472E+02  0.81909128610E+02  0.10566000000E+00 0.  1.
         14    1    4    4    0    0 -0.12010905459E+02  0.15279868075E+01  0.91837012837E+02  0.92631709044E+02  0.00000000000E+00 0. -1.
<mgrwt>
<rscale>  0 0.84073635E+02</rscale>
<asrwt>0</asrwt>
<pdfrwt beam="1">  1        2 0.45837129E-01 0.84073635E+02</pdfrwt>
<pdfrwt beam="2">  1       -1 0.91246356E-03 0.84073635E+02</pdfrwt>
<totfact> 0.22318599E+05</totfact>
</mgrwt>
</event>
<event>
 8    1  0.1673046E-013  0.8061574E+02  0.7818608E-02  0.1327313E+00
         -1   -1    0    0    0  501 -0.00000000000E+00  0.00000000000E+00  0.12162254786E+02  0.12162255830E+02  0.50400000000E-02 0.  1.
          2   -1    0    0  501    0  0.00000000000E+00 -0.00000000000E+00 -0.13358742904E+03  0.13358742906E+03  0.25500000000E-02 0. -1.
         24    2    1    2    0    0  0.35527136788E-14  0.35527136788E-14 -0.12142517425E+03  0.14574968489E+03  0.80615741044E+02 0.  0.
         66    2    3    3    0    0  0.19185665074E+02  0.16393211960E+02 -0.11751770968E+03  0.12021330719E+03  0.19999989038E+01 0.  0.
        -13    1    3    3    0    0 -0.19185665074E+02 -0.16393211960E+02 -0.39074645777E+01  0.25536377702E+02  0.10566000000E+00 0.  1.
         13    1    4    4    0    0  0.99381657094E+01  0.77372667270E+01 -0.59163729695E+02  0.60489590092E+02  0.10566000000E+00 0. -1.
        -13    1    4    4    0    0  0.55338264671E+01  0.48424891020E+01 -0.31475014851E+02  0.32322757617E+02  0.10566000000E+00 0.  1.
         14    1    4    4    0    0  0.37136728973E+01  0.38134561315E+01 -0.26878965129E+02  0.27400959481E+02  0.00000000000E+00 0. -1.
<mgrwt>
<rscale>  0 0.80615741E+02</rscale>
<asrwt>0</asrwt>
<pdfrwt beam="1">  1        2 0.20551911E-01 0.80615741E+02</pdfrwt>
<pdfrwt beam="2">  1       -1 0.18711163E-02 0.80615741E+02</pdfrwt>
<totfact> 0.18918531E+05</totfact>
</mgrwt>
</event>
<event>
 8    1  0.1673046E-013  0.8805111E+02  0.7818608E-02  0.1307641E+00
         -1   -1    0    0    0  501 -0.00000000000E+00  0.00000000000E+00  0.85824791601E+01  0.85824806399E+01  0.50400000000E-02 0.  1.
          2   -1    0    0  501    0  0.00000000000E+00 -0.00000000000E+00 -0.22583794125E+03  0.22583794127E+03  0.25500000000E-02 0. -1.
         24    2    1    2    0    0  0.00000000000E+00  0.17763568394E-14 -0.21725546209E+03  0.23442042191E+03  0.88051112418E+02 0.  0.
         66    2    3    3    0    0  0.19309467900E+02  0.14499401986E+02 -0.20661786431E+03  0.20803372338E+03  0.20000007051E+01 0.  0.
        -13    1    3    3    0    0 -0.19309467900E+02 -0.14499401986E+02 -0.10637597783E+02  0.26386698528E+02  0.10566000000E+00 0.  1.
         13    1    4    4    0    0  0.40115192068E+01  0.24349647844E+01 -0.40865464834E+02  0.41134155151E+02  0.10566000000E+00 0. -1.
        -13    1    4    4    0    0  0.78901091877E+01  0.63438366201E+01 -0.92108336008E+02  0.92663125419E+02  0.10566000000E+00 0.  1.
         14    1    4    4    0    0  0.74078395055E+01  0.57206005820E+01 -0.73644063466E+02  0.74236442809E+02  0.00000000000E+00 0. -1.
<mgrwt>
<rscale>  0 0.88051112E+02</rscale>
<asrwt>0</asrwt>
<pdfrwt beam="1">  1        2 0.34744294E-01 0.88051112E+02</pdfrwt>
<pdfrwt beam="2">  1       -1 0.13203817E-02 0.88051112E+02</pdfrwt>
<totfact> 0.17860539E+05</totfact>
</mgrwt>
</event>
<event>
 8    1  0.1673046E-013  0.7855205E+02  0.7818608E-02  0.1333211E+00
          2   -1    0    0  501    0  0.00000000000E+00  0.00000000000E+00  0.78615556541E+02  0.78615556582E+02  0.25500000000E-02 0. -1.
         -1   -1    0    0    0  501 -0.00000000000E+00 -0.00000000000E+00 -0.19622150440E+02  0.19622151088E+02  0.50400000000E-02 0.  1.
         24    2    1    2    0    0  0.14210854715E-13  0.00000000000E+00  0.58993406101E+02  0.98237707670E+02  0.78552054365E+02 0.  0.
         66    2    3    3    0    0  0.38793335419E+02  0.59219487298E+01  0.30491745382E+02  0.49736695542E+02  0.19999993101E+01 0.  0.
        -13    1    3    3    0    0 -0.38793335419E+02 -0.59219487298E+01  0.28501660718E+02  0.48501012128E+02  0.10566000000E+00 0.  1.
         13    1    4    4    0    0  0.51546770143E+00 -0.47502082027E-02  0.41528498911E+00  0.67033959563E+00  0.10566000000E+00 0.  1.
        -13    1    4    4    0    0  0.95249010725E+01  0.17606776236E+01  0.83298296547E+01  0.12775795562E+02  0.10566000000E+00 0. -1.
         14    1    4    4    0    0  0.28752966646E+02  0.41660213144E+01  0.21746630738E+02  0.36290560384E+02  0.00000000000E+00 0. -1.
<mgrwt>
<rscale>  0 0.78552054E+02</rscale>
<asrwt>0</asrwt>
<pdfrwt beam="1">  1        2 0.12094701E-01 0.78552054E+02</pdfrwt>
<pdfrwt beam="2">  1       -1 0.30187924E-02 0.78552054E+02</pdfrwt>
<totfact> 0.17459577E+05</totfact>
</mgrwt>
</event>
<event>
 8    1  0.1673046E-013  0.7938951E+02  0.7818608E-02  0.1330793E+00
         -1   -1    0    0    0  501 -0.00000000000E+00  0.00000000000E+00  0.14210775075E+03  0.14210775084E+03  0.50400000000E-02 0.  1.
          2   -1    0    0  501    0  0.00000000000E+00 -0.00000000000E+00 -0.11087880221E+02  0.11087880514E+02  0.25500000000E-02 0. -1.
         24    2    1    2    0    0  0.00000000000E+00  0.00000000000E+00  0.13101987053E+03  0.15319563135E+03  0.79389514373E+02 0.  0.
         66    2    3    3    0    0  0.38400172965E+02  0.97091633191E+01  0.69791256091E+02  0.80272414707E+02  0.19999999920E+01 0.  0.
        -13    1    3    3    0    0 -0.38400172965E+02 -0.97091633191E+01  0.61228614437E+02  0.72923216647E+02  0.10566000000E+00 0.  1.
         13    1    4    4    0    0  0.23354689517E+02  0.61778444211E+01  0.41051431634E+02  0.47632326075E+02  0.10566000000E+00 0. -1.
        -13    1    4    4    0    0  0.41374117696E+01  0.11798510069E+01  0.85385396895E+01  0.95618015360E+01  0.10566000000E+00 0. -1.
         14    1    4    4    0    0  0.10908071679E+02  0.23514678911E+01  0.20201284768E+02  0.23078287096E+02  0.00000000000E+00 0. -1.
<mgrwt>
<rscale>  0 0.79389514E+02</rscale>
<asrwt>0</asrwt>
<pdfrwt beam="1">  1        2 0.17058279E-02 0.79389514E+02</pdfrwt>
<pdfrwt beam="2">  1       -1 0.21862730E-01 0.79389514E+02</pdfrwt>
<totfact> 0.11148258E+05</totfact>
</mgrwt>
</event>
<event>
 8    1  0.1673046E-013  0.7655868E+02  0.7818608E-02  0.1339111E+00
          2   -1    0    0  501    0  0.00000000000E+00  0.00000000000E+00  0.33411871793E+03  0.33411871794E+03  0.25500000000E-02 0. -1.
         -1   -1    0    0    0  501 -0.00000000000E+00 -0.00000000000E+00 -0.43855894127E+01  0.43855923087E+01  0.50400000000E-02 0.  1.
         24    2    1    2    0    0 -0.35527136788E-14 -0.44408920985E-15  0.32973312852E+03  0.33850431025E+03  0.76558683472E+02 0.  0.
         66    2    3    3    0    0  0.30357504296E+02  0.21585108251E+01  0.26744564558E+03  0.26917914216E+03  0.19999994115E+01 0.  0.
        -13    1    3    3    0    0 -0.30357504296E+02 -0.21585108251E+01  0.62287482945E+02  0.69325168097E+02  0.10566000000E+00 0.  1.
         13    1    4    4    0    0  0.17070734464E+01  0.87572463325E-01  0.18260781898E+02  0.18340912961E+02  0.10566000000E+00 0.  1.
        -13    1    4    4    0    0  0.14496957206E+02  0.49545518769E+00  0.12831461331E+03  0.12913194181E+03  0.10566000000E+00 0. -1.
        -14    1    4    4    0    0  0.14153473644E+02  0.15754831741E+01  0.12087025037E+03  0.12170628738E+03  0.00000000000E+00 0.  1.
<mgrwt>
<rscale>  0 0.76558683E+02</rscale>
<asrwt>0</asrwt>
<pdfrwt beam="1">  1        2 0.51402891E-01 0.76558683E+02</pdfrwt>
<pdfrwt beam="2">  1       -1 0.67470615E-03 0.76558683E+02</pdfrwt>
<totfact> 0.29731195E+05</totfact>
</mgrwt>
</event>
<event>
 8    1  0.1673046E-013  0.7767717E+02  0.7818608E-02  0.1335776E+00
         -1   -1    0    0    0  501 -0.00000000000E+00  0.00000000000E+00  0.14759225782E+01  0.14759311835E+01  0.50400000000E-02 0.  1.
          2   -1    0    0  501    0  0.00000000000E+00 -0.00000000000E+00 -0.10220261069E+04  0.10220261069E+04  0.25500000000E-02 0. -1.
         24    2    1    2    0    0  0.00000000000E+00  0.00000000000E+00 -0.10205501843E+04  0.10235020381E+04  0.77677173277E+02 0.  0.
         66    2    3    3    0    0 -0.43689505839E+01  0.16389653177E+02 -0.97060169843E+03  0.97075195877E+03  0.20000027991E+01 0.  0.
        -13    1    3    3    0    0  0.43689505839E+01 -0.16389653177E+02 -0.49948485907E+02  0.52750079326E+02  0.10566000000E+00 0.  1.
         13    1    4    4    0    0 -0.24088648793E+01  0.10047677885E+02 -0.60633954332E+03  0.60642758135E+03  0.10566000000E+00 0. -1.
        -13    1    4    4    0    0 -0.10711553853E+01  0.34442253170E+01 -0.22768390339E+03  0.22771249656E+03  0.10566000000E+00 0.  1.
        -14    1    4    4    0    0 -0.88893031927E+00  0.28977499758E+01 -0.13657825172E+03  0.13661188087E+03  0.00000000000E+00 0.  1.
<mgrwt>
<rscale>  0 0.77677173E+02</rscale>
<asrwt>0</asrwt>
<pdfrwt beam="1">  1        2 0.15723422E+00 0.77677173E+02</pdfrwt>
<pdfrwt beam="2">  1       -1 0.22706649E-03 0.77677173E+02</pdfrwt>
<totfact> 0.38055793E+05</totfact>
</mgrwt>
</event>
<event>
 8    1  0.1673046E-013  0.7980525E+02  0.7818608E-02  0.1329605E+00
          2   -1    0    0  501    0  0.00000000000E+00  0.00000000000E+00  0.17661463732E+03  0.17661463734E+03  0.25500000000E-02 0. -1.
         -1   -1    0    0    0  501 -0.00000000000E+00 -0.00000000000E+00 -0.90152184409E+01  0.90152198497E+01  0.50400000000E-02 0.  1.
         24    2    1    2    0    0  0.00000000000E+00  0.00000000000E+00  0.16759941888E+03  0.18562985719E+03  0.79805254658E+02 0.  0.
         66    2    3    3    0    0 -0.27192950048E+02  0.26277449592E+01  0.15142154881E+03  0.15387932617E+03  0.20000005573E+01 0.  0.
        -13    1    3    3    0    0  0.27192950048E+02 -0.26277449592E+01  0.16177870066E+02  0.31750531016E+02  0.10566000000E+00 0.  1.
         13    1    4    4    0    0 -0.19322989477E+01  0.54725154144E+00  0.12324758882E+02  0.12487758366E+02  0.10566000000E+00 0.  1.
        -13    1    4    4    0    0 -0.29072722793E+00  0.82327731387E-01  0.18648078601E+01  0.18920815435E+01  0.10566000000E+00 0.  1.
         14    1    4    4    0    0 -0.24969923873E+02  0.19981656864E+01  0.13723198207E+03  0.13949948626E+03  0.00000000000E+00 0. -1.
<mgrwt>
<rscale>  0 0.79805255E+02</rscale>
<asrwt>0</asrwt>
<pdfrwt beam="1">  1        2 0.27171480E-01 0.79805255E+02</pdfrwt>
<pdfrwt beam="2">  1       -1 0.13869569E-02 0.79805255E+02</pdfrwt>
<totfact> 0.21274720E+05</totfact>
</mgrwt>
</event>
<event>
 8    1  0.1673046E-013  0.7861065E+02  0.7818608E-02  0.1333041E+00
         -1   -1    0    0    0  501 -0.00000000000E+00  0.00000000000E+00  0.11315478524E+01  0.11315590766E+01  0.50400000000E-02 0.  1.
          2   -1    0    0  501    0  0.00000000000E+00 -0.00000000000E+00 -0.13652986252E+04  0.13652986252E+04  0.25500000000E-02 0. -1.
         24    2    1    2    0    0  0.17763568394E-14  0.00000000000E+00 -0.13641670774E+04  0.13664301843E+04  0.78610645524E+02 0.  0.
         66    2    3    3    0    0 -0.13092221923E+02 -0.10967206570E+02 -0.12973785154E+04  0.12974924655E+04  0.20000010198E+01 0.  0.
        -13    1    3    3    0    0  0.13092221923E+02  0.10967206570E+02 -0.66788562018E+02  0.68937718814E+02  0.10566000000E+00 0.  1.
         13    1    4    4    0    0 -0.64337516010E+01 -0.58173045223E+01 -0.66271436945E+03  0.66277113759E+03  0.10566000000E+00 0. -1.
        -13    1    4    4    0    0 -0.39303487333E+00 -0.30593248270E+00 -0.67093817341E+02  0.67095749199E+02  0.10566000000E+00 0.  1.
        -14    1    4    4    0    0 -0.62654354490E+01 -0.48439695652E+01 -0.56757032856E+03  0.56762557869E+03  0.00000000000E+00 0.  1.
<mgrwt>
<rscale>  0 0.78610646E+02</rscale>
<asrwt>0</asrwt>
<pdfrwt beam="1">  1        2 0.21004463E+00 0.78610646E+02</pdfrwt>
<pdfrwt beam="2">  1       -1 0.17408624E-03 0.78610646E+02</pdfrwt>
<totfact> 0.35835110E+05</totfact>
</mgrwt>
</event>
<event>
 8    1  0.1673046E-013  0.7831178E+02  0.7818608E-02  0.1333912E+00
         -1   -1    0    0    0  501 -0.00000000000E+00  0.00000000000E+00  0.27185693487E+02  0.27185693954E+02  0.50400000000E-02 0.  1.
          2   -1    0    0  501    0  0.00000000000E+00 -0.00000000000E+00 -0.56396704974E+02  0.56396705031E+02  0.25500000000E-02 0. -1.
         24    2    1    2    0    0 -0.35527136788E-14  0.00000000000E+00 -0.29211011487E+02  0.83582398985E+02  0.78311775794E+02 0.  0.
         66    2    3    3    0    0  0.25230969775E+02 -0.12018391440E+02 -0.43846935425E+02  0.52034578108E+02  0.20000010345E+01 0.  0.
        -13    1    3    3    0    0 -0.25230969775E+02  0.12018391440E+02  0.14635923937E+02  0.31547820877E+02  0.10566000000E+00 0.  1.
         13    1    4    4    0    0  0.13846907223E+01 -0.78576970963E+00 -0.30646782780E+01  0.34551728490E+01  0.10566000000E+00 0. -1.
        -13    1    4    4    0    0  0.14734089402E+02 -0.66541884345E+01 -0.26148016153E+02  0.30742503590E+02  0.10566000000E+00 0.  1.
        -14    1    4    4    0    0  0.91121896505E+01 -0.45784332955E+01 -0.14634240994E+02  0.17836901669E+02  0.00000000000E+00 0.  1.
<mgrwt>
<rscale>  0 0.78311776E+02</rscale>
<asrwt>0</asrwt>
<pdfrwt beam="1">  1        2 0.86764162E-02 0.78311776E+02</pdfrwt>
<pdfrwt beam="2">  1       -1 0.41824144E-02 0.78311776E+02</pdfrwt>
<totfact> 0.16265133E+05</totfact>
</mgrwt>
</event>
<event>
 8    1  0.1673046E-013  0.8180727E+02  0.7818608E-02  0.1324000E+00
         -1   -1    0    0    0  501 -0.00000000000E+00  0.00000000000E+00  0.26765079719E+02  0.26765080194E+02  0.50400000000E-02 0.  1.
          2   -1    0    0  501    0  0.00000000000E+00 -0.00000000000E+00 -0.62510830621E+02  0.62510830673E+02  0.25500000000E-02 0. -1.
         24    2    1    2    0    0  0.00000000000E+00  0.35527136788E-14 -0.35745750902E+02  0.89275910867E+02  0.81807270787E+02 0.  0.
         66    2    3    3    0    0 -0.98475307149E+00  0.28767113597E+02 -0.49560923283E+02  0.57348074810E+02  0.20000011294E+01 0.  0.
        -13    1    3    3    0    0  0.98475307149E+00 -0.28767113597E+02  0.13815172381E+02  0.31927836057E+02  0.10566000000E+00 0.  1.
         13    1    4    4    0    0  0.52921319642E-01  0.64440319867E+01 -0.11241797195E+02  0.12958299160E+02  0.10566000000E+00 0. -1.
        -13    1    4    4    0    0 -0.12367379533E+00  0.23534539559E+01 -0.51068840659E+01  0.56254306172E+01  0.10566000000E+00 0.  1.
         14    1    4    4    0    0 -0.91400059581E+00  0.19969627655E+02 -0.33212242022E+02  0.38764345033E+02  0.00000000000E+00 0. -1.
<mgrwt>
<rscale>  0 0.81807271E+02</rscale>
<asrwt>0</asrwt>
<pdfrwt beam="1">  1        2 0.96170509E-02 0.81807271E+02</pdfrwt>
<pdfrwt beam="2">  1       -1 0.41177046E-02 0.81807271E+02</pdfrwt>
<totfact> 0.14788549E+05</totfact>
</mgrwt>
</event>
<event>
 8    1  0.1673046E-013  0.8053827E+02  0.7818608E-02  0.1327531E+00
          2   -1    0    0  501    0  0.00000000000E+00  0.00000000000E+00  0.25570872981E+03  0.25570872982E+03  0.25500000000E-02 0. -1.
         -1   -1    0    0    0  501 -0.00000000000E+00 -0.00000000000E+00 -0.63416021321E+01  0.63416041349E+01  0.50400000000E-02 0.  1.
         24    2    1    2    0    0  0.00000000000E+00  0.00000000000E+00  0.24936712768E+03  0.26205033396E+03  0.80538271405E+02 0.  0.
         66    2    3    3    0    0 -0.17606140667E+02 -0.35933894653E+02  0.13870861963E+03  0.14437902249E+03  0.20000006553E+01 0.  0.
        -13    1    3    3    0    0  0.17606140667E+02  0.35933894653E+02  0.11065850805E+03  0.11767131146E+03  0.10566000000E+00 0.  1.
         13    1    4    4    0    0 -0.13886249502E+02 -0.27690251694E+02  0.10595537137E+03  0.11039080510E+03  0.10566000000E+00 0. -1.
        -13    1    4    4    0    0 -0.42609545387E-01 -0.32034097580E+00  0.14241218547E+01  0.14641451454E+01  0.10566000000E+00 0.  1.
         14    1    4    4    0    0 -0.36772816200E+01 -0.79233019822E+01  0.31329126407E+02  0.32524072251E+02  0.00000000000E+00 0. -1.
<mgrwt>
<rscale>  0 0.80538271E+02</rscale>
<asrwt>0</asrwt>
<pdfrwt beam="1">  1        2 0.39339797E-01 0.80538271E+02</pdfrwt>
<pdfrwt beam="2">  1       -1 0.97563143E-03 0.80538271E+02</pdfrwt>
<totfact> 0.23641877E+05</totfact>
</mgrwt>
</event>
<event>
 8    1  0.1673046E-013  0.8150985E+02  0.7818608E-02  0.1324820E+00
         -1   -1    0    0    0  501 -0.00000000000E+00  0.00000000000E+00  0.25429818152E+01  0.25429868097E+01  0.50400000000E-02 0.  1.
          2   -1    0    0  501    0  0.00000000000E+00 -0.00000000000E+00 -0.65315545172E+03  0.65315545172E+03  0.25500000000E-02 0. -1.
         24    2    1    2    0    0  0.00000000000E+00  0.00000000000E+00 -0.65061246990E+03  0.65569843853E+03  0.81509854013E+02 0.  0.
         66    2    3    3    0    0 -0.40724345633E+01  0.26670530298E+02 -0.57096237958E+03  0.57160295731E+03  0.19999999975E+01 0.  0.
        -13    1    3    3    0    0  0.40724345633E+01 -0.26670530298E+02 -0.79650090324E+02  0.84095481224E+02  0.10566000000E+00 0.  1.
         13    1    4    4    0    0 -0.55275901166E+00  0.54776185209E+01 -0.10387608242E+03  0.10402192802E+03  0.10566000000E+00 0. -1.
        -13    1    4    4    0    0 -0.14190696830E+01  0.81228492492E+01 -0.18903632857E+03  0.18921611750E+03  0.10566000000E+00 0.  1.
        -14    1    4    4    0    0 -0.21006058686E+01  0.13070062528E+02 -0.27804996860E+03  0.27836491179E+03  0.00000000000E+00 0.  1.
<mgrwt>
<rscale>  0 0.81509854E+02</rscale>
<asrwt>0</asrwt>
<pdfrwt beam="1">  1        2 0.10048532E+00 0.81509854E+02</pdfrwt>
<pdfrwt beam="2">  1       -1 0.39122888E-03 0.81509854E+02</pdfrwt>
<totfact> 0.31334922E+05</totfact>
</mgrwt>
</event>
<event>
 8    1  0.1673046E-013  0.8221954E+02  0.7818608E-02  0.1322868E+00
          2   -1    0    0  501    0  0.00000000000E+00  0.00000000000E+00  0.85614679927E+01  0.85614683724E+01  0.25500000000E-02 0. -1.
         -1   -1    0    0    0  501 -0.00000000000E+00 -0.00000000000E+00 -0.19739760650E+03  0.19739760656E+03  0.50400000000E-02 0.  1.
         24    2    1    2    0    0  0.88817841970E-15 -0.71054273576E-14 -0.18883613851E+03  0.20595907493E+03  0.82219543555E+02 0.  0.
         66    2    3    3    0    0 -0.73548070594E+01  0.38721288570E+02 -0.12353348910E+03  0.12968405570E+03  0.19999997542E+01 0.  0.
        -13    1    3    3    0    0  0.73548070594E+01 -0.38721288570E+02 -0.65302649407E+02  0.76275019233E+02  0.10566000000E+00 0.  1.
         13    1    4    4    0    0 -0.75410288129E+00  0.71460523113E+01 -0.23859401113E+02  0.24918204597E+02  0.10566000000E+00 0. -1.
        -13    1    4    4    0    0 -0.40415407566E+01  0.18511956718E+02 -0.57728616710E+02  0.60758793145E+02  0.10566000000E+00 0.  1.
         14    1    4    4    0    0 -0.25591634215E+01  0.13063279540E+02 -0.41945471275E+02  0.44007057959E+02  0.00000000000E+00 0. -1.
<mgrwt>
<rscale>  0 0.82219544E+02</rscale>
<asrwt>0</asrwt>
<pdfrwt beam="1">  1        2 0.13171491E-02 0.82219544E+02</pdfrwt>
<pdfrwt beam="2">  1       -1 0.30368859E-01 0.82219544E+02</pdfrwt>
<totfact> 0.93267966E+04</totfact>
</mgrwt>
</event>
<event>
 8    1  0.1673046E-013  0.8197088E+02  0.7818608E-02  0.1323550E+00
          2   -1    0    0  501    0  0.00000000000E+00  0.00000000000E+00  0.93737822592E+02  0.93737822627E+02  0.25500000000E-02 0. -1.
         -1   -1    0    0    0  501 -0.00000000000E+00 -0.00000000000E+00 -0.17920262810E+02  0.17920263519E+02  0.50400000000E-02 0.  1.
         24    2    1    2    0    0 -0.11102230246E-15  0.00000000000E+00  0.75817559782E+02  0.11165808615E+03  0.81970884040E+02 0.  0.
         66    2    3    3    0    0 -0.72282583225E+00 -0.32599388016E+02  0.71699826617E+02  0.78791545916E+02  0.19999986506E+01 0.  0.
        -13    1    3    3    0    0  0.72282583225E+00  0.32599388016E+02  0.41177331650E+01  0.32866540230E+02  0.10566000000E+00 0.  1.
         13    1    4    4    0    0  0.48930095044E+00 -0.12644961073E+02  0.27083034217E+02  0.29893751226E+02  0.10566000000E+00 0. -1.
        -13    1    4    4    0    0 -0.17822787497E+00 -0.26397399456E+01  0.65760879067E+01  0.70891528653E+01  0.10566000000E+00 0.  1.
         14    1    4    4    0    0 -0.10338989077E+01 -0.17314686998E+02  0.38040704494E+02  0.41808641824E+02  0.00000000000E+00 0. -1.
<mgrwt>
<rscale>  0 0.81970884E+02</rscale>
<asrwt>0</asrwt>
<pdfrwt beam="1">  1        2 0.14421203E-01 0.81970884E+02</pdfrwt>
<pdfrwt beam="2">  1       -1 0.27569636E-02 0.81970884E+02</pdfrwt>
<totfact> 0.16309351E+05</totfact>
</mgrwt>
</event>
<event>
 8    1  0.1673046E-013  0.7891168E+02  0.7818608E-02  0.1332169E+00
         -1   -1    0    0    0  501 -0.00000000000E+00  0.00000000000E+00  0.28729800976E+01  0.28729845184E+01  0.50400000000E-02 0.  1.
          2   -1    0    0  501    0  0.00000000000E+00 -0.00000000000E+00 -0.54186318171E+03  0.54186318172E+03  0.25500000000E-02 0. -1.
         24    2    1    2    0    0  0.00000000000E+00  0.00000000000E+00 -0.53899020162E+03  0.54473616624E+03  0.78911680819E+02 0.  0.
         66    2    3    3    0    0  0.23448107900E+02 -0.30445620392E+02 -0.33063781610E+03  0.33286951648E+03  0.20000004246E+01 0.  0.
        -13    1    3    3    0    0 -0.23448107900E+02  0.30445620392E+02 -0.20835238551E+03  0.21186664976E+03  0.10566000000E+00 0.  1.
         13    1    4    4    0    0  0.96826527754E+01 -0.12018440815E+02 -0.13713497254E+03  0.13800075559E+03  0.10566000000E+00 0. -1.
        -13    1    4    4    0    0  0.13346778956E+02 -0.18151047965E+02 -0.18909204453E+03  0.19042953952E+03  0.10566000000E+00 0.  1.
         14    1    4    4    0    0  0.41867616785E+00 -0.27613161179E+00 -0.44107990273E+01  0.44392213799E+01  0.00000000000E+00 0. -1.
<mgrwt>
<rscale>  0 0.78911681E+02</rscale>
<asrwt>0</asrwt>
<pdfrwt beam="1">  1        2 0.83363485E-01 0.78911681E+02</pdfrwt>
<pdfrwt beam="2">  1       -1 0.44199771E-03 0.78911681E+02</pdfrwt>
<totfact> 0.32355283E+05</totfact>
</mgrwt>
</event>
<event>
 8    1  0.1673046E-013  0.7881091E+02  0.7818608E-02  0.1332460E+00
          2   -1    0    0  501    0  0.00000000000E+00  0.00000000000E+00  0.76325299073E+03  0.76325299074E+03  0.25500000000E-02 0. -1.
         -1   -1    0    0    0  501 -0.00000000000E+00 -0.00000000000E+00 -0.20344336101E+01  0.20344398530E+01  0.50400000000E-02 0.  1.
         24    2    1    2    0    0  0.00000000000E+00  0.88817841970E-15  0.76121855712E+03  0.76528743059E+03  0.78810911118E+02 0.  0.
         66    2    3    3    0    0 -0.25401604848E+02 -0.77269927735E+01  0.66326469019E+03  0.66379891323E+03  0.19999993725E+01 0.  0.
        -13    1    3    3    0    0  0.25401604848E+02  0.77269927735E+01  0.97953866928E+02  0.10148851736E+03  0.10566000000E+00 0.  1.
         13    1    4    4    0    0 -0.53650243758E+01 -0.10851107023E+01  0.13161293962E+03  0.13172675504E+03  0.10566000000E+00 0. -1.
        -13    1    4    4    0    0 -0.56946945565E+01 -0.13560950141E+01  0.15355170458E+03  0.15366328671E+03  0.10566000000E+00 0.  1.
         14    1    4    4    0    0 -0.14341885915E+02 -0.52857870571E+01  0.37810004599E+03  0.37840887148E+03  0.00000000000E+00 0. -1.
<mgrwt>
<rscale>  0 0.78810911E+02</rscale>
<asrwt>0</asrwt>
<pdfrwt beam="1">  1        2 0.11742376E+00 0.78810911E+02</pdfrwt>
<pdfrwt beam="2">  1       -1 0.31298967E-03 0.78810911E+02</pdfrwt>
<totfact> 0.35421418E+05</totfact>
</mgrwt>
</event>
<event>
 8    1  0.1673046E-013  0.8071726E+02  0.7818608E-02  0.1327028E+00
          2   -1    0    0  501    0  0.00000000000E+00  0.00000000000E+00  0.12076237013E+02  0.12076237282E+02  0.25500000000E-02 0. -1.
         -1   -1    0    0    0  501 -0.00000000000E+00 -0.00000000000E+00 -0.13487803341E+03  0.13487803350E+03  0.50400000000E-02 0.  1.
         24    2    1    2    0    0  0.00000000000E+00  0.00000000000E+00 -0.12280179639E+03  0.14695427078E+03  0.80717262738E+02 0.  0.
         66    2    3    3    0    0 -0.82259824648E+01 -0.39375124520E+02 -0.66822968794E+02  0.78021640470E+02  0.20000011770E+01 0.  0.
        -13    1    3    3    0    0  0.82259824648E+01  0.39375124520E+02 -0.55978827600E+02  0.68932630313E+02  0.10566000000E+00 0.  1.
         13    1    4    4    0    0 -0.63062980033E+01 -0.27793395404E+02 -0.47389807332E+02  0.55299613250E+02  0.10566000000E+00 0. -1.
        -13    1    4    4    0    0 -0.32831415677E-01 -0.65163281395E+00 -0.14466435596E+01  0.15904857278E+01  0.10566000000E+00 0.  1.
         14    1    4    4    0    0 -0.18868530458E+01 -0.10930096302E+02 -0.17986517902E+02  0.21131541492E+02  0.00000000000E+00 0. -1.
<mgrwt>
<rscale>  0 0.80717263E+02</rscale>
<asrwt>0</asrwt>
<pdfrwt beam="1">  1        2 0.18578827E-02 0.80717263E+02</pdfrwt>
<pdfrwt beam="2">  1       -1 0.20750466E-01 0.80717263E+02</pdfrwt>
<totfact> 0.10829231E+05</totfact>
</mgrwt>
</event>
<event>
 8    1  0.1673046E-013  0.7990159E+02  0.7818608E-02  0.1329331E+00
          2   -1    0    0  501    0  0.00000000000E+00  0.00000000000E+00  0.68720565723E+03  0.68720565723E+03  0.25500000000E-02 0. -1.
         -1   -1    0    0    0  501 -0.00000000000E+00 -0.00000000000E+00 -0.23225420337E+01  0.23225475022E+01  0.50400000000E-02 0.  1.
         24    2    1    2    0    0  0.00000000000E+00  0.00000000000E+00  0.68488311520E+03  0.68952820474E+03  0.79901587260E+02 0.  0.
         66    2    3    3    0    0  0.10129735233E+02 -0.12490567082E+02  0.65801654591E+03  0.65821607432E+03  0.20000005782E+01 0.  0.
        -13    1    3    3    0    0 -0.10129735233E+02  0.12490567082E+02  0.26866569289E+02  0.31312130418E+02  0.10566000000E+00 0.  1.
         13    1    4    4    0    0  0.53767233663E+01 -0.56718007066E+01  0.33086899020E+03  0.33096129429E+03  0.10566000000E+00 0. -1.
        -13    1    4    4    0    0  0.17871250007E+01 -0.19491102514E+01  0.91588656700E+02  0.91626884956E+02  0.10566000000E+00 0. -1.
         14    1    4    4    0    0  0.29658868659E+01 -0.48696561237E+01  0.23555889900E+03  0.23562789507E+03  0.00000000000E+00 0. -1.
<mgrwt>
<rscale>  0 0.79901587E+02</rscale>
<asrwt>0</asrwt>
<pdfrwt beam="1">  1        2 0.10572394E+00 0.79901587E+02</pdfrwt>
<pdfrwt beam="2">  1       -1 0.35731462E-03 0.79901587E+02</pdfrwt>
<totfact> 0.33415480E+05</totfact>
</mgrwt>
</event>
<event>
 8    1  0.1673046E-013  0.7734624E+02  0.7818608E-02  0.1336756E+00
         -1   -1    0    0    0  501 -0.00000000000E+00  0.00000000000E+00  0.32617680199E+01  0.32617719137E+01  0.50400000000E-02 0.  1.
          2   -1    0    0  501    0  0.00000000000E+00 -0.00000000000E+00 -0.45852717913E+03  0.45852717913E+03  0.25500000000E-02 0. -1.
         24    2    1    2    0    0  0.00000000000E+00  0.00000000000E+00 -0.45526541111E+03  0.46178895105E+03  0.77346239464E+02 0.  0.
         66    2    3    3    0    0 -0.34641586297E+02 -0.13883755133E+02 -0.28772906267E+03  0.29014619014E+03  0.19999986066E+01 0.  0.
        -13    1    3    3    0    0  0.34641586297E+02  0.13883755133E+02 -0.16753634844E+03  0.17164276090E+03  0.10566000000E+00 0.  1.
         13    1    4    4    0    0 -0.70451756196E+01 -0.21863335105E+01 -0.60720331986E+02  0.61166857319E+02  0.10566000000E+00 0.  1.
        -13    1    4    4    0    0 -0.20506606236E+02 -0.88437575745E+01 -0.16995534432E+03  0.17141634454E+03  0.10566000000E+00 0. -1.
        -14    1    4    4    0    0 -0.70898044420E+01 -0.28536640484E+01 -0.57053386356E+02  0.57562988284E+02  0.00000000000E+00 0.  1.
<mgrwt>
<rscale>  0 0.77346239E+02</rscale>
<asrwt>0</asrwt>
<pdfrwt beam="1">  1        2 0.70542592E-01 0.77346239E+02</pdfrwt>
<pdfrwt beam="2">  1       -1 0.50181113E-03 0.77346239E+02</pdfrwt>
<totfact> 0.32321942E+05</totfact>
</mgrwt>
</event>
<event>
 8    1  0.1673046E-013  0.7968238E+02  0.7818608E-02  0.1329955E+00
          2   -1    0    0  501    0  0.00000000000E+00  0.00000000000E+00  0.31320972968E+03  0.31320972969E+03  0.25500000000E-02 0. -1.
         -1   -1    0    0    0  501 -0.00000000000E+00 -0.00000000000E+00 -0.50679140214E+01  0.50679165275E+01  0.50400000000E-02 0.  1.
         24    2    1    2    0    0 -0.17763568394E-14  0.00000000000E+00  0.30814181565E+03  0.31827764621E+03  0.79682379009E+02 0.  0.
         66    2    3    3    0    0  0.14184928611E+02 -0.20415006451E+01  0.30254697364E+03  0.30289280479E+03  0.20000018108E+01 0.  0.
        -13    1    3    3    0    0 -0.14184928611E+02  0.20415006451E+01  0.55948420144E+01  0.15384841429E+02  0.10566000000E+00 0.  1.
         13    1    4    4    0    0  0.11179160734E+01  0.43428554834E-01  0.29733017649E+02  0.29754245494E+02  0.10566000000E+00 0. -1.
        -13    1    4    4    0    0  0.16628942273E+01  0.60991762767E-01  0.27797205588E+02  0.27847167535E+02  0.10566000000E+00 0.  1.
         14    1    4    4    0    0  0.11404118310E+02 -0.21459209627E+01  0.24501675040E+03  0.24529139176E+03  0.00000000000E+00 0. -1.
<mgrwt>
<rscale>  0 0.79682379E+02</rscale>
<asrwt>0</asrwt>
<pdfrwt beam="1">  1        2 0.48186125E-01 0.79682379E+02</pdfrwt>
<pdfrwt beam="2">  1       -1 0.77967907E-03 0.79682379E+02</pdfrwt>
<totfact> 0.26166246E+05</totfact>
</mgrwt>
</event>
<event>
 8    1  0.1673046E-013  0.8322003E+02  0.7818608E-02  0.1320154E+00
          2   -1    0    0  501    0  0.00000000000E+00  0.00000000000E+00  0.42677866164E+03  0.42677866165E+03  0.25500000000E-02 0. -1.
         -1   -1    0    0    0  501 -0.00000000000E+00 -0.00000000000E+00 -0.40568867860E+01  0.40568899167E+01  0.50400000000E-02 0.  1.
         24    2    1    2    0    0  0.00000000000E+00 -0.22204460493E-15  0.42272177485E+03  0.43083555156E+03  0.83220030978E+02 0.  0.
         66    2    3    3    0    0 -0.12795823646E+02  0.10367249845E+01  0.41626030010E+03  0.41646301798E+03  0.20000021988E+01 0.  0.
        -13    1    3    3    0    0  0.12795823646E+02 -0.10367249845E+01  0.64614747563E+01  0.14372533581E+02  0.10566000000E+00 0.  1.
         13    1    4    4    0    0 -0.57276218469E+01  0.77285246965E+00  0.20743278540E+03  0.20751331180E+03  0.10566000000E+00 0. -1.
        -13    1    4    4    0    0 -0.82443709820E+00  0.66168892621E-02  0.16817120777E+02  0.16837649942E+02  0.10566000000E+00 0.  1.
        -14    1    4    4    0    0 -0.62437647011E+01  0.25725562561E+00  0.19201039392E+03  0.19211205624E+03  0.00000000000E+00 0.  1.
<mgrwt>
<rscale>  0 0.83220031E+02</rscale>
<asrwt>0</asrwt>
<pdfrwt beam="1">  1        2 0.65658224E-01 0.83220031E+02</pdfrwt>
<pdfrwt beam="2">  1       -1 0.62413697E-03 0.83220031E+02</pdfrwt>
<totfact> 0.26061155E+05</totfact>
</mgrwt>
</event>
<event>
 8    1  0.1673046E-013  0.8078553E+02  0.7818608E-02  0.1326837E+00
          2   -1    0    0  501    0  0.00000000000E+00  0.00000000000E+00  0.66824663222E+02  0.66824663270E+02  0.25500000000E-02 0. -1.
         -1   -1    0    0    0  501 -0.00000000000E+00 -0.00000000000E+00 -0.24415770448E+02  0.24415770969E+02  0.50400000000E-02 0.  1.
         24    2    1    2    0    0  0.00000000000E+00  0.00000000000E+00  0.42408892773E+02  0.91240434239E+02  0.80785534929E+02 0.  0.
         66    2    3    3    0    0  0.35508716804E+01  0.36685223419E+02  0.39815295532E+02  0.54292467886E+02  0.20000009711E+01 0.  0.
        -13    1    3    3    0    0 -0.35508716804E+01 -0.36685223419E+02  0.25935972418E+01  0.36947966353E+02  0.10566000000E+00 0.  1.
         13    1    4    4    0    0  0.76297605458E+00  0.91529860959E+01  0.95916216973E+01  0.13280423854E+02  0.10566000000E+00 0. -1.
        -13    1    4    4    0    0  0.21776739105E+01  0.23553498753E+02  0.24992117873E+02  0.34411141901E+02  0.10566000000E+00 0. -1.
         14    1    4    4    0    0  0.61022171533E+00  0.39787385697E+01  0.52315559615E+01  0.66009021298E+01  0.00000000000E+00 0. -1.
<mgrwt>
<rscale>  0 0.80785535E+02</rscale>
<asrwt>0</asrwt>
<pdfrwt beam="1">  1        2 0.10280717E-01 0.80785535E+02</pdfrwt>
<pdfrwt beam="2">  1       -1 0.37562725E-02 0.80785535E+02</pdfrwt>
<totfact> 0.15548401E+05</totfact>
</mgrwt>
</event>
<event>
 8    1  0.1673046E-013  0.8391179E+02  0.7818608E-02  0.1318303E+00
         -1   -1    0    0    0  501 -0.00000000000E+00  0.00000000000E+00  0.74259468784E+01  0.74259485887E+01  0.50400000000E-02 0.  1.
          2   -1    0    0  501    0  0.00000000000E+00 -0.00000000000E+00 -0.23704677409E+03  0.23704677411E+03  0.25500000000E-02 0. -1.
         24    2    1    2    0    0  0.00000000000E+00  0.00000000000E+00 -0.22962082722E+03  0.24447272270E+03  0.83911786129E+02 0.  0.
         66    2    3    3    0    0 -0.19541973228E+02 -0.26716352410E+01 -0.22268352878E+03  0.22356426445E+03  0.19999996542E+01 0.  0.
        -13    1    3    3    0    0  0.19541973228E+02  0.26716352410E+01 -0.69372984377E+01  0.20908458244E+02  0.10566000000E+00 0.  1.
         13    1    4    4    0    0 -0.16206194830E+02 -0.17932802025E+01 -0.18740568333E+03  0.18811368348E+03  0.10566000000E+00 0. -1.
        -13    1    4    4    0    0 -0.42077575946E+00  0.22381136825E-01 -0.53566700010E+01  0.53742562919E+01  0.10566000000E+00 0.  1.
         14    1    4    4    0    0 -0.29150026385E+01 -0.90073617528E+00 -0.29921175450E+02  0.30076324681E+02  0.00000000000E+00 0. -1.
<mgrwt>
<rscale>  0 0.83911786E+02</rscale>
<asrwt>0</asrwt>
<pdfrwt beam="1">  1        2 0.36468729E-01 0.83911786E+02</pdfrwt>
<pdfrwt beam="2">  1       -1 0.11424537E-02 0.83911786E+02</pdfrwt>
<totfact> 0.20648219E+05</totfact>
</mgrwt>
</event>
<event>
 8    1  0.1673046E-013  0.7954647E+02  0.7818608E-02  0.1330343E+00
         -1   -1    0    0    0  501 -0.00000000000E+00  0.00000000000E+00  0.73049063923E+01  0.73049081310E+01  0.50400000000E-02 0.  1.
          2   -1    0    0  501    0  0.00000000000E+00 -0.00000000000E+00 -0.21655444116E+03  0.21655444118E+03  0.25500000000E-02 0. -1.
         24    2    1    2    0    0  0.17763568394E-14  0.00000000000E+00 -0.20924953477E+03  0.22385934931E+03  0.79546467372E+02 0.  0.
         66    2    3    3    0    0 -0.12633605494E+02  0.34034901159E+02 -0.59145701475E+02  0.69427634888E+02  0.19999996344E+01 0.  0.
        -13    1    3    3    0    0  0.12633605494E+02 -0.34034901159E+02 -0.15010383330E+03  0.15443171442E+03  0.10566000000E+00 0.  1.
         13    1    4    4    0    0 -0.34261772772E+01  0.10088387683E+02 -0.16314309788E+02  0.19485433654E+02  0.10566000000E+00 0. -1.
        -13    1    4    4    0    0 -0.33365548004E+01  0.72822826316E+01 -0.13840749186E+02  0.15991927349E+02  0.10566000000E+00 0.  1.
         14    1    4    4    0    0 -0.58708734164E+01  0.16664230845E+02 -0.28990642501E+02  0.33950273886E+02  0.00000000000E+00 0. -1.
<mgrwt>
<rscale>  0 0.79546467E+02</rscale>
<asrwt>0</asrwt>
<pdfrwt beam="1">  1        2 0.33316063E-01 0.79546467E+02</pdfrwt>
<pdfrwt beam="2">  1       -1 0.11238321E-02 0.79546467E+02</pdfrwt>
<totfact> 0.23022917E+05</totfact>
</mgrwt>
</event>
<event>
 8    1  0.1673046E-013  0.7905733E+02  0.7818608E-02  0.1331748E+00
         -1   -1    0    0    0  501 -0.00000000000E+00  0.00000000000E+00  0.49060508711E+02  0.49060508970E+02  0.50400000000E-02 0.  1.
          2   -1    0    0  501    0  0.00000000000E+00 -0.00000000000E+00 -0.31848741424E+02  0.31848741526E+02  0.25500000000E-02 0. -1.
         24    2    1    2    0    0  0.00000000000E+00 -0.35527136788E-14  0.17211767287E+02  0.80909250496E+02  0.79057332883E+02 0.  0.
         66    2    3    3    0    0  0.19687836456E+02  0.20443101507E+02 -0.19509155119E+02  0.34498383127E+02  0.20000003381E+01 0.  0.
        -13    1    3    3    0    0 -0.19687836456E+02 -0.20443101507E+02  0.36720922406E+02  0.46410867369E+02  0.10566000000E+00 0.  1.
         13    1    4    4    0    0  0.27351448579E+01  0.24359677918E+01 -0.26970926162E+01  0.45497724220E+01  0.10566000000E+00 0. -1.
        -13    1    4    4    0    0  0.32718982348E+00  0.32545493528E+00 -0.10826918041E+00  0.48565455471E+00  0.10566000000E+00 0.  1.
        -14    1    4    4    0    0  0.16625501775E+02  0.17681678780E+02 -0.16703793322E+02  0.29462956150E+02  0.00000000000E+00 0.  1.
<mgrwt>
<rscale>  0 0.79057333E+02</rscale>
<asrwt>0</asrwt>
<pdfrwt beam="1">  1        2 0.48998064E-02 0.79057333E+02</pdfrwt>
<pdfrwt beam="2">  1       -1 0.75477706E-02 0.79057333E+02</pdfrwt>
<totfact> 0.14073417E+05</totfact>
</mgrwt>
</event>
<event>
 8    1  0.1673046E-013  0.7887379E+02  0.7818608E-02  0.1332278E+00
          2   -1    0    0  501    0  0.00000000000E+00  0.00000000000E+00  0.20958383778E+03  0.20958383780E+03  0.25500000000E-02 0. -1.
         -1   -1    0    0    0  501 -0.00000000000E+00 -0.00000000000E+00 -0.74207461043E+01  0.74207478158E+01  0.50400000000E-02 0.  1.
         24    2    1    2    0    0 -0.17763568394E-14 -0.35527136788E-14  0.20216309168E+03  0.21700458562E+03  0.78873788679E+02 0.  0.
         66    2    3    3    0    0 -0.15442874538E+02 -0.27503849890E+02  0.16615597801E+03  0.16913531017E+03  0.19999963464E+01 0.  0.
        -13    1    3    3    0    0  0.15442874538E+02  0.27503849890E+02  0.36007113671E+02  0.47869275446E+02  0.10566000000E+00 0.  1.
         13    1    4    4    0    0 -0.11662719110E+01 -0.17437949719E+01  0.12946139692E+02  0.13115437775E+02  0.10566000000E+00 0.  1.
        -13    1    4    4    0    0 -0.65696664083E+01 -0.10841169380E+02  0.67830621707E+02  0.69005042392E+02  0.10566000000E+00 0. -1.
         14    1    4    4    0    0 -0.77069362185E+01 -0.14918885538E+02  0.85379216609E+02  0.87014830003E+02  0.00000000000E+00 0. -1.
<mgrwt>
<rscale>  0 0.78873789E+02</rscale>
<asrwt>0</asrwt>
<pdfrwt beam="1">  1        2 0.32243667E-01 0.78873789E+02</pdfrwt>
<pdfrwt beam="2">  1       -1 0.11416534E-02 0.78873789E+02</pdfrwt>
<totfact> 0.23274949E+05</totfact>
</mgrwt>
</event>
<event>
 8    1  0.1673046E-013  0.8113413E+02  0.7818608E-02  0.1325863E+00
         -1   -1    0    0    0  501 -0.00000000000E+00  0.00000000000E+00  0.42884032674E+02  0.42884032971E+02  0.50400000000E-02 0.  1.
          2   -1    0    0  501    0  0.00000000000E+00 -0.00000000000E+00 -0.38375278707E+02  0.38375278792E+02  0.25500000000E-02 0. -1.
         24    2    1    2    0    0  0.00000000000E+00  0.00000000000E+00  0.45087539675E+01  0.81259311762E+02  0.81134128983E+02 0.  0.
         66    2    3    3    0    0 -0.33334290307E+02  0.18812958722E+02  0.15639722527E+02  0.41396899000E+02  0.19999999949E+01 0.  0.
        -13    1    3    3    0    0  0.33334290307E+02 -0.18812958722E+02 -0.11130968559E+02  0.39862412762E+02  0.10566000000E+00 0.  1.
         13    1    4    4    0    0 -0.26426895625E+02  0.14856014673E+02  0.12240010708E+02  0.32694204540E+02  0.10566000000E+00 0. -1.
        -13    1    4    4    0    0 -0.10658364760E+01  0.68676751142E+00  0.21955938038E+00  0.12911341392E+01  0.10566000000E+00 0.  1.
         14    1    4    4    0    0 -0.58415582056E+01  0.32701765374E+01  0.31801524382E+01  0.74115603205E+01  0.00000000000E+00 0. -1.
<mgrwt>
<rscale>  0 0.81134129E+02</rscale>
<asrwt>0</asrwt>
<pdfrwt beam="1">  1        2 0.59038891E-02 0.81134129E+02</pdfrwt>
<pdfrwt beam="2">  1       -1 0.65975435E-02 0.81134129E+02</pdfrwt>
<totfact> 0.13593644E+05</totfact>
</mgrwt>
</event>
<event>
 8    1  0.1673046E-013  0.7937431E+02  0.7818608E-02  0.1330836E+00
          2   -1    0    0  501    0  0.00000000000E+00  0.00000000000E+00  0.35024093419E+03  0.35024093420E+03  0.25500000000E-02 0. -1.
         -1   -1    0    0    0  501 -0.00000000000E+00 -0.00000000000E+00 -0.44971039313E+01  0.44971067556E+01  0.50400000000E-02 0.  1.
         24    2    1    2    0    0  0.00000000000E+00  0.00000000000E+00  0.34574383026E+03  0.35473804095E+03  0.79374312838E+02 0.  0.
         66    2    3    3    0    0  0.22080645671E+02 -0.31976018293E+02  0.20846697671E+03  0.21206720882E+03  0.20000042425E+01 0.  0.
        -13    1    3    3    0    0 -0.22080645671E+02  0.31976018293E+02  0.13727685354E+03  0.14267083214E+03  0.10566000000E+00 0.  1.
         13    1    4    4    0    0  0.13292036830E+02 -0.19823494728E+02  0.12934172131E+03  0.13152543944E+03  0.10566000000E+00 0. -1.
        -13    1    4    4    0    0  0.21842986286E+01 -0.23476943249E+01  0.18052027161E+02  0.18334930537E+02  0.10566000000E+00 0.  1.
        -14    1    4    4    0    0  0.66043102126E+01 -0.98048292398E+01  0.61073228244E+02  0.62206838836E+02  0.00000000000E+00 0.  1.
<mgrwt>
<rscale>  0 0.79374313E+02</rscale>
<asrwt>0</asrwt>
<pdfrwt beam="1">  1        2 0.53883228E-01 0.79374313E+02</pdfrwt>
<pdfrwt beam="2">  1       -1 0.69186227E-03 0.79374313E+02</pdfrwt>
<totfact> 0.27515511E+05</totfact>
</mgrwt>
</event>
<event>
 8    1  0.1673046E-013  0.7820711E+02  0.7818608E-02  0.1334218E+00
          2   -1    0    0  501    0  0.00000000000E+00  0.00000000000E+00  0.10627196534E+03  0.10627196537E+03  0.25500000000E-02 0. -1.
         -1   -1    0    0    0  501 -0.00000000000E+00 -0.00000000000E+00 -0.14388439969E+02  0.14388440851E+02  0.50400000000E-02 0.  1.
         24    2    1    2    0    0 -0.35527136788E-14  0.00000000000E+00  0.91883525369E+02  0.12066040622E+03  0.78207105782E+02 0.  0.
         66    2    3    3    0    0  0.30535547216E+02 -0.11287212793E+02  0.79321955070E+02  0.85765922001E+02  0.20000010525E+01 0.  0.
        -13    1    3    3    0    0 -0.30535547216E+02  0.11287212793E+02  0.12561570299E+02  0.34894484218E+02  0.10566000000E+00 0.  1.
         13    1    4    4    0    0  0.73730576543E+01 -0.26608426404E+01  0.17319190880E+02  0.19010723277E+02  0.10566000000E+00 0. -1.
        -13    1    4    4    0    0  0.10614474033E+02 -0.35501264374E+01  0.27218332167E+02  0.29429903614E+02  0.10566000000E+00 0. -1.
        -14    1    4    4    0    0  0.12548015528E+02 -0.50762437152E+01  0.34784432023E+02  0.37325295111E+02  0.00000000000E+00 0.  1.
<mgrwt>
<rscale>  0 0.78207106E+02</rscale>
<asrwt>0</asrwt>
<pdfrwt beam="1">  1        2 0.16349533E-01 0.78207106E+02</pdfrwt>
<pdfrwt beam="2">  1       -1 0.22136063E-02 0.78207106E+02</pdfrwt>
<totfact> 0.19159346E+05</totfact>
</mgrwt>
</event>
<event>
 8    1  0.1673046E-013  0.7939135E+02  0.7818608E-02  0.1330788E+00
          2   -1    0    0  501    0  0.00000000000E+00  0.00000000000E+00  0.53551100378E+03  0.53551100378E+03  0.25500000000E-02 0. -1.
         -1   -1    0    0    0  501 -0.00000000000E+00 -0.00000000000E+00 -0.29425078198E+01  0.29425121361E+01  0.50400000000E-02 0.  1.
         24    2    1    2    0    0  0.88817841970E-15  0.00000000000E+00  0.53256849596E+03  0.53845351592E+03  0.79391346629E+02 0.  0.
         66    2    3    3    0    0  0.76310968585E+01  0.28986840783E+02  0.44269666021E+03  0.44371477727E+03  0.20000052329E+01 0.  0.
        -13    1    3    3    0    0 -0.76310968585E+01 -0.28986840783E+02  0.89871835744E+02  0.94738738655E+02  0.10566000000E+00 0.  1.
         13    1    4    4    0    0  0.22700828624E+01  0.10591438783E+02  0.16661908218E+03  0.16697084046E+03  0.10566000000E+00 0. -1.
        -13    1    4    4    0    0  0.99039650969E+00  0.51304307384E+01  0.74298381011E+02  0.74481962848E+02  0.10566000000E+00 0.  1.
        -14    1    4    4    0    0  0.43706174864E+01  0.13264971262E+02  0.20177919702E+03  0.20226197396E+03  0.00000000000E+00 0.  1.
<mgrwt>
<rscale>  0 0.79391347E+02</rscale>
<asrwt>0</asrwt>
<pdfrwt beam="1">  1        2 0.82386371E-01 0.79391347E+02</pdfrwt>
<pdfrwt beam="2">  1       -1 0.45269350E-03 0.79391347E+02</pdfrwt>
<totfact> 0.31735210E+05</totfact>
</mgrwt>
</event>
<event>
 8    1  0.1673046E-013  0.7971841E+02  0.7818608E-02  0.1329852E+00
         -1   -1    0    0    0  501 -0.00000000000E+00  0.00000000000E+00  0.33485945870E+01  0.33485983798E+01  0.50400000000E-02 0.  1.
          2   -1    0    0  501    0  0.00000000000E+00 -0.00000000000E+00 -0.47445433980E+03  0.47445433980E+03  0.25500000000E-02 0. -1.
         24    2    1    2    0    0 -0.17763568394E-14  0.00000000000E+00 -0.47110574521E+03  0.47780293818E+03  0.79718407956E+02 0.  0.
         66    2    3    3    0    0  0.88498774846E+01 -0.38088256682E+02 -0.28123481009E+03  0.28394727333E+03  0.19999991307E+01 0.  0.
        -13    1    3    3    0    0 -0.88498774846E+01  0.38088256682E+02 -0.18987093512E+03  0.19385566485E+03  0.10566000000E+00 0.  1.
         13    1    4    4    0    0  0.26083890037E+01 -0.12078508447E+02 -0.89801527193E+02  0.90647777191E+02  0.10566000000E+00 0. -1.
        -13    1    4    4    0    0  0.26491298617E+01 -0.12041464635E+02 -0.82815359695E+02  0.83728189549E+02  0.10566000000E+00 0.  1.
        -14    1    4    4    0    0  0.35923586191E+01 -0.13968283600E+02 -0.10861792321E+03  0.10957130660E+03  0.00000000000E+00 0.  1.
<mgrwt>
<rscale>  0 0.79718408E+02</rscale>
<asrwt>0</asrwt>
<pdfrwt beam="1">  1        2 0.72992922E-01 0.79718408E+02</pdfrwt>
<pdfrwt beam="2">  1       -1 0.51516907E-03 0.79718408E+02</pdfrwt>
<totfact> 0.30215981E+05</totfact>
</mgrwt>
</event>
<event>
 8    1  0.1673046E-013  0.7783824E+02  0.7818608E-02  0.1335301E+00
         -1   -1    0    0    0  501 -0.00000000000E+00  0.00000000000E+00  0.15857710855E+03  0.15857710863E+03  0.50400000000E-02 0.  1.
          2   -1    0    0  501    0  0.00000000000E+00 -0.00000000000E+00 -0.95518068041E+01  0.95518071445E+01  0.25500000000E-02 0. -1.
         24    2    1    2    0    0  0.00000000000E+00  0.00000000000E+00  0.14902530175E+03  0.16812891577E+03  0.77838240981E+02 0.  0.
         66    2    3    3    0    0  0.29489982800E+02  0.19799720232E+02  0.40340872588E+02  0.53787303436E+02  0.20000007328E+01 0.  0.
        -13    1    3    3    0    0 -0.29489982800E+02 -0.19799720232E+02  0.10868442916E+03  0.11434161234E+03  0.10566000000E+00 0.  1.
         13    1    4    4    0    0  0.14954924060E+02  0.10948300843E+02  0.21644639730E+02  0.28495905637E+02  0.10566000000E+00 0. -1.
        -13    1    4    4    0    0  0.12218579107E+02  0.74446238144E+01  0.15332959310E+02  0.20972050552E+02  0.10566000000E+00 0.  1.
         14    1    4    4    0    0  0.23164796336E+01  0.14067955750E+01  0.33632735478E+01  0.43193472470E+01  0.00000000000E+00 0. -1.
<mgrwt>
<rscale>  0 0.77838241E+02</rscale>
<asrwt>0</asrwt>
<pdfrwt beam="1">  1        2 0.14695089E-02 0.77838241E+02</pdfrwt>
<pdfrwt beam="2">  1       -1 0.24396477E-01 0.77838241E+02</pdfrwt>
<totfact> 0.11396410E+05</totfact>
</mgrwt>
</event>
<event>
 8    1  0.1673046E-013  0.7433847E+02  0.7818608E-02  0.1345932E+00
          2   -1    0    0  501    0  0.00000000000E+00  0.00000000000E+00  0.44985932865E+03  0.44985932866E+03  0.25500000000E-02 0. -1.
         -1   -1    0    0    0  501 -0.00000000000E+00 -0.00000000000E+00 -0.30710731761E+01  0.30710773117E+01  0.50400000000E-02 0.  1.
         24    2    1    2    0    0  0.22204460493E-15  0.00000000000E+00  0.44678825548E+03  0.45293040597E+03  0.74338465291E+02 0.  0.
         66    2    3    3    0    0  0.13752575529E+01  0.35009487440E+02  0.29867051171E+03  0.30072517371E+03  0.19999989746E+01 0.  0.
        -13    1    3    3    0    0 -0.13752575529E+01 -0.35009487440E+02  0.14811774377E+03  0.15220523226E+03  0.10566000000E+00 0.  1.
         13    1    4    4    0    0  0.10891834812E+01  0.23693988765E+02  0.20585112767E+03  0.20721314957E+03  0.10566000000E+00 0. -1.
        -13    1    4    4    0    0 -0.27658222019E+00  0.34959209809E+01  0.26727309703E+02  0.26956598621E+02  0.10566000000E+00 0.  1.
        -14    1    4    4    0    0  0.56265629186E+00  0.78195776936E+01  0.66092074332E+02  0.66555425526E+02  0.00000000000E+00 0.  1.
<mgrwt>
<rscale>  0 0.74338465E+02</rscale>
<asrwt>0</asrwt>
<pdfrwt beam="1">  1        2 0.69209117E-01 0.74338465E+02</pdfrwt>
<pdfrwt beam="2">  1       -1 0.47247319E-03 0.74338465E+02</pdfrwt>
<totfact> 0.35597608E+05</totfact>
</mgrwt>
</event>
<event>
 8    1  0.1673046E-013  0.8215571E+02  0.7818608E-02  0.1323043E+00
          2   -1    0    0  501    0  0.00000000000E+00  0.00000000000E+00  0.34940276547E+03  0.34940276548E+03  0.25500000000E-02 0. -1.
         -1   -1    0    0    0  501 -0.00000000000E+00 -0.00000000000E+00 -0.48293540230E+01  0.48293566529E+01  0.50400000000E-02 0.  1.
         24    2    1    2    0    0 -0.17763568394E-14  0.22204460493E-15  0.34457341144E+03  0.35423212213E+03  0.82155708712E+02 0.  0.
         66    2    3    3    0    0  0.15070745407E+02 -0.17743769033E+01  0.33686280909E+03  0.33721036155E+03  0.20000024616E+01 0.  0.
        -13    1    3    3    0    0 -0.15070745407E+02  0.17743769033E+01  0.77106023593E+01  0.17021760582E+02  0.10566000000E+00 0.  1.
         13    1    4    4    0    0  0.14900087113E+01  0.90738006322E-01  0.43115600810E+02  0.43141564141E+02  0.10566000000E+00 0. -1.
        -13    1    4    4    0    0  0.24945254510E+01 -0.42482261064E+00  0.46374250223E+02  0.46443356675E+02  0.10566000000E+00 0.  1.
         14    1    4    4    0    0  0.11086211245E+02 -0.14402922989E+01  0.24737295805E+03  0.24762544073E+03  0.00000000000E+00 0. -1.
<mgrwt>
<rscale>  0 0.82155709E+02</rscale>
<asrwt>0</asrwt>
<pdfrwt beam="1">  1        2 0.53754286E-01 0.82155709E+02</pdfrwt>
<pdfrwt beam="2">  1       -1 0.74297755E-03 0.82155709E+02</pdfrwt>
<totfact> 0.25120736E+05</totfact>
</mgrwt>
</event>
<event>
 8    1  0.1673046E-013  0.8026652E+02  0.7818608E-02  0.1328297E+00
          2   -1    0    0  501    0  0.00000000000E+00  0.00000000000E+00  0.58453407973E+03  0.58453407973E+03  0.25500000000E-02 0. -1.
         -1   -1    0    0    0  501 -0.00000000000E+00 -0.00000000000E+00 -0.27554891199E+01  0.27554937292E+01  0.50400000000E-02 0.  1.
         24    2    1    2    0    0  0.35527136788E-14  0.00000000000E+00  0.58177859061E+03  0.58728957346E+03  0.80266522338E+02 0.  0.
         66    2    3    3    0    0 -0.21769192485E+02 -0.17326702435E+02  0.50244115574E+03  0.50321489181E+03  0.20000010483E+01 0.  0.
        -13    1    3    3    0    0  0.21769192485E+02  0.17326702435E+02  0.79337434870E+02  0.84074681649E+02  0.10566000000E+00 0.  1.
         13    1    4    4    0    0 -0.26808837207E+01 -0.27572458218E+01  0.76827433098E+02  0.76923697145E+02  0.10566000000E+00 0. -1.
        -13    1    4    4    0    0 -0.49558312850E+00 -0.35306485096E+00  0.11623424307E+02  0.11639820191E+02  0.10566000000E+00 0. -1.
        -14    1    4    4    0    0 -0.18592725636E+02 -0.14216391762E+02  0.41399029833E+03  0.41465137448E+03  0.00000000000E+00 0.  1.
<mgrwt>
<rscale>  0 0.80266522E+02</rscale>
<asrwt>0</asrwt>
<pdfrwt beam="1">  1        2 0.89928349E-01 0.80266522E+02</pdfrwt>
<pdfrwt beam="2">  1       -1 0.42392162E-03 0.80266522E+02</pdfrwt>
<totfact> 0.31652431E+05</totfact>
</mgrwt>
</event>
<event>
 8    1  0.1673046E-013  0.8718251E+02  0.7818608E-02  0.1309822E+00
          2   -1    0    0  501    0  0.00000000000E+00  0.00000000000E+00  0.38460262925E+03  0.38460262926E+03  0.25500000000E-02 0. -1.
         -1   -1    0    0    0  501 -0.00000000000E+00 -0.00000000000E+00 -0.49406762828E+01  0.49406788535E+01  0.50400000000E-02 0.  1.
         24    2    1    2    0    0 -0.71054273576E-14  0.35527136788E-14  0.37966195297E+03  0.38954330812E+03  0.87182511802E+02 0.  0.
         66    2    3    3    0    0  0.23172801314E+02  0.30650996866E+02  0.28168855309E+03  0.28430424418E+03  0.19999969486E+01 0.  0.
        -13    1    3    3    0    0 -0.23172801314E+02 -0.30650996866E+02  0.97973399878E+02  0.10523906393E+03  0.10566000000E+00 0.  1.
         13    1    4    4    0    0  0.20707902262E+01  0.36397976084E+01  0.31099012499E+02  0.31379866814E+02  0.10566000000E+00 0. -1.
        -13    1    4    4    0    0  0.19279155111E+01  0.21447478874E+01  0.20532057849E+02  0.20733870002E+02  0.10566000000E+00 0.  1.
         14    1    4    4    0    0  0.19174095576E+02  0.24866451370E+02  0.23005748275E+03  0.23219050737E+03  0.00000000000E+00 0. -1.
<mgrwt>
<rscale>  0 0.87182512E+02</rscale>
<asrwt>0</asrwt>
<pdfrwt beam="1">  1        2 0.59169615E-01 0.87182512E+02</pdfrwt>
<pdfrwt beam="2">  1       -1 0.76010451E-03 0.87182512E+02</pdfrwt>
<totfact> 0.22237561E+05</totfact>
</mgrwt>
</event>
<event>
 8    1  0.1673046E-013  0.7866186E+02  0.7818608E-02  0.1332892E+00
         -1   -1    0    0    0  501 -0.00000000000E+00  0.00000000000E+00  0.12438060183E+01  0.12438162295E+01  0.50400000000E-02 0.  1.
          2   -1    0    0  501    0  0.00000000000E+00 -0.00000000000E+00 -0.12436954145E+04  0.12436954145E+04  0.25500000000E-02 0. -1.
         24    2    1    2    0    0  0.00000000000E+00  0.17763568394E-14 -0.12424516084E+04  0.12449392307E+04  0.78661863677E+02 0.  0.
         66    2    3    3    0    0 -0.19891434690E+01 -0.11036578544E+02 -0.12178355918E+04  0.12178888666E+04  0.19999989223E+01 0.  0.
        -13    1    3    3    0    0  0.19891434690E+01  0.11036578544E+02 -0.24616016633E+02  0.27050364076E+02  0.10566000000E+00 0.  1.
         13    1    4    4    0    0 -0.11541633763E+01 -0.48249991189E+01 -0.51825437298E+03  0.51827812899E+03  0.10566000000E+00 0. -1.
        -13    1    4    4    0    0 -0.10448141434E+01 -0.58758076535E+01 -0.62608569184E+03  0.62611414410E+03  0.10566000000E+00 0.  1.
        -14    1    4    4    0    0  0.20983405065E+00 -0.33577177147E+00 -0.73495526993E+02  0.73496593533E+02  0.00000000000E+00 0.  1.
<mgrwt>
<rscale>  0 0.78661864E+02</rscale>
<asrwt>0</asrwt>
<pdfrwt beam="1">  1        2 0.19133676E+00 0.78661864E+02</pdfrwt>
<pdfrwt beam="2">  1       -1 0.19135655E-03 0.78661864E+02</pdfrwt>
<totfact> 0.36438149E+05</totfact>
</mgrwt>
</event>
<event>
 8    1  0.1673046E-013  0.8071526E+02  0.7818608E-02  0.1327034E+00
          2   -1    0    0  501    0  0.00000000000E+00  0.00000000000E+00  0.36329461605E+02  0.36329461694E+02  0.25500000000E-02 0. -1.
         -1   -1    0    0    0  501 -0.00000000000E+00 -0.00000000000E+00 -0.44832442048E+02  0.44832442332E+02  0.50400000000E-02 0.  1.
         24    2    1    2    0    0 -0.17763568394E-14  0.00000000000E+00 -0.85029804434E+01  0.81161904026E+02  0.80715264905E+02 0.  0.
         66    2    3    3    0    0  0.10140977308E+02  0.34100330761E+01  0.34848954944E+02  0.36509141377E+02  0.19999992523E+01 0.  0.
        -13    1    3    3    0    0 -0.10140977308E+02 -0.34100330761E+01 -0.43351935388E+02  0.44652762649E+02  0.10566000000E+00 0.  1.
         13    1    4    4    0    0  0.14365501748E+01  0.12330809984E+00  0.39493082480E+01  0.42056011420E+01  0.10566000000E+00 0. -1.
        -13    1    4    4    0    0  0.61002810721E+00 -0.12732930756E+00  0.22748186038E+01  0.23609978314E+01  0.10566000000E+00 0. -1.
         14    1    4    4    0    0  0.80943990262E+01  0.34140542839E+01  0.28624828092E+02  0.29942542403E+02  0.00000000000E+00 0. -1.
<mgrwt>
<rscale>  0 0.80715265E+02</rscale>
<asrwt>0</asrwt>
<pdfrwt beam="1">  1        2 0.55891480E-02 0.80715265E+02</pdfrwt>
<pdfrwt beam="2">  1       -1 0.68972988E-02 0.80715265E+02</pdfrwt>
<totfact> 0.13637022E+05</totfact>
</mgrwt>
</event>
<event>
 8    1  0.1673046E-013  0.7885445E+02  0.7818608E-02  0.1332334E+00
         -1   -1    0    0    0  501 -0.00000000000E+00  0.00000000000E+00  0.34492067707E+02  0.34492068075E+02  0.50400000000E-02 0.  1.
          2   -1    0    0  501    0  0.00000000000E+00 -0.00000000000E+00 -0.45068505861E+02  0.45068505933E+02  0.25500000000E-02 0. -1.
         24    2    1    2    0    0  0.00000000000E+00  0.35527136788E-14 -0.10576438154E+02  0.79560574009E+02  0.78854447513E+02 0.  0.
         66    2    3    3    0    0  0.13939970445E+02 -0.31551059685E+02 -0.24507072773E+02  0.42360226051E+02  0.19999979933E+01 0.  0.
        -13    1    3    3    0    0 -0.13939970445E+02  0.31551059685E+02  0.13930634619E+02  0.37200347958E+02  0.10566000000E+00 0.  1.
         13    1    4    4    0    0  0.14422921472E+01 -0.34067655024E+01 -0.29757848636E+01  0.47489701427E+01  0.10566000000E+00 0. -1.
        -13    1    4    4    0    0  0.59921026852E+01 -0.15267968936E+02 -0.11931975131E+02  0.20282982142E+02  0.10566000000E+00 0.  1.
         14    1    4    4    0    0  0.65055756131E+01 -0.12876325246E+02 -0.95993127783E+01  0.17328273766E+02  0.00000000000E+00 0. -1.
<mgrwt>
<rscale>  0 0.78854448E+02</rscale>
<asrwt>0</asrwt>
<pdfrwt beam="1">  1        2 0.69336163E-02 0.78854448E+02</pdfrwt>
<pdfrwt beam="2">  1       -1 0.53064720E-02 0.78854448E+02</pdfrwt>
<totfact> 0.15204678E+05</totfact>
</mgrwt>
</event>
<event>
 8    1  0.1673046E-013  0.7871734E+02  0.7818608E-02  0.1332731E+00
          2   -1    0    0  501    0  0.00000000000E+00  0.00000000000E+00  0.60454934544E+02  0.60454934598E+02  0.25500000000E-02 0. -1.
         -1   -1    0    0    0  501 -0.00000000000E+00 -0.00000000000E+00 -0.25624128402E+02  0.25624128898E+02  0.50400000000E-02 0.  1.
         24    2    1    2    0    0  0.00000000000E+00  0.00000000000E+00  0.34830806142E+02  0.86079063496E+02  0.78717343171E+02 0.  0.
         66    2    3    3    0    0 -0.22056479182E+02  0.32537075632E+02  0.15899390680E+02  0.42449266109E+02  0.20000011516E+01 0.  0.
        -13    1    3    3    0    0  0.22056479182E+02 -0.32537075632E+02  0.18931415462E+02  0.43629797387E+02  0.10566000000E+00 0.  1.
         13    1    4    4    0    0 -0.11367026321E+02  0.16249604937E+02  0.74622578385E+01  0.21188567768E+02  0.10566000000E+00 0. -1.
        -13    1    4    4    0    0 -0.10197766782E+02  0.15254349727E+02  0.81683984756E+01  0.20085405912E+02  0.10566000000E+00 0.  1.
         14    1    4    4    0    0 -0.49168607904E+00  0.10331209679E+01  0.26873436598E+00  0.11752924292E+01  0.00000000000E+00 0. -1.
<mgrwt>
<rscale>  0 0.78717343E+02</rscale>
<asrwt>0</asrwt>
<pdfrwt beam="1">  1        2 0.93007592E-02 0.78717343E+02</pdfrwt>
<pdfrwt beam="2">  1       -1 0.39421737E-02 0.78717343E+02</pdfrwt>
<totfact> 0.16293457E+05</totfact>
</mgrwt>
</event>
<event>
 8    1  0.1673046E-013  0.7924735E+02  0.7818608E-02  0.1331201E+00
          2   -1    0    0  501    0  0.00000000000E+00  0.00000000000E+00  0.10367293627E+03  0.10367293630E+03  0.25500000000E-02 0. -1.
         -1   -1    0    0    0  501 -0.00000000000E+00 -0.00000000000E+00 -0.15144123521E+02  0.15144124360E+02  0.50400000000E-02 0.  1.
         24    2    1    2    0    0  0.00000000000E+00  0.35527136788E-14  0.88528812744E+02  0.11881706066E+03  0.79247354638E+02 0.  0.
         66    2    3    3    0    0  0.22872643673E+02 -0.26648540403E+02  0.71723433842E+02  0.79884626128E+02  0.19999988372E+01 0.  0.
        -13    1    3    3    0    0 -0.22872643673E+02  0.26648540403E+02  0.16805378902E+02  0.38932434528E+02  0.10566000000E+00 0.  1.
         13    1    4    4    0    0  0.39313737904E+01 -0.37294113007E+01  0.10505069394E+02  0.11820822964E+02  0.10566000000E+00 0. -1.
        -13    1    4    4    0    0  0.40010961678E+01 -0.51120692372E+01  0.14176140791E+02  0.15592182471E+02  0.10566000000E+00 0.  1.
         14    1    4    4    0    0  0.14940173715E+02 -0.17807059865E+02  0.47042223656E+02  0.52471620694E+02  0.00000000000E+00 0. -1.
<mgrwt>
<rscale>  0 0.79247355E+02</rscale>
<asrwt>0</asrwt>
<pdfrwt beam="1">  1        2 0.15949683E-01 0.79247355E+02</pdfrwt>
<pdfrwt beam="2">  1       -1 0.23298652E-02 0.79247355E+02</pdfrwt>
<totfact> 0.18365490E+05</totfact>
</mgrwt>
</event>
<event>
 8    1  0.1673046E-013  0.7729507E+02  0.7818608E-02  0.1336908E+00
          2   -1    0    0  501    0  0.00000000000E+00  0.00000000000E+00  0.11245612062E+04  0.11245612062E+04  0.25500000000E-02 0. -1.
         -1   -1    0    0    0  501 -0.00000000000E+00 -0.00000000000E+00 -0.13281861598E+01  0.13281957223E+01  0.50400000000E-02 0.  1.
         24    2    1    2    0    0  0.17763568394E-14  0.00000000000E+00  0.11232330200E+04  0.11258894019E+04  0.77295071373E+02 0.  0.
         66    2    3    3    0    0  0.15410963434E+02  0.17597764122E+02  0.10096356610E+04  0.10099085836E+04  0.19999945356E+01 0.  0.
        -13    1    3    3    0    0 -0.15410963434E+02 -0.17597764122E+02  0.11359735895E+03  0.11598081833E+03  0.10566000000E+00 0.  1.
         13    1    4    4    0    0  0.59724124333E+01  0.69587234271E+01  0.35839105773E+03  0.35850837503E+03  0.10566000000E+00 0. -1.
        -13    1    4    4    0    0  0.88859698239E+01  0.99929797061E+01  0.60480081652E+03  0.60494864157E+03  0.10566000000E+00 0.  1.
         14    1    4    4    0    0  0.55258117694E+00  0.64606098839E+00  0.46443786791E+02  0.46451566952E+02  0.00000000000E+00 0. -1.
<mgrwt>
<rscale>  0 0.77295071E+02</rscale>
<asrwt>0</asrwt>
<pdfrwt beam="1">  1        2 0.17300965E+00 0.77295071E+02</pdfrwt>
<pdfrwt beam="2">  1       -1 0.20433680E-03 0.77295071E+02</pdfrwt>
<totfact> 0.38503468E+05</totfact>
</mgrwt>
</event>
<event>
 8    1  0.1673046E-013  0.7010240E+02  0.7818608E-02  0.1359745E+00
         -1   -1    0    0    0  501 -0.00000000000E+00  0.00000000000E+00  0.26813163698E+02  0.26813164172E+02  0.50400000000E-02 0.  1.
          2   -1    0    0  501    0  0.00000000000E+00 -0.00000000000E+00 -0.45820279561E+02  0.45820279632E+02  0.25500000000E-02 0. -1.
         24    2    1    2    0    0  0.00000000000E+00 -0.35527136788E-14 -0.19007115863E+02  0.72633443804E+02  0.70102401566E+02 0.  0.
         66    2    3    3    0    0  0.24496839548E+02 -0.16755566178E+02 -0.28776632437E+02  0.41387663867E+02  0.20000000439E+01 0.  0.
        -13    1    3    3    0    0 -0.24496839548E+02  0.16755566178E+02  0.97695165735E+01  0.31245779937E+02  0.10566000000E+00 0.  1.
         13    1    4    4    0    0  0.30043506195E+01 -0.20804244495E+01 -0.40863389707E+01  0.54830300705E+01  0.10566000000E+00 0. -1.
        -13    1    4    4    0    0  0.14510578694E+02 -0.10400331004E+02 -0.17691264493E+02  0.25133956760E+02  0.10566000000E+00 0.  1.
        -14    1    4    4    0    0  0.69819102342E+01 -0.42748107249E+01 -0.69990289729E+01  0.10770677036E+02  0.00000000000E+00 0.  1.
<mgrwt>
<rscale>  0 0.70102402E+02</rscale>
<asrwt>0</asrwt>
<pdfrwt beam="1">  1        2 0.70492738E-02 0.70102402E+02</pdfrwt>
<pdfrwt beam="2">  1       -1 0.41251022E-02 0.70102402E+02</pdfrwt>
<totfact> 0.21001595E+05</totfact>
</mgrwt>
</event>
<event>
 8    1  0.1673046E-013  0.8100040E+02  0.7818608E-02  0.1326236E+00
          2   -1    0    0  501    0  0.00000000000E+00  0.00000000000E+00  0.26339695793E+02  0.26339695917E+02  0.25500000000E-02 0. -1.
         -1   -1    0    0    0  501 -0.00000000000E+00 -0.00000000000E+00 -0.62273543803E+02  0.62273544007E+02  0.50400000000E-02 0.  1.
         24    2    1    2    0    0 -0.17763568394E-14  0.00000000000E+00 -0.35933848010E+02  0.88613239923E+02  0.81000400351E+02 0.  0.
         66    2    3    3    0    0 -0.10237539200E+02  0.30994877778E+02  0.82041145114E+01  0.33716422558E+02  0.19999994567E+01 0.  0.
        -13    1    3    3    0    0  0.10237539200E+02 -0.30994877778E+02 -0.44137962521E+02  0.54896817366E+02  0.10566000000E+00 0.  1.
         13    1    4    4    0    0 -0.54045466341E+01  0.15443163127E+02  0.44961956138E+01  0.16968422164E+02  0.10566000000E+00 0.  1.
        -13    1    4    4    0    0 -0.10888486896E+01  0.33133694311E+01  0.13095710501E+01  0.37269489971E+01  0.10566000000E+00 0. -1.
        -14    1    4    4    0    0 -0.37441438761E+01  0.12238345220E+02  0.23983478475E+01  0.13021051397E+02  0.00000000000E+00 0.  1.
<mgrwt>
<rscale>  0 0.81000400E+02</rscale>
<asrwt>0</asrwt>
<pdfrwt beam="1">  1        2 0.40522609E-02 0.81000400E+02</pdfrwt>
<pdfrwt beam="2">  1       -1 0.95805452E-02 0.81000400E+02</pdfrwt>
<totfact> 0.12662033E+05</totfact>
</mgrwt>
</event>
<event>
 8    1  0.1673046E-013  0.7748158E+02  0.7818608E-02  0.1336354E+00
          2   -1    0    0  501    0  0.00000000000E+00  0.00000000000E+00  0.25946195564E+02  0.25946195690E+02  0.25500000000E-02 0. -1.
         -1   -1    0    0    0  501 -0.00000000000E+00 -0.00000000000E+00 -0.57844660968E+02  0.57844661188E+02  0.50400000000E-02 0.  1.
         24    2    1    2    0    0  0.35527136788E-14  0.00000000000E+00 -0.31898465404E+02  0.83790856878E+02  0.77481582335E+02 0.  0.
         66    2    3    3    0    0  0.18168888220E+02 -0.24996692787E+02  0.92609208750E+01  0.32321940118E+02  0.20000020248E+01 0.  0.
        -13    1    3    3    0    0 -0.18168888220E+02  0.24996692787E+02 -0.41159386279E+02  0.51468916759E+02  0.10566000000E+00 0.  1.
         13    1    4    4    0    0  0.10955423710E+01 -0.18349065024E+01  0.31188179844E+00  0.21622972162E+01  0.10566000000E+00 0. -1.
        -13    1    4    4    0    0  0.52737174445E+01 -0.74654542248E+01  0.34136052403E+01  0.97575082495E+01  0.10566000000E+00 0.  1.
         14    1    4    4    0    0  0.11799628405E+02 -0.15696332060E+02  0.55354338363E+01  0.20402134653E+02  0.00000000000E+00 0. -1.
<mgrwt>
<rscale>  0 0.77481582E+02</rscale>
<asrwt>0</asrwt>
<pdfrwt beam="1">  1        2 0.39917224E-02 0.77481582E+02</pdfrwt>
<pdfrwt beam="2">  1       -1 0.88991787E-02 0.77481582E+02</pdfrwt>
<totfact> 0.14308950E+05</totfact>
</mgrwt>
</event>
<event>
 8    1  0.1673046E-013  0.8142825E+02  0.7818608E-02  0.1325046E+00
         -1   -1    0    0    0  501 -0.00000000000E+00  0.00000000000E+00  0.27661145714E+02  0.27661146174E+02  0.50400000000E-02 0.  1.
          2   -1    0    0  501    0  0.00000000000E+00 -0.00000000000E+00 -0.59926660347E+02  0.59926660401E+02  0.25500000000E-02 0. -1.
         24    2    1    2    0    0  0.00000000000E+00  0.44408920985E-15 -0.32265514633E+02  0.87587806575E+02  0.81428253242E+02 0.  0.
         66    2    3    3    0    0 -0.12504925420E+02  0.27989407501E+01 -0.57682765784E+02  0.59122827228E+02  0.20000004715E+01 0.  0.
        -13    1    3    3    0    0  0.12504925420E+02 -0.27989407501E+01  0.25417251151E+02  0.28464979347E+02  0.10566000000E+00 0.  1.
         13    1    4    4    0    0 -0.44253342653E+01  0.83832270537E+00 -0.16968919513E+02  0.17556815252E+02  0.10566000000E+00 0. -1.
        -13    1    4    4    0    0 -0.69076474456E+00  0.33050201378E+00 -0.28143203799E+01  0.29185528520E+01  0.10566000000E+00 0. -1.
         14    1    4    4    0    0 -0.73888264105E+01  0.16301160309E+01 -0.37899525891E+02  0.38647459124E+02  0.00000000000E+00 0. -1.
<mgrwt>
<rscale>  0 0.81428253E+02</rscale>
<asrwt>0</asrwt>
<pdfrwt beam="1">  1        2 0.92194862E-02 0.81428253E+02</pdfrwt>
<pdfrwt beam="2">  1       -1 0.42555610E-02 0.81428253E+02</pdfrwt>
<totfact> 0.14829427E+05</totfact>
</mgrwt>
</event>
<event>
 8    1  0.1673046E-013  0.8002553E+02  0.7818608E-02  0.1328979E+00
          2   -1    0    0  501    0  0.00000000000E+00  0.00000000000E+00  0.18284649666E+03  0.18284649668E+03  0.25500000000E-02 0. -1.
         -1   -1    0    0    0  501 -0.00000000000E+00 -0.00000000000E+00 -0.87560952325E+01  0.87560966830E+01  0.50400000000E-02 0.  1.
         24    2    1    2    0    0  0.00000000000E+00  0.00000000000E+00  0.17409040143E+03  0.19160259336E+03  0.80025532885E+02 0.  0.
         66    2    3    3    0    0 -0.17652729547E+02 -0.24213893772E+01  0.17281069451E+03  0.17373836092E+03  0.19999822873E+01 0.  0.
        -13    1    3    3    0    0  0.17652729547E+02  0.24213893772E+01  0.12797069149E+01  0.17864232444E+02  0.10566000000E+00 0.  1.
         13    1    4    4    0    0 -0.18064387632E+01 -0.58707067120E+00  0.15165935898E+02  0.15284784875E+02  0.10566000000E+00 0. -1.
        -13    1    4    4    0    0 -0.45741976641E+01 -0.40182046587E+00  0.50183388733E+02  0.50393138548E+02  0.10566000000E+00 0.  1.
         14    1    4    4    0    0 -0.11272093120E+02 -0.14324982401E+01  0.10746136988E+03  0.10806043749E+03  0.00000000000E+00 0. -1.
<mgrwt>
<rscale>  0 0.80025533E+02</rscale>
<asrwt>0</asrwt>
<pdfrwt beam="1">  1        2 0.28130228E-01 0.80025533E+02</pdfrwt>
<pdfrwt beam="2">  1       -1 0.13470918E-02 0.80025533E+02</pdfrwt>
<totfact> 0.21370250E+05</totfact>
</mgrwt>
</event>
<event>
 8    1  0.1673046E-013  0.7202364E+02  0.7818608E-02  0.1353344E+00
         -1   -1    0    0    0  501 -0.00000000000E+00  0.00000000000E+00  0.30804206396E+01  0.30804247627E+01  0.50400000000E-02 0.  1.
          2   -1    0    0  501    0  0.00000000000E+00 -0.00000000000E+00 -0.42099774936E+03  0.42099774937E+03  0.25500000000E-02 0. -1.
         24    2    1    2    0    0  0.00000000000E+00  0.00000000000E+00 -0.41791732872E+03  0.42407817413E+03  0.72023635905E+02 0.  0.
         66    2    3    3    0    0  0.26653699290E+02 -0.16837930601E+01 -0.35111656748E+03  0.35213647752E+03  0.19999990076E+01 0.  0.
        -13    1    3    3    0    0 -0.26653699290E+02  0.16837930601E+01 -0.66800761243E+02  0.71941696613E+02  0.10566000000E+00 0.  1.
         13    1    4    4    0    0  0.11325697755E+02 -0.10429697386E+01 -0.14713284371E+03  0.14757182684E+03  0.10566000000E+00 0. -1.
        -13    1    4    4    0    0  0.48033280457E+01 -0.28561106387E+00 -0.72810308985E+02  0.72969211264E+02  0.10566000000E+00 0.  1.
        -14    1    4    4    0    0  0.10524673490E+02 -0.35521225767E+00 -0.13117341478E+03  0.13159543941E+03  0.00000000000E+00 0.  1.
<mgrwt>
<rscale>  0 0.72023636E+02</rscale>
<asrwt>0</asrwt>
<pdfrwt beam="1">  1        2 0.64768839E-01 0.72023636E+02</pdfrwt>
<pdfrwt beam="2">  1       -1 0.47391152E-03 0.72023636E+02</pdfrwt>
<totfact> 0.37774703E+05</totfact>
</mgrwt>
</event>
<event>
 8    1  0.1673046E-013  0.7898405E+02  0.7818608E-02  0.1331960E+00
         -1   -1    0    0    0  501 -0.00000000000E+00  0.00000000000E+00  0.44520603563E+02  0.44520603848E+02  0.50400000000E-02 0.  1.
          2   -1    0    0  501    0  0.00000000000E+00 -0.00000000000E+00 -0.35031418841E+02  0.35031418934E+02  0.25500000000E-02 0. -1.
         24    2    1    2    0    0  0.17763568394E-14  0.00000000000E+00  0.94891847217E+01  0.79552022782E+02  0.78984047136E+02 0.  0.
         66    2    3    3    0    0  0.94533891426E+01  0.26354836892E+02 -0.23267333543E+02  0.36459742188E+02  0.19999990885E+01 0.  0.
        -13    1    3    3    0    0 -0.94533891426E+01 -0.26354836892E+02  0.32756518265E+02  0.43092280594E+02  0.10566000000E+00 0.  1.
         13    1    4    4    0    0  0.12900887704E+01  0.30267908527E+01 -0.29122595079E+01  0.43952487277E+01  0.10566000000E+00 0. -1.
        -13    1    4    4    0    0  0.81844705596E+01  0.23330375702E+02 -0.20254425287E+02  0.31961615986E+02  0.10566000000E+00 0.  1.
        -14    1    4    4    0    0 -0.21170187405E-01 -0.23296623711E-02 -0.10064874871E+00  0.10287747459E+00  0.00000000000E+00 0.  1.
<mgrwt>
<rscale>  0 0.78984047E+02</rscale>
<asrwt>0</asrwt>
<pdfrwt beam="1">  1        2 0.53894491E-02 0.78984047E+02</pdfrwt>
<pdfrwt beam="2">  1       -1 0.68493237E-02 0.78984047E+02</pdfrwt>
<totfact> 0.14378138E+05</totfact>
</mgrwt>
</event>
<event>
 8    1  0.1673046E-013  0.7995949E+02  0.7818608E-02  0.1329166E+00
         -1   -1    0    0    0  501 -0.00000000000E+00  0.00000000000E+00  0.48098026215E+01  0.48098052621E+01  0.50400000000E-02 0.  1.
          2   -1    0    0  501    0  0.00000000000E+00 -0.00000000000E+00 -0.33231704629E+03  0.33231704630E+03  0.25500000000E-02 0. -1.
         24    2    1    2    0    0 -0.17763568394E-14  0.71054273576E-14 -0.32750724367E+03  0.33712685157E+03  0.79959485921E+02 0.  0.
         66    2    3    3    0    0  0.12454993840E+02 -0.36161497267E+02 -0.21258809609E+03  0.21601036878E+03  0.20000168320E+01 0.  0.
        -13    1    3    3    0    0 -0.12454993840E+02  0.36161497267E+02 -0.11491914759E+03  0.12111648279E+03  0.10566000000E+00 0.  1.
         13    1    4    4    0    0  0.55472564496E+00 -0.23059431029E+01 -0.11661699105E+02  0.11900902662E+02  0.10566000000E+00 0. -1.
        -13    1    4    4    0    0  0.20427067082E+01 -0.71634006371E+01 -0.42635005424E+02  0.43280963609E+02  0.10566000000E+00 0.  1.
         14    1    4    4    0    0  0.98575614864E+01 -0.26692153527E+02 -0.15829139156E+03  0.16082850251E+03  0.00000000000E+00 0. -1.
<mgrwt>
<rscale>  0 0.79959486E+02</rscale>
<asrwt>0</asrwt>
<pdfrwt beam="1">  1        2 0.51125681E-01 0.79959486E+02</pdfrwt>
<pdfrwt beam="2">  1       -1 0.73997011E-03 0.79959486E+02</pdfrwt>
<totfact> 0.26488699E+05</totfact>
</mgrwt>
</event>
<event>
 8    1  0.1673046E-013  0.7899971E+02  0.7818608E-02  0.1331914E+00
          2   -1    0    0  501    0  0.00000000000E+00  0.00000000000E+00  0.10873142459E+04  0.10873142459E+04  0.25500000000E-02 0. -1.
         -1   -1    0    0    0  501 -0.00000000000E+00 -0.00000000000E+00 -0.14349426761E+01  0.14349515271E+01  0.50400000000E-02 0.  1.
         24    2    1    2    0    0 -0.17763568394E-14  0.00000000000E+00  0.10858793032E+04  0.10887491974E+04  0.78999707180E+02 0.  0.
         66    2    3    3    0    0  0.13328248009E+02 -0.10329109306E+02  0.10351791314E+04  0.10353183891E+04  0.19999966297E+01 0.  0.
        -13    1    3    3    0    0 -0.13328248009E+02  0.10329109306E+02  0.50700171837E+02  0.53430808364E+02  0.10566000000E+00 0.  1.
         13    1    4    4    0    0  0.91120660761E+01 -0.65729946824E+01  0.64902022337E+03  0.64911747436E+03  0.10566000000E+00 0. -1.
        -13    1    4    4    0    0  0.15585389010E+00 -0.32763686134E+00  0.29429830103E+02  0.29432256119E+02  0.10566000000E+00 0. -1.
         14    1    4    4    0    0  0.40603280423E+01 -0.34284777625E+01  0.35672907790E+03  0.35676865857E+03  0.00000000000E+00 0. -1.
<mgrwt>
<rscale>  0 0.78999707E+02</rscale>
<asrwt>0</asrwt>
<pdfrwt beam="1">  1        2 0.16727900E+00 0.78999707E+02</pdfrwt>
<pdfrwt beam="2">  1       -1 0.22076124E-03 0.78999707E+02</pdfrwt>
<totfact> 0.36433001E+05</totfact>
</mgrwt>
</event>
<event>
 8    1  0.1673046E-013  0.7880828E+02  0.7818608E-02  0.1332468E+00
          2   -1    0    0  501    0  0.00000000000E+00  0.00000000000E+00  0.30704635283E+03  0.30704635284E+03  0.25500000000E-02 0. -1.
         -1   -1    0    0    0  501 -0.00000000000E+00 -0.00000000000E+00 -0.50568448051E+01  0.50568473167E+01  0.50400000000E-02 0.  1.
         24    2    1    2    0    0 -0.17763568394E-14  0.00000000000E+00  0.30198950803E+03  0.31210320016E+03  0.78808277429E+02 0.  0.
         66    2    3    3    0    0  0.85033558771E+01 -0.58864379939E+01  0.30156815814E+03  0.30175206915E+03  0.20000049099E+01 0.  0.
        -13    1    3    3    0    0 -0.85033558771E+01  0.58864379939E+01  0.42134988906E+00  0.10351131010E+02  0.10566000000E+00 0.  1.
         13    1    4    4    0    0  0.13131083169E+01 -0.13023053335E+01  0.42875736258E+02  0.42915733436E+02  0.10566000000E+00 0. -1.
        -13    1    4    4    0    0  0.65394766377E+00 -0.92819109813E+00  0.33200370700E+02  0.33219948298E+02  0.10566000000E+00 0.  1.
        -14    1    4    4    0    0  0.65362998964E+01 -0.36559415623E+01  0.22549205118E+03  0.22561638742E+03  0.00000000000E+00 0.  1.
<mgrwt>
<rscale>  0 0.78808277E+02</rscale>
<asrwt>0</asrwt>
<pdfrwt beam="1">  1        2 0.47237896E-01 0.78808277E+02</pdfrwt>
<pdfrwt beam="2">  1       -1 0.77797639E-03 0.78808277E+02</pdfrwt>
<totfact> 0.26740292E+05</totfact>
</mgrwt>
</event>
<event>
 8    1  0.1673046E-013  0.7992146E+02  0.7818608E-02  0.1329274E+00
          2   -1    0    0  501    0  0.00000000000E+00  0.00000000000E+00  0.19419660828E+02  0.19419660995E+02  0.25500000000E-02 0. -1.
         -1   -1    0    0    0  501 -0.00000000000E+00 -0.00000000000E+00 -0.82229040238E+02  0.82229040393E+02  0.50400000000E-02 0.  1.
         24    2    1    2    0    0  0.71054273576E-14  0.11102230246E-15 -0.62809379410E+02  0.10164870139E+03  0.79921463650E+02 0.  0.
         66    2    3    3    0    0 -0.23763504723E+02 -0.65197246586E+00  0.93887649542E+01  0.25637436180E+02  0.20000004195E+01 0.  0.
        -13    1    3    3    0    0  0.23763504723E+02  0.65197246586E+00 -0.72198144365E+02  0.76011265208E+02  0.10566000000E+00 0.  1.
         13    1    4    4    0    0 -0.81361448568E+00  0.24015886385E+00  0.29727462827E+00  0.90508621214E+00  0.10566000000E+00 0. -1.
        -13    1    4    4    0    0 -0.83224069849E+01 -0.83303138662E+00  0.36313830251E+01  0.91189092562E+01  0.10566000000E+00 0.  1.
         14    1    4    4    0    0 -0.14627483253E+02 -0.59099943085E-01  0.54601073008E+01  0.15613440711E+02  0.00000000000E+00 0. -1.
<mgrwt>
<rscale>  0 0.79921464E+02</rscale>
<asrwt>0</asrwt>
<pdfrwt beam="1">  1        2 0.29876402E-02 0.79921464E+02</pdfrwt>
<pdfrwt beam="2">  1       -1 0.12650621E-01 0.79921464E+02</pdfrwt>
<totfact> 0.12376708E+05</totfact>
</mgrwt>
</event>
<event>
 8    1  0.1673046E-013  0.7685466E+02  0.7818608E-02  0.1338222E+00
         -1   -1    0    0    0  501 -0.00000000000E+00  0.00000000000E+00  0.13493364701E+01  0.13493458827E+01  0.50400000000E-02 0.  1.
          2   -1    0    0  501    0  0.00000000000E+00 -0.00000000000E+00 -0.10943560524E+04  0.10943560524E+04  0.25500000000E-02 0. -1.
         24    2    1    2    0    0 -0.17763568394E-14  0.00000000000E+00 -0.10930067160E+04  0.10957053983E+04  0.76854660007E+02 0.  0.
         66    2    3    3    0    0  0.12267811670E+02  0.13205042435E+02 -0.10303000067E+04  0.10304595947E+04  0.20000000867E+01 0.  0.
        -13    1    3    3    0    0 -0.12267811670E+02 -0.13205042435E+02 -0.62706709237E+02  0.65245803668E+02  0.10566000000E+00 0.  1.
         13    1    4    4    0    0  0.70879694996E+01  0.67284757962E+01 -0.58863991066E+03  0.58872104369E+03  0.10566000000E+00 0. -1.
        -13    1    4    4    0    0  0.48968370139E+01  0.57987834582E+01 -0.40316791014E+03  0.40323935799E+03  0.10566000000E+00 0.  1.
        -14    1    4    4    0    0  0.28300515631E+00  0.67778318014E+00 -0.38492185932E+02  0.38499192976E+02  0.00000000000E+00 0.  1.
<mgrwt>
<rscale>  0 0.76854660E+02</rscale>
<asrwt>0</asrwt>
<pdfrwt beam="1">  1        2 0.16836176E+00 0.76854660E+02</pdfrwt>
<pdfrwt beam="2">  1       -1 0.20759183E-03 0.76854660E+02</pdfrwt>
<totfact> 0.39117977E+05</totfact>
</mgrwt>
</event>
<event>
 8    1  0.1673046E-013  0.7760457E+02  0.7818608E-02  0.1335990E+00
         -1   -1    0    0    0  501 -0.00000000000E+00  0.00000000000E+00  0.77890344029E+01  0.77890360335E+01  0.50400000000E-02 0.  1.
          2   -1    0    0  501    0  0.00000000000E+00 -0.00000000000E+00 -0.19329959712E+03  0.19329959713E+03  0.25500000000E-02 0. -1.
         24    2    1    2    0    0  0.00000000000E+00 -0.17763568394E-14 -0.18551056271E+03  0.20108863317E+03  0.77604571454E+02 0.  0.
         66    2    3    3    0    0 -0.34800414563E+02 -0.12673193136E+02 -0.12257981864E+03  0.12806830454E+03  0.20000034724E+01 0.  0.
        -13    1    3    3    0    0  0.34800414563E+02  0.12673193136E+02 -0.62930744078E+02  0.73020328623E+02  0.10566000000E+00 0.  1.
         13    1    4    4    0    0 -0.18220182782E+02 -0.66854759500E+01 -0.63839740471E+02  0.66724765093E+02  0.10566000000E+00 0. -1.
        -13    1    4    4    0    0 -0.20109135600E+01 -0.10672620289E+01 -0.87294625935E+01  0.90220564613E+01  0.10566000000E+00 0.  1.
        -14    1    4    4    0    0 -0.14569318221E+02 -0.49204551569E+01 -0.50010615572E+02  0.52321482990E+02  0.00000000000E+00 0.  1.
<mgrwt>
<rscale>  0 0.77604571E+02</rscale>
<asrwt>0</asrwt>
<pdfrwt beam="1">  1        2 0.29738396E-01 0.77604571E+02</pdfrwt>
<pdfrwt beam="2">  1       -1 0.11983133E-02 0.77604571E+02</pdfrwt>
<totfact> 0.23618827E+05</totfact>
</mgrwt>
</event>
<event>
 8    1  0.1673046E-013  0.7869910E+02  0.7818608E-02  0.1332784E+00
          2   -1    0    0  501    0  0.00000000000E+00  0.00000000000E+00  0.76591956467E+03  0.76591956468E+03  0.25500000000E-02 0. -1.
         -1   -1    0    0    0  501 -0.00000000000E+00 -0.00000000000E+00 -0.20216022745E+01  0.20216085571E+01  0.50400000000E-02 0.  1.
         24    2    1    2    0    0 -0.35527136788E-14  0.00000000000E+00  0.76389796240E+03  0.76794117324E+03  0.78699101596E+02 0.  0.
         66    2    3    3    0    0  0.17130564475E+02 -0.50540681537E+01  0.72405483380E+03  0.72427784876E+03  0.20000004297E+01 0.  0.
        -13    1    3    3    0    0 -0.17130564475E+02  0.50540681537E+01  0.39843128596E+02  0.43663324478E+02  0.10566000000E+00 0.  1.
         13    1    4    4    0    0  0.10439792013E+01 -0.67262893570E+00  0.51336121700E+02  0.51351250009E+02  0.10566000000E+00 0. -1.
        -13    1    4    4    0    0  0.24463671638E+01 -0.20960026192E+00  0.93807167847E+02  0.93839355007E+02  0.10566000000E+00 0.  1.
         14    1    4    4    0    0  0.13640218110E+02 -0.41718389561E+01  0.57891154426E+03  0.57908724374E+03  0.00000000000E+00 0. -1.
<mgrwt>
<rscale>  0 0.78699102E+02</rscale>
<asrwt>0</asrwt>
<pdfrwt beam="1">  1        2 0.11783381E+00 0.78699102E+02</pdfrwt>
<pdfrwt beam="2">  1       -1 0.31101615E-03 0.78699102E+02</pdfrwt>
<totfact> 0.35576043E+05</totfact>
</mgrwt>
</event>
<event>
 8    1  0.1673046E-013  0.7839702E+02  0.7818608E-02  0.1333663E+00
          2   -1    0    0  501    0  0.00000000000E+00  0.00000000000E+00  0.30166961682E+03  0.30166961683E+03  0.25500000000E-02 0. -1.
         -1   -1    0    0    0  501 -0.00000000000E+00 -0.00000000000E+00 -0.50933957676E+01  0.50933982612E+01  0.50400000000E-02 0.  1.
         24    2    1    2    0    0  0.00000000000E+00 -0.35527136788E-14  0.29657622105E+03  0.30676301509E+03  0.78397018659E+02 0.  0.
         66    2    3    3    0    0  0.17903235475E+02 -0.22292292386E+02  0.25316400795E+03  0.25478125338E+03  0.20000029868E+01 0.  0.
        -13    1    3    3    0    0 -0.17903235475E+02  0.22292292386E+02  0.43412213104E+02  0.51981761714E+02  0.10566000000E+00 0.  1.
         13    1    4    4    0    0  0.67471358321E+01 -0.81379802470E+01  0.94829097979E+02  0.95416558060E+02  0.10566000000E+00 0. -1.
        -13    1    4    4    0    0  0.11498800572E+01 -0.12719899380E+01  0.11736259010E+02  0.11861328852E+02  0.10566000000E+00 0.  1.
        -14    1    4    4    0    0  0.10006219586E+02 -0.12882322201E+02  0.14659865096E+03  0.14750336647E+03  0.00000000000E+00 0.  1.
<mgrwt>
<rscale>  0 0.78397019E+02</rscale>
<asrwt>0</asrwt>
<pdfrwt beam="1">  1        2 0.46410709E-01 0.78397019E+02</pdfrwt>
<pdfrwt beam="2">  1       -1 0.78359956E-03 0.78397019E+02</pdfrwt>
<totfact> 0.26936467E+05</totfact>
</mgrwt>
</event>
<event>
 8    1  0.1673046E-013  0.7904513E+02  0.7818608E-02  0.1331783E+00
         -1   -1    0    0    0  501 -0.00000000000E+00  0.00000000000E+00  0.55199848085E+02  0.55199848315E+02  0.50400000000E-02 0.  1.
          2   -1    0    0  501    0  0.00000000000E+00 -0.00000000000E+00 -0.28297778790E+02  0.28297778905E+02  0.25500000000E-02 0. -1.
         24    2    1    2    0    0 -0.35527136788E-14  0.35527136788E-14  0.26902069295E+02  0.83497627220E+02  0.79045129003E+02 0.  0.
         66    2    3    3    0    0 -0.25655623594E+02  0.25233445310E+02 -0.37390933085E+01  0.36234218605E+02  0.19999987458E+01 0.  0.
        -13    1    3    3    0    0  0.25655623594E+02 -0.25233445310E+02  0.30641162603E+02  0.47263408615E+02  0.10566000000E+00 0.  1.
         13    1    4    4    0    0 -0.83918795535E+01  0.81913507018E+01 -0.83928299592E+00  0.11757441420E+02  0.10566000000E+00 0. -1.
        -13    1    4    4    0    0 -0.15561130401E+02  0.15499698552E+02 -0.21914004381E+01  0.22072671666E+02  0.10566000000E+00 0.  1.
         14    1    4    4    0    0 -0.17026136393E+01  0.15423960559E+01 -0.70840987448E+00  0.24041055194E+01  0.00000000000E+00 0. -1.
<mgrwt>
<rscale>  0 0.79045129E+02</rscale>
<asrwt>0</asrwt>
<pdfrwt beam="1">  1        2 0.43535045E-02 0.79045129E+02</pdfrwt>
<pdfrwt beam="2">  1       -1 0.84922843E-02 0.79045129E+02</pdfrwt>
<totfact> 0.13757436E+05</totfact>
</mgrwt>
</event>
<event>
 8    1  0.1673046E-013  0.7754840E+02  0.7818608E-02  0.1336156E+00
         -1   -1    0    0    0  501 -0.00000000000E+00  0.00000000000E+00  0.30695965499E+02  0.30695965913E+02  0.50400000000E-02 0.  1.
          2   -1    0    0  501    0  0.00000000000E+00 -0.00000000000E+00 -0.48978381310E+02  0.48978381376E+02  0.25500000000E-02 0. -1.
         24    2    1    2    0    0  0.00000000000E+00  0.00000000000E+00 -0.18282415811E+02  0.79674347289E+02  0.77548403518E+02 0.  0.
         66    2    3    3    0    0 -0.13968287307E+01 -0.25483540205E+02 -0.39102557086E+02  0.46737264865E+02  0.20000011317E+01 0.  0.
        -13    1    3    3    0    0  0.13968287307E+01  0.25483540205E+02  0.20820141275E+02  0.32937082424E+02  0.10566000000E+00 0.  1.
         13    1    4    4    0    0 -0.28411217588E+00 -0.61787609955E+01 -0.10048868549E+02  0.11800369923E+02  0.10566000000E+00 0. -1.
        -13    1    4    4    0    0 -0.11124089009E+01 -0.66666223099E+01 -0.10506632081E+02  0.12493269720E+02  0.10566000000E+00 0.  1.
        -14    1    4    4    0    0 -0.30765390361E-03 -0.12638156899E+02 -0.18547056456E+02  0.22443625222E+02  0.00000000000E+00 0.  1.
<mgrwt>
<rscale>  0 0.77548404E+02</rscale>
<asrwt>0</asrwt>
<pdfrwt beam="1">  1        2 0.75351356E-02 0.77548404E+02</pdfrwt>
<pdfrwt beam="2">  1       -1 0.47224563E-02 0.77548404E+02</pdfrwt>
<totfact> 0.16198175E+05</totfact>
</mgrwt>
</event>
<event>
 8    1  0.1673046E-013  0.7911646E+02  0.7818608E-02  0.1331578E+00
         -1   -1    0    0    0  501 -0.00000000000E+00  0.00000000000E+00  0.25364231823E+02  0.25364232324E+02  0.50400000000E-02 0.  1.
          2   -1    0    0  501    0  0.00000000000E+00 -0.00000000000E+00 -0.61695279806E+02  0.61695279858E+02  0.25500000000E-02 0. -1.
         24    2    1    2    0    0 -0.17763568394E-14  0.00000000000E+00 -0.36331047983E+02  0.87059512182E+02  0.79116456024E+02 0.  0.
         66    2    3    3    0    0 -0.12483547464E+02 -0.37442135932E+02 -0.20661161162E+02  0.44594126073E+02  0.19999998068E+01 0.  0.
        -13    1    3    3    0    0  0.12483547464E+02  0.37442135932E+02 -0.15669886821E+02  0.42465386109E+02  0.10566000000E+00 0.  1.
         13    1    4    4    0    0 -0.26279459682E+01 -0.67279180046E+01 -0.42528994416E+01  0.83826784731E+01  0.10566000000E+00 0. -1.
        -13    1    4    4    0    0 -0.40215465987E+01 -0.14429594213E+02 -0.73861226032E+01  0.16701856104E+02  0.10566000000E+00 0.  1.
        -14    1    4    4    0    0 -0.58340548969E+01 -0.16284623714E+02 -0.90221391169E+01  0.19509591495E+02  0.00000000000E+00 0.  1.
<mgrwt>
<rscale>  0 0.79116456E+02</rscale>
<asrwt>0</asrwt>
<pdfrwt beam="1">  1        2 0.94915815E-02 0.79116456E+02</pdfrwt>
<pdfrwt beam="2">  1       -1 0.39021896E-02 0.79116456E+02</pdfrwt>
<totfact> 0.16146960E+05</totfact>
</mgrwt>
</event>
<event>
 8    1  0.1673046E-013  0.8718116E+02  0.7818608E-02  0.1309825E+00
          2   -1    0    0  501    0  0.00000000000E+00  0.00000000000E+00  0.43289710714E+03  0.43289710715E+03  0.25500000000E-02 0. -1.
         -1   -1    0    0    0  501 -0.00000000000E+00 -0.00000000000E+00 -0.43893521576E+01  0.43893550512E+01  0.50400000000E-02 0.  1.
         24    2    1    2    0    0  0.17763568394E-14  0.71054273576E-14  0.42850775498E+03  0.43728646220E+03  0.87181155890E+02 0.  0.
         66    2    3    3    0    0  0.91434353222E+01 -0.42437231330E+02  0.19586038758E+03  0.20062355903E+03  0.20000007003E+01 0.  0.
        -13    1    3    3    0    0 -0.91434353222E+01  0.42437231330E+02  0.23264736740E+03  0.23666290317E+03  0.10566000000E+00 0.  1.
         13    1    4    4    0    0  0.24113220901E+01 -0.13684089136E+02  0.60331851667E+02  0.61911325776E+02  0.10566000000E+00 0. -1.
        -13    1    4    4    0    0  0.10276104271E+01 -0.31356832982E+01  0.15643608175E+02  0.15988187318E+02  0.10566000000E+00 0.  1.
        -14    1    4    4    0    0  0.57045028050E+01 -0.25617458896E+02  0.11988492774E+03  0.12272404594E+03  0.00000000000E+00 0.  1.
<mgrwt>
<rscale>  0 0.87181156E+02</rscale>
<asrwt>0</asrwt>
<pdfrwt beam="1">  1        2 0.66599530E-01 0.87181156E+02</pdfrwt>
<pdfrwt beam="2">  1       -1 0.67528543E-03 0.87181156E+02</pdfrwt>
<totfact> 0.23178315E+05</totfact>
</mgrwt>
</event>
<event>
 8    1  0.1673046E-013  0.7960301E+02  0.7818608E-02  0.1330182E+00
          2   -1    0    0  501    0  0.00000000000E+00  0.00000000000E+00  0.64424406260E+03  0.64424406261E+03  0.25500000000E-02 0. -1.
         -1   -1    0    0    0  501 -0.00000000000E+00 -0.00000000000E+00 -0.24589412853E+01  0.24589464504E+01  0.50400000000E-02 0.  1.
         24    2    1    2    0    0  0.00000000000E+00  0.22204460493E-15  0.64178512132E+03  0.64670300906E+03  0.79603014896E+02 0.  0.
         66    2    3    3    0    0 -0.11256371447E+02  0.97617939460E+00  0.63093040572E+03  0.63103473413E+03  0.19999995562E+01 0.  0.
        -13    1    3    3    0    0  0.11256371447E+02 -0.97617939460E+00  0.10854715600E+02  0.15668274926E+02  0.10566000000E+00 0.  1.
         13    1    4    4    0    0 -0.29596039906E+01 -0.23298028898E+00  0.15226576279E+03  0.15229473798E+03  0.10566000000E+00 0. -1.
        -13    1    4    4    0    0 -0.42928849969E+00  0.35402206342E+00  0.39408033794E+02  0.39412103621E+02  0.10566000000E+00 0.  1.
         14    1    4    4    0    0 -0.78674789565E+01  0.85513762017E+00  0.43925660914E+03  0.43932789253E+03  0.00000000000E+00 0. -1.
<mgrwt>
<rscale>  0 0.79603015E+02</rscale>
<asrwt>0</asrwt>
<pdfrwt beam="1">  1        2 0.99114510E-01 0.79603015E+02</pdfrwt>
<pdfrwt beam="2">  1       -1 0.37829891E-03 0.79603015E+02</pdfrwt>
<totfact> 0.33209474E+05</totfact>
</mgrwt>
</event>
<event>
 8    1  0.1673046E-013  0.8026613E+02  0.7818608E-02  0.1328298E+00
         -1   -1    0    0    0  501 -0.00000000000E+00  0.00000000000E+00  0.38475085890E+01  0.38475118900E+01  0.50400000000E-02 0.  1.
          2   -1    0    0  501    0  0.00000000000E+00 -0.00000000000E+00 -0.41862473775E+03  0.41862473775E+03  0.25500000000E-02 0. -1.
         24    2    1    2    0    0 -0.35527136788E-14 -0.35527136788E-14 -0.41477722916E+03  0.42247224964E+03  0.80266131662E+02 0.  0.
         66    2    3    3    0    0  0.29797179181E+02  0.23311246557E+02 -0.27761544165E+03  0.28018854285E+03  0.19999994868E+01 0.  0.
        -13    1    3    3    0    0 -0.29797179181E+02 -0.23311246557E+02 -0.13716178750E+03  0.14228370679E+03  0.10566000000E+00 0.  1.
         13    1    4    4    0    0  0.10764273413E+02  0.85589167009E+01 -0.95491145017E+02  0.96476393890E+02  0.10566000000E+00 0. -1.
        -13    1    4    4    0    0  0.10355231138E+02  0.86124175101E+01 -0.10047044580E+03  0.10136925664E+03  0.10566000000E+00 0.  1.
        -14    1    4    4    0    0  0.86776746308E+01  0.61399123463E+01 -0.81653850831E+02  0.82342892323E+02  0.00000000000E+00 0.  1.
<mgrwt>
<rscale>  0 0.80266132E+02</rscale>
<asrwt>0</asrwt>
<pdfrwt beam="1">  1        2 0.64403770E-01 0.80266132E+02</pdfrwt>
<pdfrwt beam="2">  1       -1 0.59192498E-03 0.80266132E+02</pdfrwt>
<totfact> 0.28455771E+05</totfact>
</mgrwt>
</event>
<event>
 8    1  0.1673046E-013  0.7826165E+02  0.7818608E-02  0.1334058E+00
          2   -1    0    0  501    0  0.00000000000E+00  0.00000000000E+00  0.38604130875E+02  0.38604130959E+02  0.25500000000E-02 0. -1.
         -1   -1    0    0    0  501 -0.00000000000E+00 -0.00000000000E+00 -0.39664709172E+02  0.39664709492E+02  0.50400000000E-02 0.  1.
         24    2    1    2    0    0 -0.17763568394E-14 -0.10408340856E-16 -0.10605782970E+01  0.78268840452E+02  0.78261654463E+02 0.  0.
         66    2    3    3    0    0 -0.13373789986E+02  0.21836634288E-01  0.36219956940E+02  0.38661919251E+02  0.19999960026E+01 0.  0.
        -13    1    3    3    0    0  0.13373789986E+02 -0.21836634288E-01 -0.37280535237E+02  0.39606921201E+02  0.10566000000E+00 0.  1.
         13    1    4    4    0    0 -0.43977840724E+01 -0.34549859521E+00  0.12840000759E+02  0.13577063658E+02  0.10566000000E+00 0. -1.
        -13    1    4    4    0    0 -0.54682785366E+01 -0.44599877168E+00  0.13876201298E+02  0.14921833384E+02  0.10566000000E+00 0.  1.
        -14    1    4    4    0    0 -0.35077273767E+01  0.81333400119E+00  0.95037548826E+01  0.10163022209E+02  0.00000000000E+00 0.  1.
<mgrwt>
<rscale>  0 0.78261654E+02</rscale>
<asrwt>0</asrwt>
<pdfrwt beam="1">  1        2 0.59390971E-02 0.78261654E+02</pdfrwt>
<pdfrwt beam="2">  1       -1 0.61022630E-02 0.78261654E+02</pdfrwt>
<totfact> 0.15037935E+05</totfact>
</mgrwt>
</event>
<event>
 8    1  0.1673046E-013  0.7740482E+02  0.7818608E-02  0.1336582E+00
          2   -1    0    0  501    0  0.00000000000E+00  0.00000000000E+00  0.19705634698E+03  0.19705634700E+03  0.25500000000E-02 0. -1.
         -1   -1    0    0    0  501 -0.00000000000E+00 -0.00000000000E+00 -0.76012595482E+01  0.76012612191E+01  0.50400000000E-02 0.  1.
         24    2    1    2    0    0  0.00000000000E+00  0.00000000000E+00  0.18945508743E+03  0.20465760822E+03  0.77404821857E+02 0.  0.
         66    2    3    3    0    0  0.31624317364E+02  0.73297599389E+01  0.15038039653E+03  0.15385735760E+03  0.19999994088E+01 0.  0.
        -13    1    3    3    0    0 -0.31624317364E+02 -0.73297599389E+01  0.39074690902E+02  0.50800250616E+02  0.10566000000E+00 0.  1.
         13    1    4    4    0    0  0.24622525089E+02  0.54081889116E+01  0.12020137574E+03  0.12281652634E+03  0.10566000000E+00 0. -1.
        -13    1    4    4    0    0  0.30905673822E+01  0.91384734321E+00  0.13331271841E+02  0.13715709848E+02  0.10566000000E+00 0. -1.
         14    1    4    4    0    0  0.39112248934E+01  0.10077236842E+01  0.16847748951E+02  0.17325121411E+02  0.00000000000E+00 0. -1.
<mgrwt>
<rscale>  0 0.77404822E+02</rscale>
<asrwt>0</asrwt>
<pdfrwt beam="1">  1        2 0.30316366E-01 0.77404822E+02</pdfrwt>
<pdfrwt beam="2">  1       -1 0.11694245E-02 0.77404822E+02</pdfrwt>
<totfact> 0.23937582E+05</totfact>
</mgrwt>
</event>
<event>
 8    1  0.1673046E-013  0.7997392E+02  0.7818608E-02  0.1329125E+00
         -1   -1    0    0    0  501 -0.00000000000E+00  0.00000000000E+00  0.91578665858E+02  0.91578665996E+02  0.50400000000E-02 0.  1.
          2   -1    0    0  501    0  0.00000000000E+00 -0.00000000000E+00 -0.17459928468E+02  0.17459928654E+02  0.25500000000E-02 0. -1.
         24    2    1    2    0    0  0.35527136788E-14  0.00000000000E+00  0.74118737390E+02  0.10903859465E+03  0.79973920069E+02 0.  0.
         66    2    3    3    0    0 -0.19264874892E+02 -0.31679811323E+02  0.16758447382E+02  0.40738083058E+02  0.20000006293E+01 0.  0.
        -13    1    3    3    0    0  0.19264874892E+02  0.31679811323E+02  0.57360290008E+02  0.68300511593E+02  0.10566000000E+00 0.  1.
         13    1    4    4    0    0 -0.19849910918E+01 -0.37150807438E+01  0.20031621094E+01  0.46653871265E+01  0.10566000000E+00 0. -1.
        -13    1    4    4    0    0 -0.55167969084E+01 -0.87748442856E+01  0.55171708710E+01  0.11742371090E+02  0.10566000000E+00 0.  1.
         14    1    4    4    0    0 -0.11763086892E+02 -0.19189886293E+02  0.92381144012E+01  0.24330324841E+02  0.00000000000E+00 0. -1.
<mgrwt>
<rscale>  0 0.79973920E+02</rscale>
<asrwt>0</asrwt>
<pdfrwt beam="1">  1        2 0.26861428E-02 0.79973920E+02</pdfrwt>
<pdfrwt beam="2">  1       -1 0.14089026E-01 0.79973920E+02</pdfrwt>
<totfact> 0.12085405E+05</totfact>
</mgrwt>
</event>
<event>
 8    1  0.1673046E-013  0.7873680E+02  0.7818608E-02  0.1332675E+00
         -1   -1    0    0    0  501 -0.00000000000E+00  0.00000000000E+00  0.16765415550E+01  0.16765491306E+01  0.50400000000E-02 0.  1.
          2   -1    0    0  501    0  0.00000000000E+00 -0.00000000000E+00 -0.92444315901E+03  0.92444315902E+03  0.25500000000E-02 0. -1.
         24    2    1    2    0    0  0.00000000000E+00  0.00000000000E+00 -0.92276661746E+03  0.92611970815E+03  0.78736799043E+02 0.  0.
         66    2    3    3    0    0 -0.20308579714E+02 -0.17954745117E+02 -0.79706949971E+03  0.79753281980E+03  0.19999994344E+01 0.  0.
        -13    1    3    3    0    0  0.20308579714E+02  0.17954745117E+02 -0.12569711775E+03  0.12858688835E+03  0.10566000000E+00 0.  1.
         13    1    4    4    0    0 -0.58340527126E+01 -0.44642747744E+01 -0.20895092100E+03  0.20908004322E+03  0.10566000000E+00 0. -1.
        -13    1    4    4    0    0 -0.31958762319E+01 -0.35455129920E+01 -0.13127251234E+03  0.13135930857E+03  0.10566000000E+00 0.  1.
        -14    1    4    4    0    0 -0.11278650770E+02 -0.99449573505E+01 -0.45684606637E+03  0.45709346801E+03  0.00000000000E+00 0.  1.
<mgrwt>
<rscale>  0 0.78736799E+02</rscale>
<asrwt>0</asrwt>
<pdfrwt beam="1">  1        2 0.14222162E+00 0.78736799E+02</pdfrwt>
<pdfrwt beam="2">  1       -1 0.25793079E-03 0.78736799E+02</pdfrwt>
<totfact> 0.36519453E+05</totfact>
</mgrwt>
</event>
<event>
 8    1  0.1673046E-013  0.8034674E+02  0.7818608E-02  0.1328070E+00
         -1   -1    0    0    0  501 -0.00000000000E+00  0.00000000000E+00  0.40269547847E+01  0.40269579387E+01  0.50400000000E-02 0.  1.
          2   -1    0    0  501    0  0.00000000000E+00 -0.00000000000E+00 -0.40077401339E+03  0.40077401340E+03  0.25500000000E-02 0. -1.
         24    2    1    2    0    0  0.35527136788E-14  0.35527136788E-14 -0.39674705861E+03  0.40480097134E+03  0.80346735362E+02 0.  0.
         66    2    3    3    0    0 -0.31388691874E+02 -0.19291961215E+02 -0.27886483719E+03  0.28129526688E+03  0.19999998803E+01 0.  0.
        -13    1    3    3    0    0  0.31388691874E+02  0.19291961215E+02 -0.11788222141E+03  0.12350570446E+03  0.10566000000E+00 0.  1.
         13    1    4    4    0    0 -0.13117618192E+02 -0.83038552843E+01 -0.12002413592E+03  0.12102408970E+03  0.10566000000E+00 0. -1.
        -13    1    4    4    0    0 -0.10955205203E+02 -0.72688431121E+01 -0.10024075802E+03  0.10109932410E+03  0.10566000000E+00 0.  1.
         14    1    4    4    0    0 -0.73158684781E+01 -0.37192628184E+01 -0.58599943249E+02  0.59171853075E+02  0.00000000000E+00 0. -1.
<mgrwt>
<rscale>  0 0.80346735E+02</rscale>
<asrwt>0</asrwt>
<pdfrwt beam="1">  1        2 0.61657509E-01 0.80346735E+02</pdfrwt>
<pdfrwt beam="2">  1       -1 0.61953207E-03 0.80346735E+02</pdfrwt>
<totfact> 0.27955033E+05</totfact>
</mgrwt>
</event>
<event>
 8    1  0.1673046E-013  0.8113963E+02  0.7818608E-02  0.1325848E+00
          2   -1    0    0  501    0  0.00000000000E+00  0.00000000000E+00  0.47417600112E+03  0.47417600112E+03  0.25500000000E-02 0. -1.
         -1   -1    0    0    0  501 -0.00000000000E+00 -0.00000000000E+00 -0.34710929696E+01  0.34710966286E+01  0.50400000000E-02 0.  1.
         24    2    1    2    0    0  0.00000000000E+00  0.44408920985E-15  0.47070490815E+03  0.47764709775E+03  0.81139629265E+02 0.  0.
         66    2    3    3    0    0  0.28950221136E+02 -0.27471512618E+01  0.40181395051E+03  0.40286984618E+03  0.19999990596E+01 0.  0.
        -13    1    3    3    0    0 -0.28950221136E+02  0.27471512618E+01  0.68890957641E+02  0.74777251572E+02  0.10566000000E+00 0.  1.
         13    1    4    4    0    0  0.11595361150E+02 -0.53970684294E+00  0.15898928251E+03  0.15941250515E+03  0.10566000000E+00 0. -1.
        -13    1    4    4    0    0  0.50338291182E+01 -0.55587974528E+00  0.78320937666E+02  0.78484577330E+02  0.10566000000E+00 0.  1.
         14    1    4    4    0    0  0.12321030868E+02 -0.16515646736E+01  0.16450373034E+03  0.16497276370E+03  0.00000000000E+00 0. -1.
<mgrwt>
<rscale>  0 0.81139629E+02</rscale>
<asrwt>0</asrwt>
<pdfrwt beam="1">  1        2 0.72950134E-01 0.81139629E+02</pdfrwt>
<pdfrwt beam="2">  1       -1 0.53401473E-03 0.81139629E+02</pdfrwt>
<totfact> 0.28849050E+05</totfact>
</mgrwt>
</event>
<event>
 8    1  0.1673046E-013  0.7988365E+02  0.7818608E-02  0.1329382E+00
          2   -1    0    0  501    0  0.00000000000E+00  0.00000000000E+00  0.20825174995E+03  0.20825174997E+03  0.25500000000E-02 0. -1.
         -1   -1    0    0    0  501 -0.00000000000E+00 -0.00000000000E+00 -0.76606759536E+01  0.76606776116E+01  0.50400000000E-02 0.  1.
         24    2    1    2    0    0  0.17763568394E-14  0.00000000000E+00  0.20059107400E+03  0.21591242758E+03  0.79883649236E+02 0.  0.
         66    2    3    3    0    0  0.13445596388E+02  0.33331639353E+02  0.14729445424E+03  0.15162927982E+03  0.20000010799E+01 0.  0.
        -13    1    3    3    0    0 -0.13445596388E+02 -0.33331639353E+02  0.53296619755E+02  0.64283147757E+02  0.10566000000E+00 0.  1.
         13    1    4    4    0    0  0.58965601970E+01  0.16670386525E+02  0.72263843307E+02  0.74395869661E+02  0.10566000000E+00 0. -1.
        -13    1    4    4    0    0  0.37513046208E+00  0.10451218702E+01  0.39088511715E+01  0.40648842669E+01  0.10566000000E+00 0.  1.
         14    1    4    4    0    0  0.71739057287E+01  0.15616130958E+02  0.71121759764E+02  0.73168525893E+02  0.00000000000E+00 0. -1.
<mgrwt>
<rscale>  0 0.79883649E+02</rscale>
<asrwt>0</asrwt>
<pdfrwt beam="1">  1        2 0.32038729E-01 0.79883649E+02</pdfrwt>
<pdfrwt beam="2">  1       -1 0.11785657E-02 0.79883649E+02</pdfrwt>
<totfact> 0.22457636E+05</totfact>
</mgrwt>
</event>
<event>
 8    1  0.1673046E-013  0.8032438E+02  0.7818608E-02  0.1328133E+00
          2   -1    0    0  501    0  0.00000000000E+00  0.00000000000E+00  0.23515768440E+03  0.23515768441E+03  0.25500000000E-02 0. -1.
         -1   -1    0    0    0  501 -0.00000000000E+00 -0.00000000000E+00 -0.68592320058E+01  0.68592338575E+01  0.50400000000E-02 0.  1.
         24    2    1    2    0    0 -0.35527136788E-14  0.00000000000E+00  0.22829845239E+03  0.24201691827E+03  0.80324375901E+02 0.  0.
         66    2    3    3    0    0 -0.25639029035E+02 -0.21245978792E+01  0.20704363788E+03  0.20864549292E+03  0.20000006669E+01 0.  0.
        -13    1    3    3    0    0  0.25639029035E+02  0.21245978792E+01  0.21254814514E+02  0.33371425352E+02  0.10566000000E+00 0.  1.
         13    1    4    4    0    0 -0.13693978823E+02 -0.13066358704E+01  0.11162781479E+03  0.11247227460E+03  0.10566000000E+00 0. -1.
        -13    1    4    4    0    0 -0.39107507819E+01  0.23651289990E-01  0.35614647768E+02  0.35828882633E+02  0.10566000000E+00 0.  1.
        -14    1    4    4    0    0 -0.80342994297E+01 -0.84161329879E+00  0.59801175314E+02  0.60344335685E+02  0.00000000000E+00 0.  1.
<mgrwt>
<rscale>  0 0.80324376E+02</rscale>
<asrwt>0</asrwt>
<pdfrwt beam="1">  1        2 0.36178107E-01 0.80324376E+02</pdfrwt>
<pdfrwt beam="2">  1       -1 0.10552666E-02 0.80324376E+02</pdfrwt>
<totfact> 0.23104912E+05</totfact>
</mgrwt>
</event>
<event>
 8    1  0.1673046E-013  0.8113029E+02  0.7818608E-02  0.1325874E+00
         -1   -1    0    0    0  501 -0.00000000000E+00  0.00000000000E+00  0.10831244182E+02  0.10831245354E+02  0.50400000000E-02 0.  1.
          2   -1    0    0  501    0  0.00000000000E+00 -0.00000000000E+00 -0.15192446750E+03  0.15192446753E+03  0.25500000000E-02 0. -1.
         24    2    1    2    0    0 -0.35527136788E-14 -0.35527136788E-14 -0.14109322332E+03  0.16275571288E+03  0.81130292786E+02 0.  0.
         66    2    3    3    0    0  0.19478039651E+02  0.25356309845E+02 -0.12058882253E+03  0.12477179400E+03  0.19999953764E+01 0.  0.
        -13    1    3    3    0    0 -0.19478039651E+02 -0.25356309845E+02 -0.20504400795E+02  0.37983918881E+02  0.10566000000E+00 0.  1.
         13    1    4    4    0    0  0.76690612238E+01  0.10001381606E+02 -0.45137192837E+02  0.46863839742E+02  0.10566000000E+00 0. -1.
        -13    1    4    4    0    0  0.89977681812E+01  0.10857692674E+02 -0.55474934497E+02  0.57239224697E+02  0.10566000000E+00 0.  1.
        -14    1    4    4    0    0  0.28112102459E+01  0.44972355649E+01 -0.19976695193E+02  0.20668729560E+02  0.00000000000E+00 0.  1.
<mgrwt>
<rscale>  0 0.81130293E+02</rscale>
<asrwt>0</asrwt>
<pdfrwt beam="1">  1        2 0.23372994E-01 0.81130293E+02</pdfrwt>
<pdfrwt beam="2">  1       -1 0.16663455E-02 0.81130293E+02</pdfrwt>
<totfact> 0.19377271E+05</totfact>
</mgrwt>
</event>
<event>
 8    1  0.1673046E-013  0.8115085E+02  0.7818608E-02  0.1325817E+00
          2   -1    0    0  501    0  0.00000000000E+00  0.00000000000E+00  0.52659908464E+03  0.52659908465E+03  0.25500000000E-02 0. -1.
         -1   -1    0    0    0  501 -0.00000000000E+00 -0.00000000000E+00 -0.31264087296E+01  0.31264127920E+01  0.50400000000E-02 0.  1.
         24    2    1    2    0    0  0.00000000000E+00  0.71054273576E-14  0.52347267591E+03  0.52972549744E+03  0.81150848494E+02 0.  0.
         66    2    3    3    0    0  0.18058815702E+02 -0.34465302582E+02  0.33643101329E+03  0.33867950133E+03  0.20000039029E+01 0.  0.
        -13    1    3    3    0    0 -0.18058815702E+02  0.34465302582E+02  0.18704166263E+03  0.19104599611E+03  0.10566000000E+00 0.  1.
         13    1    4    4    0    0  0.11245720224E+02 -0.21975417644E+02  0.20862553912E+03  0.21008096521E+03  0.10566000000E+00 0. -1.
        -13    1    4    4    0    0  0.18350508061E+01 -0.42904375134E+01  0.41897593698E+02  0.42156788151E+02  0.10566000000E+00 0.  1.
         14    1    4    4    0    0  0.49780446721E+01 -0.81994474250E+01  0.85907880463E+02  0.86441747973E+02  0.00000000000E+00 0. -1.
<mgrwt>
<rscale>  0 0.81150848E+02</rscale>
<asrwt>0</asrwt>
<pdfrwt beam="1">  1        2 0.81015262E-01 0.81150848E+02</pdfrwt>
<pdfrwt beam="2">  1       -1 0.48098616E-03 0.81150848E+02</pdfrwt>
<totfact> 0.29819362E+05</totfact>
</mgrwt>
</event>
<event>
 8    1  0.1673046E-013  0.7547068E+02  0.7818608E-02  0.1342420E+00
          2   -1    0    0  501    0  0.00000000000E+00  0.00000000000E+00  0.11617131696E+02  0.11617131976E+02  0.25500000000E-02 0. -1.
         -1   -1    0    0    0  501 -0.00000000000E+00 -0.00000000000E+00 -0.12257379151E+03  0.12257379161E+03  0.50400000000E-02 0.  1.
         24    2    1    2    0    0  0.00000000000E+00  0.88817841970E-15 -0.11095665981E+03  0.13419092359E+03  0.75470680511E+02 0.  0.
         66    2    3    3    0    0 -0.35450963615E+02  0.50069015841E+01 -0.34470617757E+02  0.49739957472E+02  0.19999990093E+01 0.  0.
        -13    1    3    3    0    0  0.35450963615E+02 -0.50069015841E+01 -0.76486042054E+02  0.84450966115E+02  0.10566000000E+00 0.  1.
         13    1    4    4    0    0 -0.16726935643E+02  0.19378237899E+01 -0.16224224359E+02  0.23383373519E+02  0.10566000000E+00 0. -1.
        -13    1    4    4    0    0 -0.20795734645E+01  0.32263591168E-01 -0.23686091490E+01  0.31539086972E+01  0.10566000000E+00 0.  1.
        -14    1    4    4    0    0 -0.16644454507E+02  0.30368142030E+01 -0.15877784249E+02  0.23202675256E+02  0.00000000000E+00 0.  1.
<mgrwt>
<rscale>  0 0.75470681E+02</rscale>
<asrwt>0</asrwt>
<pdfrwt beam="1">  1        2 0.17872511E-02 0.75470681E+02</pdfrwt>
<pdfrwt beam="2">  1       -1 0.18857506E-01 0.75470681E+02</pdfrwt>
<totfact> 0.13114101E+05</totfact>
</mgrwt>
</event>
<event>
 8    1  0.1673046E-013  0.7975574E+02  0.7818608E-02  0.1329746E+00
         -1   -1    0    0    0  501 -0.00000000000E+00  0.00000000000E+00  0.44641993963E+02  0.44641994247E+02  0.50400000000E-02 0.  1.
          2   -1    0    0  501    0  0.00000000000E+00 -0.00000000000E+00 -0.35622161223E+02  0.35622161314E+02  0.25500000000E-02 0. -1.
         24    2    1    2    0    0  0.00000000000E+00  0.00000000000E+00  0.90198327398E+01  0.80264155561E+02  0.79755735125E+02 0.  0.
         66    2    3    3    0    0 -0.30224393704E+02  0.19766304552E+02  0.21473027834E+02  0.42063186955E+02  0.20000005057E+01 0.  0.
        -13    1    3    3    0    0  0.30224393704E+02 -0.19766304552E+02 -0.12453195094E+02  0.38200968607E+02  0.10566000000E+00 0.  1.
         13    1    4    4    0    0 -0.81902057876E+01  0.62625790403E+01  0.61768895888E+01  0.12019338422E+02  0.10566000000E+00 0. -1.
        -13    1    4    4    0    0 -0.51386969761E+01  0.27829387832E+01  0.32430519678E+01  0.66842729586E+01  0.10566000000E+00 0.  1.
         14    1    4    4    0    0 -0.16895490940E+02  0.10720786729E+02  0.12053086277E+02  0.23359575574E+02  0.00000000000E+00 0. -1.
<mgrwt>
<rscale>  0 0.79755735E+02</rscale>
<asrwt>0</asrwt>
<pdfrwt beam="1">  1        2 0.54803325E-02 0.79755735E+02</pdfrwt>
<pdfrwt beam="2">  1       -1 0.68679991E-02 0.79755735E+02</pdfrwt>
<totfact> 0.14042028E+05</totfact>
</mgrwt>
</event>
<event>
 8    1  0.1673046E-013  0.8179118E+02  0.7818608E-02  0.1324044E+00
         -1   -1    0    0    0  501 -0.00000000000E+00  0.00000000000E+00  0.19097518425E+01  0.19097584930E+01  0.50400000000E-02 0.  1.
          2   -1    0    0  501    0  0.00000000000E+00 -0.00000000000E+00 -0.87574004612E+03  0.87574004612E+03  0.25500000000E-02 0. -1.
         24    2    1    2    0    0  0.00000000000E+00 -0.17763568394E-14 -0.87383029427E+03  0.87764980461E+03  0.81791175236E+02 0.  0.
         66    2    3    3    0    0  0.16123122034E+02  0.10201863666E+02 -0.82501756306E+03  0.82524057852E+03  0.20000009584E+01 0.  0.
        -13    1    3    3    0    0 -0.16123122034E+02 -0.10201863666E+02 -0.48812731217E+02  0.52409226089E+02  0.10566000000E+00 0.  1.
         13    1    4    4    0    0  0.72733302064E+01  0.41726295596E+01 -0.33109180552E+03  0.33119798764E+03  0.10566000000E+00 0. -1.
        -13    1    4    4    0    0  0.24711239794E+01  0.21380433618E+01 -0.15526897281E+03  0.15530338941E+03  0.10566000000E+00 0.  1.
        -14    1    4    4    0    0  0.63786678479E+01  0.38911907442E+01 -0.33865678473E+03  0.33873920147E+03  0.00000000000E+00 0.  1.
<mgrwt>
<rscale>  0 0.81791175E+02</rscale>
<asrwt>0</asrwt>
<pdfrwt beam="1">  1        2 0.13472892E+00 0.81791175E+02</pdfrwt>
<pdfrwt beam="2">  1       -1 0.29380919E-03 0.81791175E+02</pdfrwt>
<totfact> 0.32885540E+05</totfact>
</mgrwt>
</event>
<event>
 8    1  0.1673046E-013  0.8073402E+02  0.7818608E-02  0.1326981E+00
         -1   -1    0    0    0  501 -0.00000000000E+00  0.00000000000E+00  0.20908540861E+01  0.20908601605E+01  0.50400000000E-02 0.  1.
          2   -1    0    0  501    0  0.00000000000E+00 -0.00000000000E+00 -0.77934332937E+03  0.77934332937E+03  0.25500000000E-02 0. -1.
         24    2    1    2    0    0  0.00000000000E+00 -0.35527136788E-14 -0.77725247528E+03  0.78143418953E+03  0.80734021569E+02 0.  0.
         66    2    3    3    0    0 -0.24605181226E+02  0.24663639259E+02 -0.58575279523E+03  0.58679131484E+03  0.20000017494E+01 0.  0.
        -13    1    3    3    0    0  0.24605181226E+02 -0.24663639259E+02 -0.19149968005E+03  0.19464287469E+03  0.10566000000E+00 0.  1.
         13    1    4    4    0    0 -0.55706088542E+01  0.59688164985E+01 -0.13623282099E+03  0.13647729163E+03  0.10566000000E+00 0. -1.
        -13    1    4    4    0    0 -0.14827069560E+02  0.14447277860E+02 -0.35977052330E+03  0.36036565656E+03  0.10566000000E+00 0.  1.
        -14    1    4    4    0    0 -0.42075028111E+01  0.42475449012E+01 -0.89749450945E+02  0.89948366648E+02  0.00000000000E+00 0.  1.
<mgrwt>
<rscale>  0 0.80734022E+02</rscale>
<asrwt>0</asrwt>
<pdfrwt beam="1">  1        2 0.11989874E+00 0.80734022E+02</pdfrwt>
<pdfrwt beam="2">  1       -1 0.32167095E-03 0.80734022E+02</pdfrwt>
<totfact> 0.33402990E+05</totfact>
</mgrwt>
</event>
<event>
 8    1  0.1673046E-013  0.7890655E+02  0.7818608E-02  0.1332183E+00
          2   -1    0    0  501    0  0.00000000000E+00  0.00000000000E+00  0.46036692923E+03  0.46036692924E+03  0.25500000000E-02 0. -1.
         -1   -1    0    0    0  501 -0.00000000000E+00 -0.00000000000E+00 -0.33811288713E+01  0.33811326277E+01  0.50400000000E-02 0.  1.
         24    2    1    2    0    0  0.00000000000E+00  0.00000000000E+00  0.45698580036E+03  0.46374806187E+03  0.78906546964E+02 0.  0.
         66    2    3    3    0    0  0.16465672901E+02 -0.28803746607E+02  0.35383588276E+03  0.35539359325E+03  0.19999992278E+01 0.  0.
        -13    1    3    3    0    0 -0.16465672901E+02  0.28803746607E+02  0.10314991761E+03  0.10835446861E+03  0.10566000000E+00 0.  1.
         13    1    4    4    0    0  0.10267859166E+02 -0.18015644825E+02  0.22534015933E+03  0.22629226890E+03  0.10566000000E+00 0. -1.
        -13    1    4    4    0    0  0.13159404305E+01 -0.21978708812E+01  0.31216803515E+02  0.31321914395E+02  0.10566000000E+00 0.  1.
        -14    1    4    4    0    0  0.48818733038E+01 -0.85902309006E+01  0.97278919908E+02  0.97779409962E+02  0.00000000000E+00 0.  1.
<mgrwt>
<rscale>  0 0.78906547E+02</rscale>
<asrwt>0</asrwt>
<pdfrwt beam="1">  1        2 0.70825642E-01 0.78906547E+02</pdfrwt>
<pdfrwt beam="2">  1       -1 0.52017425E-03 0.78906547E+02</pdfrwt>
<totfact> 0.30725812E+05</totfact>
</mgrwt>
</event>
<event>
 8    1  0.1673046E-013  0.8320766E+02  0.7818608E-02  0.1320187E+00
         -1   -1    0    0    0  501 -0.00000000000E+00  0.00000000000E+00  0.76864236632E+01  0.76864253156E+01  0.50400000000E-02 0.  1.
          2   -1    0    0  501    0  0.00000000000E+00 -0.00000000000E+00 -0.22518643343E+03  0.22518643345E+03  0.25500000000E-02 0. -1.
         24    2    1    2    0    0  0.00000000000E+00 -0.17763568394E-14 -0.21750000977E+03  0.23287285876E+03  0.83207656490E+02 0.  0.
         66    2    3    3    0    0 -0.23774000425E+02 -0.97637690853E+01 -0.20028929228E+03  0.20194141451E+03  0.20000021777E+01 0.  0.
        -13    1    3    3    0    0  0.23774000425E+02  0.97637690853E+01 -0.17210717484E+02  0.30931444249E+02  0.10566000000E+00 0.  1.
         13    1    4    4    0    0 -0.20253962735E+02 -0.83204191446E+01 -0.16603489072E+03  0.16747253053E+03  0.10566000000E+00 0. -1.
        -13    1    4    4    0    0 -0.33165315713E+01 -0.14250623500E+01 -0.31351577834E+02  0.31558878008E+02  0.10566000000E+00 0.  1.
        -14    1    4    4    0    0 -0.20350611930E+00 -0.18287590675E-01 -0.29028237267E+01  0.29100059733E+01  0.00000000000E+00 0.  1.
<mgrwt>
<rscale>  0 0.83207656E+02</rscale>
<asrwt>0</asrwt>
<pdfrwt beam="1">  1        2 0.34644062E-01 0.83207656E+02</pdfrwt>
<pdfrwt beam="2">  1       -1 0.11825270E-02 0.83207656E+02</pdfrwt>
<totfact> 0.20729964E+05</totfact>
</mgrwt>
</event>
<event>
 8    1  0.1673046E-013  0.8039226E+02  0.7818608E-02  0.1327942E+00
         -1   -1    0    0    0  501 -0.00000000000E+00  0.00000000000E+00  0.47475719537E+01  0.47475746289E+01  0.50400000000E-02 0.  1.
          2   -1    0    0  501    0  0.00000000000E+00 -0.00000000000E+00 -0.34032735325E+03  0.34032735326E+03  0.25500000000E-02 0. -1.
         24    2    1    2    0    0  0.44408920985E-15  0.35527136788E-14 -0.33557978130E+03  0.34507492789E+03  0.80392264816E+02 0.  0.
         66    2    3    3    0    0  0.28196733207E+01  0.19611008473E+02 -0.31789277823E+03  0.31851587195E+03  0.20000052522E+01 0.  0.
        -13    1    3    3    0    0 -0.28196733207E+01 -0.19611008473E+02 -0.17687003067E+02  0.26559055941E+02  0.10566000000E+00 0.  1.
         13    1    4    4    0    0  0.94293396491E+00  0.63540799522E+01 -0.10564345676E+03  0.10583862517E+03  0.10566000000E+00 0. -1.
        -13    1    4    4    0    0 -0.14533784582E+00  0.41175860862E+01 -0.66907972334E+02  0.67034793684E+02  0.10566000000E+00 0.  1.
         14    1    4    4    0    0  0.20220772016E+01  0.91393424345E+01 -0.14534134913E+03  0.14564245309E+03  0.00000000000E+00 0. -1.
<mgrwt>
<rscale>  0 0.80392265E+02</rscale>
<asrwt>0</asrwt>
<pdfrwt beam="1">  1        2 0.52358035E-01 0.80392265E+02</pdfrwt>
<pdfrwt beam="2">  1       -1 0.73039616E-03 0.80392265E+02</pdfrwt>
<totfact> 0.26341239E+05</totfact>
</mgrwt>
</event>
<event>
 8    1  0.1673046E-013  0.8138313E+02  0.7818608E-02  0.1325172E+00
         -1   -1    0    0    0  501 -0.00000000000E+00  0.00000000000E+00  0.18237142776E+01  0.18237212418E+01  0.50400000000E-02 0.  1.
          2   -1    0    0  501    0  0.00000000000E+00 -0.00000000000E+00 -0.90792742583E+03  0.90792742583E+03  0.25500000000E-02 0. -1.
         24    2    1    2    0    0  0.00000000000E+00 -0.17763568394E-14 -0.90610371155E+03  0.90975114708E+03  0.81383127956E+02 0.  0.
         66    2    3    3    0    0  0.13365676211E+02  0.97637164351E+01 -0.86856600819E+03  0.86872601092E+03  0.19999993902E+01 0.  0.
        -13    1    3    3    0    0 -0.13365676211E+02 -0.97637164351E+01 -0.37537703358E+02  0.41025136157E+02  0.10566000000E+00 0.  1.
         13    1    4    4    0    0  0.45083750167E+01  0.33654991945E+01 -0.27562575263E+03  0.27568318539E+03  0.10566000000E+00 0. -1.
        -13    1    4    4    0    0  0.83727949415E+01  0.56995519775E+01 -0.55999868418E+03  0.56009028382E+03  0.10566000000E+00 0.  1.
        -14    1    4    4    0    0  0.48450625317E+00  0.69866526310E+00 -0.32941571386E+02  0.32952541705E+02  0.00000000000E+00 0.  1.
<mgrwt>
<rscale>  0 0.81383128E+02</rscale>
<asrwt>0</asrwt>
<pdfrwt beam="1">  1        2 0.13968078E+00 0.81383128E+02</pdfrwt>
<pdfrwt beam="2">  1       -1 0.28057269E-03 0.81383128E+02</pdfrwt>
<totfact> 0.33455439E+05</totfact>
</mgrwt>
</event>
<event>
 8    1  0.1673046E-013  0.7894825E+02  0.7818608E-02  0.1332063E+00
         -1   -1    0    0    0  501 -0.00000000000E+00  0.00000000000E+00  0.35183467831E+01  0.35183503930E+01  0.50400000000E-02 0.  1.
          2   -1    0    0  501    0  0.00000000000E+00 -0.00000000000E+00 -0.44288003368E+03  0.44288003369E+03  0.25500000000E-02 0. -1.
         24    2    1    2    0    0  0.35527136788E-14 -0.22204460493E-15 -0.43936168690E+03  0.44639838408E+03  0.78948245051E+02 0.  0.
         66    2    3    3    0    0  0.20158299383E+02 -0.18995616682E+01 -0.41125459050E+03  0.41175757865E+03  0.20000012999E+01 0.  0.
        -13    1    3    3    0    0 -0.20158299383E+02  0.18995616682E+01 -0.28107096399E+02  0.34640805426E+02  0.10566000000E+00 0.  1.
         13    1    4    4    0    0  0.10069345363E+02 -0.61544355886E+00 -0.19415279134E+03  0.19441473204E+03  0.10566000000E+00 0. -1.
        -13    1    4    4    0    0  0.19171652662E+01 -0.11408628578E+00 -0.32925348957E+02  0.32981484295E+02  0.10566000000E+00 0.  1.
         14    1    4    4    0    0  0.81717887537E+01 -0.11700318235E+01 -0.18417645020E+03  0.18436136232E+03  0.00000000000E+00 0. -1.
<mgrwt>
<rscale>  0 0.78948245E+02</rscale>
<asrwt>0</asrwt>
<pdfrwt beam="1">  1        2 0.68135346E-01 0.78948245E+02</pdfrwt>
<pdfrwt beam="2">  1       -1 0.54128475E-03 0.78948245E+02</pdfrwt>
<totfact> 0.30288336E+05</totfact>
</mgrwt>
</event>
<event>
 8    1  0.1749377E-013  0.7963464E+02  0.7818608E-02  0.1330091E+00
          2   -1    0    0  501    0  0.00000000000E+00  0.00000000000E+00  0.78407656347E+03  0.78407656347E+03  0.25500000000E-02 0. -1.
         -1   -1    0    0    0  501 -0.00000000000E+00 -0.00000000000E+00 -0.20220173906E+01  0.20220236718E+01  0.50400000000E-02 0.  1.
         24    2    1    2    0    0  0.35527136788E-14  0.00000000000E+00  0.78205454608E+03  0.78609858714E+03  0.79634638627E+02 0.  0.
         66    2    3    3    0    0 -0.24274993970E+02  0.76160270938E+01  0.69329912512E+03  0.69376866180E+03  0.20000001302E+01 0.  0.
        -13    1    3    3    0    0  0.24274993970E+02 -0.76160270938E+01  0.88755420956E+02  0.92329925344E+02  0.10566000000E+00 0.  1.
         13    1    4    4    0    0 -0.15945335374E+02  0.50395091692E+01  0.44971720766E+03  0.45002803068E+03  0.10566000000E+00 0. -1.
        -13    1    4    4    0    0 -0.59811413670E+01  0.21565075466E+01  0.16493509513E+03  0.16505763038E+03  0.10566000000E+00 0.  1.
        -14    1    4    4    0    0 -0.23485172286E+01  0.42001037802E+00  0.78646822339E+02  0.78683000743E+02  0.00000000000E+00 0.  1.
<mgrwt>
<rscale>  0 0.79634639E+02</rscale>
<asrwt>0</asrwt>
<pdfrwt beam="1">  1        2 0.12062741E+00 0.79634639E+02</pdfrwt>
<pdfrwt beam="2">  1       -1 0.31107945E-03 0.79634639E+02</pdfrwt>
<totfact> 0.34653030E+05</totfact>
</mgrwt>
</event>
<event>
 8    1  0.1673046E-013  0.7642727E+02  0.7818608E-02  0.1339507E+00
         -1   -1    0    0    0  501 -0.00000000000E+00  0.00000000000E+00  0.94873449386E+00  0.94874788086E+00  0.50400000000E-02 0.  1.
          2   -1    0    0  501    0  0.00000000000E+00 -0.00000000000E+00 -0.15391783423E+04  0.15391783423E+04  0.25500000000E-02 0. -1.
         24    2    1    2    0    0  0.88817841970E-15  0.00000000000E+00 -0.15382296078E+04  0.15401270902E+04  0.76427269898E+02 0.  0.
         66    2    3    3    0    0 -0.71604218915E+01 -0.83448452525E+01 -0.15065828998E+04  0.15066243534E+04  0.20000089687E+01 0.  0.
        -13    1    3    3    0    0  0.71604218915E+01  0.83448452525E+01 -0.31646707985E+02  0.33502736817E+02  0.10566000000E+00 0.  1.
         13    1    4    4    0    0 -0.19138366406E+01 -0.13036802513E+01 -0.26812628821E+03  0.26813630852E+03  0.10566000000E+00 0.  1.
        -13    1    4    4    0    0 -0.23385727730E+01 -0.38538731534E+01 -0.63106865264E+03  0.63108476195E+03  0.10566000000E+00 0. -1.
         14    1    4    4    0    0 -0.29080124779E+01 -0.31872918478E+01 -0.60738795899E+03  0.60740328291E+03  0.00000000000E+00 0. -1.
<mgrwt>
<rscale>  0 0.76427270E+02</rscale>
<asrwt>0</asrwt>
<pdfrwt beam="1">  1        2 0.23679467E+00 0.76427270E+02</pdfrwt>
<pdfrwt beam="2">  1       -1 0.14596142E-03 0.76427270E+02</pdfrwt>
<totfact> 0.37054953E+05</totfact>
</mgrwt>
</event>
<event>
 8    1  0.1673046E-013  0.7707632E+02  0.7818608E-02  0.1337559E+00
         -1   -1    0    0    0  501 -0.00000000000E+00  0.00000000000E+00  0.36368129780E+02  0.36368130129E+02  0.50400000000E-02 0.  1.
          2   -1    0    0  501    0  0.00000000000E+00 -0.00000000000E+00 -0.40837672288E+02  0.40837672367E+02  0.25500000000E-02 0. -1.
         24    2    1    2    0    0  0.00000000000E+00  0.00000000000E+00 -0.44695425075E+01  0.77205802496E+02  0.77076320157E+02 0.  0.
         66    2    3    3    0    0  0.21244033004E+02 -0.56013150141E+01 -0.33920109245E+02  0.40463038401E+02  0.19999993353E+01 0.  0.
        -13    1    3    3    0    0 -0.21244033004E+02  0.56013150141E+01  0.29450566737E+02  0.36742764095E+02  0.10566000000E+00 0.  1.
         13    1    4    4    0    0  0.71468819817E+01 -0.12211493512E+01 -0.11568054276E+02  0.13652844816E+02  0.10566000000E+00 0. -1.
        -13    1    4    4    0    0  0.65536857680E+01 -0.24110197988E+01 -0.97970336871E+01  0.12031493952E+02  0.10566000000E+00 0.  1.
        -14    1    4    4    0    0  0.75434652546E+01 -0.19691458641E+01 -0.12555021281E+02  0.14778699633E+02  0.00000000000E+00 0.  1.
<mgrwt>
<rscale>  0 0.77076320E+02</rscale>
<asrwt>0</asrwt>
<pdfrwt beam="1">  1        2 0.62827188E-02 0.77076320E+02</pdfrwt>
<pdfrwt beam="2">  1       -1 0.55950969E-02 0.77076320E+02</pdfrwt>
<totfact> 0.15862023E+05</totfact>
</mgrwt>
</event>
<event>
 8    1  0.1673046E-013  0.8229590E+02  0.7818608E-02  0.1322659E+00
         -1   -1    0    0    0  501 -0.00000000000E+00  0.00000000000E+00  0.21109868191E+02  0.21109868793E+02  0.50400000000E-02 0.  1.
          2   -1    0    0  501    0  0.00000000000E+00 -0.00000000000E+00 -0.80206740779E+02  0.80206740820E+02  0.25500000000E-02 0. -1.
         24    2    1    2    0    0 -0.35527136788E-14  0.55511151231E-16 -0.59096872588E+02  0.10131660961E+03  0.82295899251E+02 0.  0.
         66    2    3    3    0    0 -0.29502647535E+02 -0.39089218877E+00 -0.64832594018E+02  0.71258853997E+02  0.20000044210E+01 0.  0.
        -13    1    3    3    0    0  0.29502647535E+02  0.39089218877E+00  0.57357214293E+01  0.30057755615E+02  0.10566000000E+00 0.  1.
         13    1    4    4    0    0 -0.10457728313E+02 -0.77760608338E+00 -0.21854817606E+02  0.24240729554E+02  0.10566000000E+00 0. -1.
        -13    1    4    4    0    0 -0.12215800772E+02  0.14692305285E+00 -0.28535790724E+02  0.31041100031E+02  0.10566000000E+00 0.  1.
         14    1    4    4    0    0 -0.68291184496E+01  0.23979084176E+00 -0.14441985688E+02  0.15977024412E+02  0.00000000000E+00 0. -1.
<mgrwt>
<rscale>  0 0.82295899E+02</rscale>
<asrwt>0</asrwt>
<pdfrwt beam="1">  1        2 0.12339498E-01 0.82295899E+02</pdfrwt>
<pdfrwt beam="2">  1       -1 0.32476721E-02 0.82295899E+02</pdfrwt>
<totfact> 0.15477738E+05</totfact>
</mgrwt>
</event>
<event>
 8    1  0.1673046E-013  0.8013303E+02  0.7818608E-02  0.1328674E+00
         -1   -1    0    0    0  501 -0.00000000000E+00  0.00000000000E+00  0.45739185532E+02  0.45739185810E+02  0.50400000000E-02 0.  1.
          2   -1    0    0  501    0  0.00000000000E+00 -0.00000000000E+00 -0.35097382485E+02  0.35097382578E+02  0.25500000000E-02 0. -1.
         24    2    1    2    0    0 -0.71054273576E-14 -0.44408920985E-15  0.10641803047E+02  0.80836568387E+02  0.80133031994E+02 0.  0.
         66    2    3    3    0    0  0.29281463643E+02  0.36896564799E+01 -0.21974477551E+02  0.36849631666E+02  0.20000030661E+01 0.  0.
        -13    1    3    3    0    0 -0.29281463643E+02 -0.36896564799E+01  0.32616280598E+02  0.43986936721E+02  0.10566000000E+00 0.  1.
         13    1    4    4    0    0  0.16145847501E+02  0.12506385028E+01 -0.11534461518E+02  0.19882340273E+02  0.10566000000E+00 0. -1.
        -13    1    4    4    0    0  0.11289481084E+02  0.19225390748E+01 -0.91127687647E+01  0.14635650250E+02  0.10566000000E+00 0.  1.
        -14    1    4    4    0    0  0.18461350584E+01  0.51647890231E+00 -0.13272472687E+01  0.23316411436E+01  0.00000000000E+00 0.  1.
<mgrwt>
<rscale>  0 0.80133032E+02</rscale>
<asrwt>0</asrwt>
<pdfrwt beam="1">  1        2 0.53995974E-02 0.80133032E+02</pdfrwt>
<pdfrwt beam="2">  1       -1 0.70367978E-02 0.80133032E+02</pdfrwt>
<totfact> 0.13817739E+05</totfact>
</mgrwt>
</event>
<event>
 8    1  0.1673046E-013  0.8011509E+02  0.7818608E-02  0.1328725E+00
          2   -1    0    0  501    0  0.00000000000E+00  0.00000000000E+00  0.22892711368E+02  0.22892711510E+02  0.25500000000E-02 0. -1.
         -1   -1    0    0    0  501 -0.00000000000E+00 -0.00000000000E+00 -0.70092478713E+02  0.70092478894E+02  0.50400000000E-02 0.  1.
         24    2    1    2    0    0  0.22204460493E-15 -0.17763568394E-14 -0.47199767345E+02  0.92985190403E+02  0.80115089696E+02 0.  0.
         66    2    3    3    0    0 -0.18022878366E+01  0.12026421857E+02  0.20653358158E+02  0.24050867540E+02  0.19999905203E+01 0.  0.
        -13    1    3    3    0    0  0.18022878366E+01 -0.12026421857E+02 -0.67853125503E+02  0.68934322864E+02  0.10566000000E+00 0.  1.
         13    1    4    4    0    0 -0.44269136918E+00  0.36017432927E+01  0.60110408447E+01  0.70222721726E+01  0.10566000000E+00 0. -1.
        -13    1    4    4    0    0 -0.87412379024E-02  0.43300489759E+01  0.82528295683E+01  0.93203948663E+01  0.10566000000E+00 0.  1.
        -14    1    4    4    0    0 -0.13508552295E+01  0.40946295886E+01  0.63894877449E+01  0.77082005009E+01  0.00000000000E+00 0.  1.
<mgrwt>
<rscale>  0 0.80115090E+02</rscale>
<asrwt>0</asrwt>
<pdfrwt beam="1">  1        2 0.35219556E-02 0.80115090E+02</pdfrwt>
<pdfrwt beam="2">  1       -1 0.10783458E-01 0.80115090E+02</pdfrwt>
<totfact> 0.12704056E+05</totfact>
</mgrwt>
</event>
<event>
 8    1  0.1673046E-013  0.7780168E+02  0.7818608E-02  0.1335408E+00
          2   -1    0    0  501    0  0.00000000000E+00  0.00000000000E+00  0.73522101997E+03  0.73522101998E+03  0.25500000000E-02 0. -1.
         -1   -1    0    0    0  501 -0.00000000000E+00 -0.00000000000E+00 -0.20582558597E+01  0.20582620304E+01  0.50400000000E-02 0.  1.
         24    2    1    2    0    0  0.00000000000E+00  0.00000000000E+00  0.73316276411E+03  0.73727928201E+03  0.77801677333E+02 0.  0.
         66    2    3    3    0    0  0.15792698094E+01  0.34049127596E+02  0.54396640635E+03  0.54503696060E+03  0.20000014157E+01 0.  0.
        -13    1    3    3    0    0 -0.15792698094E+01 -0.34049127596E+02  0.18919635777E+03  0.19224232140E+03  0.10566000000E+00 0.  1.
         13    1    4    4    0    0  0.66131867094E+00  0.20044667170E+02  0.31651752605E+03  0.31715230014E+03  0.10566000000E+00 0. -1.
        -13    1    4    4    0    0 -0.13746269002E+00  0.21102518446E+01  0.39723677580E+02  0.39780067664E+02  0.10566000000E+00 0.  1.
        -14    1    4    4    0    0  0.10554138285E+01  0.11894208582E+02  0.18772520272E+03  0.18810459280E+03  0.00000000000E+00 0.  1.
<mgrwt>
<rscale>  0 0.77801677E+02</rscale>
<asrwt>0</asrwt>
<pdfrwt beam="1">  1        2 0.11311092E+00 0.77801677E+02</pdfrwt>
<pdfrwt beam="2">  1       -1 0.31665524E-03 0.77801677E+02</pdfrwt>
<totfact> 0.36349738E+05</totfact>
</mgrwt>
</event>
<event>
 8    1  0.1673046E-013  0.8071810E+02  0.7818608E-02  0.1327026E+00
         -1   -1    0    0    0  501 -0.00000000000E+00  0.00000000000E+00  0.20392583933E+01  0.20392646214E+01  0.50400000000E-02 0.  1.
          2   -1    0    0  501    0  0.00000000000E+00 -0.00000000000E+00 -0.79874641251E+03  0.79874641252E+03  0.25500000000E-02 0. -1.
         24    2    1    2    0    0  0.00000000000E+00 -0.88817841970E-15 -0.79670715412E+03  0.80078567714E+03  0.80718097627E+02 0.  0.
         66    2    3    3    0    0 -0.17560095709E+02  0.79077435843E+01 -0.75018462658E+03  0.75043444972E+03  0.19999996490E+01 0.  0.
        -13    1    3    3    0    0  0.17560095709E+02 -0.79077435843E+01 -0.46522527541E+02  0.50351227421E+02  0.10566000000E+00 0.  1.
         13    1    4    4    0    0 -0.47816851506E+01  0.19315386496E+01 -0.18201324959E+03  0.18208632443E+03  0.10566000000E+00 0. -1.
        -13    1    4    4    0    0 -0.17197613926E+01  0.51241004181E+00 -0.59080374308E+02  0.59107714688E+02  0.10566000000E+00 0.  1.
         14    1    4    4    0    0 -0.11058649166E+02  0.54637948929E+01 -0.50909100268E+03  0.50924041060E+03  0.00000000000E+00 0. -1.
<mgrwt>
<rscale>  0 0.80718098E+02</rscale>
<asrwt>0</asrwt>
<pdfrwt beam="1">  1        2 0.12288381E+00 0.80718098E+02</pdfrwt>
<pdfrwt beam="2">  1       -1 0.31373318E-03 0.80718098E+02</pdfrwt>
<totfact> 0.33567635E+05</totfact>
</mgrwt>
</event>
<event>
 8    1  0.1673046E-013  0.7791913E+02  0.7818608E-02  0.1335063E+00
          2   -1    0    0  501    0  0.00000000000E+00  0.00000000000E+00  0.17142303066E+03  0.17142303068E+03  0.25500000000E-02 0. -1.
         -1   -1    0    0    0  501 -0.00000000000E+00 -0.00000000000E+00 -0.88543973314E+01  0.88543987658E+01  0.50400000000E-02 0.  1.
         24    2    1    2    0    0  0.00000000000E+00  0.17763568394E-14  0.16256863333E+03  0.18027742945E+03  0.77919131316E+02 0.  0.
         66    2    3    3    0    0  0.11096600772E+02 -0.11996295331E+02  0.16309815753E+03  0.16392697960E+03  0.20000001988E+01 0.  0.
        -13    1    3    3    0    0 -0.11096600772E+02  0.11996295331E+02 -0.52952419644E+00  0.16350449850E+02  0.10566000000E+00 0.  1.
         13    1    4    4    0    0  0.75501689291E+01 -0.85413472900E+01  0.11381713205E+03  0.11438667045E+03  0.10566000000E+00 0. -1.
        -13    1    4    4    0    0  0.16953223203E+01 -0.13293507629E+01  0.25989515253E+02  0.26078868042E+02  0.10566000000E+00 0.  1.
         14    1    4    4    0    0  0.18511095226E+01 -0.21255972786E+01  0.23291510231E+02  0.23461441113E+02  0.00000000000E+00 0. -1.
<mgrwt>
<rscale>  0 0.77919131E+02</rscale>
<asrwt>0</asrwt>
<pdfrwt beam="1">  1        2 0.26372775E-01 0.77919131E+02</pdfrwt>
<pdfrwt beam="2">  1       -1 0.13622151E-02 0.77919131E+02</pdfrwt>
<totfact> 0.22436991E+05</totfact>
</mgrwt>
</event>
<event>
 8    1  0.1673046E-013  0.7905407E+02  0.7818608E-02  0.1331757E+00
         -1   -1    0    0    0  501 -0.00000000000E+00  0.00000000000E+00  0.19102387891E+01  0.19102454379E+01  0.50400000000E-02 0.  1.
          2   -1    0    0  501    0  0.00000000000E+00 -0.00000000000E+00 -0.81789966888E+03  0.81789966889E+03  0.25500000000E-02 0. -1.
         24    2    1    2    0    0  0.44408920985E-15  0.00000000000E+00 -0.81598943010E+03  0.81980991433E+03  0.79054067577E+02 0.  0.
         66    2    3    3    0    0 -0.30840516094E+01 -0.11500103042E+02 -0.79884558410E+03  0.79893681289E+03  0.19999995606E+01 0.  0.
        -13    1    3    3    0    0  0.30840516094E+01  0.11500103042E+02 -0.17143845992E+02  0.20873101440E+02  0.10566000000E+00 0.  1.
         13    1    4    4    0    0 -0.14202779948E+01 -0.80553417158E+01 -0.54123452647E+03  0.54129634169E+03  0.10566000000E+00 0. -1.
        -13    1    4    4    0    0 -0.11329310211E+01 -0.22107256723E+01 -0.18811800768E+03  0.18813443815E+03  0.10566000000E+00 0.  1.
        -14    1    4    4    0    0 -0.53084259354E+00 -0.12340356543E+01 -0.69493049952E+02  0.69506033044E+02  0.00000000000E+00 0.  1.
<mgrwt>
<rscale>  0 0.79054068E+02</rscale>
<asrwt>0</asrwt>
<pdfrwt beam="1">  1        2 0.12583044E+00 0.79054068E+02</pdfrwt>
<pdfrwt beam="2">  1       -1 0.29388406E-03 0.79054068E+02</pdfrwt>
<totfact> 0.35574583E+05</totfact>
</mgrwt>
</event>
<event>
 8    1  0.1673046E-013  0.7843310E+02  0.7818608E-02  0.1333558E+00
          2   -1    0    0  501    0  0.00000000000E+00  0.00000000000E+00  0.15347462646E+03  0.15347462648E+03  0.25500000000E-02 0. -1.
         -1   -1    0    0    0  501 -0.00000000000E+00 -0.00000000000E+00 -0.10020794353E+02  0.10020795621E+02  0.50400000000E-02 0.  1.
         24    2    1    2    0    0 -0.44408920985E-15  0.00000000000E+00  0.14345383211E+03  0.16349542210E+03  0.78433099532E+02 0.  0.
         66    2    3    3    0    0  0.37264543197E+01  0.24068290187E+02  0.13577750503E+03  0.13795905165E+03  0.20000015062E+01 0.  0.
        -13    1    3    3    0    0 -0.37264543197E+01 -0.24068290187E+02  0.76763270757E+01  0.25536370450E+02  0.10566000000E+00 0.  1.
         13    1    4    4    0    0  0.29437642565E+01  0.16955699459E+02  0.92101705434E+02  0.93695767247E+02  0.10566000000E+00 0. -1.
        -13    1    4    4    0    0  0.23657825255E+00  0.23295199588E+01  0.16249719959E+02  0.16417892535E+02  0.10566000000E+00 0.  1.
         14    1    4    4    0    0  0.54611181060E+00  0.47830707693E+01  0.27426079638E+02  0.27845391870E+02  0.00000000000E+00 0. -1.
<mgrwt>
<rscale>  0 0.78433100E+02</rscale>
<asrwt>0</asrwt>
<pdfrwt beam="1">  1        2 0.23611479E-01 0.78433100E+02</pdfrwt>
<pdfrwt beam="2">  1       -1 0.15416609E-02 0.78433100E+02</pdfrwt>
<totfact> 0.21264558E+05</totfact>
</mgrwt>
</event>
<event>
 8    1  0.1673046E-013  0.7966247E+02  0.7818608E-02  0.1330012E+00
          2   -1    0    0  501    0  0.00000000000E+00  0.00000000000E+00  0.13752871028E+03  0.13752871030E+03  0.25500000000E-02 0. -1.
         -1   -1    0    0    0  501 -0.00000000000E+00 -0.00000000000E+00 -0.11535969716E+02  0.11535970817E+02  0.50400000000E-02 0.  1.
         24    2    1    2    0    0  0.35527136788E-14  0.44408920985E-15  0.12599274056E+03  0.14906468112E+03  0.79662465960E+02 0.  0.
         66    2    3    3    0    0  0.22703146541E+02  0.28339283181E+01  0.12398833741E+03  0.12609746952E+03  0.19999985680E+01 0.  0.
        -13    1    3    3    0    0 -0.22703146541E+02 -0.28339283181E+01  0.20044031561E+01  0.22967211599E+02  0.10566000000E+00 0.  1.
         13    1    4    4    0    0  0.12481943493E+02  0.14057109386E+01  0.73082057943E+02  0.74153713959E+02  0.10566000000E+00 0. -1.
        -13    1    4    4    0    0  0.18675935873E+01  0.16902144670E+00  0.97998853155E+01  0.99782458523E+01  0.10566000000E+00 0. -1.
         14    1    4    4    0    0  0.83536094600E+01  0.12591959327E+01  0.41106394148E+02  0.41965509710E+02  0.00000000000E+00 0. -1.
<mgrwt>
<rscale>  0 0.79662466E+02</rscale>
<asrwt>0</asrwt>
<pdfrwt beam="1">  1        2 0.21158262E-01 0.79662466E+02</pdfrwt>
<pdfrwt beam="2">  1       -1 0.17747648E-02 0.79662466E+02</pdfrwt>
<totfact> 0.19704825E+05</totfact>
</mgrwt>
</event>
<event>
 8    1  0.1673046E-013  0.7354975E+02  0.7818608E-02  0.1348422E+00
          2   -1    0    0  501    0  0.00000000000E+00  0.00000000000E+00  0.57403690416E+03  0.57403690417E+03  0.25500000000E-02 0. -1.
         -1   -1    0    0    0  501 -0.00000000000E+00 -0.00000000000E+00 -0.23559285582E+01  0.23559339492E+01  0.50400000000E-02 0.  1.
         24    2    1    2    0    0  0.35527136788E-14  0.35527136788E-14  0.57168097560E+03  0.57639283812E+03  0.73549751632E+02 0.  0.
         66    2    3    3    0    0 -0.18777413914E+02  0.17384999798E+02  0.49273379029E+03  0.49340188244E+03  0.20000024572E+01 0.  0.
        -13    1    3    3    0    0  0.18777413914E+02 -0.17384999798E+02  0.78947185316E+02  0.82990955680E+02  0.10566000000E+00 0.  1.
         13    1    4    4    0    0 -0.87793305917E+01  0.73789101456E+01  0.22980017092E+03  0.23008618967E+03  0.10566000000E+00 0. -1.
        -13    1    4    4    0    0 -0.47245750541E+01  0.41866417844E+01  0.11163567977E+03  0.11181406773E+03  0.10566000000E+00 0.  1.
         14    1    4    4    0    0 -0.52735082681E+01  0.58194478684E+01  0.15129793959E+03  0.15150162504E+03  0.00000000000E+00 0. -1.
<mgrwt>
<rscale>  0 0.73549752E+02</rscale>
<asrwt>0</asrwt>
<pdfrwt beam="1">  1        2 0.88313346E-01 0.73549752E+02</pdfrwt>
<pdfrwt beam="2">  1       -1 0.36245106E-03 0.73549752E+02</pdfrwt>
<totfact> 0.39493075E+05</totfact>
</mgrwt>
</event>
<event>
 8    1  0.1673046E-013  0.8589519E+02  0.7818608E-02  0.1313108E+00
          2   -1    0    0  501    0  0.00000000000E+00  0.00000000000E+00  0.36863554703E+02  0.36863554791E+02  0.25500000000E-02 0. -1.
         -1   -1    0    0    0  501 -0.00000000000E+00 -0.00000000000E+00 -0.50035755443E+02  0.50035755697E+02  0.50400000000E-02 0.  1.
         24    2    1    2    0    0  0.00000000000E+00  0.00000000000E+00 -0.13172200740E+02  0.86899310488E+02  0.85895187821E+02 0.  0.
         66    2    3    3    0    0 -0.17262809799E+02  0.33402562063E+02  0.14358799228E+02  0.40297777489E+02  0.20000001861E+01 0.  0.
        -13    1    3    3    0    0  0.17262809799E+02 -0.33402562063E+02 -0.27530999968E+02  0.46601532999E+02  0.10566000000E+00 0.  1.
         13    1    4    4    0    0 -0.77480089116E+01  0.15108158359E+02  0.68119567702E+01  0.18294862945E+02  0.10566000000E+00 0. -1.
        -13    1    4    4    0    0 -0.14959859979E+01  0.22550490075E+01  0.61184212215E+00  0.27764608678E+01  0.10566000000E+00 0.  1.
        -14    1    4    4    0    0 -0.80188148899E+01  0.16039354696E+02  0.69350003359E+01  0.19226453676E+02  0.00000000000E+00 0.  1.
<mgrwt>
<rscale>  0 0.85895188E+02</rscale>
<asrwt>0</asrwt>
<pdfrwt beam="1">  1        2 0.56713161E-02 0.85895188E+02</pdfrwt>
<pdfrwt beam="2">  1       -1 0.76978086E-02 0.85895188E+02</pdfrwt>
<totfact> 0.11496601E+05</totfact>
</mgrwt>
</event>
<event>
 8    1  0.1673046E-013  0.8024592E+02  0.7818608E-02  0.1328355E+00
         -1   -1    0    0    0  501 -0.00000000000E+00  0.00000000000E+00  0.40593954687E+01  0.40593985975E+01  0.50400000000E-02 0.  1.
          2   -1    0    0  501    0  0.00000000000E+00 -0.00000000000E+00 -0.39657419476E+03  0.39657419477E+03  0.25500000000E-02 0. -1.
         24    2    1    2    0    0  0.00000000000E+00  0.00000000000E+00 -0.39251479929E+03  0.40063359337E+03  0.80245924946E+02 0.  0.
         66    2    3    3    0    0  0.98209694126E+01  0.38727740881E+02 -0.17940584236E+03  0.18381171245E+03  0.20000020693E+01 0.  0.
        -13    1    3    3    0    0 -0.98209694126E+01 -0.38727740881E+02 -0.21310895693E+03  0.21682188091E+03  0.10566000000E+00 0.  1.
         13    1    4    4    0    0  0.27940721321E+01  0.11348029082E+02 -0.53388687967E+02  0.54652975857E+02  0.10566000000E+00 0. -1.
        -13    1    4    4    0    0  0.62715175648E+01  0.22415168909E+02 -0.10197011629E+03  0.10459296109E+03  0.10566000000E+00 0.  1.
        -14    1    4    4    0    0  0.75537971573E+00  0.49645428887E+01 -0.24047038104E+02  0.24565775505E+02  0.00000000000E+00 0.  1.
<mgrwt>
<rscale>  0 0.80245925E+02</rscale>
<asrwt>0</asrwt>
<pdfrwt beam="1">  1        2 0.61011384E-01 0.80245925E+02</pdfrwt>
<pdfrwt beam="2">  1       -1 0.62452293E-03 0.80245925E+02</pdfrwt>
<totfact> 0.27943693E+05</totfact>
</mgrwt>
</event>
<event>
 8    1  0.1673046E-013  0.7910694E+02  0.7818608E-02  0.1331605E+00
         -1   -1    0    0    0  501 -0.00000000000E+00  0.00000000000E+00  0.33185604100E+02  0.33185604482E+02  0.50400000000E-02 0.  1.
          2   -1    0    0  501    0  0.00000000000E+00 -0.00000000000E+00 -0.47143243698E+02  0.47143243767E+02  0.25500000000E-02 0. -1.
         24    2    1    2    0    0  0.88817841970E-15 -0.35527136788E-14 -0.13957639598E+02  0.80328848249E+02  0.79106941275E+02 0.  0.
         66    2    3    3    0    0 -0.60235661996E+01  0.31526488673E+02 -0.30410589662E+02  0.44260668815E+02  0.20000006336E+01 0.  0.
        -13    1    3    3    0    0  0.60235661996E+01 -0.31526488673E+02  0.16452950064E+02  0.36068179434E+02  0.10566000000E+00 0.  1.
         13    1    4    4    0    0 -0.64017974693E+00  0.34885553580E+01 -0.38119601282E+01  0.52078837016E+01  0.10566000000E+00 0. -1.
        -13    1    4    4    0    0 -0.14660050057E+01  0.48716460595E+01 -0.43351449922E+01  0.66848150419E+01  0.10566000000E+00 0.  1.
        -14    1    4    4    0    0 -0.39173814470E+01  0.23166287256E+02 -0.22263484542E+02  0.32367970072E+02  0.00000000000E+00 0.  1.
<mgrwt>
<rscale>  0 0.79106941E+02</rscale>
<asrwt>0</asrwt>
<pdfrwt beam="1">  1        2 0.72528067E-02 0.79106941E+02</pdfrwt>
<pdfrwt beam="2">  1       -1 0.51054776E-02 0.79106941E+02</pdfrwt>
<totfact> 0.15215930E+05</totfact>
</mgrwt>
</event>
<event>
 8    1  0.1673046E-013  0.7854130E+02  0.7818608E-02  0.1333243E+00
         -1   -1    0    0    0  501 -0.00000000000E+00  0.00000000000E+00  0.79737999138E+02  0.79737999297E+02  0.50400000000E-02 0.  1.
          2   -1    0    0  501    0  0.00000000000E+00 -0.00000000000E+00 -0.19340640407E+02  0.19340640575E+02  0.25500000000E-02 0. -1.
         24    2    1    2    0    0  0.71054273576E-14  0.17763568394E-14  0.60397358731E+02  0.99078639872E+02  0.78541300837E+02 0.  0.
         66    2    3    3    0    0  0.27673732134E+02  0.10405624273E+02 -0.23385227400E+01  0.29725093065E+02  0.20000006011E+01 0.  0.
        -13    1    3    3    0    0 -0.27673732134E+02 -0.10405624273E+02  0.62735881471E+02  0.69353546807E+02  0.10566000000E+00 0.  1.
         13    1    4    4    0    0  0.16786439353E+02  0.60487185003E+01 -0.81650781843E+00  0.17861953720E+02  0.10566000000E+00 0. -1.
        -13    1    4    4    0    0  0.36029085595E+01  0.99641135047E+00 -0.35352844011E+00  0.37563189509E+01  0.10566000000E+00 0.  1.
        -14    1    4    4    0    0  0.72843842214E+01  0.33604944220E+01 -0.11684864814E+01  0.81068203941E+01  0.00000000000E+00 0.  1.
<mgrwt>
<rscale>  0 0.78541301E+02</rscale>
<asrwt>0</asrwt>
<pdfrwt beam="1">  1        2 0.29754832E-02 0.78541301E+02</pdfrwt>
<pdfrwt beam="2">  1       -1 0.12267385E-01 0.78541301E+02</pdfrwt>
<totfact> 0.13001148E+05</totfact>
</mgrwt>
</event>
<event>
 8    1  0.1673046E-013  0.8018538E+02  0.7818608E-02  0.1328526E+00
          2   -1    0    0  501    0  0.00000000000E+00  0.00000000000E+00  0.26186423091E+02  0.26186423215E+02  0.25500000000E-02 0. -1.
         -1   -1    0    0    0  501 -0.00000000000E+00 -0.00000000000E+00 -0.61383866723E+02  0.61383866930E+02  0.50400000000E-02 0.  1.
         24    2    1    2    0    0  0.00000000000E+00 -0.35527136788E-14 -0.35197443632E+02  0.87570290145E+02  0.80185383193E+02 0.  0.
         66    2    3    3    0    0  0.32414802543E+02 -0.22568010067E+02 -0.24966883077E+02  0.46769431874E+02  0.20000012425E+01 0.  0.
        -13    1    3    3    0    0 -0.32414802543E+02  0.22568010067E+02 -0.10230560555E+02  0.40800858271E+02  0.10566000000E+00 0.  1.
         13    1    4    4    0    0  0.21884542332E+02 -0.15582587131E+02 -0.17402757478E+02  0.32009644588E+02  0.10566000000E+00 0. -1.
        -13    1    4    4    0    0  0.47594552605E+01 -0.30215737094E+01 -0.39184449160E+01  0.68664180366E+01  0.10566000000E+00 0.  1.
         14    1    4    4    0    0  0.57708049509E+01 -0.39638492263E+01 -0.36456806828E+01  0.78933692496E+01  0.00000000000E+00 0. -1.
<mgrwt>
<rscale>  0 0.80185383E+02</rscale>
<asrwt>0</asrwt>
<pdfrwt beam="1">  1        2 0.40286805E-02 0.80185383E+02</pdfrwt>
<pdfrwt beam="2">  1       -1 0.94436718E-02 0.80185383E+02</pdfrwt>
<totfact> 0.13014236E+05</totfact>
</mgrwt>
</event>
<event>
 8    1  0.1673046E-013  0.8012327E+02  0.7818608E-02  0.1328702E+00
          2   -1    0    0  501    0  0.00000000000E+00  0.00000000000E+00  0.15837712842E+02  0.15837713048E+02  0.25500000000E-02 0. -1.
         -1   -1    0    0    0  501 -0.00000000000E+00 -0.00000000000E+00 -0.10133624903E+03  0.10133624916E+03  0.50400000000E-02 0.  1.
         24    2    1    2    0    0  0.00000000000E+00  0.35527136788E-14 -0.85498536192E+02  0.11717396221E+03  0.80123265837E+02 0.  0.
         66    2    3    3    0    0  0.10858051880E+02 -0.26245470126E+02 -0.15104736710E+01  0.28513216650E+02  0.20000000626E+01 0.  0.
        -13    1    3    3    0    0 -0.10858051880E+02  0.26245470126E+02 -0.83988062521E+02  0.88660745558E+02  0.10566000000E+00 0.  1.
         13    1    4    4    0    0  0.91412909407E+01 -0.21656882264E+02 -0.83034859344E+00  0.23521998051E+02  0.10566000000E+00 0. -1.
        -13    1    4    4    0    0  0.81425973838E+00 -0.13887530546E+01 -0.10100038075E+00  0.16164835541E+01  0.10566000000E+00 0.  1.
        -14    1    4    4    0    0  0.90250120070E+00 -0.31998348067E+01 -0.57912469685E+00  0.33747350447E+01  0.00000000000E+00 0.  1.
<mgrwt>
<rscale>  0 0.80123266E+02</rscale>
<asrwt>0</asrwt>
<pdfrwt beam="1">  1        2 0.24365713E-02 0.80123266E+02</pdfrwt>
<pdfrwt beam="2">  1       -1 0.15590192E-01 0.80123266E+02</pdfrwt>
<totfact> 0.11773967E+05</totfact>
</mgrwt>
</event>
<event>
 8    1  0.1673046E-013  0.7880434E+02  0.7818608E-02  0.1332479E+00
          2   -1    0    0  501    0  0.00000000000E+00  0.00000000000E+00  0.14828913177E+03  0.14828913179E+03  0.25500000000E-02 0. -1.
         -1   -1    0    0    0  501 -0.00000000000E+00 -0.00000000000E+00 -0.10469620438E+02  0.10469621651E+02  0.50400000000E-02 0.  1.
         24    2    1    2    0    0  0.00000000000E+00  0.00000000000E+00  0.13781951133E+03  0.15875875344E+03  0.78804340558E+02 0.  0.
         66    2    3    3    0    0 -0.86028916396E+01 -0.25392747737E+02  0.12705417893E+03  0.12986749303E+03  0.19999954892E+01 0.  0.
        -13    1    3    3    0    0  0.86028916396E+01  0.25392747737E+02  0.10765332407E+02  0.28891260410E+02  0.10566000000E+00 0.  1.
         13    1    4    4    0    0 -0.60380418298E+01 -0.18205143937E+02  0.89107335541E+02  0.91148305668E+02  0.10566000000E+00 0. -1.
        -13    1    4    4    0    0 -0.22430539443E+01 -0.68907303475E+01  0.35288421358E+02  0.36024953874E+02  0.10566000000E+00 0.  1.
        -14    1    4    4    0    0 -0.32179586545E+00 -0.29687345311E+00  0.26584220282E+01  0.26942334914E+01  0.00000000000E+00 0.  1.
<mgrwt>
<rscale>  0 0.78804341E+02</rscale>
<asrwt>0</asrwt>
<pdfrwt beam="1">  1        2 0.22813712E-01 0.78804341E+02</pdfrwt>
<pdfrwt beam="2">  1       -1 0.16107110E-02 0.78804341E+02</pdfrwt>
<totfact> 0.20769303E+05</totfact>
</mgrwt>
</event>
<event>
 8    1  0.1673046E-013  0.8301772E+02  0.7818608E-02  0.1320699E+00
         -1   -1    0    0    0  501 -0.00000000000E+00  0.00000000000E+00  0.27282619372E+01  0.27282665924E+01  0.50400000000E-02 0.  1.
          2   -1    0    0  501    0  0.00000000000E+00 -0.00000000000E+00 -0.63153174402E+03  0.63153174403E+03  0.25500000000E-02 0. -1.
         24    2    1    2    0    0  0.00000000000E+00  0.00000000000E+00 -0.62880348208E+03  0.63426001062E+03  0.83017720934E+02 0.  0.
         66    2    3    3    0    0  0.20517450127E+02  0.32686968923E+02 -0.43084738073E+03  0.43257700954E+03  0.20000007814E+01 0.  0.
        -13    1    3    3    0    0 -0.20517450127E+02 -0.32686968923E+02 -0.19795610136E+03  0.20168300108E+03  0.10566000000E+00 0.  1.
         13    1    4    4    0    0  0.90810722968E+01  0.13845810039E+02 -0.19285175280E+03  0.19356131342E+03  0.10566000000E+00 0. -1.
        -13    1    4    4    0    0  0.37659861041E+01  0.66962876534E+01 -0.86570821904E+02  0.86911111423E+02  0.10566000000E+00 0.  1.
         14    1    4    4    0    0  0.76703917258E+01  0.12144871231E+02 -0.15142480602E+03  0.15210458470E+03  0.00000000000E+00 0. -1.
<mgrwt>
<rscale>  0 0.83017721E+02</rscale>
<asrwt>0</asrwt>
<pdfrwt beam="1">  1        2 0.97158614E-01 0.83017721E+02</pdfrwt>
<pdfrwt beam="2">  1       -1 0.41973347E-03 0.83017721E+02</pdfrwt>
<totfact> 0.29613178E+05</totfact>
</mgrwt>
</event>
<event>
 8    1  0.1673046E-013  0.8196800E+02  0.7818608E-02  0.1323558E+00
         -1   -1    0    0    0  501 -0.00000000000E+00  0.00000000000E+00  0.33741808003E+01  0.33741845644E+01  0.50400000000E-02 0.  1.
          2   -1    0    0  501    0  0.00000000000E+00 -0.00000000000E+00 -0.49780599470E+03  0.49780599471E+03  0.25500000000E-02 0. -1.
         24    2    1    2    0    0  0.17763568394E-14  0.00000000000E+00 -0.49443181390E+03  0.50118017927E+03  0.81968002891E+02 0.  0.
         66    2    3    3    0    0  0.84559903039E+01 -0.23223085286E+02 -0.44707499830E+03  0.44776206802E+03  0.19999966756E+01 0.  0.
        -13    1    3    3    0    0 -0.84559903039E+01  0.23223085286E+02 -0.47356815595E+02  0.53418111251E+02  0.10566000000E+00 0.  1.
         13    1    4    4    0    0  0.48276031672E+00 -0.32199041197E+01 -0.60932345000E+02  0.61019363085E+02  0.10566000000E+00 0. -1.
        -13    1    4    4    0    0  0.17926211202E+01 -0.46337559699E+01 -0.88403983681E+02  0.88543552445E+02  0.10566000000E+00 0. -1.
         14    1    4    4    0    0  0.61806088669E+01 -0.15369425197E+02 -0.29773866962E+03  0.29819915249E+03  0.00000000000E+00 0. -1.
<mgrwt>
<rscale>  0 0.81968003E+02</rscale>
<asrwt>0</asrwt>
<pdfrwt beam="1">  1        2 0.76585479E-01 0.81968003E+02</pdfrwt>
<pdfrwt beam="2">  1       -1 0.51910543E-03 0.81968003E+02</pdfrwt>
<totfact> 0.28540132E+05</totfact>
</mgrwt>
</event>
<event>
 8    1  0.1673046E-013  0.7992304E+02  0.7818608E-02  0.1329270E+00
         -1   -1    0    0    0  501 -0.00000000000E+00  0.00000000000E+00  0.63892366491E+02  0.63892366690E+02  0.50400000000E-02 0.  1.
          2   -1    0    0  501    0  0.00000000000E+00 -0.00000000000E+00 -0.24993956987E+02  0.24993957118E+02  0.25500000000E-02 0. -1.
         24    2    1    2    0    0  0.00000000000E+00  0.00000000000E+00  0.38898409503E+02  0.88886323807E+02  0.79923039845E+02 0.  0.
         66    2    3    3    0    0  0.47740553662E+00 -0.22623205985E+02 -0.17136305936E+02  0.28455058195E+02  0.19999976612E+01 0.  0.
        -13    1    3    3    0    0 -0.47740553662E+00  0.22623205985E+02  0.56034715440E+02  0.60431265613E+02  0.10566000000E+00 0.  1.
         13    1    4    4    0    0  0.13695819865E+00 -0.16610376673E+02 -0.12174530830E+02  0.20594992978E+02  0.10566000000E+00 0. -1.
        -13    1    4    4    0    0  0.60005942007E+00 -0.35500757732E+01 -0.26440572845E+01  0.44682560650E+01  0.10566000000E+00 0.  1.
         14    1    4    4    0    0 -0.25961208210E+00 -0.24627535383E+01 -0.23177178217E+01  0.33918091521E+01  0.00000000000E+00 0. -1.
<mgrwt>
<rscale>  0 0.79923040E+02</rscale>
<asrwt>0</asrwt>
<pdfrwt beam="1">  1        2 0.38452242E-02 0.79923040E+02</pdfrwt>
<pdfrwt beam="2">  1       -1 0.98295949E-02 0.79923040E+02</pdfrwt>
<totfact> 0.13015183E+05</totfact>
</mgrwt>
</event>
<event>
 8    1  0.1673046E-013  0.7741299E+02  0.7818608E-02  0.1336558E+00
         -1   -1    0    0    0  501 -0.00000000000E+00  0.00000000000E+00  0.31213236916E+01  0.31213277606E+01  0.50400000000E-02 0.  1.
          2   -1    0    0  501    0  0.00000000000E+00 -0.00000000000E+00 -0.47998605205E+03  0.47998605206E+03  0.25500000000E-02 0. -1.
         24    2    1    2    0    0  0.00000000000E+00  0.00000000000E+00 -0.47686472836E+03  0.48310737982E+03  0.77412991685E+02 0.  0.
         66    2    3    3    0    0 -0.19038153432E+02 -0.24326214143E+02 -0.38387520846E+03  0.38512126878E+03  0.20000046303E+01 0.  0.
        -13    1    3    3    0    0  0.19038153432E+02  0.24326214143E+02 -0.92989519905E+02  0.97986111040E+02  0.10566000000E+00 0.  1.
         13    1    4    4    0    0 -0.13036732171E+00 -0.29553611852E+00 -0.35063893500E+01  0.35228209641E+01  0.10566000000E+00 0. -1.
        -13    1    4    4    0    0 -0.53988649215E+01 -0.67065916734E+01 -0.99592069189E+02  0.99963580987E+02  0.10566000000E+00 0. -1.
        -14    1    4    4    0    0 -0.13508921189E+02 -0.17324086351E+02 -0.28077674992E+03  0.28163486683E+03  0.00000000000E+00 0.  1.
<mgrwt>
<rscale>  0 0.77412992E+02</rscale>
<asrwt>0</asrwt>
<pdfrwt beam="1">  1        2 0.73843950E-01 0.77412992E+02</pdfrwt>
<pdfrwt beam="2">  1       -1 0.48020434E-03 0.77412992E+02</pdfrwt>
<totfact> 0.32737828E+05</totfact>
</mgrwt>
</event>
<event>
 8    1  0.1673046E-013  0.8844029E+02  0.7818608E-02  0.1306673E+00
          2   -1    0    0  501    0  0.00000000000E+00  0.00000000000E+00  0.83864772844E+02  0.83864772883E+02  0.25500000000E-02 0. -1.
         -1   -1    0    0    0  501 -0.00000000000E+00 -0.00000000000E+00 -0.23316357378E+02  0.23316357923E+02  0.50400000000E-02 0.  1.
         24    2    1    2    0    0 -0.71054273576E-14  0.35527136788E-14  0.60548415466E+02  0.10718113081E+03  0.88440285986E+02 0.  0.
         66    2    3    3    0    0 -0.36547092813E+02  0.14268351795E+02  0.54952416396E+02  0.67550306620E+02  0.20000001372E+01 0.  0.
        -13    1    3    3    0    0  0.36547092813E+02 -0.14268351795E+02  0.55959990697E+01  0.39630824186E+02  0.10566000000E+00 0.  1.
         13    1    4    4    0    0 -0.79269467242E+01  0.37064126994E+01  0.11476274150E+02  0.14432255952E+02  0.10566000000E+00 0. -1.
        -13    1    4    4    0    0 -0.48577399937E+01  0.15465522682E+01  0.75834973486E+01  0.91383837650E+01  0.10566000000E+00 0.  1.
         14    1    4    4    0    0 -0.23762406096E+02  0.90153868270E+01  0.35892644898E+02  0.43979666903E+02  0.00000000000E+00 0. -1.
<mgrwt>
<rscale>  0 0.88440286E+02</rscale>
<asrwt>0</asrwt>
<pdfrwt beam="1">  1        2 0.12902273E-01 0.88440286E+02</pdfrwt>
<pdfrwt beam="2">  1       -1 0.35871320E-02 0.88440286E+02</pdfrwt>
<totfact> 0.12879642E+05</totfact>
</mgrwt>
</event>
<event>
 8    1  0.1673046E-013  0.7590097E+02  0.7818608E-02  0.1341104E+00
         -1   -1    0    0    0  501 -0.00000000000E+00  0.00000000000E+00  0.22651977976E+01  0.22652034045E+01  0.50400000000E-02 0.  1.
          2   -1    0    0  501    0  0.00000000000E+00 -0.00000000000E+00 -0.63581092400E+03  0.63581092400E+03  0.25500000000E-02 0. -1.
         24    2    1    2    0    0  0.17763568394E-14  0.00000000000E+00 -0.63354572620E+03  0.63807612741E+03  0.75900969563E+02 0.  0.
         66    2    3    3    0    0  0.13330064159E+02  0.12262956201E+02 -0.59709578953E+03  0.59737379636E+03  0.19999999096E+01 0.  0.
        -13    1    3    3    0    0 -0.13330064159E+02 -0.12262956201E+02 -0.36449936670E+02  0.40702331046E+02  0.10566000000E+00 0.  1.
         13    1    4    4    0    0  0.32987209967E+01  0.28729490761E+01 -0.15931456000E+03  0.15937463910E+03  0.10566000000E+00 0. -1.
        -13    1    4    4    0    0  0.16269741562E+01  0.21614748038E+01 -0.96254458063E+02  0.96292527640E+02  0.10566000000E+00 0.  1.
         14    1    4    4    0    0  0.84043690064E+01  0.72285323208E+01 -0.34152677147E+03  0.34170662962E+03  0.00000000000E+00 0. -1.
<mgrwt>
<rscale>  0 0.75900970E+02</rscale>
<asrwt>0</asrwt>
<pdfrwt beam="1">  1        2 0.97816923E-01 0.75900970E+02</pdfrwt>
<pdfrwt beam="2">  1       -1 0.34849291E-03 0.75900970E+02</pdfrwt>
<totfact> 0.37447261E+05</totfact>
</mgrwt>
</event>
<event>
 8    1  0.1673046E-013  0.8126129E+02  0.7818608E-02  0.1325510E+00
          2   -1    0    0  501    0  0.00000000000E+00  0.00000000000E+00  0.39620816290E+02  0.39620816372E+02  0.25500000000E-02 0. -1.
         -1   -1    0    0    0  501 -0.00000000000E+00 -0.00000000000E+00 -0.41666206190E+02  0.41666206495E+02  0.50400000000E-02 0.  1.
         24    2    1    2    0    0 -0.22204460493E-15  0.00000000000E+00 -0.20453899009E+01  0.81287022867E+02  0.81261285165E+02 0.  0.
         66    2    3    3    0    0  0.17140633651E+01 -0.40305327731E+02 -0.56493509000E+01  0.40784465471E+02  0.20000003531E+01 0.  0.
        -13    1    3    3    0    0 -0.17140633651E+01  0.40305327731E+02  0.36039609991E+01  0.40502557396E+02  0.10566000000E+00 0.  1.
         13    1    4    4    0    0  0.56702646211E+00 -0.52036121444E+01 -0.31993691196E+00  0.52452475653E+01  0.10566000000E+00 0. -1.
        -13    1    4    4    0    0  0.95101054907E+00 -0.19045183413E+02 -0.24619784142E+01  0.19227478619E+02  0.10566000000E+00 0.  1.
        -14    1    4    4    0    0  0.19602635389E+00 -0.16056532173E+02 -0.28674355738E+01  0.16311739286E+02  0.00000000000E+00 0.  1.
<mgrwt>
<rscale>  0 0.81261285E+02</rscale>
<asrwt>0</asrwt>
<pdfrwt beam="1">  1        2 0.60955102E-02 0.81261285E+02</pdfrwt>
<pdfrwt beam="2">  1       -1 0.64101856E-02 0.81261285E+02</pdfrwt>
<totfact> 0.13624237E+05</totfact>
</mgrwt>
</event>
<event>
 8    1  0.1673046E-013  0.8067484E+02  0.7818608E-02  0.1327147E+00
          2   -1    0    0  501    0  0.00000000000E+00  0.00000000000E+00  0.54721608447E+03  0.54721608448E+03  0.25500000000E-02 0. -1.
         -1   -1    0    0    0  501 -0.00000000000E+00 -0.00000000000E+00 -0.29734257540E+01  0.29734300255E+01  0.50400000000E-02 0.  1.
         24    2    1    2    0    0  0.00000000000E+00  0.00000000000E+00  0.54424265872E+03  0.55018951450E+03  0.80674843050E+02 0.  0.
         66    2    3    3    0    0  0.20976557241E+02 -0.46360123689E+01  0.50492303491E+03  0.50538379450E+03  0.19999997284E+01 0.  0.
        -13    1    3    3    0    0 -0.20976557241E+02  0.46360123689E+01  0.39319623809E+02  0.44805720002E+02  0.10566000000E+00 0.  1.
         13    1    4    4    0    0  0.18005079620E+02 -0.37621338900E+01  0.42314141282E+03  0.42354102865E+03  0.10566000000E+00 0. -1.
        -13    1    4    4    0    0  0.86765290029E+00 -0.45649841101E-01  0.27903743464E+02  0.27917467092E+02  0.10566000000E+00 0.  1.
         14    1    4    4    0    0  0.21038247200E+01 -0.82822863779E+00  0.53877878623E+02  0.53925298757E+02  0.00000000000E+00 0. -1.
<mgrwt>
<rscale>  0 0.80674843E+02</rscale>
<asrwt>0</asrwt>
<pdfrwt beam="1">  1        2 0.84187001E-01 0.80674843E+02</pdfrwt>
<pdfrwt beam="2">  1       -1 0.45745093E-03 0.80674843E+02</pdfrwt>
<totfact> 0.30637366E+05</totfact>
</mgrwt>
</event>
<event>
 8    1  0.1673046E-013  0.7907920E+02  0.7818608E-02  0.1331685E+00
          2   -1    0    0  501    0  0.00000000000E+00  0.00000000000E+00  0.73912893729E+02  0.73912893773E+02  0.25500000000E-02 0. -1.
         -1   -1    0    0    0  501 -0.00000000000E+00 -0.00000000000E+00 -0.21151651657E+02  0.21151652257E+02  0.50400000000E-02 0.  1.
         24    2    1    2    0    0  0.00000000000E+00  0.00000000000E+00  0.52761242072E+02  0.95064546030E+02  0.79079196044E+02 0.  0.
         66    2    3    3    0    0 -0.22442344371E+02 -0.51803573698E+01  0.64995054855E+02  0.68984433635E+02  0.20000012420E+01 0.  0.
        -13    1    3    3    0    0  0.22442344371E+02  0.51803573698E+01 -0.12233812782E+02  0.26080112396E+02  0.10566000000E+00 0.  1.
         13    1    4    4    0    0 -0.91881679582E+01 -0.24700418701E+01  0.28397654290E+02  0.29949315026E+02  0.10566000000E+00 0. -1.
        -13    1    4    4    0    0 -0.98409432149E+01 -0.16691656663E+01  0.28023854699E+02  0.29748577674E+02  0.10566000000E+00 0.  1.
        -14    1    4    4    0    0 -0.34132331978E+01 -0.10411498333E+01  0.85735458655E+01  0.92865409354E+01  0.00000000000E+00 0.  1.
<mgrwt>
<rscale>  0 0.79079196E+02</rscale>
<asrwt>0</asrwt>
<pdfrwt beam="1">  1        2 0.11371215E-01 0.79079196E+02</pdfrwt>
<pdfrwt beam="2">  1       -1 0.32541003E-02 0.79079196E+02</pdfrwt>
<totfact> 0.16884296E+05</totfact>
</mgrwt>
</event>
<event>
 8    1  0.1673046E-013  0.8026467E+02  0.7818608E-02  0.1328302E+00
          2   -1    0    0  501    0  0.00000000000E+00  0.00000000000E+00  0.23532623622E+03  0.23532623624E+03  0.25500000000E-02 0. -1.
         -1   -1    0    0    0  501 -0.00000000000E+00 -0.00000000000E+00 -0.68441332540E+01  0.68441351097E+01  0.50400000000E-02 0.  1.
         24    2    1    2    0    0  0.00000000000E+00  0.00000000000E+00  0.22848210297E+03  0.24217037135E+03  0.80264670814E+02 0.  0.
         66    2    3    3    0    0  0.31871305330E+02  0.13907334284E+02  0.17460986734E+03  0.17804999248E+03  0.19999997648E+01 0.  0.
        -13    1    3    3    0    0 -0.31871305330E+02 -0.13907334284E+02  0.53872235626E+02  0.64120378864E+02  0.10566000000E+00 0.  1.
         13    1    4    4    0    0  0.13526026483E+02  0.59104169231E+01  0.73678466977E+02  0.75142624926E+02  0.10566000000E+00 0. -1.
        -13    1    4    4    0    0  0.18483481706E+01  0.34111086346E+00  0.94954762092E+01  0.96802882217E+01  0.10566000000E+00 0.  1.
        -14    1    4    4    0    0  0.16496930677E+02  0.76558064977E+01  0.91435924157E+02  0.93227079335E+02  0.00000000000E+00 0.  1.
<mgrwt>
<rscale>  0 0.80264671E+02</rscale>
<asrwt>0</asrwt>
<pdfrwt beam="1">  1        2 0.36204042E-01 0.80264671E+02</pdfrwt>
<pdfrwt beam="2">  1       -1 0.10529436E-02 0.80264671E+02</pdfrwt>
<totfact> 0.23156093E+05</totfact>
</mgrwt>
</event>
<event>
 8    1  0.1673046E-013  0.7929079E+02  0.7818608E-02  0.1331076E+00
          2   -1    0    0  501    0  0.00000000000E+00  0.00000000000E+00  0.19233578140E+02  0.19233578309E+02  0.25500000000E-02 0. -1.
         -1   -1    0    0    0  501 -0.00000000000E+00 -0.00000000000E+00 -0.81719436436E+02  0.81719436592E+02  0.50400000000E-02 0.  1.
         24    2    1    2    0    0  0.00000000000E+00  0.00000000000E+00 -0.62485858297E+02  0.10095301490E+03  0.79290785911E+02 0.  0.
         66    2    3    3    0    0  0.14042090112E+02 -0.87993495560E+00  0.15893752217E+02  0.21320552371E+02  0.20000034041E+01 0.  0.
        -13    1    3    3    0    0 -0.14042090112E+02  0.87993495560E+00 -0.78379610514E+02  0.79632462530E+02  0.10566000000E+00 0.  1.
         13    1    4    4    0    0  0.37832221178E+01 -0.18890242049E+00  0.42644588165E+01  0.57048423948E+01  0.10566000000E+00 0. -1.
        -13    1    4    4    0    0  0.12402724300E+01 -0.47741662829E+00  0.95480090249E+00  0.16398204586E+01  0.10566000000E+00 0. -1.
        -14    1    4    4    0    0  0.90185955639E+01 -0.21361590682E+00  0.10674492498E+02  0.13975889517E+02  0.00000000000E+00 0.  1.
<mgrwt>
<rscale>  0 0.79290786E+02</rscale>
<asrwt>0</asrwt>
<pdfrwt beam="1">  1        2 0.29590121E-02 0.79290786E+02</pdfrwt>
<pdfrwt beam="2">  1       -1 0.12572221E-01 0.79290786E+02</pdfrwt>
<totfact> 0.12637282E+05</totfact>
</mgrwt>
</event>
<event>
 8    1  0.1673046E-013  0.7823501E+02  0.7818608E-02  0.1334136E+00
         -1   -1    0    0    0  501 -0.00000000000E+00  0.00000000000E+00  0.53755727184E+02  0.53755727420E+02  0.50400000000E-02 0.  1.
          2   -1    0    0  501    0  0.00000000000E+00 -0.00000000000E+00 -0.28465420016E+02  0.28465420130E+02  0.25500000000E-02 0. -1.
         24    2    1    2    0    0  0.00000000000E+00 -0.44408920985E-15  0.25290307168E+02  0.82221147550E+02  0.78235014334E+02 0.  0.
         66    2    3    3    0    0 -0.37287924130E+02 -0.27624073369E+01  0.66360524408E+00  0.37449440056E+02  0.20000020883E+01 0.  0.
        -13    1    3    3    0    0  0.37287924130E+02  0.27624073369E+01  0.24626701924E+02  0.44771707494E+02  0.10566000000E+00 0.  1.
         13    1    4    4    0    0 -0.55184994842E+01 -0.17580587649E-01 -0.28044414549E+00  0.55266588993E+01  0.10566000000E+00 0. -1.
        -13    1    4    4    0    0 -0.62629166856E+01 -0.10030682875E+00  0.28445992565E+00  0.62710659665E+01  0.10566000000E+00 0.  1.
         14    1    4    4    0    0 -0.25506507960E+02 -0.26445199205E+01  0.65958946392E+00  0.25651715190E+02  0.00000000000E+00 0. -1.
<mgrwt>
<rscale>  0 0.78235014E+02</rscale>
<asrwt>0</asrwt>
<pdfrwt beam="1">  1        2 0.43792954E-02 0.78235014E+02</pdfrwt>
<pdfrwt beam="2">  1       -1 0.82701119E-02 0.78235014E+02</pdfrwt>
<totfact> 0.14176704E+05</totfact>
</mgrwt>
</event>
<event>
 8    1  0.1673046E-013  0.8039674E+02  0.7818608E-02  0.1327929E+00
          2   -1    0    0  501    0  0.00000000000E+00  0.00000000000E+00  0.12012781865E+03  0.12012781868E+03  0.25500000000E-02 0. -1.
         -1   -1    0    0    0  501 -0.00000000000E+00 -0.00000000000E+00 -0.13451580469E+02  0.13451581413E+02  0.50400000000E-02 0.  1.
         24    2    1    2    0    0  0.00000000000E+00  0.00000000000E+00  0.10667623819E+03  0.13357940009E+03  0.80396743319E+02 0.  0.
         66    2    3    3    0    0 -0.86859638671E+01  0.15998557921E+02  0.11287288193E+03  0.11434897156E+03  0.19999995545E+01 0.  0.
        -13    1    3    3    0    0  0.86859638671E+01 -0.15998557921E+02 -0.61966437438E+01  0.19230428533E+02  0.10566000000E+00 0.  1.
         13    1    4    4    0    0 -0.61179051978E+01  0.10031867916E+02  0.73190155798E+02  0.74127438966E+02  0.10566000000E+00 0. -1.
        -13    1    4    4    0    0 -0.13567247476E+01  0.42326143531E+01  0.27039700369E+02  0.27402778807E+02  0.10566000000E+00 0.  1.
        -14    1    4    4    0    0 -0.12113339217E+01  0.17340756524E+01  0.12643025763E+02  0.12818753788E+02  0.00000000000E+00 0.  1.
<mgrwt>
<rscale>  0 0.80396743E+02</rscale>
<asrwt>0</asrwt>
<pdfrwt beam="1">  1        2 0.18481204E-01 0.80396743E+02</pdfrwt>
<pdfrwt beam="2">  1       -1 0.20694739E-02 0.80396743E+02</pdfrwt>
<totfact> 0.18447449E+05</totfact>
</mgrwt>
</event>
<event>
 8    1  0.1673046E-013  0.8025198E+02  0.7818608E-02  0.1328338E+00
         -1   -1    0    0    0  501 -0.00000000000E+00  0.00000000000E+00  0.85824801743E+02  0.85824801891E+02  0.50400000000E-02 0.  1.
          2   -1    0    0  501    0  0.00000000000E+00 -0.00000000000E+00 -0.18760252926E+02  0.18760253099E+02  0.25500000000E-02 0. -1.
         24    2    1    2    0    0  0.00000000000E+00 -0.17763568394E-14  0.67064548817E+02  0.10458505499E+03  0.80251978289E+02 0.  0.
         66    2    3    3    0    0  0.26829660019E+02 -0.14691823855E+02  0.67346362928E+02  0.73994681862E+02  0.19999998136E+01 0.  0.
        -13    1    3    3    0    0 -0.26829660019E+02  0.14691823855E+02 -0.28181411115E+00  0.30590373128E+02  0.10566000000E+00 0.  1.
         13    1    4    4    0    0  0.35942050022E+01 -0.15224755894E+01  0.97406970900E+01  0.10494216757E+02  0.10566000000E+00 0.  1.
        -13    1    4    4    0    0  0.81579272941E+01 -0.42216170546E+01  0.19869445492E+02  0.21890177169E+02  0.10566000000E+00 0. -1.
        -14    1    4    4    0    0  0.15077527723E+02 -0.89477312106E+01  0.37736220346E+02  0.41610287936E+02  0.00000000000E+00 0.  1.
<mgrwt>
<rscale>  0 0.80251978E+02</rscale>
<asrwt>0</asrwt>
<pdfrwt beam="1">  1        2 0.28861928E-02 0.80251978E+02</pdfrwt>
<pdfrwt beam="2">  1       -1 0.13203816E-01 0.80251978E+02</pdfrwt>
<totfact> 0.12144209E+05</totfact>
</mgrwt>
</event>
<event>
 8    1  0.1673046E-013  0.7693563E+02  0.7818608E-02  0.1337980E+00
          2   -1    0    0  501    0  0.00000000000E+00  0.00000000000E+00  0.83941183365E+03  0.83941183366E+03  0.25500000000E-02 0. -1.
         -1   -1    0    0    0  501 -0.00000000000E+00 -0.00000000000E+00 -0.17628649559E+01  0.17628721605E+01  0.50400000000E-02 0.  1.
         24    2    1    2    0    0 -0.44408920985E-15  0.00000000000E+00  0.83764896870E+03  0.84117470582E+03  0.76935628598E+02 0.  0.
         66    2    3    3    0    0  0.24093677320E+01 -0.11577556382E+02  0.81902776646E+03  0.81911557615E+03  0.20000010366E+01 0.  0.
        -13    1    3    3    0    0 -0.24093677320E+01  0.11577556382E+02  0.18621202241E+02  0.22059129665E+02  0.10566000000E+00 0.  1.
         13    1    4    4    0    0  0.32391222777E+00 -0.58286319896E+00  0.32515863912E+02  0.32522872239E+02  0.10566000000E+00 0. -1.
        -13    1    4    4    0    0  0.23606463484E+00 -0.19776935664E+01  0.10860891642E+03  0.10862722903E+03  0.10566000000E+00 0.  1.
         14    1    4    4    0    0  0.18493908694E+01 -0.90169996171E+01  0.67790298613E+03  0.67796547488E+03  0.00000000000E+00 0. -1.
<mgrwt>
<rscale>  0 0.76935629E+02</rscale>
<asrwt>0</asrwt>
<pdfrwt beam="1">  1        2 0.12914044E+00 0.76935629E+02</pdfrwt>
<pdfrwt beam="2">  1       -1 0.27121021E-03 0.76935629E+02</pdfrwt>
<totfact> 0.38321890E+05</totfact>
</mgrwt>
</event>
<event>
 8    1  0.1673046E-013  0.7936706E+02  0.7818608E-02  0.1330857E+00
          2   -1    0    0  501    0  0.00000000000E+00  0.00000000000E+00  0.60658131953E+02  0.60658132006E+02  0.25500000000E-02 0. -1.
         -1   -1    0    0    0  501 -0.00000000000E+00 -0.00000000000E+00 -0.25961606315E+02  0.25961606804E+02  0.50400000000E-02 0.  1.
         24    2    1    2    0    0  0.00000000000E+00 -0.11102230246E-15  0.34696525638E+02  0.86619738810E+02  0.79367060297E+02 0.  0.
         66    2    3    3    0    0 -0.32220635977E+02 -0.68633102163E+00 -0.78641141519E+01  0.33233788819E+02  0.19999987203E+01 0.  0.
        -13    1    3    3    0    0  0.32220635977E+02  0.68633102163E+00  0.42560639790E+02  0.53385949991E+02  0.10566000000E+00 0.  1.
         13    1    4    4    0    0 -0.12306635044E+02 -0.20087033655E+00 -0.30700440618E+01  0.12685816867E+02  0.10566000000E+00 0. -1.
        -13    1    4    4    0    0 -0.51830220721E+01  0.51954308801E+00 -0.14647177760E+01  0.54120425922E+01  0.10566000000E+00 0.  1.
        -14    1    4    4    0    0 -0.14730978861E+02 -0.10050037731E+01 -0.33293523141E+01  0.15135929361E+02  0.00000000000E+00 0.  1.
<mgrwt>
<rscale>  0 0.79367060E+02</rscale>
<asrwt>0</asrwt>
<pdfrwt beam="1">  1        2 0.93320202E-02 0.79367060E+02</pdfrwt>
<pdfrwt beam="2">  1       -1 0.39940934E-02 0.79367060E+02</pdfrwt>
<totfact> 0.15946144E+05</totfact>
</mgrwt>
</event>
<event>
 8    1  0.1673046E-013  0.7878461E+02  0.7818608E-02  0.1332536E+00
          2   -1    0    0  501    0  0.00000000000E+00  0.00000000000E+00  0.19160220792E+03  0.19160220794E+03  0.25500000000E-02 0. -1.
         -1   -1    0    0    0  501 -0.00000000000E+00 -0.00000000000E+00 -0.80988293058E+01  0.80988308740E+01  0.50400000000E-02 0.  1.
         24    2    1    2    0    0  0.17763568394E-14  0.00000000000E+00  0.18350337862E+03  0.19970103881E+03  0.78784611057E+02 0.  0.
         66    2    3    3    0    0 -0.13315937806E+02 -0.58790979420E+01  0.18452480105E+03  0.18510883336E+03  0.19999983367E+01 0.  0.
        -13    1    3    3    0    0  0.13315937806E+02  0.58790979420E+01 -0.10214224300E+01  0.14592205456E+02  0.10566000000E+00 0.  1.
         13    1    4    4    0    0 -0.23313586400E+01 -0.91031331548E+00  0.26491120633E+02  0.26609294238E+02  0.10566000000E+00 0. -1.
        -13    1    4    4    0    0 -0.57890063753E+01 -0.27737951332E+01  0.74826570889E+02  0.75101487397E+02  0.10566000000E+00 0.  1.
         14    1    4    4    0    0 -0.51955727904E+01 -0.21949894933E+01  0.83207109525E+02  0.83398051722E+02  0.00000000000E+00 0. -1.
<mgrwt>
<rscale>  0 0.78784611E+02</rscale>
<asrwt>0</asrwt>
<pdfrwt beam="1">  1        2 0.29477261E-01 0.78784611E+02</pdfrwt>
<pdfrwt beam="2">  1       -1 0.12459739E-02 0.78784611E+02</pdfrwt>
<totfact> 0.22629640E+05</totfact>
</mgrwt>
</event>
<event>
 8    1  0.1673046E-013  0.7947108E+02  0.7818608E-02  0.1330559E+00
          2   -1    0    0  501    0  0.00000000000E+00  0.00000000000E+00  0.99479782185E+01  0.99479785454E+01  0.25500000000E-02 0. -1.
         -1   -1    0    0    0  501 -0.00000000000E+00 -0.00000000000E+00 -0.15871698920E+03  0.15871698928E+03  0.50400000000E-02 0.  1.
         24    2    1    2    0    0 -0.35527136788E-14  0.00000000000E+00 -0.14876901099E+03  0.16866496783E+03  0.79471081176E+02 0.  0.
         66    2    3    3    0    0 -0.29844757302E+02 -0.18332768802E+02 -0.11414304624E+03  0.11941287601E+03  0.20000001905E+01 0.  0.
        -13    1    3    3    0    0  0.29844757302E+02  0.18332768802E+02 -0.34625964744E+02  0.49252091822E+02  0.10566000000E+00 0.  1.
         13    1    4    4    0    0 -0.10713637318E+02 -0.63941026396E+01 -0.41267021613E+02  0.43112003085E+02  0.10566000000E+00 0. -1.
        -13    1    4    4    0    0 -0.19005101528E+02 -0.11659129036E+02 -0.71893752195E+02  0.75271853589E+02  0.10566000000E+00 0.  1.
        -14    1    4    4    0    0 -0.12601845586E+00 -0.27953712599E+00 -0.98227243343E+00  0.10290193339E+01  0.00000000000E+00 0.  1.
<mgrwt>
<rscale>  0 0.79471081E+02</rscale>
<asrwt>0</asrwt>
<pdfrwt beam="1">  1        2 0.15304583E-02 0.79471081E+02</pdfrwt>
<pdfrwt beam="2">  1       -1 0.24417997E-01 0.79471081E+02</pdfrwt>
<totfact> 0.10810722E+05</totfact>
</mgrwt>
</event>
<event>
 8    1  0.1673046E-013  0.7904839E+02  0.7818608E-02  0.1331774E+00
          2   -1    0    0  501    0  0.00000000000E+00  0.00000000000E+00  0.58724296285E+03  0.58724296286E+03  0.25500000000E-02 0. -1.
         -1   -1    0    0    0  501 -0.00000000000E+00 -0.00000000000E+00 -0.26601604021E+01  0.26601651765E+01  0.50400000000E-02 0.  1.
         24    2    1    2    0    0  0.00000000000E+00 -0.35527136788E-14  0.58458280245E+03  0.58990312804E+03  0.79048387360E+02 0.  0.
         66    2    3    3    0    0  0.10692885112E+02 -0.26279078258E+02  0.49755976212E+03  0.49837199422E+03  0.19999974632E+01 0.  0.
        -13    1    3    3    0    0 -0.10692885112E+02  0.26279078258E+02  0.87023040331E+02  0.91531133821E+02  0.10566000000E+00 0.  1.
         13    1    4    4    0    0  0.34552876417E+01 -0.10902897604E+02  0.19944699094E+03  0.19977468695E+03  0.10566000000E+00 0. -1.
        -13    1    4    4    0    0  0.34422250946E+01 -0.77905667467E+01  0.15253539275E+03  0.15277303116E+03  0.10566000000E+00 0.  1.
        -14    1    4    4    0    0  0.37953723758E+01 -0.75856139066E+01  0.14557737843E+03  0.14582427610E+03  0.00000000000E+00 0.  1.
<mgrwt>
<rscale>  0 0.79048387E+02</rscale>
<asrwt>0</asrwt>
<pdfrwt beam="1">  1        2 0.90345014E-01 0.79048387E+02</pdfrwt>
<pdfrwt beam="2">  1       -1 0.40925608E-03 0.79048387E+02</pdfrwt>
<totfact> 0.32980426E+05</totfact>
</mgrwt>
</event>
<event>
 8    1  0.1673046E-013  0.7894021E+02  0.7818608E-02  0.1332086E+00
         -1   -1    0    0    0  501 -0.00000000000E+00  0.00000000000E+00  0.63914560826E+01  0.63914580698E+01  0.50400000000E-02 0.  1.
          2   -1    0    0  501    0  0.00000000000E+00 -0.00000000000E+00 -0.24374555543E+03  0.24374555545E+03  0.25500000000E-02 0. -1.
         24    2    1    2    0    0  0.17763568394E-14  0.00000000000E+00 -0.23735409935E+03  0.25013701352E+03  0.78940211884E+02 0.  0.
         66    2    3    3    0    0  0.12992788704E+02 -0.35825475883E+02 -0.86499704287E+02  0.94543514441E+02  0.20000001157E+01 0.  0.
        -13    1    3    3    0    0 -0.12992788704E+02  0.35825475883E+02 -0.15085439506E+03  0.15559349907E+03  0.10566000000E+00 0.  1.
         13    1    4    4    0    0  0.64030897231E+01 -0.17131653766E+02 -0.40499821715E+02  0.44438044981E+02  0.10566000000E+00 0. -1.
        -13    1    4    4    0    0  0.60178865713E+01 -0.17887635151E+02 -0.43871135748E+02  0.47758456486E+02  0.10566000000E+00 0.  1.
        -14    1    4    4    0    0  0.57181240961E+00 -0.80618696649E+00 -0.21287468240E+01  0.23470129734E+01  0.00000000000E+00 0.  1.
<mgrwt>
<rscale>  0 0.78940212E+02</rscale>
<asrwt>0</asrwt>
<pdfrwt beam="1">  1        2 0.37499309E-01 0.78940212E+02</pdfrwt>
<pdfrwt beam="2">  1       -1 0.98330128E-03 0.78940212E+02</pdfrwt>
<totfact> 0.24496722E+05</totfact>
</mgrwt>
</event>
<event>
 8    1  0.1673046E-013  0.7930354E+02  0.7818608E-02  0.1331040E+00
          2   -1    0    0  501    0  0.00000000000E+00  0.00000000000E+00  0.75458063498E+01  0.75458067807E+01  0.25500000000E-02 0. -1.
         -1   -1    0    0    0  501 -0.00000000000E+00 -0.00000000000E+00 -0.20836246384E+03  0.20836246390E+03  0.50400000000E-02 0.  1.
         24    2    1    2    0    0  0.00000000000E+00  0.00000000000E+00 -0.20081665749E+03  0.21590827068E+03  0.79303539789E+02 0.  0.
         66    2    3    3    0    0 -0.38743034362E+02  0.76916864415E+01 -0.91831103020E+02  0.99985680134E+02  0.19999995427E+01 0.  0.
        -13    1    3    3    0    0  0.38743034362E+02 -0.76916864415E+01 -0.10898555447E+03  0.11592259054E+03  0.10566000000E+00 0.  1.
         13    1    4    4    0    0 -0.71974424529E+01  0.17802113311E+01 -0.16924761697E+02  0.18477853035E+02  0.10566000000E+00 0. -1.
        -13    1    4    4    0    0 -0.88315227261E+01  0.19542981213E+01 -0.22765094031E+02  0.24496443519E+02  0.10566000000E+00 0.  1.
         14    1    4    4    0    0 -0.22714069183E+02  0.39571769891E+01 -0.52141247292E+02  0.57011383580E+02  0.00000000000E+00 0. -1.
<mgrwt>
<rscale>  0 0.79303540E+02</rscale>
<asrwt>0</asrwt>
<pdfrwt beam="1">  1        2 0.11608935E-02 0.79303540E+02</pdfrwt>
<pdfrwt beam="2">  1       -1 0.32055759E-01 0.79303540E+02</pdfrwt>
<totfact> 0.10057589E+05</totfact>
</mgrwt>
</event>
<event>
 8    1  0.1673046E-013  0.8651989E+02  0.7818608E-02  0.1311505E+00
         -1   -1    0    0    0  501 -0.00000000000E+00  0.00000000000E+00  0.15334187406E+01  0.15334270232E+01  0.50400000000E-02 0.  1.
          2   -1    0    0  501    0  0.00000000000E+00 -0.00000000000E+00 -0.12204219267E+04  0.12204219267E+04  0.25500000000E-02 0. -1.
         24    2    1    2    0    0  0.00000000000E+00  0.00000000000E+00 -0.12188885080E+04  0.12219553537E+04  0.86519891724E+02 0.  0.
         66    2    3    3    0    0 -0.27150716099E+02  0.12448458388E+02 -0.10512902669E+04  0.10517163833E+04  0.20000000405E+01 0.  0.
        -13    1    3    3    0    0  0.27150716099E+02 -0.12448458388E+02 -0.16759824102E+03  0.17023897044E+03  0.10566000000E+00 0.  1.
         13    1    4    4    0    0 -0.16729359366E+02  0.83876486849E+01 -0.65803565481E+03  0.65830172283E+03  0.10566000000E+00 0. -1.
        -13    1    4    4    0    0 -0.58855003453E+01  0.25329150900E+01 -0.23827624082E+03  0.23836239820E+03  0.10566000000E+00 0.  1.
        -14    1    4    4    0    0 -0.45358563879E+01  0.15278946129E+01 -0.15497837132E+03  0.15505226226E+03  0.00000000000E+00 0.  1.
<mgrwt>
<rscale>  0 0.86519892E+02</rscale>
<asrwt>0</asrwt>
<pdfrwt beam="1">  1        2 0.18775644E+00 0.86519892E+02</pdfrwt>
<pdfrwt beam="2">  1       -1 0.23591219E-03 0.86519892E+02</pdfrwt>
<totfact> 0.28507837E+05</totfact>
</mgrwt>
</event>
<event>
 8    1  0.1673046E-013  0.8170991E+02  0.7818608E-02  0.1324268E+00
          2   -1    0    0  501    0  0.00000000000E+00  0.00000000000E+00  0.66926355899E+03  0.66926355899E+03  0.25500000000E-02 0. -1.
         -1   -1    0    0    0  501 -0.00000000000E+00 -0.00000000000E+00 -0.24939737028E+01  0.24939787953E+01  0.50400000000E-02 0.  1.
         24    2    1    2    0    0 -0.17763568394E-14  0.00000000000E+00  0.66676958528E+03  0.67175753779E+03  0.81709911968E+02 0.  0.
         66    2    3    3    0    0  0.12710672186E+02 -0.25485337799E+02  0.57412524488E+03  0.57483463748E+03  0.20000032785E+01 0.  0.
        -13    1    3    3    0    0 -0.12710672186E+02  0.25485337799E+02  0.92644340403E+02  0.96922900302E+02  0.10566000000E+00 0.  1.
         13    1    4    4    0    0  0.11734579580E+02 -0.24132449923E+02  0.53927200819E+03  0.53993924240E+03  0.10566000000E+00 0. -1.
        -13    1    4    4    0    0  0.13344452825E+00 -0.10887249871E+00  0.30507262880E+01  0.30574099468E+01  0.10566000000E+00 0. -1.
         14    1    4    4    0    0  0.84264807693E+00 -0.12440153774E+01  0.31802510399E+02  0.31837985139E+02  0.00000000000E+00 0. -1.
<mgrwt>
<rscale>  0 0.81709912E+02</rscale>
<asrwt>0</asrwt>
<pdfrwt beam="1">  1        2 0.10296359E+00 0.81709912E+02</pdfrwt>
<pdfrwt beam="2">  1       -1 0.38368879E-03 0.81709912E+02</pdfrwt>
<totfact> 0.31324992E+05</totfact>
</mgrwt>
</event>
<event>
 8    1  0.1758562E-013  0.7918349E+02  0.7818608E-02  0.1331385E+00
         -1   -1    0    0    0  501 -0.00000000000E+00  0.00000000000E+00  0.11500650877E+02  0.11500651981E+02  0.50400000000E-02 0.  1.
          2   -1    0    0  501    0  0.00000000000E+00 -0.00000000000E+00 -0.13629715486E+03  0.13629715488E+03  0.25500000000E-02 0. -1.
         24    2    1    2    0    0  0.00000000000E+00  0.00000000000E+00 -0.12479650398E+03  0.14779780686E+03  0.79183485067E+02 0.  0.
         66    2    3    3    0    0  0.17619139564E+02  0.17330899359E+02 -0.12011040150E+03  0.12264298879E+03  0.19999999204E+01 0.  0.
        -13    1    3    3    0    0 -0.17619139564E+02 -0.17330899359E+02 -0.46861024773E+01  0.25154818067E+02  0.10566000000E+00 0.  1.
         13    1    4    4    0    0  0.15085576119E+00  0.31884235799E+00 -0.19985683033E+01  0.20322050114E+01  0.10566000000E+00 0.  1.
        -13    1    4    4    0    0  0.13057560244E+01  0.10004384156E+01 -0.94682033835E+01  0.96106147132E+01  0.10566000000E+00 0.  1.
         14    1    4    4    0    0  0.16162527778E+02  0.16011618585E+02 -0.10864362982E+03  0.11100016907E+03  0.00000000000E+00 0. -1.
<mgrwt>
<rscale>  0 0.79183485E+02</rscale>
<asrwt>0</asrwt>
<pdfrwt beam="1">  1        2 0.20968792E-01 0.79183485E+02</pdfrwt>
<pdfrwt beam="2">  1       -1 0.17693311E-02 0.79183485E+02</pdfrwt>
<totfact> 0.19966772E+05</totfact>
</mgrwt>
</event>
<event>
 8    1  0.1673046E-013  0.7902910E+02  0.7818608E-02  0.1331829E+00
         -1   -1    0    0    0  501 -0.00000000000E+00  0.00000000000E+00  0.95203714464E+01  0.95203727805E+01  0.50400000000E-02 0.  1.
          2   -1    0    0  501    0  0.00000000000E+00 -0.00000000000E+00 -0.16400616394E+03  0.16400616396E+03  0.25500000000E-02 0. -1.
         24    2    1    2    0    0  0.00000000000E+00  0.00000000000E+00 -0.15448579250E+03  0.17352653674E+03  0.79029101417E+02 0.  0.
         66    2    3    3    0    0  0.33050745125E+01  0.17970981366E+02 -0.15415891946E+03  0.15525093282E+03  0.20000003195E+01 0.  0.
        -13    1    3    3    0    0 -0.33050745125E+01 -0.17970981366E+02 -0.32687303054E+00  0.18275603925E+02  0.10566000000E+00 0.  1.
         13    1    4    4    0    0  0.14945787959E+01  0.71432231101E+01 -0.68512397527E+02  0.68900066626E+02  0.10566000000E+00 0. -1.
        -13    1    4    4    0    0  0.18620463484E+01  0.10254899879E+02 -0.81859016196E+02  0.82519936286E+02  0.10566000000E+00 0.  1.
        -14    1    4    4    0    0 -0.51550631782E-01  0.57285837707E+00 -0.37875057422E+01  0.38309299047E+01  0.00000000000E+00 0.  1.
<mgrwt>
<rscale>  0 0.79029101E+02</rscale>
<asrwt>0</asrwt>
<pdfrwt beam="1">  1        2 0.25231716E-01 0.79029101E+02</pdfrwt>
<pdfrwt beam="2">  1       -1 0.14646728E-02 0.79029101E+02</pdfrwt>
<totfact> 0.21299540E+05</totfact>
</mgrwt>
</event>
<event>
 8    1  0.1673046E-013  0.7860292E+02  0.7818608E-02  0.1333064E+00
          2   -1    0    0  501    0  0.00000000000E+00  0.00000000000E+00  0.69360898581E+01  0.69360903269E+01  0.25500000000E-02 0. -1.
         -1   -1    0    0    0  501 -0.00000000000E+00 -0.00000000000E+00 -0.22269100577E+03  0.22269100583E+03  0.50400000000E-02 0.  1.
         24    2    1    2    0    0 -0.35527136788E-14  0.00000000000E+00 -0.21575491591E+03  0.22962709616E+03  0.78602923279E+02 0.  0.
         66    2    3    3    0    0  0.26684453754E+02  0.17187304822E+02 -0.40367336723E+02  0.51390518491E+02  0.19999993720E+01 0.  0.
        -13    1    3    3    0    0 -0.26684453754E+02 -0.17187304822E+02 -0.17538757919E+03  0.17823657767E+03  0.10566000000E+00 0.  1.
         13    1    4    4    0    0  0.48082904355E+01  0.32463208124E+01 -0.66477302276E+01  0.88239297903E+01  0.10566000000E+00 0. -1.
        -13    1    4    4    0    0  0.40291387714E+01  0.21343419903E+01 -0.65636389542E+01  0.79926150494E+01  0.10566000000E+00 0.  1.
        -14    1    4    4    0    0  0.17847024547E+02  0.11806642019E+02 -0.27155967541E+02  0.34573973651E+02  0.00000000000E+00 0.  1.
<mgrwt>
<rscale>  0 0.78602923E+02</rscale>
<asrwt>0</asrwt>
<pdfrwt beam="1">  1        2 0.10670910E-02 0.78602923E+02</pdfrwt>
<pdfrwt beam="2">  1       -1 0.34260149E-01 0.78602923E+02</pdfrwt>
<totfact> 0.10072920E+05</totfact>
</mgrwt>
</event>
<event>
 8    1  0.1673046E-013  0.8658857E+02  0.7818608E-02  0.1311330E+00
          2   -1    0    0  501    0  0.00000000000E+00  0.00000000000E+00  0.11053473233E+04  0.11053473233E+04  0.25500000000E-02 0. -1.
         -1   -1    0    0    0  501 -0.00000000000E+00 -0.00000000000E+00 -0.16957484792E+01  0.16957559690E+01  0.50400000000E-02 0.  1.
         24    2    1    2    0    0  0.00000000000E+00  0.00000000000E+00  0.11036515749E+04  0.11070430793E+04  0.86588571761E+02 0.  0.
         66    2    3    3    0    0  0.63260128371E+01  0.19340407068E+02  0.10403560583E+04  0.10405569653E+04  0.20000184854E+01 0.  0.
        -13    1    3    3    0    0 -0.63260128371E+01 -0.19340407068E+02  0.63295516512E+02  0.66486114028E+02  0.10566000000E+00 0.  1.
         13    1    4    4    0    0  0.40798296460E+01  0.11058469620E+02  0.59598821966E+03  0.59610477594E+03  0.10566000000E+00 0. -1.
        -13    1    4    4    0    0  0.11213470016E+01  0.21817333994E+01  0.12430634281E+03  0.12433058918E+03  0.10566000000E+00 0.  1.
         14    1    4    4    0    0  0.11248361894E+01  0.61002040488E+01  0.32006149587E+03  0.32012160015E+03  0.00000000000E+00 0. -1.
<mgrwt>
<rscale>  0 0.86588572E+02</rscale>
<asrwt>0</asrwt>
<pdfrwt beam="1">  1        2 0.17005330E+00 0.86588572E+02</pdfrwt>
<pdfrwt beam="2">  1       -1 0.26088516E-03 0.86588572E+02</pdfrwt>
<totfact> 0.28675962E+05</totfact>
</mgrwt>
</event>
<event>
 8    1  0.1673046E-013  0.8213254E+02  0.7818608E-02  0.1323106E+00
         -1   -1    0    0    0  501 -0.00000000000E+00  0.00000000000E+00  0.12304407669E+02  0.12304408701E+02  0.50400000000E-02 0.  1.
          2   -1    0    0  501    0  0.00000000000E+00 -0.00000000000E+00 -0.13705969116E+03  0.13705969119E+03  0.25500000000E-02 0. -1.
         24    2    1    2    0    0 -0.88817841970E-15  0.35527136788E-14 -0.12475528349E+03  0.14936409989E+03  0.82132536646E+02 0.  0.
         66    2    3    3    0    0  0.70445818829E+01 -0.24639863441E+02 -0.12071349487E+03  0.12342000184E+03  0.20000012920E+01 0.  0.
        -13    1    3    3    0    0 -0.70445818829E+01  0.24639863441E+02 -0.40417886214E+01  0.25944098050E+02  0.10566000000E+00 0.  1.
         13    1    4    4    0    0  0.49199001470E+01 -0.17939388200E+02 -0.90171875818E+02  0.92070654494E+02  0.10566000000E+00 0. -1.
        -13    1    4    4    0    0  0.85923698435E+00 -0.16967988286E+01 -0.77546085734E+01  0.79851444960E+01  0.10566000000E+00 0.  1.
         14    1    4    4    0    0  0.12654447516E+01 -0.50036764126E+01 -0.22787010482E+02  0.23364202849E+02  0.00000000000E+00 0. -1.
<mgrwt>
<rscale>  0 0.82132537E+02</rscale>
<asrwt>0</asrwt>
<pdfrwt beam="1">  1        2 0.21086105E-01 0.82132537E+02</pdfrwt>
<pdfrwt beam="2">  1       -1 0.18929860E-02 0.82132537E+02</pdfrwt>
<totfact> 0.18147157E+05</totfact>
</mgrwt>
</event>
<event>
 8    1  0.1673046E-013  0.8532492E+02  0.7818608E-02  0.1314585E+00
         -1   -1    0    0    0  501 -0.00000000000E+00  0.00000000000E+00  0.16846960361E+01  0.16847035750E+01  0.50400000000E-02 0.  1.
          2   -1    0    0  501    0  0.00000000000E+00 -0.00000000000E+00 -0.10803618298E+04  0.10803618298E+04  0.25500000000E-02 0. -1.
         24    2    1    2    0    0  0.17763568394E-14  0.00000000000E+00 -0.10786771337E+04  0.10820465333E+04  0.85324917170E+02 0.  0.
         66    2    3    3    0    0  0.15818136532E+02  0.27922053040E+02 -0.89567128364E+03  0.89624823728E+03  0.19999999935E+01 0.  0.
        -13    1    3    3    0    0 -0.15818136532E+02 -0.27922053040E+02 -0.18300585009E+03  0.18579829606E+03  0.10566000000E+00 0.  1.
         13    1    4    4    0    0  0.10205805290E+02  0.18313428808E+02 -0.58429640858E+03  0.58467242485E+03  0.10566000000E+00 0. -1.
        -13    1    4    4    0    0  0.69922931969E+00  0.88617959722E+00 -0.40979116149E+02  0.40994796747E+02  0.10566000000E+00 0.  1.
        -14    1    4    4    0    0  0.49131019218E+01  0.87224446344E+01 -0.27039575892E+03  0.27058101569E+03  0.00000000000E+00 0.  1.
<mgrwt>
<rscale>  0 0.85324917E+02</rscale>
<asrwt>0</asrwt>
<pdfrwt beam="1">  1        2 0.16620896E+00 0.85324917E+02</pdfrwt>
<pdfrwt beam="2">  1       -1 0.25918545E-03 0.85324917E+02</pdfrwt>
<totfact> 0.29817863E+05</totfact>
</mgrwt>
</event>
<event>
 8    1  0.1673046E-013  0.7974603E+02  0.7818608E-02  0.1329774E+00
         -1   -1    0    0    0  501 -0.00000000000E+00  0.00000000000E+00  0.25630871351E+01  0.25630920904E+01  0.50400000000E-02 0.  1.
          2   -1    0    0  501    0  0.00000000000E+00 -0.00000000000E+00 -0.62028944233E+03  0.62028944234E+03  0.25500000000E-02 0. -1.
         24    2    1    2    0    0  0.71054273576E-14  0.00000000000E+00 -0.61772635520E+03  0.62285253443E+03  0.79746032742E+02 0.  0.
         66    2    3    3    0    0 -0.33045038655E+02 -0.19028653206E+02 -0.39939795867E+03  0.40121913415E+03  0.19999998593E+01 0.  0.
        -13    1    3    3    0    0  0.33045038655E+02  0.19028653206E+02 -0.21832839653E+03  0.22163340028E+03  0.10566000000E+00 0.  1.
         13    1    4    4    0    0 -0.41510924338E+01 -0.22052588021E+01 -0.46969647094E+02  0.47204381650E+02  0.10566000000E+00 0.  1.
        -13    1    4    4    0    0 -0.12076363235E+02 -0.74755273109E+01 -0.15750201251E+03  0.15814113054E+03  0.10566000000E+00 0.  1.
         14    1    4    4    0    0 -0.16817582986E+02 -0.93478670935E+01 -0.19492629906E+03  0.19587362197E+03  0.00000000000E+00 0. -1.
<mgrwt>
<rscale>  0 0.79746033E+02</rscale>
<asrwt>0</asrwt>
<pdfrwt beam="1">  1        2 0.95429026E-01 0.79746033E+02</pdfrwt>
<pdfrwt beam="2">  1       -1 0.39432197E-03 0.79746033E+02</pdfrwt>
<totfact> 0.32727064E+05</totfact>
</mgrwt>
</event>
<event>
 8    1  0.1673046E-013  0.7903446E+02  0.7818608E-02  0.1331814E+00
         -1   -1    0    0    0  501 -0.00000000000E+00  0.00000000000E+00  0.10945017296E+03  0.10945017307E+03  0.50400000000E-02 0.  1.
          2   -1    0    0  501    0  0.00000000000E+00 -0.00000000000E+00 -0.14267782434E+02  0.14267782662E+02  0.25500000000E-02 0. -1.
         24    2    1    2    0    0  0.35527136788E-14  0.00000000000E+00  0.95182390521E+02  0.12371795573E+03  0.79034455180E+02 0.  0.
         66    2    3    3    0    0 -0.19372509392E+02 -0.26459721870E+02  0.13176555774E+02  0.35398200876E+02  0.20000003918E+01 0.  0.
        -13    1    3    3    0    0  0.19372509392E+02  0.26459721870E+02  0.82005834747E+02  0.88319754858E+02  0.10566000000E+00 0.  1.
         13    1    4    4    0    0 -0.70483366371E+01 -0.93785944993E+01  0.43106838666E+01  0.12499209718E+02  0.10566000000E+00 0. -1.
        -13    1    4    4    0    0 -0.71422446834E+01 -0.86923981812E+01  0.45658146086E+01  0.12141963282E+02  0.10566000000E+00 0.  1.
         14    1    4    4    0    0 -0.51819280716E+01 -0.83887291897E+01  0.43000572991E+01  0.10757027876E+02  0.00000000000E+00 0. -1.
<mgrwt>
<rscale>  0 0.79034455E+02</rscale>
<asrwt>0</asrwt>
<pdfrwt beam="1">  1        2 0.21950435E-02 0.79034455E+02</pdfrwt>
<pdfrwt beam="2">  1       -1 0.16838488E-01 0.79034455E+02</pdfrwt>
<totfact> 0.11980927E+05</totfact>
</mgrwt>
</event>
<event>
 8    1  0.1673046E-013  0.8027766E+02  0.7818608E-02  0.1328265E+00
          2   -1    0    0  501    0  0.00000000000E+00  0.00000000000E+00  0.25843917349E+03  0.25843917350E+03  0.25500000000E-02 0. -1.
         -1   -1    0    0    0  501 -0.00000000000E+00 -0.00000000000E+00 -0.62340600291E+01  0.62340620664E+01  0.50400000000E-02 0.  1.
         24    2    1    2    0    0  0.71054273576E-14  0.00000000000E+00  0.25220511346E+03  0.26467323557E+03  0.80277657980E+02 0.  0.
         66    2    3    3    0    0  0.36877368198E+02  0.10829906050E+01  0.74259049694E+02  0.82942869565E+02  0.19999990653E+01 0.  0.
        -13    1    3    3    0    0 -0.36877368198E+02 -0.10829906050E+01  0.17794606377E+03  0.18173036600E+03  0.10566000000E+00 0.  1.
         13    1    4    4    0    0  0.20777137341E+02  0.60345916440E+00  0.41076689790E+02  0.46036498642E+02  0.10566000000E+00 0. -1.
        -13    1    4    4    0    0  0.77839251871E+00  0.10086131563E+00  0.11519896698E+01  0.13979671502E+01  0.10566000000E+00 0.  1.
         14    1    4    4    0    0  0.15321838338E+02  0.37867012495E+00  0.32030370235E+02  0.35508403773E+02  0.00000000000E+00 0. -1.
<mgrwt>
<rscale>  0 0.80277658E+02</rscale>
<asrwt>0</asrwt>
<pdfrwt beam="1">  1        2 0.39759869E-01 0.80277658E+02</pdfrwt>
<pdfrwt beam="2">  1       -1 0.95908641E-03 0.80277658E+02</pdfrwt>
<totfact> 0.23935736E+05</totfact>
</mgrwt>
</event>
<event>
 8    1  0.1673046E-013  0.8013596E+02  0.7818608E-02  0.1328666E+00
         -1   -1    0    0    0  501 -0.00000000000E+00  0.00000000000E+00  0.20051369962E+02  0.20051370595E+02  0.50400000000E-02 0.  1.
          2   -1    0    0  501    0  0.00000000000E+00 -0.00000000000E+00 -0.80066494544E+02  0.80066494585E+02  0.25500000000E-02 0. -1.
         24    2    1    2    0    0  0.35527136788E-14 -0.35527136788E-14 -0.60015124582E+02  0.10011786518E+03  0.80135957907E+02 0.  0.
         66    2    3    3    0    0 -0.29625841405E+02  0.23708108051E+02 -0.46009735429E+02  0.59671271310E+02  0.19999997971E+01 0.  0.
        -13    1    3    3    0    0  0.29625841405E+02 -0.23708108051E+02 -0.14005389154E+02  0.40446593870E+02  0.10566000000E+00 0.  1.
         13    1    4    4    0    0 -0.11879100915E+02  0.98769776896E+01 -0.17944892692E+02  0.23679063845E+02  0.10566000000E+00 0. -1.
        -13    1    4    4    0    0 -0.77022878209E+01  0.54911091069E+01 -0.11063619816E+02  0.14556523086E+02  0.10566000000E+00 0.  1.
         14    1    4    4    0    0 -0.10044452669E+02  0.83400212545E+01 -0.17001222921E+02  0.21435684378E+02  0.00000000000E+00 0. -1.
<mgrwt>
<rscale>  0 0.80135958E+02</rscale>
<asrwt>0</asrwt>
<pdfrwt beam="1">  1        2 0.12317922E-01 0.80135958E+02</pdfrwt>
<pdfrwt beam="2">  1       -1 0.30848262E-02 0.80135958E+02</pdfrwt>
<totfact> 0.16622940E+05</totfact>
</mgrwt>
</event>
<event>
 8    1  0.1673046E-013  0.7958077E+02  0.7818608E-02  0.1330245E+00
          2   -1    0    0  501    0  0.00000000000E+00  0.00000000000E+00  0.34082712127E+02  0.34082712222E+02  0.25500000000E-02 0. -1.
         -1   -1    0    0    0  501 -0.00000000000E+00 -0.00000000000E+00 -0.46453893324E+02  0.46453893598E+02  0.50400000000E-02 0.  1.
         24    2    1    2    0    0  0.00000000000E+00  0.00000000000E+00 -0.12371181197E+02  0.80536605820E+02  0.79580768737E+02 0.  0.
         66    2    3    3    0    0 -0.31191796870E+02  0.24603848593E+02 -0.44389256860E+01  0.40024763118E+02  0.20000109697E+01 0.  0.
        -13    1    3    3    0    0  0.31191796870E+02 -0.24603848593E+02 -0.79322555112E+01  0.40511842702E+02  0.10566000000E+00 0.  1.
         13    1    4    4    0    0 -0.17362400639E+02  0.14663385910E+02 -0.25018908825E+01  0.22863474459E+02  0.10566000000E+00 0. -1.
        -13    1    4    4    0    0 -0.37179583946E+00  0.20902320355E+00  0.13816831761E-01  0.43963369559E+00  0.10566000000E+00 0.  1.
         14    1    4    4    0    0 -0.13457600392E+02  0.97314394785E+01 -0.19508516353E+01  0.16721654964E+02  0.00000000000E+00 0. -1.
<mgrwt>
<rscale>  0 0.79580769E+02</rscale>
<asrwt>0</asrwt>
<pdfrwt beam="1">  1        2 0.52434942E-02 0.79580769E+02</pdfrwt>
<pdfrwt beam="2">  1       -1 0.71467528E-02 0.79580769E+02</pdfrwt>
<totfact> 0.14003730E+05</totfact>
</mgrwt>
</event>
<event>
 8    1  0.1673046E-013  0.8041465E+02  0.7818608E-02  0.1327879E+00
         -1   -1    0    0    0  501 -0.00000000000E+00  0.00000000000E+00  0.37863294967E+01  0.37863328511E+01  0.50400000000E-02 0.  1.
          2   -1    0    0  501    0  0.00000000000E+00 -0.00000000000E+00 -0.42696447114E+03  0.42696447115E+03  0.25500000000E-02 0. -1.
         24    2    1    2    0    0  0.00000000000E+00  0.00000000000E+00 -0.42317814165E+03  0.43075080400E+03  0.80414647801E+02 0.  0.
         66    2    3    3    0    0 -0.17441137308E+02  0.16936313847E+02 -0.38309730790E+03  0.38387312920E+03  0.20000004115E+01 0.  0.
        -13    1    3    3    0    0  0.17441137308E+02 -0.16936313847E+02 -0.40080833747E+02  0.46877674806E+02  0.10566000000E+00 0.  1.
         13    1    4    4    0    0 -0.93552053876E+01  0.91907087819E+01 -0.21382944100E+03  0.21423125355E+03  0.10566000000E+00 0. -1.
        -13    1    4    4    0    0 -0.27388062153E+00  0.25748214391E+00 -0.36407056942E+01  0.36615856724E+01  0.10566000000E+00 0.  1.
        -14    1    4    4    0    0 -0.78120512986E+01  0.74881229214E+01 -0.16562716120E+03  0.16598028997E+03  0.00000000000E+00 0.  1.
<mgrwt>
<rscale>  0 0.80414648E+02</rscale>
<asrwt>0</asrwt>
<pdfrwt beam="1">  1        2 0.65686804E-01 0.80414648E+02</pdfrwt>
<pdfrwt beam="2">  1       -1 0.58251283E-03 0.80414648E+02</pdfrwt>
<totfact> 0.28511404E+05</totfact>
</mgrwt>
</event>
<event>
 8    1  0.1673046E-013  0.8004373E+02  0.7818608E-02  0.1328927E+00
          2   -1    0    0  501    0  0.00000000000E+00  0.00000000000E+00  0.37592844947E+03  0.37592844947E+03  0.25500000000E-02 0. -1.
         -1   -1    0    0    0  501 -0.00000000000E+00 -0.00000000000E+00 -0.42607821201E+01  0.42607851009E+01  0.50400000000E-02 0.  1.
         24    2    1    2    0    0  0.00000000000E+00  0.00000000000E+00  0.37166766735E+03  0.38018923458E+03  0.80043732652E+02 0.  0.
         66    2    3    3    0    0 -0.25229886574E+02  0.30755696807E+02  0.16620239209E+03  0.17090844100E+03  0.20000008918E+01 0.  0.
        -13    1    3    3    0    0  0.25229886574E+02 -0.30755696807E+02  0.20546527525E+03  0.20928079358E+03  0.10566000000E+00 0.  1.
         13    1    4    4    0    0 -0.11444867412E+02  0.13636098365E+02  0.75324796243E+02  0.77400027531E+02  0.10566000000E+00 0.  1.
        -13    1    4    4    0    0 -0.10787680387E+02  0.12565375074E+02  0.69644190595E+02  0.71586221764E+02  0.10566000000E+00 0. -1.
        -14    1    4    4    0    0 -0.29973387750E+01  0.45542233675E+01  0.21233405257E+02  0.21922191702E+02  0.00000000000E+00 0.  1.
<mgrwt>
<rscale>  0 0.80043733E+02</rscale>
<asrwt>0</asrwt>
<pdfrwt beam="1">  1        2 0.57835144E-01 0.80043733E+02</pdfrwt>
<pdfrwt beam="2">  1       -1 0.65550520E-03 0.80043733E+02</pdfrwt>
<totfact> 0.27603128E+05</totfact>
</mgrwt>
</event>
<event>
 8    1  0.1673046E-013  0.7661877E+02  0.7818608E-02  0.1338930E+00
         -1   -1    0    0    0  501 -0.00000000000E+00  0.00000000000E+00  0.40997796781E+01  0.40997827761E+01  0.50400000000E-02 0.  1.
          2   -1    0    0  501    0  0.00000000000E+00 -0.00000000000E+00 -0.35797248441E+03  0.35797248442E+03  0.25500000000E-02 0. -1.
         24    2    1    2    0    0  0.00000000000E+00 -0.71054273576E-14 -0.35387270473E+03  0.36207226720E+03  0.76618767398E+02 0.  0.
         66    2    3    3    0    0 -0.18902166075E+02  0.33131882630E+02 -0.16167796034E+03  0.16612879457E+03  0.19999990648E+01 0.  0.
        -13    1    3    3    0    0  0.18902166075E+02 -0.33131882630E+02 -0.19219474439E+03  0.19594347263E+03  0.10566000000E+00 0.  1.
         13    1    4    4    0    0 -0.58076015653E+01  0.10295128664E+02 -0.52055821435E+02  0.53381060493E+02  0.10566000000E+00 0. -1.
        -13    1    4    4    0    0 -0.10504101257E+02  0.18451940239E+02 -0.85919736829E+02  0.88504364766E+02  0.10566000000E+00 0.  1.
         14    1    4    4    0    0 -0.25904632531E+01  0.43848137270E+01 -0.23702402076E+02  0.24243369309E+02  0.00000000000E+00 0. -1.
<mgrwt>
<rscale>  0 0.76618767E+02</rscale>
<asrwt>0</asrwt>
<pdfrwt beam="1">  1        2 0.55072665E-01 0.76618767E+02</pdfrwt>
<pdfrwt beam="2">  1       -1 0.63073586E-03 0.76618767E+02</pdfrwt>
<totfact> 0.30408201E+05</totfact>
</mgrwt>
</event>
<event>
 8    1  0.1673046E-013  0.7835195E+02  0.7818608E-02  0.1333795E+00
          2   -1    0    0  501    0  0.00000000000E+00  0.00000000000E+00  0.37997574460E+03  0.37997574461E+03  0.25500000000E-02 0. -1.
         -1   -1    0    0    0  501 -0.00000000000E+00 -0.00000000000E+00 -0.40390900980E+01  0.40390932424E+01  0.50400000000E-02 0.  1.
         24    2    1    2    0    0  0.35527136788E-14  0.00000000000E+00  0.37593665450E+03  0.38401483785E+03  0.78351946316E+02 0.  0.
         66    2    3    3    0    0 -0.20227886943E+02  0.14139362409E+02  0.33704542349E+03  0.33795370463E+03  0.20000004227E+01 0.  0.
        -13    1    3    3    0    0  0.20227886943E+02 -0.14139362409E+02  0.38891231015E+02  0.46061133218E+02  0.10566000000E+00 0.  1.
         13    1    4    4    0    0 -0.77428879345E+01  0.52032355950E+01  0.13346021496E+03  0.13378589655E+03  0.10566000000E+00 0. -1.
        -13    1    4    4    0    0 -0.39077641196E+01  0.21242119093E+01  0.55420601342E+02  0.55598894897E+02  0.10566000000E+00 0.  1.
         14    1    4    4    0    0 -0.85772348884E+01  0.68119149043E+01  0.14816460718E+03  0.14856891318E+03  0.00000000000E+00 0. -1.
<mgrwt>
<rscale>  0 0.78351946E+02</rscale>
<asrwt>0</asrwt>
<pdfrwt beam="1">  1        2 0.58457813E-01 0.78351946E+02</pdfrwt>
<pdfrwt beam="2">  1       -1 0.62139866E-03 0.78351946E+02</pdfrwt>
<totfact> 0.29297552E+05</totfact>
</mgrwt>
</event>
<event>
 8    1  0.1673046E-013  0.8006919E+02  0.7818608E-02  0.1328855E+00
         -1   -1    0    0    0  501 -0.00000000000E+00  0.00000000000E+00  0.58525759314E+01  0.58525781015E+01  0.50400000000E-02 0.  1.
          2   -1    0    0  501    0  0.00000000000E+00 -0.00000000000E+00 -0.27385695062E+03  0.27385695063E+03  0.25500000000E-02 0. -1.
         24    2    1    2    0    0  0.00000000000E+00  0.00000000000E+00 -0.26800437468E+03  0.27970952873E+03  0.80069192652E+02 0.  0.
         66    2    3    3    0    0 -0.18492455056E+02 -0.25489442514E+02 -0.22029989285E+03  0.22254825404E+03  0.20000024307E+01 0.  0.
        -13    1    3    3    0    0  0.18492455056E+02  0.25489442514E+02 -0.47704481830E+02  0.57161274692E+02  0.10566000000E+00 0.  1.
         13    1    4    4    0    0 -0.69877516042E+01 -0.10320734824E+02 -0.85084915382E+02  0.85993024307E+02  0.10566000000E+00 0. -1.
        -13    1    4    4    0    0 -0.40742103576E+01 -0.43987433998E+01 -0.43797958269E+02  0.44206565645E+02  0.10566000000E+00 0. -1.
        -14    1    4    4    0    0 -0.74304930941E+01 -0.10769964291E+02 -0.91417019203E+02  0.92348664086E+02  0.00000000000E+00 0.  1.
<mgrwt>
<rscale>  0 0.80069193E+02</rscale>
<asrwt>0</asrwt>
<pdfrwt beam="1">  1        2 0.42131829E-01 0.80069193E+02</pdfrwt>
<pdfrwt beam="2">  1       -1 0.90039668E-03 0.80069193E+02</pdfrwt>
<totfact> 0.24610268E+05</totfact>
</mgrwt>
</event>
<event>
 8    1  0.1673046E-013  0.8499283E+02  0.7818608E-02  0.1315451E+00
          2   -1    0    0  501    0  0.00000000000E+00  0.00000000000E+00  0.94977366057E+02  0.94977366091E+02  0.25500000000E-02 0. -1.
         -1   -1    0    0    0  501 -0.00000000000E+00 -0.00000000000E+00 -0.19014480874E+02  0.19014481542E+02  0.50400000000E-02 0.  1.
         24    2    1    2    0    0  0.35527136788E-14  0.71054273576E-14  0.75962885183E+02  0.11399184763E+03  0.84992831471E+02 0.  0.
         66    2    3    3    0    0  0.17948671001E+02 -0.25926553754E+02  0.76164014753E+02  0.82457856490E+02  0.19999933095E+01 0.  0.
        -13    1    3    3    0    0 -0.17948671001E+02  0.25926553754E+02 -0.20112957031E+00  0.31533991143E+02  0.10566000000E+00 0.  1.
         13    1    4    4    0    0  0.11009288501E+02 -0.17335307641E+02  0.49575909756E+02  0.53660966415E+02  0.10566000000E+00 0. -1.
        -13    1    4    4    0    0  0.39408031670E+00 -0.36656720367E+00  0.12488707739E+01  0.13640062523E+01  0.10566000000E+00 0.  1.
         14    1    4    4    0    0  0.65453021828E+01 -0.82246789094E+01  0.25339234223E+02  0.27432883823E+02  0.00000000000E+00 0. -1.
<mgrwt>
<rscale>  0 0.84992831E+02</rscale>
<asrwt>0</asrwt>
<pdfrwt beam="1">  1        2 0.14611903E-01 0.84992831E+02</pdfrwt>
<pdfrwt beam="2">  1       -1 0.29253047E-02 0.84992831E+02</pdfrwt>
<totfact> 0.14846241E+05</totfact>
</mgrwt>
</event>
<event>
 8    1  0.1673046E-013  0.8196088E+02  0.7818608E-02  0.1323577E+00
         -1   -1    0    0    0  501 -0.00000000000E+00  0.00000000000E+00  0.41600444050E+01  0.41600474580E+01  0.50400000000E-02 0.  1.
          2   -1    0    0  501    0  0.00000000000E+00 -0.00000000000E+00 -0.40369662723E+03  0.40369662724E+03  0.25500000000E-02 0. -1.
         24    2    1    2    0    0  0.71054273576E-14  0.88817841970E-15 -0.39953658282E+03  0.40785667470E+03  0.81960881392E+02 0.  0.
         66    2    3    3    0    0  0.26831850369E+02  0.72085170638E+01 -0.34962784438E+03  0.35073571313E+03  0.19999975379E+01 0.  0.
        -13    1    3    3    0    0 -0.26831850369E+02 -0.72085170638E+01 -0.49908738448E+02  0.57120961564E+02  0.10566000000E+00 0.  1.
         13    1    4    4    0    0  0.41537033512E+01  0.74155367672E+00 -0.50583615451E+02  0.50759397845E+02  0.10566000000E+00 0.  1.
        -13    1    4    4    0    0  0.19080275783E+02  0.59949900832E+01 -0.25366177097E+03  0.25444901660E+03  0.10566000000E+00 0. -1.
         14    1    4    4    0    0  0.35978712347E+01  0.47197330384E+00 -0.45382457954E+02  0.45527298692E+02  0.00000000000E+00 0. -1.
<mgrwt>
<rscale>  0 0.81960881E+02</rscale>
<asrwt>0</asrwt>
<pdfrwt beam="1">  1        2 0.62107142E-01 0.81960881E+02</pdfrwt>
<pdfrwt beam="2">  1       -1 0.64000739E-03 0.81960881E+02</pdfrwt>
<totfact> 0.26605240E+05</totfact>
</mgrwt>
</event>
<event>
 8    1  0.1673046E-013  0.8961356E+02  0.7818608E-02  0.1303790E+00
          2   -1    0    0  501    0  0.00000000000E+00  0.00000000000E+00  0.17097383590E+03  0.17097383592E+03  0.25500000000E-02 0. -1.
         -1   -1    0    0    0  501 -0.00000000000E+00 -0.00000000000E+00 -0.11742425812E+02  0.11742426893E+02  0.50400000000E-02 0.  1.
         24    2    1    2    0    0  0.00000000000E+00 -0.88817841970E-15  0.15923141009E+03  0.18271626281E+03  0.89613563356E+02 0.  0.
         66    2    3    3    0    0  0.43247874152E+02  0.45118032616E+01  0.10151161150E+03  0.11045063266E+03  0.19999999311E+01 0.  0.
        -13    1    3    3    0    0 -0.43247874152E+02 -0.45118032616E+01  0.57719798590E+02  0.72265630147E+02  0.10566000000E+00 0.  1.
         13    1    4    4    0    0  0.12095830729E+02  0.15984953599E+01  0.29382894155E+02  0.31815561309E+02  0.10566000000E+00 0. -1.
        -13    1    4    4    0    0  0.30978474360E+01  0.85958638596E-01  0.62957251672E+01  0.70179318207E+01  0.10566000000E+00 0.  1.
        -14    1    4    4    0    0  0.28054195987E+02  0.28273492630E+01  0.65832992176E+02  0.71617139535E+02  0.00000000000E+00 0.  1.
<mgrwt>
<rscale>  0 0.89613563E+02</rscale>
<asrwt>0</asrwt>
<pdfrwt beam="1">  1        2 0.26303668E-01 0.89613563E+02</pdfrwt>
<pdfrwt beam="2">  1       -1 0.18065271E-02 0.89613563E+02</pdfrwt>
<totfact> 0.15456540E+05</totfact>
</mgrwt>
</event>
<event>
 8    1  0.1673046E-013  0.8076416E+02  0.7818608E-02  0.1326897E+00
         -1   -1    0    0    0  501 -0.00000000000E+00  0.00000000000E+00  0.32953390525E+01  0.32953429066E+01  0.50400000000E-02 0.  1.
          2   -1    0    0  501    0  0.00000000000E+00 -0.00000000000E+00 -0.49485389814E+03  0.49485389814E+03  0.25500000000E-02 0. -1.
         24    2    1    2    0    0 -0.71054273576E-14  0.17763568394E-14 -0.49155855908E+03  0.49814924105E+03  0.80764158818E+02 0.  0.
         66    2    3    3    0    0  0.37617416444E+02 -0.11490960682E+02 -0.30164469126E+03  0.30420491772E+03  0.20000000498E+01 0.  0.
        -13    1    3    3    0    0 -0.37617416444E+02  0.11490960682E+02 -0.18991386782E+03  0.19394432333E+03  0.10566000000E+00 0.  1.
         13    1    4    4    0    0  0.33052209140E+01 -0.93260292318E+00 -0.27276081653E+02  0.27491635599E+02  0.10566000000E+00 0. -1.
        -13    1    4    4    0    0  0.21856154162E+02 -0.74785779488E+01 -0.18009752953E+03  0.18157299334E+03  0.10566000000E+00 0.  1.
        -14    1    4    4    0    0  0.12456041368E+02 -0.30797798096E+01 -0.94271080075E+02  0.95140288778E+02  0.00000000000E+00 0.  1.
<mgrwt>
<rscale>  0 0.80764159E+02</rscale>
<asrwt>0</asrwt>
<pdfrwt beam="1">  1        2 0.76131310E-01 0.80764159E+02</pdfrwt>
<pdfrwt beam="2">  1       -1 0.50697593E-03 0.80764159E+02</pdfrwt>
<totfact> 0.29607659E+05</totfact>
</mgrwt>
</event>
<event>
 8    1  0.1673046E-013  0.7931061E+02  0.7818608E-02  0.1331019E+00
          2   -1    0    0  501    0  0.00000000000E+00  0.00000000000E+00  0.39581827914E+03  0.39581827915E+03  0.25500000000E-02 0. -1.
         -1   -1    0    0    0  501 -0.00000000000E+00 -0.00000000000E+00 -0.39728901624E+01  0.39728933592E+01  0.50400000000E-02 0.  1.
         24    2    1    2    0    0  0.71054273576E-14 -0.17763568394E-14  0.39184538898E+03  0.39979117251E+03  0.79310609327E+02 0.  0.
         66    2    3    3    0    0  0.37944861235E+02 -0.85335446250E+01  0.23440507491E+03  0.23761812439E+03  0.20000042201E+01 0.  0.
        -13    1    3    3    0    0 -0.37944861235E+02  0.85335446250E+01  0.15744031406E+03  0.16217304811E+03  0.10566000000E+00 0.  1.
         13    1    4    4    0    0  0.20483170153E+02 -0.41896526690E+01  0.12430158677E+03  0.12604764610E+03  0.10566000000E+00 0. -1.
        -13    1    4    4    0    0  0.11587565883E+02 -0.31774238322E+01  0.70465712054E+02  0.71482833217E+02  0.10566000000E+00 0.  1.
         14    1    4    4    0    0  0.58741251997E+01 -0.11664681238E+01  0.39637776085E+02  0.40087645075E+02  0.00000000000E+00 0. -1.
<mgrwt>
<rscale>  0 0.79310609E+02</rscale>
<asrwt>0</asrwt>
<pdfrwt beam="1">  1        2 0.60895142E-01 0.79310609E+02</pdfrwt>
<pdfrwt beam="2">  1       -1 0.61121390E-03 0.79310609E+02</pdfrwt>
<totfact> 0.28793335E+05</totfact>
</mgrwt>
</event>
<event>
 8    1  0.1673046E-013  0.7946127E+02  0.7818608E-02  0.1330587E+00
          2   -1    0    0  501    0  0.00000000000E+00  0.00000000000E+00  0.38673005565E+03  0.38673005566E+03  0.25500000000E-02 0. -1.
         -1   -1    0    0    0  501 -0.00000000000E+00 -0.00000000000E+00 -0.40817173234E+01  0.40817204350E+01  0.50400000000E-02 0.  1.
         24    2    1    2    0    0 -0.17763568394E-14 -0.44408920985E-15  0.38264833833E+03  0.39081177610E+03  0.79461270498E+02 0.  0.
         66    2    3    3    0    0  0.14367797252E+02  0.21101022634E+01  0.37319696334E+03  0.37348475146E+03  0.20000001198E+01 0.  0.
        -13    1    3    3    0    0 -0.14367797252E+02 -0.21101022634E+01  0.94513749935E+01  0.17327024636E+02  0.10566000000E+00 0.  1.
         13    1    4    4    0    0  0.62720865000E+01  0.97549736781E+00  0.14917651931E+03  0.14931153921E+03  0.10566000000E+00 0. -1.
        -13    1    4    4    0    0  0.31104157958E+01  0.93620060557E+00  0.98697266833E+02  0.98750761022E+02  0.10566000000E+00 0.  1.
        -14    1    4    4    0    0  0.49852949564E+01  0.19840429000E+00  0.12532317719E+03  0.12542245123E+03  0.00000000000E+00 0.  1.
<mgrwt>
<rscale>  0 0.79461270E+02</rscale>
<asrwt>0</asrwt>
<pdfrwt beam="1">  1        2 0.59496947E-01 0.79461270E+02</pdfrwt>
<pdfrwt beam="2">  1       -1 0.62795659E-03 0.79461270E+02</pdfrwt>
<totfact> 0.28418158E+05</totfact>
</mgrwt>
</event>
<event>
 8    1  0.1673046E-013  0.8011742E+02  0.7818608E-02  0.1328719E+00
         -1   -1    0    0    0  501 -0.00000000000E+00  0.00000000000E+00  0.57530652684E+01  0.57530674760E+01  0.50400000000E-02 0.  1.
          2   -1    0    0  501    0  0.00000000000E+00 -0.00000000000E+00 -0.27892956183E+03  0.27892956184E+03  0.25500000000E-02 0. -1.
         24    2    1    2    0    0  0.00000000000E+00  0.17763568394E-14 -0.27317649656E+03  0.28468262932E+03  0.80117421086E+02 0.  0.
         66    2    3    3    0    0  0.37018440923E+02 -0.13982665291E+02 -0.15823313798E+03  0.16311837988E+03  0.20000000639E+01 0.  0.
        -13    1    3    3    0    0 -0.37018440923E+02  0.13982665291E+02 -0.11494335858E+03  0.12156424944E+03  0.10566000000E+00 0.  1.
         13    1    4    4    0    0  0.29071252246E+02 -0.10331770924E+02 -0.12179207263E+03  0.12563917907E+03  0.10566000000E+00 0. -1.
        -13    1    4    4    0    0  0.76086804091E+01 -0.34874887566E+01 -0.34395028928E+02  0.35398923351E+02  0.10566000000E+00 0.  1.
         14    1    4    4    0    0  0.33850826830E+00 -0.16340561008E+00 -0.20460364256E+01  0.20802774565E+01  0.00000000000E+00 0. -1.
<mgrwt>
<rscale>  0 0.80117421E+02</rscale>
<asrwt>0</asrwt>
<pdfrwt beam="1">  1        2 0.42912230E-01 0.80117421E+02</pdfrwt>
<pdfrwt beam="2">  1       -1 0.88508735E-03 0.80117421E+02</pdfrwt>
<totfact> 0.24735296E+05</totfact>
</mgrwt>
</event>
<event>
 8    1  0.1673046E-013  0.8009225E+02  0.7818608E-02  0.1328790E+00
          2   -1    0    0  501    0  0.00000000000E+00  0.00000000000E+00  0.28078807830E+02  0.28078807946E+02  0.25500000000E-02 0. -1.
         -1   -1    0    0    0  501 -0.00000000000E+00 -0.00000000000E+00 -0.57113971235E+02  0.57113971458E+02  0.50400000000E-02 0.  1.
         24    2    1    2    0    0  0.00000000000E+00  0.35527136788E-14 -0.29035163405E+02  0.85192779404E+02  0.80092252738E+02 0.  0.
         66    2    3    3    0    0 -0.17914918306E+02 -0.23385165332E+02  0.14288742550E+02  0.32802109941E+02  0.19999993480E+01 0.  0.
        -13    1    3    3    0    0  0.17914918306E+02  0.23385165332E+02 -0.43323905955E+02  0.52390669463E+02  0.10566000000E+00 0.  1.
         13    1    4    4    0    0 -0.42037315264E+01 -0.56407004947E+01  0.30600554912E+01  0.76722854784E+01  0.10566000000E+00 0.  1.
        -13    1    4    4    0    0 -0.49153451751E+01 -0.52974740559E+01  0.40143768932E+01  0.82674201199E+01  0.10566000000E+00 0.  1.
         14    1    4    4    0    0 -0.87958416048E+01 -0.12446990782E+02  0.72143101656E+01  0.16862404343E+02  0.00000000000E+00 0. -1.
<mgrwt>
<rscale>  0 0.80092253E+02</rscale>
<asrwt>0</asrwt>
<pdfrwt beam="1">  1        2 0.43198166E-02 0.80092253E+02</pdfrwt>
<pdfrwt beam="2">  1       -1 0.87867648E-02 0.80092253E+02</pdfrwt>
<totfact> 0.13237894E+05</totfact>
</mgrwt>
</event>
<event>
 8    1  0.1673046E-013  0.7995977E+02  0.7818608E-02  0.1329166E+00
          2   -1    0    0  501    0  0.00000000000E+00  0.00000000000E+00  0.32276052840E+02  0.32276052941E+02  0.25500000000E-02 0. -1.
         -1   -1    0    0    0  501 -0.00000000000E+00 -0.00000000000E+00 -0.49522515222E+02  0.49522515479E+02  0.50400000000E-02 0.  1.
         24    2    1    2    0    0  0.00000000000E+00  0.35527136788E-14 -0.17246462382E+02  0.81798568419E+02  0.79959773203E+02 0.  0.
         66    2    3    3    0    0  0.25152743706E+02 -0.14667393926E+02  0.19361018501E+02  0.35023449166E+02  0.19999983940E+01 0.  0.
        -13    1    3    3    0    0 -0.25152743706E+02  0.14667393926E+02 -0.36607480883E+02  0.46775119253E+02  0.10566000000E+00 0.  1.
         13    1    4    4    0    0  0.23817207617E+01 -0.14092260950E+01  0.14389285332E+01  0.31209279602E+01  0.10566000000E+00 0. -1.
        -13    1    4    4    0    0  0.15769792817E+02 -0.86542229188E+01  0.11579903675E+02  0.21393626924E+02  0.10566000000E+00 0.  1.
         14    1    4    4    0    0  0.70012301275E+01 -0.46039449127E+01  0.63421862921E+01  0.10508894282E+02  0.00000000000E+00 0. -1.
<mgrwt>
<rscale>  0 0.79959773E+02</rscale>
<asrwt>0</asrwt>
<pdfrwt beam="1">  1        2 0.49655466E-02 0.79959773E+02</pdfrwt>
<pdfrwt beam="2">  1       -1 0.76188485E-02 0.79959773E+02</pdfrwt>
<totfact> 0.13670614E+05</totfact>
</mgrwt>
</event>
<event>
 8    1  0.1673046E-013  0.7944386E+02  0.7818608E-02  0.1330637E+00
          2   -1    0    0  501    0  0.00000000000E+00  0.00000000000E+00  0.20488034580E+03  0.20488034581E+03  0.25500000000E-02 0. -1.
         -1   -1    0    0    0  501 -0.00000000000E+00 -0.00000000000E+00 -0.77012334627E+01  0.77012351119E+01  0.50400000000E-02 0.  1.
         24    2    1    2    0    0  0.00000000000E+00 -0.17763568394E-14  0.19717911233E+03  0.21258158092E+03  0.79443855694E+02 0.  0.
         66    2    3    3    0    0 -0.76307289761E+01  0.15484777599E+02  0.19430521925E+03  0.19508081558E+03  0.20000046816E+01 0.  0.
        -13    1    3    3    0    0  0.76307289761E+01 -0.15484777599E+02  0.28738930820E+01  0.17500765340E+02  0.10566000000E+00 0.  1.
         13    1    4    4    0    0 -0.27431398991E+01  0.47861662904E+01  0.52963413338E+02  0.53250037754E+02  0.10566000000E+00 0. -1.
        -13    1    4    4    0    0 -0.61358457070E+00  0.13639389836E+01  0.17369833258E+02  0.17434422475E+02  0.10566000000E+00 0.  1.
         14    1    4    4    0    0 -0.42740045063E+01  0.93346723248E+01  0.12397197265E+03  0.12439635536E+03  0.00000000000E+00 0. -1.
<mgrwt>
<rscale>  0 0.79443856E+02</rscale>
<asrwt>0</asrwt>
<pdfrwt beam="1">  1        2 0.31520048E-01 0.79443856E+02</pdfrwt>
<pdfrwt beam="2">  1       -1 0.11848055E-02 0.79443856E+02</pdfrwt>
<totfact> 0.22657365E+05</totfact>
</mgrwt>
</event>
<event>
 8    1  0.1673046E-013  0.8084562E+02  0.7818608E-02  0.1326669E+00
          2   -1    0    0  501    0  0.00000000000E+00  0.00000000000E+00  0.50833622220E+03  0.50833622221E+03  0.25500000000E-02 0. -1.
         -1   -1    0    0    0  501 -0.00000000000E+00 -0.00000000000E+00 -0.32144129205E+01  0.32144168717E+01  0.50400000000E-02 0.  1.
         24    2    1    2    0    0  0.00000000000E+00  0.00000000000E+00  0.50512180928E+03  0.51155063908E+03  0.80845619124E+02 0.  0.
         66    2    3    3    0    0 -0.36723923830E+02 -0.98401603149E+01  0.33913192163E+03  0.34126226807E+03  0.19999999182E+01 0.  0.
        -13    1    3    3    0    0  0.36723923830E+02  0.98401603149E+01  0.16598988765E+03  0.17028837101E+03  0.10566000000E+00 0.  1.
         13    1    4    4    0    0 -0.42390974271E+01 -0.12023267811E+01  0.36482981299E+02  0.36748260166E+02  0.10566000000E+00 0. -1.
        -13    1    4    4    0    0 -0.30452368119E+02 -0.84319787289E+01  0.28242311775E+03  0.28418528040E+03  0.10566000000E+00 0.  1.
        -14    1    4    4    0    0 -0.20324582839E+01 -0.20585480494E+00  0.20225822582E+02  0.20328727506E+02  0.00000000000E+00 0.  1.
<mgrwt>
<rscale>  0 0.80845619E+02</rscale>
<asrwt>0</asrwt>
<pdfrwt beam="1">  1        2 0.78205528E-01 0.80845619E+02</pdfrwt>
<pdfrwt beam="2">  1       -1 0.49452565E-03 0.80845619E+02</pdfrwt>
<totfact> 0.29783650E+05</totfact>
</mgrwt>
</event>
<event>
 8    1  0.1673046E-013  0.8375604E+02  0.7818608E-02  0.1318718E+00
          2   -1    0    0  501    0  0.00000000000E+00  0.00000000000E+00  0.96083304278E+03  0.96083304278E+03  0.25500000000E-02 0. -1.
         -1   -1    0    0    0  501 -0.00000000000E+00 -0.00000000000E+00 -0.18252549216E+01  0.18252618800E+01  0.50400000000E-02 0.  1.
         24    2    1    2    0    0  0.17763568394E-14 -0.17763568394E-14  0.95900778786E+03  0.96265830466E+03  0.83756040763E+02 0.  0.
         66    2    3    3    0    0  0.14576989779E+02 -0.14195960326E+02  0.90015789958E+03  0.90039005886E+03  0.20000007248E+01 0.  0.
        -13    1    3    3    0    0 -0.14576989779E+02  0.14195960326E+02  0.58849888279E+02  0.62268245800E+02  0.10566000000E+00 0.  1.
         13    1    4    4    0    0  0.38157120035E+01 -0.42450197245E+01  0.27942856505E+03  0.27948687622E+03  0.10566000000E+00 0. -1.
        -13    1    4    4    0    0  0.43974181751E+00 -0.68867952635E+00  0.34479772426E+02  0.34489614712E+02  0.10566000000E+00 0.  1.
         14    1    4    4    0    0  0.10321535958E+02 -0.92622610755E+01  0.58624956210E+03  0.58641356793E+03  0.00000000000E+00 0. -1.
<mgrwt>
<rscale>  0 0.83756041E+02</rscale>
<asrwt>0</asrwt>
<pdfrwt beam="1">  1        2 0.14782037E+00 0.83756041E+02</pdfrwt>
<pdfrwt beam="2">  1       -1 0.28080917E-03 0.83756041E+02</pdfrwt>
<totfact> 0.31196521E+05</totfact>
</mgrwt>
</event>
<event>
 8    1  0.1673046E-013  0.7737264E+02  0.7818608E-02  0.1336677E+00
         -1   -1    0    0    0  501 -0.00000000000E+00  0.00000000000E+00  0.12940498640E+02  0.12940499622E+02  0.50400000000E-02 0.  1.
          2   -1    0    0  501    0  0.00000000000E+00 -0.00000000000E+00 -0.11565484185E+03  0.11565484188E+03  0.25500000000E-02 0. -1.
         24    2    1    2    0    0  0.00000000000E+00  0.35527136788E-14 -0.10271434321E+03  0.12859534150E+03  0.77372640865E+02 0.  0.
         66    2    3    3    0    0  0.14603924826E+02  0.27618352307E+02 -0.89239575816E+02  0.94571401033E+02  0.19999992769E+01 0.  0.
        -13    1    3    3    0    0 -0.14603924826E+02 -0.27618352307E+02 -0.13474767393E+02  0.34023940466E+02  0.10566000000E+00 0.  1.
         13    1    4    4    0    0  0.30883418094E+01  0.65070714070E+01 -0.22268016449E+02  0.23404178132E+02  0.10566000000E+00 0.  1.
        -13    1    4    4    0    0  0.10162537688E+02  0.19077880742E+02 -0.59350974756E+02  0.63164800913E+02  0.10566000000E+00 0. -1.
         14    1    4    4    0    0  0.13530453287E+01  0.20334001581E+01 -0.76205846114E+01  0.80024219886E+01  0.00000000000E+00 0. -1.
<mgrwt>
<rscale>  0 0.77372641E+02</rscale>
<asrwt>0</asrwt>
<pdfrwt beam="1">  1        2 0.17793052E-01 0.77372641E+02</pdfrwt>
<pdfrwt beam="2">  1       -1 0.19908461E-02 0.77372641E+02</pdfrwt>
<totfact> 0.20202504E+05</totfact>
</mgrwt>
</event>
<event>
 8    1  0.1673046E-013  0.8117168E+02  0.7818608E-02  0.1325759E+00
         -1   -1    0    0    0  501 -0.00000000000E+00  0.00000000000E+00  0.25004509952E+01  0.25004560746E+01  0.50400000000E-02 0.  1.
          2   -1    0    0  501    0  0.00000000000E+00 -0.00000000000E+00 -0.65876471450E+03  0.65876471451E+03  0.25500000000E-02 0. -1.
         24    2    1    2    0    0  0.00000000000E+00  0.00000000000E+00 -0.65626426351E+03  0.66126517058E+03  0.81171683906E+02 0.  0.
         66    2    3    3    0    0  0.12084972280E+02  0.34336312923E+02 -0.47410002892E+03  0.47549959663E+03  0.20000075126E+01 0.  0.
        -13    1    3    3    0    0 -0.12084972280E+02 -0.34336312923E+02 -0.18216423459E+03  0.18576557396E+03  0.10566000000E+00 0.  1.
         13    1    4    4    0    0  0.56655922443E+01  0.17284058128E+02 -0.23336192638E+03  0.23406972775E+03  0.10566000000E+00 0. -1.
        -13    1    4    4    0    0  0.25468501529E+01  0.78743083095E+01 -0.11559014524E+03  0.11588608207E+03  0.10566000000E+00 0.  1.
        -14    1    4    4    0    0  0.38725298827E+01  0.91779464852E+01 -0.12514795729E+03  0.12554378680E+03  0.00000000000E+00 0.  1.
<mgrwt>
<rscale>  0 0.81171684E+02</rscale>
<asrwt>0</asrwt>
<pdfrwt beam="1">  1        2 0.10134828E+00 0.81171684E+02</pdfrwt>
<pdfrwt beam="2">  1       -1 0.38468569E-03 0.81171684E+02</pdfrwt>
<totfact> 0.31744363E+05</totfact>
</mgrwt>
</event>
<event>
 8    1  0.1673046E-013  0.8180688E+02  0.7818608E-02  0.1324001E+00
         -1   -1    0    0    0  501 -0.00000000000E+00  0.00000000000E+00  0.16380514221E+01  0.16380591757E+01  0.50400000000E-02 0.  1.
          2   -1    0    0  501    0  0.00000000000E+00 -0.00000000000E+00 -0.10213888067E+04  0.10213888067E+04  0.25500000000E-02 0. -1.
         24    2    1    2    0    0 -0.17763568394E-14 -0.35527136788E-14 -0.10197507553E+04  0.10230268659E+04  0.81806878805E+02 0.  0.
         66    2    3    3    0    0 -0.14232310669E+02 -0.19355465149E+02 -0.92378331571E+03  0.92409783415E+03  0.19999979700E+01 0.  0.
        -13    1    3    3    0    0  0.14232310669E+02  0.19355465149E+02 -0.95967439545E+02  0.98929031709E+02  0.10566000000E+00 0.  1.
         13    1    4    4    0    0 -0.70233211535E+01 -0.10991048414E+02 -0.48952195116E+03  0.48969570349E+03  0.10566000000E+00 0. -1.
        -13    1    4    4    0    0 -0.12714572822E+01 -0.13745563620E+01 -0.81380623983E+02  0.81402230514E+02  0.10566000000E+00 0.  1.
         14    1    4    4    0    0 -0.59375322332E+01 -0.69898603733E+01 -0.35288074057E+03  0.35299990015E+03  0.00000000000E+00 0. -1.
<mgrwt>
<rscale>  0 0.81806879E+02</rscale>
<asrwt>0</asrwt>
<pdfrwt beam="1">  1        2 0.15713623E+00 0.81806879E+02</pdfrwt>
<pdfrwt beam="2">  1       -1 0.25200933E-03 0.81806879E+02</pdfrwt>
<totfact> 0.33268358E+05</totfact>
</mgrwt>
</event>
<event>
 8    1  0.1673046E-013  0.8001844E+02  0.7818608E-02  0.1328999E+00
          2   -1    0    0  501    0  0.00000000000E+00  0.00000000000E+00  0.14367284119E+04  0.14367284119E+04  0.25500000000E-02 0. -1.
         -1   -1    0    0    0  501 -0.00000000000E+00 -0.00000000000E+00 -0.11141490401E+01  0.11141604396E+01  0.50400000000E-02 0.  1.
         24    2    1    2    0    0  0.35527136788E-14  0.00000000000E+00  0.14356142628E+04  0.14378425723E+04  0.80018442322E+02 0.  0.
         66    2    3    3    0    0  0.21797500641E+02 -0.56150939610E+01  0.13120635839E+04  0.13122581715E+04  0.19999991167E+01 0.  0.
        -13    1    3    3    0    0 -0.21797500641E+02  0.56150939610E+01  0.12355067887E+03  0.12558440082E+03  0.10566000000E+00 0.  1.
         13    1    4    4    0    0  0.12115273903E+02 -0.38806917396E+01  0.76930537760E+03  0.76941056323E+03  0.10566000000E+00 0. -1.
        -13    1    4    4    0    0  0.36357268541E+01 -0.56896534381E+00  0.21641542873E+03  0.21644673984E+03  0.10566000000E+00 0.  1.
         14    1    4    4    0    0  0.60464998842E+01 -0.11654368776E+01  0.32634277760E+03  0.32640086841E+03  0.00000000000E+00 0. -1.
<mgrwt>
<rscale>  0 0.80018442E+02</rscale>
<asrwt>0</asrwt>
<pdfrwt beam="1">  1        2 0.22103435E+00 0.80018442E+02</pdfrwt>
<pdfrwt beam="2">  1       -1 0.17140903E-03 0.80018442E+02</pdfrwt>
<totfact> 0.33731014E+05</totfact>
</mgrwt>
</event>
<event>
 8    1  0.1673046E-013  0.8812700E+02  0.7818608E-02  0.1307452E+00
          2   -1    0    0  501    0  0.00000000000E+00  0.00000000000E+00  0.81599017292E+03  0.81599017292E+03  0.25500000000E-02 0. -1.
         -1   -1    0    0    0  501 -0.00000000000E+00 -0.00000000000E+00 -0.23794280297E+01  0.23794333674E+01  0.50400000000E-02 0.  1.
         24    2    1    2    0    0 -0.17763568394E-14  0.00000000000E+00  0.81361074489E+03  0.81836960629E+03  0.88127000973E+02 0.  0.
         66    2    3    3    0    0 -0.11254269608E+02  0.11242302398E+02  0.78837743820E+03  0.78854044475E+03  0.19999996458E+01 0.  0.
        -13    1    3    3    0    0  0.11254269608E+02 -0.11242302398E+02  0.25233306691E+02  0.29829161540E+02  0.10566000000E+00 0.  1.
         13    1    4    4    0    0 -0.20158599025E+01  0.21103753596E+01  0.16567019129E+03  0.16569592880E+03  0.10566000000E+00 0. -1.
        -13    1    4    4    0    0 -0.51459580528E+01  0.57139896777E+01  0.39493006876E+03  0.39500493786E+03  0.10566000000E+00 0.  1.
        -14    1    4    4    0    0 -0.40924516524E+01  0.34179373607E+01  0.22777717815E+03  0.22783957809E+03  0.00000000000E+00 0.  1.
<mgrwt>
<rscale>  0 0.88127001E+02</rscale>
<asrwt>0</asrwt>
<pdfrwt beam="1">  1        2 0.12553686E+00 0.88127001E+02</pdfrwt>
<pdfrwt beam="2">  1       -1 0.36606651E-03 0.88127001E+02</pdfrwt>
<totfact> 0.26785090E+05</totfact>
</mgrwt>
</event>
<event>
 8    1  0.1673046E-013  0.7877411E+02  0.7818608E-02  0.1332567E+00
         -1   -1    0    0    0  501 -0.00000000000E+00  0.00000000000E+00  0.21372497983E+03  0.21372497989E+03  0.50400000000E-02 0.  1.
          2   -1    0    0  501    0  0.00000000000E+00 -0.00000000000E+00 -0.72585808543E+01  0.72585813022E+01  0.25500000000E-02 0. -1.
         24    2    1    2    0    0  0.55511151231E-16  0.00000000000E+00  0.20646639898E+03  0.22098356119E+03  0.78774110030E+02 0.  0.
         66    2    3    3    0    0 -0.19178199882E+00 -0.38285938588E+02  0.12893149598E+03  0.13451089372E+03  0.19999996573E+01 0.  0.
        -13    1    3    3    0    0  0.19178199882E+00  0.38285938588E+02  0.77534902999E+02  0.86472667480E+02  0.10566000000E+00 0.  1.
         13    1    4    4    0    0  0.61858429261E+00 -0.21498148877E+02  0.70710573857E+02  0.73909062170E+02  0.10566000000E+00 0. -1.
        -13    1    4    4    0    0 -0.17637963412E+00 -0.68034000551E+01  0.24541348560E+02  0.25467750494E+02  0.10566000000E+00 0.  1.
        -14    1    4    4    0    0 -0.63398665731E+00 -0.99843896557E+01  0.33679573563E+02  0.35134081050E+02  0.00000000000E+00 0.  1.
<mgrwt>
<rscale>  0 0.78774110E+02</rscale>
<asrwt>0</asrwt>
<pdfrwt beam="1">  1        2 0.11167049E-02 0.78774110E+02</pdfrwt>
<pdfrwt beam="2">  1       -1 0.32880762E-01 0.78774110E+02</pdfrwt>
<totfact> 0.10149670E+05</totfact>
</mgrwt>
</event>
<event>
 8    1  0.1673046E-013  0.7907275E+02  0.7818608E-02  0.1331704E+00
         -1   -1    0    0    0  501 -0.00000000000E+00  0.00000000000E+00  0.76675039045E+01  0.76675055609E+01  0.50400000000E-02 0.  1.
          2   -1    0    0  501    0  0.00000000000E+00 -0.00000000000E+00 -0.20386357289E+03  0.20386357291E+03  0.25500000000E-02 0. -1.
         24    2    1    2    0    0  0.35527136788E-14  0.35527136788E-14 -0.19619606898E+03  0.21153107847E+03  0.79072749237E+02 0.  0.
         66    2    3    3    0    0 -0.18646243014E+02 -0.16680468584E+02 -0.17996931718E+03  0.18171096698E+03  0.19999963747E+01 0.  0.
        -13    1    3    3    0    0  0.18646243014E+02  0.16680468584E+02 -0.16226751808E+02  0.29820111485E+02  0.10566000000E+00 0.  1.
         13    1    4    4    0    0 -0.48459202711E+01 -0.45393722017E+01 -0.44285503273E+02  0.44780640990E+02  0.10566000000E+00 0. -1.
        -13    1    4    4    0    0 -0.67508150154E+01 -0.50549333017E+01 -0.60610292729E+02  0.61194318387E+02  0.10566000000E+00 0.  1.
        -14    1    4    4    0    0 -0.70495077274E+01 -0.70861630803E+01 -0.75073521174E+02  0.75736007604E+02  0.00000000000E+00 0.  1.
<mgrwt>
<rscale>  0 0.79072749E+02</rscale>
<asrwt>0</asrwt>
<pdfrwt beam="1">  1        2 0.31363623E-01 0.79072749E+02</pdfrwt>
<pdfrwt beam="2">  1       -1 0.11796163E-02 0.79072749E+02</pdfrwt>
<totfact> 0.22898945E+05</totfact>
</mgrwt>
</event>
<event>
 8    1  0.1673046E-013  0.8292656E+02  0.7818608E-02  0.1320946E+00
          2   -1    0    0  501    0  0.00000000000E+00  0.00000000000E+00  0.13005954988E+02  0.13005955238E+02  0.25500000000E-02 0. -1.
         -1   -1    0    0    0  501 -0.00000000000E+00 -0.00000000000E+00 -0.13218586171E+03  0.13218586181E+03  0.50400000000E-02 0.  1.
         24    2    1    2    0    0  0.35527136788E-14  0.00000000000E+00 -0.11917990673E+03  0.14519181705E+03  0.82926555280E+02 0.  0.
         66    2    3    3    0    0 -0.17055769100E+02 -0.21908851152E+02 -0.57649023834E+01  0.28427647063E+02  0.19999999095E+01 0.  0.
        -13    1    3    3    0    0  0.17055769100E+02  0.21908851152E+02 -0.11341500434E+03  0.11676416999E+03  0.10566000000E+00 0.  1.
         13    1    4    4    0    0 -0.79604783107E+01 -0.10323772794E+02 -0.18491810476E+01  0.13167389043E+02  0.10566000000E+00 0.  1.
        -13    1    4    4    0    0 -0.85471245404E+01 -0.10739685280E+02 -0.34662202715E+01  0.14156977955E+02  0.10566000000E+00 0. -1.
         14    1    4    4    0    0 -0.54816624915E+00 -0.84539307869E+00 -0.44950106428E+00  0.11032800646E+01  0.00000000000E+00 0. -1.
<mgrwt>
<rscale>  0 0.82926555E+02</rscale>
<asrwt>0</asrwt>
<pdfrwt beam="1">  1        2 0.20009163E-02 0.82926555E+02</pdfrwt>
<pdfrwt beam="2">  1       -1 0.20336286E-01 0.82926555E+02</pdfrwt>
<totfact> 0.10166615E+05</totfact>
</mgrwt>
</event>
<event>
 8    1  0.1673046E-013  0.7510327E+02  0.7818608E-02  0.1343552E+00
         -1   -1    0    0    0  501 -0.00000000000E+00  0.00000000000E+00  0.11353528398E+01  0.11353640264E+01  0.50400000000E-02 0.  1.
          2   -1    0    0  501    0  0.00000000000E+00 -0.00000000000E+00 -0.12420089144E+04  0.12420089144E+04  0.25500000000E-02 0. -1.
         24    2    1    2    0    0  0.22204460493E-15 -0.35527136788E-14 -0.12408735615E+04  0.12431442784E+04  0.75103270314E+02 0.  0.
         66    2    3    3    0    0 -0.16884981507E+01  0.23026370734E+02 -0.11105196377E+04  0.11107614192E+04  0.19999994272E+01 0.  0.
        -13    1    3    3    0    0  0.16884981507E+01 -0.23026370734E+02 -0.13035392387E+03  0.13238285919E+03  0.10566000000E+00 0.  1.
         13    1    4    4    0    0  0.14722855182E+00  0.59737182922E+01 -0.29600624842E+03  0.29606657571E+03  0.10566000000E+00 0. -1.
        -13    1    4    4    0    0 -0.69456997199E+00  0.25135876854E+01 -0.12460902209E+03  0.12463635144E+03  0.10566000000E+00 0.  1.
         14    1    4    4    0    0 -0.11411567305E+01  0.14539064756E+02 -0.68990436716E+03  0.69005849206E+03  0.00000000000E+00 0. -1.
<mgrwt>
<rscale>  0 0.75103270E+02</rscale>
<asrwt>0</asrwt>
<pdfrwt beam="1">  1        2 0.19107721E+00 0.75103270E+02</pdfrwt>
<pdfrwt beam="2">  1       -1 0.17467152E-03 0.75103270E+02</pdfrwt>
<totfact> 0.41080013E+05</totfact>
</mgrwt>
</event>
<event>
 8    1  0.1673046E-013  0.7268626E+02  0.7818608E-02  0.1351189E+00
         -1   -1    0    0    0  501 -0.00000000000E+00  0.00000000000E+00  0.12034052852E+01  0.12034158392E+01  0.50400000000E-02 0.  1.
          2   -1    0    0  501    0  0.00000000000E+00 -0.00000000000E+00 -0.10975663885E+04  0.10975663885E+04  0.25500000000E-02 0. -1.
         24    2    1    2    0    0 -0.35527136788E-14  0.44408920985E-15 -0.10963629832E+04  0.10987698043E+04  0.72686257095E+02 0.  0.
         66    2    3    3    0    0  0.20585786649E+02  0.18212119307E+01 -0.10000044583E+04  0.10002199798E+04  0.19999986318E+01 0.  0.
        -13    1    3    3    0    0 -0.20585786649E+02 -0.18212119307E+01 -0.96358524934E+02  0.98549824537E+02  0.10566000000E+00 0.  1.
         13    1    4    4    0    0  0.17054811045E+02  0.21095069435E+01 -0.82961096840E+03  0.82978894103E+03  0.10566000000E+00 0.  1.
        -13    1    4    4    0    0  0.10063090736E+01  0.85130383683E-01 -0.43001246682E+02  0.43013233840E+02  0.10566000000E+00 0. -1.
        -14    1    4    4    0    0  0.25246665300E+01 -0.37342539653E+00 -0.12739224319E+03  0.12741780493E+03  0.00000000000E+00 0.  1.
<mgrwt>
<rscale>  0 0.72686257E+02</rscale>
<asrwt>0</asrwt>
<pdfrwt beam="1">  1        2 0.16885557E+00 0.72686257E+02</pdfrwt>
<pdfrwt beam="2">  1       -1 0.18514097E-03 0.72686257E+02</pdfrwt>
<totfact> 0.45162587E+05</totfact>
</mgrwt>
</event>
<event>
 8    1  0.1673046E-013  0.8017168E+02  0.7818608E-02  0.1328565E+00
          2   -1    0    0  501    0  0.00000000000E+00  0.00000000000E+00  0.94098964870E+01  0.94098968325E+01  0.25500000000E-02 0. -1.
         -1   -1    0    0    0  501 -0.00000000000E+00 -0.00000000000E+00 -0.17076431578E+03  0.17076431585E+03  0.50400000000E-02 0.  1.
         24    2    1    2    0    0  0.35527136788E-14  0.35527136788E-14 -0.16135441929E+03  0.18017421268E+03  0.80171680111E+02 0.  0.
         66    2    3    3    0    0  0.13129313273E+02  0.23425469154E+02 -0.13918511309E+02  0.30312644567E+02  0.19999978687E+01 0.  0.
        -13    1    3    3    0    0 -0.13129313273E+02 -0.23425469154E+02 -0.14743590798E+03  0.14986156811E+03  0.10566000000E+00 0.  1.
         13    1    4    4    0    0  0.36506033592E+01  0.77212839683E+01 -0.50855791090E+01  0.99407952355E+01  0.10566000000E+00 0. -1.
        -13    1    4    4    0    0  0.13743713049E+01  0.21161995306E+01 -0.14568860476E+01  0.29156265070E+01  0.10566000000E+00 0. -1.
         14    1    4    4    0    0  0.81043386089E+01  0.13587985656E+02 -0.73760461522E+01  0.17456222825E+02  0.00000000000E+00 0. -1.
<mgrwt>
<rscale>  0 0.80171680E+02</rscale>
<asrwt>0</asrwt>
<pdfrwt beam="1">  1        2 0.14476765E-02 0.80171680E+02</pdfrwt>
<pdfrwt beam="2">  1       -1 0.26271431E-01 0.80171680E+02</pdfrwt>
<totfact> 0.10367617E+05</totfact>
</mgrwt>
</event>
<event>
 8    1  0.1673046E-013  0.8321795E+02  0.7818608E-02  0.1320160E+00
         -1   -1    0    0    0  501 -0.00000000000E+00  0.00000000000E+00  0.52079332597E+02  0.52079332841E+02  0.50400000000E-02 0.  1.
          2   -1    0    0  501    0  0.00000000000E+00 -0.00000000000E+00 -0.33243641316E+02  0.33243641414E+02  0.25500000000E-02 0. -1.
         24    2    1    2    0    0 -0.14210854715E-13  0.00000000000E+00  0.18835691281E+02  0.85322974255E+02  0.83217946800E+02 0.  0.
         66    2    3    3    0    0  0.40483815836E+02 -0.49774357586E+01  0.11198054968E+01  0.40853007035E+02  0.20000020104E+01 0.  0.
        -13    1    3    3    0    0 -0.40483815836E+02  0.49774357586E+01  0.17715885784E+02  0.44469967220E+02  0.10566000000E+00 0.  1.
         13    1    4    4    0    0  0.31801389547E+02 -0.38546282658E+01  0.76143558563E+00  0.32043368805E+02  0.10566000000E+00 0. -1.
        -13    1    4    4    0    0  0.59595496813E+00 -0.28233733733E-01  0.23094541941E+00  0.64842832302E+00  0.10566000000E+00 0.  1.
        -14    1    4    4    0    0  0.80864713206E+01 -0.10945737590E+01  0.12742449180E+00  0.81612099063E+01  0.00000000000E+00 0.  1.
<mgrwt>
<rscale>  0 0.83217947E+02</rscale>
<asrwt>0</asrwt>
<pdfrwt beam="1">  1        2 0.51144064E-02 0.83217947E+02</pdfrwt>
<pdfrwt beam="2">  1       -1 0.80122051E-02 0.83217947E+02</pdfrwt>
<totfact> 0.12297522E+05</totfact>
</mgrwt>
</event>
<event>
 8    1  0.1673046E-013  0.8027321E+02  0.7818608E-02  0.1328278E+00
         -1   -1    0    0    0  501 -0.00000000000E+00  0.00000000000E+00  0.24869102107E+01  0.24869153178E+01  0.50400000000E-02 0.  1.
          2   -1    0    0  501    0  0.00000000000E+00 -0.00000000000E+00 -0.64776980997E+03  0.64776980998E+03  0.25500000000E-02 0. -1.
         24    2    1    2    0    0  0.35527136788E-14  0.00000000000E+00 -0.64528289976E+03  0.65025672530E+03  0.80273208898E+02 0.  0.
         66    2    3    3    0    0  0.25186043184E+02  0.10767573023E+01 -0.57557893299E+03  0.57613418941E+03  0.19999834360E+01 0.  0.
        -13    1    3    3    0    0 -0.25186043184E+02 -0.10767573023E+01 -0.69703966774E+02  0.74122535883E+02  0.10566000000E+00 0.  1.
         13    1    4    4    0    0  0.75490594071E+01  0.24776131542E+00 -0.16381345184E+03  0.16398752346E+03  0.10566000000E+00 0. -1.
        -13    1    4    4    0    0  0.11727323121E+02  0.12515137229E+01 -0.27744705716E+03  0.27769763608E+03  0.10566000000E+00 0.  1.
        -14    1    4    4    0    0  0.59096606557E+01 -0.42251773601E+00 -0.13431842399E+03  0.13444902987E+03  0.00000000000E+00 0.  1.
<mgrwt>
<rscale>  0 0.80273209E+02</rscale>
<asrwt>0</asrwt>
<pdfrwt beam="1">  1        2 0.99656760E-01 0.80273209E+02</pdfrwt>
<pdfrwt beam="2">  1       -1 0.38260248E-03 0.80273209E+02</pdfrwt>
<totfact> 0.32538703E+05</totfact>
</mgrwt>
</event>
<event>
 8    1  0.1673046E-013  0.8131974E+02  0.7818608E-02  0.1325347E+00
         -1   -1    0    0    0  501 -0.00000000000E+00  0.00000000000E+00  0.22095812953E+02  0.22095813528E+02  0.50400000000E-02 0.  1.
          2   -1    0    0  501    0  0.00000000000E+00 -0.00000000000E+00 -0.74820744941E+02  0.74820744984E+02  0.25500000000E-02 0. -1.
         24    2    1    2    0    0  0.71054273576E-14 -0.35527136788E-14 -0.52724931988E+02  0.96916558512E+02  0.81319744593E+02 0.  0.
         66    2    3    3    0    0  0.31204703058E+02 -0.25538570481E+02 -0.20387512768E+02  0.45228340116E+02  0.19999993931E+01 0.  0.
        -13    1    3    3    0    0 -0.31204703058E+02  0.25538570481E+02 -0.32337419219E+02  0.51688218396E+02  0.10566000000E+00 0.  1.
         13    1    4    4    0    0  0.97824688898E+01 -0.83847125004E+01 -0.74775920941E+01  0.14897169156E+02  0.10566000000E+00 0. -1.
        -13    1    4    4    0    0  0.10672597167E+02 -0.87461906579E+01 -0.65816626249E+01  0.15288218610E+02  0.10566000000E+00 0.  1.
         14    1    4    4    0    0  0.10749637002E+02 -0.84076673226E+01 -0.63282580494E+01  0.15042952350E+02  0.00000000000E+00 0. -1.
<mgrwt>
<rscale>  0 0.81319745E+02</rscale>
<asrwt>0</asrwt>
<pdfrwt beam="1">  1        2 0.11510884E-01 0.81319745E+02</pdfrwt>
<pdfrwt beam="2">  1       -1 0.33993559E-02 0.81319745E+02</pdfrwt>
<totfact> 0.15704191E+05</totfact>
</mgrwt>
</event>
<event>
 8    1  0.1673046E-013  0.7878859E+02  0.7818608E-02  0.1332525E+00
          2   -1    0    0  501    0  0.00000000000E+00  0.00000000000E+00  0.13522794095E+04  0.13522794095E+04  0.25500000000E-02 0. -1.
         -1   -1    0    0    0  501 -0.00000000000E+00 -0.00000000000E+00 -0.11476199515E+01  0.11476310185E+01  0.50400000000E-02 0.  1.
         24    2    1    2    0    0  0.00000000000E+00  0.00000000000E+00  0.13511317895E+04  0.13534270405E+04  0.78788586004E+02 0.  0.
         66    2    3    3    0    0 -0.29101391748E+01 -0.15600104726E+02  0.12949009217E+04  0.12949997024E+04  0.20000001632E+01 0.  0.
        -13    1    3    3    0    0  0.29101391748E+01  0.15600104726E+02  0.56230867799E+02  0.58427338079E+02  0.10566000000E+00 0.  1.
         13    1    4    4    0    0 -0.22019446218E+01 -0.99414873647E+01  0.79725853216E+03  0.79732356042E+03  0.10566000000E+00 0. -1.
        -13    1    4    4    0    0 -0.24890927673E-01 -0.79556841381E+00  0.45497273913E+02  0.45504358541E+02  0.10566000000E+00 0.  1.
         14    1    4    4    0    0 -0.68330362528E+00 -0.48630489474E+01  0.45214511567E+03  0.45217178347E+03  0.00000000000E+00 0. -1.
<mgrwt>
<rscale>  0 0.78788586E+02</rscale>
<asrwt>0</asrwt>
<pdfrwt beam="1">  1        2 0.20804310E+00 0.78788586E+02</pdfrwt>
<pdfrwt beam="2">  1       -1 0.17655767E-03 0.78788586E+02</pdfrwt>
<totfact> 0.35709347E+05</totfact>
</mgrwt>
</event>
<event>
 8    1  0.1673046E-013  0.8269701E+02  0.7818608E-02  0.1321567E+00
          2   -1    0    0  501    0  0.00000000000E+00  0.00000000000E+00  0.11610556655E+03  0.11610556658E+03  0.25500000000E-02 0. -1.
         -1   -1    0    0    0  501 -0.00000000000E+00 -0.00000000000E+00 -0.14725383521E+02  0.14725384383E+02  0.50400000000E-02 0.  1.
         24    2    1    2    0    0  0.71054273576E-14 -0.71054273576E-14  0.10138018303E+03  0.13083095097E+03  0.82697014569E+02 0.  0.
         66    2    3    3    0    0  0.31099453763E+02 -0.26604968786E+02  0.59765570987E+02  0.72463258804E+02  0.20000031609E+01 0.  0.
        -13    1    3    3    0    0 -0.31099453763E+02  0.26604968786E+02  0.41614612047E+02  0.58367692162E+02  0.10566000000E+00 0.  1.
         13    1    4    4    0    0  0.15696205172E+02 -0.13021201257E+02  0.30756883156E+02  0.36904194403E+02  0.10566000000E+00 0. -1.
        -13    1    4    4    0    0  0.14201955906E+02 -0.12540127732E+02  0.26230207361E+02  0.32357152182E+02  0.10566000000E+00 0.  1.
         14    1    4    4    0    0  0.12012926849E+01 -0.10436397965E+01  0.27784804700E+01  0.32019122196E+01  0.00000000000E+00 0. -1.
<mgrwt>
<rscale>  0 0.82697015E+02</rscale>
<asrwt>0</asrwt>
<pdfrwt beam="1">  1        2 0.17862395E-01 0.82697015E+02</pdfrwt>
<pdfrwt beam="2">  1       -1 0.22654436E-02 0.82697015E+02</pdfrwt>
<totfact> 0.16934128E+05</totfact>
</mgrwt>
</event>
<event>
 8    1  0.1673046E-013  0.7997676E+02  0.7818608E-02  0.1329117E+00
          2   -1    0    0  501    0  0.00000000000E+00  0.00000000000E+00  0.11175566447E+04  0.11175566447E+04  0.25500000000E-02 0. -1.
         -1   -1    0    0    0  501 -0.00000000000E+00 -0.00000000000E+00 -0.14308584561E+01  0.14308673324E+01  0.50400000000E-02 0.  1.
         24    2    1    2    0    0  0.00000000000E+00  0.00000000000E+00  0.11161257863E+04  0.11189875121E+04  0.79976755201E+02 0.  0.
         66    2    3    3    0    0 -0.12391402859E+02  0.14660992563E+02  0.10488240390E+04  0.10490015998E+04  0.19999995302E+01 0.  0.
        -13    1    3    3    0    0  0.12391402859E+02 -0.14660992563E+02  0.67301747297E+02  0.69985912304E+02  0.10566000000E+00 0.  1.
         13    1    4    4    0    0 -0.64769084000E+01  0.77560643258E+01  0.50203982047E+03  0.50214151330E+03  0.10566000000E+00 0. -1.
        -13    1    4    4    0    0 -0.55880176713E+00  0.80290425707E+00  0.53205663132E+02  0.53214759870E+02  0.10566000000E+00 0. -1.
        -14    1    4    4    0    0 -0.53556926919E+01  0.61020239806E+01  0.49357855538E+03  0.49364532660E+03  0.00000000000E+00 0.  1.
<mgrwt>
<rscale>  0 0.79976755E+02</rscale>
<asrwt>0</asrwt>
<pdfrwt beam="1">  1        2 0.17193258E+00 0.79976755E+02</pdfrwt>
<pdfrwt beam="2">  1       -1 0.22013174E-03 0.79976755E+02</pdfrwt>
<totfact> 0.35257112E+05</totfact>
</mgrwt>
</event>
<event>
 8    1  0.1673046E-013  0.7981584E+02  0.7818608E-02  0.1329575E+00
         -1   -1    0    0    0  501 -0.00000000000E+00  0.00000000000E+00  0.30572879350E+02  0.30572879766E+02  0.50400000000E-02 0.  1.
          2   -1    0    0  501    0  0.00000000000E+00 -0.00000000000E+00 -0.52093301707E+02  0.52093301770E+02  0.25500000000E-02 0. -1.
         24    2    1    2    0    0  0.35527136788E-14  0.35527136788E-14 -0.21520422357E+02  0.82666181535E+02  0.79815844237E+02 0.  0.
         66    2    3    3    0    0  0.20523719209E+02  0.21802067403E+02 -0.38053258738E+02  0.48462394668E+02  0.20000008067E+01 0.  0.
        -13    1    3    3    0    0 -0.20523719209E+02 -0.21802067403E+02  0.16532836381E+02  0.34203786867E+02  0.10566000000E+00 0.  1.
         13    1    4    4    0    0  0.10072660250E+02  0.11506929366E+02 -0.20244174855E+02  0.25371355651E+02  0.10566000000E+00 0. -1.
        -13    1    4    4    0    0  0.40768961494E+01  0.34517136047E+01 -0.67010811866E+01  0.85703595098E+01  0.10566000000E+00 0.  1.
        -14    1    4    4    0    0  0.63741628093E+01  0.68434244319E+01 -0.11108002696E+02  0.14520679508E+02  0.00000000000E+00 0.  1.
<mgrwt>
<rscale>  0 0.79815844E+02</rscale>
<asrwt>0</asrwt>
<pdfrwt beam="1">  1        2 0.80143541E-02 0.79815844E+02</pdfrwt>
<pdfrwt beam="2">  1       -1 0.47035200E-02 0.79815844E+02</pdfrwt>
<totfact> 0.15173165E+05</totfact>
</mgrwt>
</event>
<event>
 8    1  0.1673046E-013  0.8141748E+02  0.7818608E-02  0.1325076E+00
          2   -1    0    0  501    0  0.00000000000E+00  0.00000000000E+00  0.72805475102E+02  0.72805475147E+02  0.25500000000E-02 0. -1.
         -1   -1    0    0    0  501 -0.00000000000E+00 -0.00000000000E+00 -0.22762045170E+02  0.22762045728E+02  0.50400000000E-02 0.  1.
         24    2    1    2    0    0 -0.88817841970E-15  0.00000000000E+00  0.50043429931E+02  0.95567520875E+02  0.81417480721E+02 0.  0.
         66    2    3    3    0    0 -0.72024920525E+01 -0.17105857501E+02  0.67532572362E+02  0.70065216673E+02  0.20000012387E+01 0.  0.
        -13    1    3    3    0    0  0.72024920525E+01  0.17105857501E+02 -0.17489142431E+02  0.25502304202E+02  0.10566000000E+00 0.  1.
         13    1    4    4    0    0 -0.45231572663E+01 -0.89521783541E+01  0.37217097874E+02  0.38545090311E+02  0.10566000000E+00 0. -1.
        -13    1    4    4    0    0 -0.58952179102E+00 -0.17648823668E+01  0.53397558601E+01  0.56556610924E+01  0.10566000000E+00 0.  1.
        -14    1    4    4    0    0 -0.20898129953E+01 -0.63887967803E+01  0.24975718628E+02  0.25864465269E+02  0.00000000000E+00 0.  1.
<mgrwt>
<rscale>  0 0.81417481E+02</rscale>
<asrwt>0</asrwt>
<pdfrwt beam="1">  1        2 0.11200842E-01 0.81417481E+02</pdfrwt>
<pdfrwt beam="2">  1       -1 0.35018531E-02 0.81417481E+02</pdfrwt>
<totfact> 0.15546474E+05</totfact>
</mgrwt>
</event>
<event>
 8    1  0.1673046E-013  0.7548842E+02  0.7818608E-02  0.1342365E+00
          2   -1    0    0  501    0  0.00000000000E+00  0.00000000000E+00  0.41189232879E+02  0.41189232958E+02  0.25500000000E-02 0. -1.
         -1   -1    0    0    0  501 -0.00000000000E+00 -0.00000000000E+00 -0.34587328142E+02  0.34587328509E+02  0.50400000000E-02 0.  1.
         24    2    1    2    0    0  0.00000000000E+00  0.17763568394E-14  0.66019047368E+01  0.75776561467E+02  0.75488423759E+02 0.  0.
         66    2    3    3    0    0 -0.20165274199E+02 -0.15681057482E+02  0.31159623681E+02  0.40341740019E+02  0.19999981470E+01 0.  0.
        -13    1    3    3    0    0  0.20165274199E+02  0.15681057482E+02 -0.24557718944E+02  0.35434821448E+02  0.10566000000E+00 0.  1.
         13    1    4    4    0    0 -0.10585305402E+02 -0.87419250886E+01  0.16276361091E+02  0.21293215800E+02  0.10566000000E+00 0. -1.
        -13    1    4    4    0    0 -0.88791348433E+01 -0.64563493680E+01  0.14244474251E+02  0.17984429195E+02  0.10566000000E+00 0.  1.
        -14    1    4    4    0    0 -0.70083395334E+00 -0.48278302498E+00  0.63878833862E+00  0.10640950244E+01  0.00000000000E+00 0.  1.
<mgrwt>
<rscale>  0 0.75488424E+02</rscale>
<asrwt>0</asrwt>
<pdfrwt beam="1">  1        2 0.63368050E-02 0.75488424E+02</pdfrwt>
<pdfrwt beam="2">  1       -1 0.53211275E-02 0.75488424E+02</pdfrwt>
<totfact> 0.16822590E+05</totfact>
</mgrwt>
</event>
<event>
 8    1  0.1673046E-013  0.8090773E+02  0.7818608E-02  0.1326495E+00
         -1   -1    0    0    0  501 -0.00000000000E+00  0.00000000000E+00  0.10175660981E+01  0.10175785796E+01  0.50400000000E-02 0.  1.
          2   -1    0    0  501    0  0.00000000000E+00 -0.00000000000E+00 -0.16082543337E+04  0.16082543337E+04  0.25500000000E-02 0. -1.
         24    2    1    2    0    0  0.17763568394E-14  0.11102230246E-15 -0.16072367676E+04  0.16092719123E+04  0.80907728477E+02 0.  0.
         66    2    3    3    0    0  0.12999734428E+02  0.94825690592E+00 -0.15653129894E+04  0.15653685340E+04  0.19999996744E+01 0.  0.
        -13    1    3    3    0    0 -0.12999734428E+02 -0.94825690592E+00 -0.41923778171E+02  0.43903378304E+02  0.10566000000E+00 0.  1.
         13    1    4    4    0    0  0.17488254417E+01  0.67693868323E+00 -0.25907956505E+03  0.25908637330E+03  0.10566000000E+00 0. -1.
        -13    1    4    4    0    0  0.24159201288E+01 -0.19106130046E+00 -0.25813704578E+03  0.25814844323E+03  0.10566000000E+00 0.  1.
         14    1    4    4    0    0  0.88349888578E+01  0.46237952315E+00 -0.10480963786E+04  0.10481337175E+04  0.00000000000E+00 0. -1.
<mgrwt>
<rscale>  0 0.80907728E+02</rscale>
<asrwt>0</asrwt>
<pdfrwt beam="1">  1        2 0.24742171E+00 0.80907728E+02</pdfrwt>
<pdfrwt beam="2">  1       -1 0.15655088E-03 0.80907728E+02</pdfrwt>
<totfact> 0.31338406E+05</totfact>
</mgrwt>
</event>
<event>
 8    1  0.1673046E-013  0.8444067E+02  0.7818608E-02  0.1316902E+00
          2   -1    0    0  501    0  0.00000000000E+00  0.00000000000E+00  0.20560816070E+04  0.20560816070E+04  0.25500000000E-02 0. -1.
         -1   -1    0    0    0  501 -0.00000000000E+00 -0.00000000000E+00 -0.86696051985E+00  0.86697516953E+00  0.50400000000E-02 0.  1.
         24    2    1    2    0    0  0.00000000000E+00  0.00000000000E+00  0.20552146465E+04  0.20569485822E+04  0.84440669048E+02 0.  0.
         66    2    3    3    0    0 -0.13593583849E+02 -0.86415054172E+01  0.19782383902E+04  0.19783049789E+04  0.20000032121E+01 0.  0.
        -13    1    3    3    0    0  0.13593583849E+02  0.86415054172E+01  0.76976256294E+02  0.78643603267E+02  0.10566000000E+00 0.  1.
         13    1    4    4    0    0 -0.29936576153E+01 -0.13128363446E+01  0.42529897390E+03  0.42531154921E+03  0.10566000000E+00 0. -1.
        -13    1    4    4    0    0 -0.55806694889E+01 -0.45839745502E+01  0.83790406434E+03  0.83793519373E+03  0.10566000000E+00 0.  1.
        -14    1    4    4    0    0 -0.50192567450E+01 -0.27446945225E+01  0.71503535197E+03  0.71505823599E+03  0.00000000000E+00 0.  1.
<mgrwt>
<rscale>  0 0.84440669E+02</rscale>
<asrwt>0</asrwt>
<pdfrwt beam="1">  1        2 0.31632168E+00 0.84440669E+02</pdfrwt>
<pdfrwt beam="2">  1       -1 0.13337907E-03 0.84440669E+02</pdfrwt>
<totfact> 0.23467803E+05</totfact>
</mgrwt>
</event>
<event>
 8    1  0.1673046E-013  0.7912358E+02  0.7818608E-02  0.1331557E+00
          2   -1    0    0  501    0  0.00000000000E+00  0.00000000000E+00  0.26420823205E+02  0.26420823329E+02  0.25500000000E-02 0. -1.
         -1   -1    0    0    0  501 -0.00000000000E+00 -0.00000000000E+00 -0.59238702004E+02  0.59238702219E+02  0.50400000000E-02 0.  1.
         24    2    1    2    0    0  0.00000000000E+00  0.00000000000E+00 -0.32817878799E+02  0.85659525547E+02  0.79123581492E+02 0.  0.
         66    2    3    3    0    0 -0.19007357103E+02 -0.26213941060E+02  0.81411722275E+01  0.33447406696E+02  0.19999998799E+01 0.  0.
        -13    1    3    3    0    0  0.19007357103E+02  0.26213941060E+02 -0.40959051027E+02  0.52212118851E+02  0.10566000000E+00 0.  1.
         13    1    4    4    0    0 -0.50408168763E+01 -0.66970721997E+01  0.25846260381E+01  0.87722327044E+01  0.10566000000E+00 0. -1.
        -13    1    4    4    0    0 -0.35630084746E+01 -0.53814100178E+01  0.90497382529E+00  0.65180322820E+01  0.10566000000E+00 0.  1.
         14    1    4    4    0    0 -0.10403531752E+02 -0.14135458842E+02  0.46515723642E+01  0.18157141709E+02  0.00000000000E+00 0. -1.
<mgrwt>
<rscale>  0 0.79123581E+02</rscale>
<asrwt>0</asrwt>
<pdfrwt beam="1">  1        2 0.40647421E-02 0.79123581E+02</pdfrwt>
<pdfrwt beam="2">  1       -1 0.91136465E-02 0.79123581E+02</pdfrwt>
<totfact> 0.13536647E+05</totfact>
</mgrwt>
</event>
<event>
 8    1  0.1673046E-013  0.7416517E+02  0.7818608E-02  0.1346476E+00
          2   -1    0    0  501    0  0.00000000000E+00  0.00000000000E+00  0.24931115273E+02  0.24931115404E+02  0.25500000000E-02 0. -1.
         -1   -1    0    0    0  501 -0.00000000000E+00 -0.00000000000E+00 -0.55156709284E+02  0.55156709514E+02  0.50400000000E-02 0.  1.
         24    2    1    2    0    0  0.00000000000E+00  0.88817841970E-15 -0.30225594011E+02  0.80087824918E+02  0.74165174892E+02 0.  0.
         66    2    3    3    0    0  0.36227676799E+02  0.73509974808E+01 -0.17904616365E+02  0.41122463577E+02  0.19999983061E+01 0.  0.
        -13    1    3    3    0    0 -0.36227676799E+02 -0.73509974808E+01 -0.12320977646E+02  0.38965361341E+02  0.10566000000E+00 0.  1.
         13    1    4    4    0    0  0.10603164314E+02  0.23988453023E+01 -0.47688686341E+01  0.11871597380E+02  0.10566000000E+00 0. -1.
        -13    1    4    4    0    0  0.60440814202E+01  0.80634378118E+00 -0.25607567973E+01  0.66143593732E+01  0.10566000000E+00 0. -1.
         14    1    4    4    0    0  0.19580431065E+02  0.41458083972E+01 -0.10574990934E+02  0.22636506824E+02  0.00000000000E+00 0. -1.
<mgrwt>
<rscale>  0 0.74165175E+02</rscale>
<asrwt>0</asrwt>
<pdfrwt beam="1">  1        2 0.38355562E-02 0.74165175E+02</pdfrwt>
<pdfrwt beam="2">  1       -1 0.84856476E-02 0.74165175E+02</pdfrwt>
<totfact> 0.16051449E+05</totfact>
</mgrwt>
</event>
<event>
 8    1  0.1673046E-013  0.8004591E+02  0.7818608E-02  0.1328921E+00
          2   -1    0    0  501    0  0.00000000000E+00  0.00000000000E+00  0.41803929377E+03  0.41803929377E+03  0.25500000000E-02 0. -1.
         -1   -1    0    0    0  501 -0.00000000000E+00 -0.00000000000E+00 -0.38317843023E+01  0.38317876168E+01  0.50400000000E-02 0.  1.
         24    2    1    2    0    0  0.00000000000E+00  0.00000000000E+00  0.41420750946E+03  0.42187108139E+03  0.80045914434E+02 0.  0.
         66    2    3    3    0    0  0.14083068393E+02  0.23083146609E+02  0.36256700323E+03  0.36357942229E+03  0.20000020148E+01 0.  0.
        -13    1    3    3    0    0 -0.14083068393E+02 -0.23083146609E+02  0.51640506236E+02  0.58291659104E+02  0.10566000000E+00 0.  1.
         13    1    4    4    0    0  0.23906014015E+01  0.42795991984E+01  0.71210799195E+02  0.71379402003E+02  0.10566000000E+00 0. -1.
        -13    1    4    4    0    0  0.76560284114E+00  0.14640369644E+01  0.17604868910E+02  0.17682537298E+02  0.10566000000E+00 0.  1.
         14    1    4    4    0    0  0.10926864150E+02  0.17339510447E+02  0.27375133512E+03  0.27451748299E+03  0.00000000000E+00 0. -1.
<mgrwt>
<rscale>  0 0.80045914E+02</rscale>
<asrwt>0</asrwt>
<pdfrwt beam="1">  1        2 0.64313755E-01 0.80045914E+02</pdfrwt>
<pdfrwt beam="2">  1       -1 0.58950537E-03 0.80045914E+02</pdfrwt>
<totfact> 0.28646837E+05</totfact>
</mgrwt>
</event>
<event>
 8    1  0.1673046E-013  0.7652568E+02  0.7818608E-02  0.1339211E+00
          2   -1    0    0  501    0  0.00000000000E+00  0.00000000000E+00  0.10363333616E+03  0.10363333619E+03  0.25500000000E-02 0. -1.
         -1   -1    0    0    0  501 -0.00000000000E+00 -0.00000000000E+00 -0.14127159633E+02  0.14127160532E+02  0.50400000000E-02 0.  1.
         24    2    1    2    0    0  0.35527136788E-14  0.17763568394E-14  0.89506176527E+02  0.11776049672E+03  0.76525675118E+02 0.  0.
         66    2    3    3    0    0 -0.25417679672E+02 -0.12716512926E+02  0.84145060649E+02  0.88837826232E+02  0.19999993121E+01 0.  0.
        -13    1    3    3    0    0  0.25417679672E+02  0.12716512926E+02  0.53611158786E+01  0.28922670492E+02  0.10566000000E+00 0.  1.
         13    1    4    4    0    0 -0.78371495232E+01 -0.36028226366E+01  0.24369033006E+02  0.25850767441E+02  0.10566000000E+00 0. -1.
        -13    1    4    4    0    0 -0.32780375397E+01 -0.22803988266E+01  0.11298569785E+02  0.11983930580E+02  0.10566000000E+00 0.  1.
         14    1    4    4    0    0 -0.14302492609E+02 -0.68332914626E+01  0.48477457857E+02  0.51003128211E+02  0.00000000000E+00 0. -1.
<mgrwt>
<rscale>  0 0.76525675E+02</rscale>
<asrwt>0</asrwt>
<pdfrwt beam="1">  1        2 0.15943591E-01 0.76525675E+02</pdfrwt>
<pdfrwt beam="2">  1       -1 0.21734092E-02 0.76525675E+02</pdfrwt>
<totfact> 0.20158101E+05</totfact>
</mgrwt>
</event>
<event>
 8    1  0.1673046E-013  0.8460425E+02  0.7818608E-02  0.1316471E+00
         -1   -1    0    0    0  501 -0.00000000000E+00  0.00000000000E+00  0.18479734242E+01  0.18479802970E+01  0.50400000000E-02 0.  1.
          2   -1    0    0  501    0  0.00000000000E+00 -0.00000000000E+00 -0.96833987119E+03  0.96833987119E+03  0.25500000000E-02 0. -1.
         24    2    1    2    0    0  0.00000000000E+00  0.00000000000E+00 -0.96649189777E+03  0.97018785149E+03  0.84604247722E+02 0.  0.
         66    2    3    3    0    0  0.10710933137E+02 -0.28174906661E+02 -0.82348254972E+03  0.82403644285E+03  0.20000008545E+01 0.  0.
        -13    1    3    3    0    0 -0.10710933137E+02  0.28174906661E+02 -0.14300934805E+03  0.14615140864E+03  0.10566000000E+00 0.  1.
         13    1    4    4    0    0  0.48686362883E+01 -0.13651171643E+02 -0.41713947097E+03  0.41739119242E+03  0.10566000000E+00 0. -1.
        -13    1    4    4    0    0  0.29873297092E+01 -0.84266909081E+01 -0.23117185662E+03  0.23134470324E+03  0.10566000000E+00 0.  1.
         14    1    4    4    0    0  0.28549671396E+01 -0.60970441094E+01 -0.17517122213E+03  0.17530054719E+03  0.00000000000E+00 0. -1.
<mgrwt>
<rscale>  0 0.84604248E+02</rscale>
<asrwt>0</asrwt>
<pdfrwt beam="1">  1        2 0.14897496E+00 0.84604248E+02</pdfrwt>
<pdfrwt beam="2">  1       -1 0.28430491E-03 0.84604248E+02</pdfrwt>
<totfact> 0.30402681E+05</totfact>
</mgrwt>
</event>
<event>
 8    1  0.1673046E-013  0.8056123E+02  0.7818608E-02  0.1327466E+00
         -1   -1    0    0    0  501 -0.00000000000E+00  0.00000000000E+00  0.14741488485E+03  0.14741488493E+03  0.50400000000E-02 0.  1.
          2   -1    0    0  501    0  0.00000000000E+00 -0.00000000000E+00 -0.11006540441E+02  0.11006540737E+02  0.25500000000E-02 0. -1.
         24    2    1    2    0    0  0.00000000000E+00  0.00000000000E+00  0.13640834441E+03  0.15842142567E+03  0.80561229433E+02 0.  0.
         66    2    3    3    0    0 -0.29737506324E+02  0.66811394636E+00  0.14905831598E+02  0.33330908679E+02  0.19999997737E+01 0.  0.
        -13    1    3    3    0    0  0.29737506324E+02 -0.66811394636E+00  0.12150251281E+03  0.12509051699E+03  0.10566000000E+00 0.  1.
         13    1    4    4    0    0 -0.91639064112E+01 -0.11985582112E+00  0.43280256121E+01  0.10135803662E+02  0.10566000000E+00 0. -1.
        -13    1    4    4    0    0 -0.86366731286E+01 -0.39687341582E+00  0.45268707984E+01  0.97597825027E+01  0.10566000000E+00 0.  1.
         14    1    4    4    0    0 -0.11936926784E+02  0.11848431833E+01  0.60509351879E+01  0.13435322514E+02  0.00000000000E+00 0. -1.
<mgrwt>
<rscale>  0 0.80561229E+02</rscale>
<asrwt>0</asrwt>
<pdfrwt beam="1">  1        2 0.16933139E-02 0.80561229E+02</pdfrwt>
<pdfrwt beam="2">  1       -1 0.22679213E-01 0.80561229E+02</pdfrwt>
<totfact> 0.10645272E+05</totfact>
</mgrwt>
</event>
<event>
 8    1  0.1673046E-013  0.8057226E+02  0.7818608E-02  0.1327435E+00
          2   -1    0    0  501    0  0.00000000000E+00  0.00000000000E+00  0.21544825170E+02  0.21544825321E+02  0.25500000000E-02 0. -1.
         -1   -1    0    0    0  501 -0.00000000000E+00 -0.00000000000E+00 -0.75330020595E+02  0.75330020764E+02  0.50400000000E-02 0.  1.
         24    2    1    2    0    0 -0.22204460493E-15  0.00000000000E+00 -0.53785195425E+02  0.96874846085E+02  0.80572256746E+02 0.  0.
         66    2    3    3    0    0 -0.19152066973E+01  0.24734117068E+02  0.11216893822E+02  0.27299510410E+02  0.19999994432E+01 0.  0.
        -13    1    3    3    0    0  0.19152066973E+01 -0.24734117068E+02 -0.65002089247E+02  0.69575335675E+02  0.10566000000E+00 0.  1.
         13    1    4    4    0    0 -0.19596326837E+01  0.21643123084E+02  0.10172684899E+02  0.23994991544E+02  0.10566000000E+00 0. -1.
        -13    1    4    4    0    0  0.80723759165E-01  0.18229675703E+01  0.86920457611E+00  0.20239584281E+01  0.10566000000E+00 0.  1.
         14    1    4    4    0    0 -0.36297772733E-01  0.12680264140E+01  0.17500434649E+00  0.12805604384E+01  0.00000000000E+00 0. -1.
<mgrwt>
<rscale>  0 0.80572257E+02</rscale>
<asrwt>0</asrwt>
<pdfrwt beam="1">  1        2 0.33145886E-02 0.80572257E+02</pdfrwt>
<pdfrwt beam="2">  1       -1 0.11589234E-01 0.80572257E+02</pdfrwt>
<totfact> 0.12348569E+05</totfact>
</mgrwt>
</event>
<event>
 8    1  0.1673046E-013  0.7985976E+02  0.7818608E-02  0.1329450E+00
          2   -1    0    0  501    0  0.00000000000E+00  0.00000000000E+00  0.13067225568E+04  0.13067225568E+04  0.25500000000E-02 0. -1.
         -1   -1    0    0    0  501 -0.00000000000E+00 -0.00000000000E+00 -0.12201430308E+01  0.12201534400E+01  0.50400000000E-02 0.  1.
         24    2    1    2    0    0  0.88817841970E-15  0.00000000000E+00  0.13055024137E+04  0.13079427102E+04  0.79859757821E+02 0.  0.
         66    2    3    3    0    0  0.28692085729E+01 -0.17184646025E+02  0.12411376652E+04  0.12412615552E+04  0.19999985866E+01 0.  0.
        -13    1    3    3    0    0 -0.28692085729E+01  0.17184646025E+02  0.64364748556E+02  0.66681155041E+02  0.10566000000E+00 0.  1.
         13    1    4    4    0    0  0.76890788641E+00 -0.52409771320E+01  0.33876358989E+03  0.33880501776E+03  0.10566000000E+00 0. -1.
        -13    1    4    4    0    0  0.98312002859E+00 -0.25530684193E+01  0.19209860995E+03  0.19211811937E+03  0.10566000000E+00 0.  1.
         14    1    4    4    0    0  0.11171806579E+01 -0.93906004741E+01  0.71027546534E+03  0.71033841803E+03  0.00000000000E+00 0. -1.
<mgrwt>
<rscale>  0 0.79859758E+02</rscale>
<asrwt>0</asrwt>
<pdfrwt beam="1">  1        2 0.20103509E+00 0.79859758E+02</pdfrwt>
<pdfrwt beam="2">  1       -1 0.18771432E-03 0.79859758E+02</pdfrwt>
<totfact> 0.34739763E+05</totfact>
</mgrwt>
</event>
<event>
 8    1  0.1673046E-013  0.7878601E+02  0.7818608E-02  0.1332532E+00
         -1   -1    0    0    0  501 -0.00000000000E+00  0.00000000000E+00  0.16616256547E+02  0.16616257311E+02  0.50400000000E-02 0.  1.
          2   -1    0    0  501    0  0.00000000000E+00 -0.00000000000E+00 -0.93390997186E+02  0.93390997221E+02  0.25500000000E-02 0. -1.
         24    2    1    2    0    0  0.00000000000E+00  0.00000000000E+00 -0.76774740639E+02  0.11000725453E+03  0.78786009224E+02 0.  0.
         66    2    3    3    0    0  0.19546979435E+02 -0.20780218981E+02 -0.76289616793E+02  0.81473968442E+02  0.19999993237E+01 0.  0.
        -13    1    3    3    0    0 -0.19546979435E+02  0.20780218981E+02 -0.48512384647E+00  0.28533286091E+02  0.10566000000E+00 0.  1.
         13    1    4    4    0    0  0.11547196445E+02 -0.11995037509E+02 -0.42732124016E+02  0.45861359089E+02  0.10566000000E+00 0. -1.
        -13    1    4    4    0    0  0.53576148489E+01 -0.62301127071E+01 -0.21995022778E+02  0.23480002816E+02  0.10566000000E+00 0.  1.
        -14    1    4    4    0    0  0.26421681411E+01 -0.25550687653E+01 -0.11562469999E+02  0.12132606536E+02  0.00000000000E+00 0.  1.
<mgrwt>
<rscale>  0 0.78786009E+02</rscale>
<asrwt>0</asrwt>
<pdfrwt beam="1">  1        2 0.14367846E-01 0.78786009E+02</pdfrwt>
<pdfrwt beam="2">  1       -1 0.25563473E-02 0.78786009E+02</pdfrwt>
<totfact> 0.18122052E+05</totfact>
</mgrwt>
</event>
<event>
 8    1  0.1673046E-013  0.8041658E+02  0.7818608E-02  0.1327873E+00
         -1   -1    0    0    0  501 -0.00000000000E+00  0.00000000000E+00  0.13354859653E+03  0.13354859662E+03  0.50400000000E-02 0.  1.
          2   -1    0    0  501    0  0.00000000000E+00 -0.00000000000E+00 -0.12105755539E+02  0.12105755808E+02  0.25500000000E-02 0. -1.
         24    2    1    2    0    0  0.00000000000E+00  0.00000000000E+00  0.12144284099E+03  0.14565435243E+03  0.80416582584E+02 0.  0.
         66    2    3    3    0    0 -0.21483376510E+02  0.30697591200E+02  0.34459945979E+02  0.50944729054E+02  0.19999924486E+01 0.  0.
        -13    1    3    3    0    0  0.21483376510E+02 -0.30697591200E+02  0.86982895008E+02  0.94709623375E+02  0.10566000000E+00 0.  1.
         13    1    4    4    0    0 -0.11539995424E+02  0.16193160682E+02  0.17633534326E+02  0.26577107520E+02  0.10566000000E+00 0. -1.
        -13    1    4    4    0    0 -0.49744207383E+01  0.63007099766E+01  0.79770483156E+01  0.11317608924E+02  0.10566000000E+00 0. -1.
         14    1    4    4    0    0 -0.49689603473E+01  0.82037205414E+01  0.88493633367E+01  0.13050012610E+02  0.00000000000E+00 0. -1.
<mgrwt>
<rscale>  0 0.80416583E+02</rscale>
<asrwt>0</asrwt>
<pdfrwt beam="1">  1        2 0.18624240E-02 0.80416583E+02</pdfrwt>
<pdfrwt beam="2">  1       -1 0.20545937E-01 0.80416583E+02</pdfrwt>
<totfact> 0.10957739E+05</totfact>
</mgrwt>
</event>
<event>
 8    1  0.1673046E-013  0.7806684E+02  0.7818608E-02  0.1334629E+00
          2   -1    0    0  501    0  0.00000000000E+00  0.00000000000E+00  0.37340340840E+03  0.37340340841E+03  0.25500000000E-02 0. -1.
         -1   -1    0    0    0  501 -0.00000000000E+00 -0.00000000000E+00 -0.40803248093E+01  0.40803279220E+01  0.50400000000E-02 0.  1.
         24    2    1    2    0    0  0.00000000000E+00 -0.44408920985E-15  0.36932308359E+03  0.37748373633E+03  0.78066837526E+02 0.  0.
         66    2    3    3    0    0 -0.20730344329E+02  0.37413005938E+01  0.34353195400E+03  0.34418301508E+03  0.19999862068E+01 0.  0.
        -13    1    3    3    0    0  0.20730344329E+02 -0.37413005938E+01  0.25791129588E+02  0.33300721247E+02  0.10566000000E+00 0.  1.
         13    1    4    4    0    0 -0.55314988289E+01  0.98665327492E+00  0.97114209392E+02  0.97276676515E+02  0.10566000000E+00 0. -1.
        -13    1    4    4    0    0 -0.31118953493E+00 -0.41674968090E-01  0.31345385251E+01  0.31519948494E+01  0.10566000000E+00 0.  1.
        -14    1    4    4    0    0 -0.14887655965E+02  0.27963222869E+01  0.24328320609E+03  0.24375434372E+03  0.00000000000E+00 0.  1.
<mgrwt>
<rscale>  0 0.78066838E+02</rscale>
<asrwt>0</asrwt>
<pdfrwt beam="1">  1        2 0.57446685E-01 0.78066838E+02</pdfrwt>
<pdfrwt beam="2">  1       -1 0.62774245E-03 0.78066838E+02</pdfrwt>
<totfact> 0.29395358E+05</totfact>
</mgrwt>
</event>
<event>
 8    1  0.1673046E-013  0.7658533E+02  0.7818608E-02  0.1339031E+00
         -1   -1    0    0    0  501 -0.00000000000E+00  0.00000000000E+00  0.90540345867E+01  0.90540359894E+01  0.50400000000E-02 0.  1.
          2   -1    0    0  501    0  0.00000000000E+00 -0.00000000000E+00 -0.16195301762E+03  0.16195301764E+03  0.25500000000E-02 0. -1.
         24    2    1    2    0    0  0.00000000000E+00 -0.55511151231E-16 -0.15289898303E+03  0.17100705363E+03  0.76585333964E+02 0.  0.
         66    2    3    3    0    0  0.26587609946E+02  0.28089415363E+00 -0.13795049058E+03  0.14050379979E+03  0.20000000613E+01 0.  0.
        -13    1    3    3    0    0 -0.26587609946E+02 -0.28089415363E+00 -0.14948492456E+02  0.30503253841E+02  0.10566000000E+00 0.  1.
         13    1    4    4    0    0  0.16686868532E+02  0.99781060653E+00 -0.87765311566E+02  0.89343205034E+02  0.10566000000E+00 0. -1.
        -13    1    4    4    0    0  0.28864666759E+01 -0.18500999254E+00 -0.13432893448E+02  0.13741168400E+02  0.10566000000E+00 0.  1.
         14    1    4    4    0    0  0.70142747381E+01 -0.53190646036E+00 -0.36752285563E+02  0.37419426355E+02  0.00000000000E+00 0. -1.
<mgrwt>
<rscale>  0 0.76585334E+02</rscale>
<asrwt>0</asrwt>
<pdfrwt beam="1">  1        2 0.24915847E-01 0.76585334E+02</pdfrwt>
<pdfrwt beam="2">  1       -1 0.13929286E-02 0.76585334E+02</pdfrwt>
<totfact> 0.23046363E+05</totfact>
</mgrwt>
</event>
<event>
 8    1  0.1673046E-013  0.7954346E+02  0.7818608E-02  0.1330352E+00
         -1   -1    0    0    0  501 -0.00000000000E+00  0.00000000000E+00  0.42764788963E+02  0.42764789260E+02  0.50400000000E-02 0.  1.
          2   -1    0    0  501    0  0.00000000000E+00 -0.00000000000E+00 -0.36988153425E+02  0.36988153513E+02  0.25500000000E-02 0. -1.
         24    2    1    2    0    0  0.00000000000E+00  0.00000000000E+00  0.57766355372E+01  0.79752942773E+02  0.79543462100E+02 0.  0.
         66    2    3    3    0    0  0.12172732474E+02 -0.63271968890E+01 -0.34511946705E+02  0.37192516795E+02  0.20000009540E+01 0.  0.
        -13    1    3    3    0    0 -0.12172732474E+02  0.63271968890E+01  0.40288582242E+02  0.42560425978E+02  0.10566000000E+00 0.  1.
         13    1    4    4    0    0  0.64816421366E+01 -0.36443355934E+01 -0.18219130463E+02  0.19678433514E+02  0.10566000000E+00 0. -1.
        -13    1    4    4    0    0  0.33803934335E+01 -0.88239152045E+00 -0.90113922781E+01  0.96655071976E+01  0.10566000000E+00 0.  1.
        -14    1    4    4    0    0  0.23106969034E+01 -0.18004697752E+01 -0.72814239642E+01  0.78485760834E+01  0.00000000000E+00 0.  1.
<mgrwt>
<rscale>  0 0.79543462E+02</rscale>
<asrwt>0</asrwt>
<pdfrwt beam="1">  1        2 0.56904852E-02 0.79543462E+02</pdfrwt>
<pdfrwt beam="2">  1       -1 0.65791983E-02 0.79543462E+02</pdfrwt>
<totfact> 0.14253824E+05</totfact>
</mgrwt>
</event>
<event>
 8    1  0.1673046E-013  0.7985686E+02  0.7818608E-02  0.1329458E+00
         -1   -1    0    0    0  501 -0.00000000000E+00  0.00000000000E+00  0.28944943312E+02  0.28944943750E+02  0.50400000000E-02 0.  1.
          2   -1    0    0  501    0  0.00000000000E+00 -0.00000000000E+00 -0.55079723936E+02  0.55079723995E+02  0.25500000000E-02 0. -1.
         24    2    1    2    0    0  0.35527136788E-14  0.35527136788E-14 -0.26134780624E+02  0.84024667745E+02  0.79856859639E+02 0.  0.
         66    2    3    3    0    0  0.24628601623E+02  0.27207650385E+02  0.34089579274E+01  0.36911316039E+02  0.20000000454E+01 0.  0.
        -13    1    3    3    0    0 -0.24628601623E+02 -0.27207650385E+02 -0.29543738552E+02  0.47113351707E+02  0.10566000000E+00 0.  1.
         13    1    4    4    0    0  0.92618976926E+01  0.92883012170E+01  0.95003678143E+00  0.13151768789E+02  0.10566000000E+00 0. -1.
        -13    1    4    4    0    0  0.38184200172E+00  0.62594220582E+00 -0.34643599580E-01  0.74160041390E+00  0.10566000000E+00 0.  1.
         14    1    4    4    0    0  0.14984861929E+02  0.17293406962E+02  0.24935647456E+01  0.23017946836E+02  0.00000000000E+00 0. -1.
<mgrwt>
<rscale>  0 0.79856860E+02</rscale>
<asrwt>0</asrwt>
<pdfrwt beam="1">  1        2 0.84738037E-02 0.79856860E+02</pdfrwt>
<pdfrwt beam="2">  1       -1 0.44530683E-02 0.79856860E+02</pdfrwt>
<totfact> 0.15340725E+05</totfact>
</mgrwt>
</event>
<event>
 8    1  0.1673046E-013  0.8120674E+02  0.7818608E-02  0.1325661E+00
         -1   -1    0    0    0  501 -0.00000000000E+00  0.00000000000E+00  0.20413039337E+02  0.20413039959E+02  0.50400000000E-02 0.  1.
          2   -1    0    0  501    0  0.00000000000E+00 -0.00000000000E+00 -0.80763751513E+02  0.80763751554E+02  0.25500000000E-02 0. -1.
         24    2    1    2    0    0  0.00000000000E+00 -0.17763568394E-14 -0.60350712176E+02  0.10117679151E+03  0.81206740365E+02 0.  0.
         66    2    3    3    0    0  0.37613351205E+02 -0.14979945729E+02 -0.26789331788E+02  0.48588386132E+02  0.20000015834E+01 0.  0.
        -13    1    3    3    0    0 -0.37613351205E+02  0.14979945729E+02 -0.33561380388E+02  0.52588405381E+02  0.10566000000E+00 0.  1.
         13    1    4    4    0    0  0.22514609695E+02 -0.92630094594E+01 -0.15641172067E+02  0.28937318840E+02  0.10566000000E+00 0. -1.
        -13    1    4    4    0    0  0.14674657731E+02 -0.56626636720E+01 -0.11016199087E+02  0.19203623245E+02  0.10566000000E+00 0.  1.
        -14    1    4    4    0    0  0.42408377840E+00 -0.54272597792E-01 -0.13196063443E+00  0.44744404679E+00  0.00000000000E+00 0.  1.
<mgrwt>
<rscale>  0 0.81206740E+02</rscale>
<asrwt>0</asrwt>
<pdfrwt beam="1">  1        2 0.12425192E-01 0.81206740E+02</pdfrwt>
<pdfrwt beam="2">  1       -1 0.31404677E-02 0.81206740E+02</pdfrwt>
<totfact> 0.16074035E+05</totfact>
</mgrwt>
</event>
<event>
 8    1  0.1673046E-013  0.8038848E+02  0.7818608E-02  0.1327953E+00
         -1   -1    0    0    0  501 -0.00000000000E+00  0.00000000000E+00  0.16276597247E+01  0.16276675278E+01  0.50400000000E-02 0.  1.
          2   -1    0    0  501    0  0.00000000000E+00 -0.00000000000E+00 -0.99257432056E+03  0.99257432057E+03  0.25500000000E-02 0. -1.
         24    2    1    2    0    0  0.35527136788E-14  0.00000000000E+00 -0.99094666084E+03  0.99420198810E+03  0.80388484895E+02 0.  0.
         66    2    3    3    0    0 -0.31722661465E+02 -0.22631915460E+01 -0.79925445739E+03  0.79988945295E+03  0.19999999545E+01 0.  0.
        -13    1    3    3    0    0  0.31722661465E+02  0.22631915460E+01 -0.19169220345E+03  0.19431253514E+03  0.10566000000E+00 0.  1.
         13    1    4    4    0    0 -0.67247253241E+01 -0.40690238640E+00 -0.17251300765E+03  0.17264453792E+03  0.10566000000E+00 0.  1.
        -13    1    4    4    0    0 -0.11040982272E+02 -0.16781206297E+01 -0.27935654712E+03  0.27957970413E+03  0.10566000000E+00 0. -1.
        -14    1    4    4    0    0 -0.13956953869E+02 -0.17816852995E+00 -0.34738490262E+03  0.34766521091E+03  0.00000000000E+00 0.  1.
<mgrwt>
<rscale>  0 0.80388485E+02</rscale>
<asrwt>0</asrwt>
<pdfrwt beam="1">  1        2 0.15270326E+00 0.80388485E+02</pdfrwt>
<pdfrwt beam="2">  1       -1 0.25041058E-03 0.80388485E+02</pdfrwt>
<totfact> 0.34779213E+05</totfact>
</mgrwt>
</event>
<event>
 8    1  0.1673046E-013  0.8197593E+02  0.7818608E-02  0.1323536E+00
          2   -1    0    0  501    0  0.00000000000E+00  0.00000000000E+00  0.29721827227E+03  0.29721827229E+03  0.25500000000E-02 0. -1.
         -1   -1    0    0    0  501 -0.00000000000E+00 -0.00000000000E+00 -0.56524546203E+01  0.56524568672E+01  0.50400000000E-02 0.  1.
         24    2    1    2    0    0 -0.71054273576E-14 -0.35527136788E-14  0.29156581765E+03  0.30287072915E+03  0.81975926668E+02 0.  0.
         66    2    3    3    0    0 -0.23877003151E+02 -0.20500422612E+02  0.24275258716E+03  0.24479215098E+03  0.20000009770E+01 0.  0.
        -13    1    3    3    0    0  0.23877003151E+02  0.20500422612E+02  0.48813230495E+02  0.58078578169E+02  0.10566000000E+00 0.  1.
         13    1    4    4    0    0 -0.11091910224E+02 -0.90259531023E+01  0.11054506305E+03  0.11146623000E+03  0.10566000000E+00 0. -1.
        -13    1    4    4    0    0 -0.17487789009E+01 -0.11579994946E+01  0.18661596053E+02  0.18779390878E+02  0.10566000000E+00 0.  1.
        -14    1    4    4    0    0 -0.11036314026E+02 -0.10316470015E+02  0.11354592806E+03  0.11454653011E+03  0.00000000000E+00 0.  1.
<mgrwt>
<rscale>  0 0.81975927E+02</rscale>
<asrwt>0</asrwt>
<pdfrwt beam="1">  1        2 0.45725900E-01 0.81975927E+02</pdfrwt>
<pdfrwt beam="2">  1       -1 0.86960835E-03 0.81975927E+02</pdfrwt>
<totfact> 0.23832121E+05</totfact>
</mgrwt>
</event>
<event>
 8    1  0.1673046E-013  0.7698406E+02  0.7818608E-02  0.1337835E+00
          2   -1    0    0  501    0  0.00000000000E+00  0.00000000000E+00  0.73018107459E+01  0.73018111911E+01  0.25500000000E-02 0. -1.
         -1   -1    0    0    0  501 -0.00000000000E+00 -0.00000000000E+00 -0.20291356943E+03  0.20291356949E+03  0.50400000000E-02 0.  1.
         24    2    1    2    0    0  0.00000000000E+00 -0.35527136788E-14 -0.19561175868E+03  0.21021538068E+03  0.76984064198E+02 0.  0.
         66    2    3    3    0    0 -0.22975924803E+02  0.17023196636E+02 -0.27616905393E+02  0.39804218371E+02  0.19999981010E+01 0.  0.
        -13    1    3    3    0    0  0.22975924803E+02 -0.17023196636E+02 -0.16799485329E+03  0.17041116231E+03  0.10566000000E+00 0.  1.
         13    1    4    4    0    0 -0.84128343703E+01  0.64973461869E+01 -0.90393545627E+01  0.13953937959E+02  0.10566000000E+00 0. -1.
        -13    1    4    4    0    0 -0.31921877930E+01  0.23738952959E+01 -0.38724595180E+01  0.55527064154E+01  0.10566000000E+00 0.  1.
        -14    1    4    4    0    0 -0.11370902640E+02  0.81519551533E+01 -0.14705091312E+02  0.20297573997E+02  0.00000000000E+00 0.  1.
<mgrwt>
<rscale>  0 0.76984064E+02</rscale>
<asrwt>0</asrwt>
<pdfrwt beam="1">  1        2 0.11233557E-02 0.76984064E+02</pdfrwt>
<pdfrwt beam="2">  1       -1 0.31217468E-01 0.76984064E+02</pdfrwt>
<totfact> 0.10935246E+05</totfact>
</mgrwt>
</event>
<event>
 8    1  0.1673046E-013  0.8163228E+02  0.7818608E-02  0.1324482E+00
         -1   -1    0    0    0  501 -0.00000000000E+00  0.00000000000E+00  0.68438112741E+01  0.68438131299E+01  0.50400000000E-02 0.  1.
          2   -1    0    0  501    0  0.00000000000E+00 -0.00000000000E+00 -0.24342534695E+03  0.24342534697E+03  0.25500000000E-02 0. -1.
         24    2    1    2    0    0  0.71054273576E-14  0.35527136788E-14 -0.23658153568E+03  0.25026916010E+03  0.81632282040E+02 0.  0.
         66    2    3    3    0    0  0.34322825856E+02  0.19684658383E+02 -0.87948135588E+02  0.96459404434E+02  0.19999999662E+01 0.  0.
        -13    1    3    3    0    0 -0.34322825856E+02 -0.19684658383E+02 -0.14863340009E+03  0.15380975566E+03  0.10566000000E+00 0.  1.
         13    1    4    4    0    0  0.30839975493E+02  0.17551833603E+02 -0.79561483448E+02  0.87116082119E+02  0.10566000000E+00 0. -1.
        -13    1    4    4    0    0  0.70861577896E+00  0.27105002307E+00 -0.13075449583E+01  0.15154016929E+01  0.10566000000E+00 0.  1.
        -14    1    4    4    0    0  0.27742345839E+01  0.18617747567E+01 -0.70791071815E+01  0.78279206216E+01  0.00000000000E+00 0.  1.
<mgrwt>
<rscale>  0 0.81632282E+02</rscale>
<asrwt>0</asrwt>
<pdfrwt beam="1">  1        2 0.37450047E-01 0.81632282E+02</pdfrwt>
<pdfrwt beam="2">  1       -1 0.10528944E-02 0.81632282E+02</pdfrwt>
<totfact> 0.22417510E+05</totfact>
</mgrwt>
</event>
<event>
 8    1  0.1673046E-013  0.7842319E+02  0.7818608E-02  0.1333587E+00
         -1   -1    0    0    0  501 -0.00000000000E+00  0.00000000000E+00  0.26065670742E+02  0.26065671229E+02  0.50400000000E-02 0.  1.
          2   -1    0    0  501    0  0.00000000000E+00 -0.00000000000E+00 -0.58987514496E+02  0.58987514551E+02  0.25500000000E-02 0. -1.
         24    2    1    2    0    0  0.00000000000E+00  0.00000000000E+00 -0.32921843754E+02  0.85053185780E+02  0.78423189269E+02 0.  0.
         66    2    3    3    0    0 -0.16444060275E+02  0.35540669602E+02 -0.18004567094E+02  0.43147546290E+02  0.20000001404E+01 0.  0.
        -13    1    3    3    0    0  0.16444060275E+02 -0.35540669602E+02 -0.14917276660E+02  0.41905639490E+02  0.10566000000E+00 0.  1.
         13    1    4    4    0    0 -0.68785203502E+01  0.13982681629E+02 -0.71248209284E+01  0.17134866940E+02  0.10566000000E+00 0. -1.
        -13    1    4    4    0    0 -0.33371090920E+01  0.81720511870E+01 -0.47733408408E+01  0.10035669610E+02  0.10566000000E+00 0.  1.
         14    1    4    4    0    0 -0.62284308328E+01  0.13385936785E+02 -0.61064053247E+01  0.15977009741E+02  0.00000000000E+00 0. -1.
<mgrwt>
<rscale>  0 0.78423189E+02</rscale>
<asrwt>0</asrwt>
<pdfrwt beam="1">  1        2 0.90750023E-02 0.78423189E+02</pdfrwt>
<pdfrwt beam="2">  1       -1 0.40101032E-02 0.78423189E+02</pdfrwt>
<totfact> 0.16367570E+05</totfact>
</mgrwt>
</event>
<event>
 8    1  0.1673046E-013  0.8385589E+02  0.7818608E-02  0.1318452E+00
         -1   -1    0    0    0  501 -0.00000000000E+00  0.00000000000E+00  0.91199557201E+02  0.91199557340E+02  0.50400000000E-02 0.  1.
          2   -1    0    0  501    0  0.00000000000E+00 -0.00000000000E+00 -0.19275889934E+02  0.19275890103E+02  0.25500000000E-02 0. -1.
         24    2    1    2    0    0  0.00000000000E+00  0.35527136788E-14  0.71923667267E+02  0.11047544744E+03  0.83855891711E+02 0.  0.
         66    2    3    3    0    0  0.17060292827E+02 -0.26459088644E+02 -0.45195990041E+00  0.31549028956E+02  0.19999992788E+01 0.  0.
        -13    1    3    3    0    0 -0.17060292827E+02  0.26459088644E+02  0.72375627167E+02  0.78926418487E+02  0.10566000000E+00 0.  1.
         13    1    4    4    0    0  0.23758698442E+01 -0.43049121691E+01 -0.58844225048E+00  0.49532266875E+01  0.10566000000E+00 0.  1.
        -13    1    4    4    0    0  0.10403251375E+02 -0.15072592755E+02 -0.16377445724E+00  0.18315258055E+02  0.10566000000E+00 0. -1.
         14    1    4    4    0    0  0.42811716083E+01 -0.70815837200E+01  0.30025680731E+00  0.82805442136E+01  0.00000000000E+00 0. -1.
<mgrwt>
<rscale>  0 0.83855892E+02</rscale>
<asrwt>0</asrwt>
<pdfrwt beam="1">  1        2 0.29655214E-02 0.83855892E+02</pdfrwt>
<pdfrwt beam="2">  1       -1 0.14030702E-01 0.83855892E+02</pdfrwt>
<totfact> 0.10753473E+05</totfact>
</mgrwt>
</event>
<event>
 8    1  0.1673046E-013  0.7931629E+02  0.7818608E-02  0.1331003E+00
         -1   -1    0    0    0  501 -0.00000000000E+00  0.00000000000E+00  0.63901883095E+01  0.63901902971E+01  0.50400000000E-02 0.  1.
          2   -1    0    0  501    0  0.00000000000E+00 -0.00000000000E+00 -0.24612238358E+03  0.24612238359E+03  0.25500000000E-02 0. -1.
         24    2    1    2    0    0  0.00000000000E+00  0.00000000000E+00 -0.23973219527E+03  0.25251257389E+03  0.79316294187E+02 0.  0.
         66    2    3    3    0    0  0.16266381210E+02  0.35295771210E+02 -0.95204554561E+02  0.10285083290E+03  0.19999990712E+01 0.  0.
        -13    1    3    3    0    0 -0.16266381210E+02 -0.35295771210E+02 -0.14452764071E+03  0.14966174099E+03  0.10566000000E+00 0.  1.
         13    1    4    4    0    0  0.11999882125E+02  0.26498728069E+02 -0.73324523447E+02  0.78883944267E+02  0.10566000000E+00 0. -1.
        -13    1    4    4    0    0  0.26171936786E+01  0.51895912699E+01 -0.13221682468E+02  0.14443185646E+02  0.10566000000E+00 0.  1.
         14    1    4    4    0    0  0.16493054060E+01  0.36074518703E+01 -0.86583486468E+01  0.95237029883E+01  0.00000000000E+00 0. -1.
<mgrwt>
<rscale>  0 0.79316294E+02</rscale>
<asrwt>0</asrwt>
<pdfrwt beam="1">  1        2 0.37864975E-01 0.79316294E+02</pdfrwt>
<pdfrwt beam="2">  1       -1 0.98310624E-03 0.79316294E+02</pdfrwt>
<totfact> 0.24276749E+05</totfact>
</mgrwt>
</event>
<event>
 8    1  0.1673046E-013  0.8004737E+02  0.7818608E-02  0.1328917E+00
         -1   -1    0    0    0  501 -0.00000000000E+00  0.00000000000E+00  0.30522851371E+01  0.30522892982E+01  0.50400000000E-02 0.  1.
          2   -1    0    0  501    0  0.00000000000E+00 -0.00000000000E+00 -0.52481807102E+03  0.52481807103E+03  0.25500000000E-02 0. -1.
         24    2    1    2    0    0  0.00000000000E+00  0.71054273576E-14 -0.52176578589E+03  0.52787036033E+03  0.80047373417E+02 0.  0.
         66    2    3    3    0    0  0.11986514348E+02 -0.37133286693E+02 -0.31903657930E+03  0.32142012450E+03  0.19999985736E+01 0.  0.
        -13    1    3    3    0    0 -0.11986514348E+02  0.37133286693E+02 -0.20272920659E+03  0.20645023583E+03  0.10566000000E+00 0.  1.
         13    1    4    4    0    0  0.22994334734E+01 -0.74410868196E+01 -0.59665701911E+02  0.60171956224E+02  0.10566000000E+00 0. -1.
        -13    1    4    4    0    0  0.16137227076E+01 -0.63391070963E+01 -0.57207033257E+02  0.57579894042E+02  0.10566000000E+00 0.  1.
        -14    1    4    4    0    0  0.80733581673E+01 -0.23353092777E+02 -0.20216384413E+03  0.20366827423E+03  0.00000000000E+00 0.  1.
<mgrwt>
<rscale>  0 0.80047373E+02</rscale>
<asrwt>0</asrwt>
<pdfrwt beam="1">  1        2 0.80741170E-01 0.80047373E+02</pdfrwt>
<pdfrwt beam="2">  1       -1 0.46958307E-03 0.80047373E+02</pdfrwt>
<totfact> 0.30870534E+05</totfact>
</mgrwt>
</event>
<event>
 8    1  0.1673046E-013  0.7880481E+02  0.7818608E-02  0.1332478E+00
          2   -1    0    0  501    0  0.00000000000E+00  0.00000000000E+00  0.45808367762E+03  0.45808367762E+03  0.25500000000E-02 0. -1.
         -1   -1    0    0    0  501 -0.00000000000E+00 -0.00000000000E+00 -0.33892248037E+01  0.33892285511E+01  0.50400000000E-02 0.  1.
         24    2    1    2    0    0  0.17763568394E-14  0.35527136788E-14  0.45469445281E+03  0.46147290618E+03  0.78804807687E+02 0.  0.
         66    2    3    3    0    0  0.12771355521E+02 -0.31782835243E+02  0.34123769647E+03  0.34295833803E+03  0.19999991322E+01 0.  0.
        -13    1    3    3    0    0 -0.12771355521E+02  0.31782835243E+02  0.11345675634E+03  0.11851456814E+03  0.10566000000E+00 0.  1.
         13    1    4    4    0    0  0.89364092038E+01 -0.24001681601E+02  0.25224821158E+03  0.25354508778E+03  0.10566000000E+00 0. -1.
        -13    1    4    4    0    0  0.15282802954E+01 -0.25703220374E+01  0.29345707514E+02  0.29497862797E+02  0.10566000000E+00 0.  1.
        -14    1    4    4    0    0  0.23066660213E+01 -0.52108316043E+01  0.59643777379E+02  0.59915387458E+02  0.00000000000E+00 0.  1.
<mgrwt>
<rscale>  0 0.78804808E+02</rscale>
<asrwt>0</asrwt>
<pdfrwt beam="1">  1        2 0.70474362E-01 0.78804808E+02</pdfrwt>
<pdfrwt beam="2">  1       -1 0.52141986E-03 0.78804808E+02</pdfrwt>
<totfact> 0.30778342E+05</totfact>
</mgrwt>
</event>
<event>
 8    1  0.1673046E-013  0.8362165E+02  0.7818608E-02  0.1319077E+00
         -1   -1    0    0    0  501 -0.00000000000E+00  0.00000000000E+00  0.16829118320E+02  0.16829119075E+02  0.50400000000E-02 0.  1.
          2   -1    0    0  501    0  0.00000000000E+00 -0.00000000000E+00 -0.10387621233E+03  0.10387621236E+03  0.25500000000E-02 0. -1.
         24    2    1    2    0    0  0.00000000000E+00  0.00000000000E+00 -0.87047094008E+02  0.12070533143E+03  0.83621650675E+02 0.  0.
         66    2    3    3    0    0 -0.37165332834E+02  0.10521302904E+02 -0.66561662990E+02  0.76983210861E+02  0.19999987470E+01 0.  0.
        -13    1    3    3    0    0  0.37165332834E+02 -0.10521302904E+02 -0.20485431018E+02  0.43722120574E+02  0.10566000000E+00 0.  1.
         13    1    4    4    0    0 -0.79575800183E+01  0.18538884585E+01 -0.13308145364E+02  0.15616589872E+02  0.10566000000E+00 0. -1.
        -13    1    4    4    0    0 -0.15338829735E+01  0.51408944009E+00 -0.23273799662E+01  0.28363614847E+01  0.10566000000E+00 0. -1.
         14    1    4    4    0    0 -0.27673869842E+02  0.81533250056E+01 -0.50926137661E+02  0.58530259505E+02  0.00000000000E+00 0. -1.
<mgrwt>
<rscale>  0 0.83621651E+02</rscale>
<asrwt>0</asrwt>
<pdfrwt beam="1">  1        2 0.15980955E-01 0.83621651E+02</pdfrwt>
<pdfrwt beam="2">  1       -1 0.25890953E-02 0.83621651E+02</pdfrwt>
<totfact> 0.15909899E+05</totfact>
</mgrwt>
</event>
<event>
 8    1  0.1673046E-013  0.7556878E+02  0.7818608E-02  0.1342119E+00
          2   -1    0    0  501    0  0.00000000000E+00  0.00000000000E+00  0.13282445778E+02  0.13282446022E+02  0.25500000000E-02 0. -1.
         -1   -1    0    0    0  501 -0.00000000000E+00 -0.00000000000E+00 -0.10748472325E+03  0.10748472337E+03  0.50400000000E-02 0.  1.
         24    2    1    2    0    0  0.17763568394E-14  0.00000000000E+00 -0.94202277477E+02  0.12076716939E+03  0.75568777427E+02 0.  0.
         66    2    3    3    0    0 -0.13840062253E+02 -0.16700010861E+02  0.22580758070E+01  0.21898323920E+02  0.19999995554E+01 0.  0.
        -13    1    3    3    0    0  0.13840062253E+02  0.16700010861E+02 -0.96460353284E+02  0.98868845475E+02  0.10566000000E+00 0.  1.
         13    1    4    4    0    0 -0.50297835914E+00 -0.12925702813E+01  0.19058834978E+00  0.14039989732E+01  0.10566000000E+00 0. -1.
        -13    1    4    4    0    0 -0.10268759278E+02 -0.11619220305E+02  0.13294304094E+01  0.15563812093E+02  0.10566000000E+00 0.  1.
         14    1    4    4    0    0 -0.30683246157E+01 -0.37882202746E+01  0.73805704775E+00  0.49305128538E+01  0.00000000000E+00 0. -1.
<mgrwt>
<rscale>  0 0.75568777E+02</rscale>
<asrwt>0</asrwt>
<pdfrwt beam="1">  1        2 0.20434533E-02 0.75568777E+02</pdfrwt>
<pdfrwt beam="2">  1       -1 0.16536111E-01 0.75568777E+02</pdfrwt>
<totfact> 0.13455197E+05</totfact>
</mgrwt>
</event>
<event>
 8    1  0.1673046E-013  0.7691015E+02  0.7818608E-02  0.1338056E+00
          2   -1    0    0  501    0  0.00000000000E+00  0.00000000000E+00  0.29207783265E+03  0.29207783266E+03  0.25500000000E-02 0. -1.
         -1   -1    0    0    0  501 -0.00000000000E+00 -0.00000000000E+00 -0.50630081897E+01  0.50630106982E+01  0.50400000000E-02 0.  1.
         24    2    1    2    0    0  0.88817841970E-15  0.17763568394E-14  0.28701482446E+03  0.29714084336E+03  0.76910151036E+02 0.  0.
         66    2    3    3    0    0 -0.76836859072E+01 -0.10487914831E+02  0.28331868248E+03  0.28362389044E+03  0.20000001232E+01 0.  0.
        -13    1    3    3    0    0  0.76836859072E+01  0.10487914831E+02  0.36961419813E+01  0.13516952919E+02  0.10566000000E+00 0.  1.
         13    1    4    4    0    0 -0.92422320631E+00 -0.82164714195E+00  0.22019040993E+02  0.22053993353E+02  0.10566000000E+00 0.  1.
        -13    1    4    4    0    0 -0.41777133973E+00 -0.13593736805E+01  0.27992122790E+02  0.28028423645E+02  0.10566000000E+00 0. -1.
         14    1    4    4    0    0 -0.63416913612E+01 -0.83068940085E+01  0.23330751870E+03  0.23354147345E+03  0.00000000000E+00 0. -1.
<mgrwt>
<rscale>  0 0.76910151E+02</rscale>
<asrwt>0</asrwt>
<pdfrwt beam="1">  1        2 0.44935039E-01 0.76910151E+02</pdfrwt>
<pdfrwt beam="2">  1       -1 0.77892475E-03 0.76910151E+02</pdfrwt>
<totfact> 0.27990748E+05</totfact>
</mgrwt>
</event>
<event>
 8    1  0.1673046E-013  0.7958705E+02  0.7818608E-02  0.1330227E+00
         -1   -1    0    0    0  501 -0.00000000000E+00  0.00000000000E+00  0.16716541791E+01  0.16716617768E+01  0.50400000000E-02 0.  1.
          2   -1    0    0  501    0  0.00000000000E+00 -0.00000000000E+00 -0.94727782072E+03  0.94727782073E+03  0.25500000000E-02 0. -1.
         24    2    1    2    0    0 -0.35527136788E-14  0.00000000000E+00 -0.94560616654E+03  0.94894948250E+03  0.79587047548E+02 0.  0.
         66    2    3    3    0    0  0.17486829609E+02 -0.17369825514E+01 -0.89846997102E+03  0.89864403140E+03  0.20000071844E+01 0.  0.
        -13    1    3    3    0    0 -0.17486829609E+02  0.17369825514E+01 -0.47136195526E+02  0.50305451105E+02  0.10566000000E+00 0.  1.
         13    1    4    4    0    0  0.12222769029E+02 -0.17414575794E+01 -0.63105795946E+03  0.63117872914E+03  0.10566000000E+00 0. -1.
        -13    1    4    4    0    0  0.10491421680E+01 -0.33109939482E+00 -0.60471223527E+02  0.60481322448E+02  0.10566000000E+00 0.  1.
         14    1    4    4    0    0  0.42149184129E+01  0.33557442275E+00 -0.20694078803E+03  0.20698397981E+03  0.00000000000E+00 0. -1.
<mgrwt>
<rscale>  0 0.79587048E+02</rscale>
<asrwt>0</asrwt>
<pdfrwt beam="1">  1        2 0.14573462E+00 0.79587048E+02</pdfrwt>
<pdfrwt beam="2">  1       -1 0.25717891E-03 0.79587048E+02</pdfrwt>
<totfact> 0.35590913E+05</totfact>
</mgrwt>
</event>
<event>
 8    1  0.1673046E-013  0.8106048E+02  0.7818608E-02  0.1326069E+00
          2   -1    0    0  501    0  0.00000000000E+00  0.00000000000E+00  0.99473571685E+03  0.99473571686E+03  0.25500000000E-02 0. -1.
         -1   -1    0    0    0  501 -0.00000000000E+00 -0.00000000000E+00 -0.16513898472E+01  0.16513975381E+01  0.50400000000E-02 0.  1.
         24    2    1    2    0    0  0.00000000000E+00  0.00000000000E+00  0.99308432701E+03  0.99638711439E+03  0.81060478574E+02 0.  0.
         66    2    3    3    0    0 -0.17506559712E+02  0.18507448197E+02  0.88392910365E+03  0.88429840300E+03  0.20000001964E+01 0.  0.
        -13    1    3    3    0    0  0.17506559712E+02 -0.18507448197E+02  0.10915522336E+03  0.11208871139E+03  0.10566000000E+00 0.  1.
         13    1    4    4    0    0 -0.95910156641E+01  0.11276010929E+02  0.51065869922E+03  0.51087322718E+03  0.10566000000E+00 0. -1.
        -13    1    4    4    0    0 -0.28437165970E+01  0.26748169677E+01  0.12353866741E+03  0.12360038382E+03  0.10566000000E+00 0.  1.
         14    1    4    4    0    0 -0.50718274506E+01  0.45566202999E+01  0.24973173702E+03  0.24982479200E+03  0.00000000000E+00 0. -1.
<mgrwt>
<rscale>  0 0.81060479E+02</rscale>
<asrwt>0</asrwt>
<pdfrwt beam="1">  1        2 0.15303663E+00 0.81060479E+02</pdfrwt>
<pdfrwt beam="2">  1       -1 0.25405995E-03 0.81060479E+02</pdfrwt>
<totfact> 0.34038383E+05</totfact>
</mgrwt>
</event>
<event>
 8    1  0.1673046E-013  0.7940005E+02  0.7818608E-02  0.1330763E+00
          2   -1    0    0  501    0  0.00000000000E+00  0.00000000000E+00  0.23015578964E+03  0.23015578965E+03  0.25500000000E-02 0. -1.
         -1   -1    0    0    0  501 -0.00000000000E+00 -0.00000000000E+00 -0.68479352040E+01  0.68479370587E+01  0.50400000000E-02 0.  1.
         24    2    1    2    0    0 -0.35527136788E-14  0.00000000000E+00  0.22330785443E+03  0.23700372671E+03  0.79400054300E+02 0.  0.
         66    2    3    3    0    0  0.30533320343E+02  0.10957071209E+02  0.17990567114E+03  0.18281791917E+03  0.19999996856E+01 0.  0.
        -13    1    3    3    0    0 -0.30533320343E+02 -0.10957071209E+02  0.43402183291E+02  0.54185807544E+02  0.10566000000E+00 0.  1.
         13    1    4    4    0    0  0.15115143389E+02  0.52089477908E+01  0.93065887155E+02  0.94429186234E+02  0.10566000000E+00 0. -1.
        -13    1    4    4    0    0  0.14024244756E+02  0.50032962305E+01  0.77916423495E+02  0.79326493862E+02  0.10566000000E+00 0.  1.
         14    1    4    4    0    0  0.13939321977E+01  0.74482718743E+00  0.89233604922E+01  0.90622390713E+01  0.00000000000E+00 0. -1.
<mgrwt>
<rscale>  0 0.79400054E+02</rscale>
<asrwt>0</asrwt>
<pdfrwt beam="1">  1        2 0.35408583E-01 0.79400054E+02</pdfrwt>
<pdfrwt beam="2">  1       -1 0.10535286E-02 0.79400054E+02</pdfrwt>
<totfact> 0.23638120E+05</totfact>
</mgrwt>
</event>
<event>
 8    1  0.1673046E-013  0.8583737E+02  0.7818608E-02  0.1313257E+00
          2   -1    0    0  501    0  0.00000000000E+00  0.00000000000E+00  0.19236883951E+03  0.19236883953E+03  0.25500000000E-02 0. -1.
         -1   -1    0    0    0  501 -0.00000000000E+00 -0.00000000000E+00 -0.95754244740E+01  0.95754258004E+01  0.50400000000E-02 0.  1.
         24    2    1    2    0    0  0.00000000000E+00  0.00000000000E+00  0.18279341504E+03  0.20194426533E+03  0.85837367843E+02 0.  0.
         66    2    3    3    0    0  0.53647470128E+01 -0.40340038129E+02  0.12335104823E+03  0.12990604407E+03  0.19999997422E+01 0.  0.
        -13    1    3    3    0    0 -0.53647470128E+01  0.40340038129E+02  0.59442366805E+02  0.72038221259E+02  0.10566000000E+00 0.  1.
         13    1    4    4    0    0  0.40102615283E+01 -0.27659081280E+02  0.82409180441E+02  0.87019487242E+02  0.10566000000E+00 0. -1.
        -13    1    4    4    0    0  0.17183943179E+00 -0.19368848135E+01  0.56177730865E+01  0.59457203145E+01  0.10566000000E+00 0.  1.
        -14    1    4    4    0    0  0.11826460526E+01 -0.10744072036E+02  0.35324094707E+02  0.36940836515E+02  0.00000000000E+00 0.  1.
<mgrwt>
<rscale>  0 0.85837368E+02</rscale>
<asrwt>0</asrwt>
<pdfrwt beam="1">  1        2 0.29595205E-01 0.85837368E+02</pdfrwt>
<pdfrwt beam="2">  1       -1 0.14731424E-02 0.85837368E+02</pdfrwt>
<totfact> 0.18057923E+05</totfact>
</mgrwt>
</event>
<event>
 8    1  0.1673046E-013  0.8027141E+02  0.7818608E-02  0.1328283E+00
         -1   -1    0    0    0  501 -0.00000000000E+00  0.00000000000E+00  0.52948965402E+01  0.52948989389E+01  0.50400000000E-02 0.  1.
          2   -1    0    0  501    0  0.00000000000E+00 -0.00000000000E+00 -0.30423154076E+03  0.30423154077E+03  0.25500000000E-02 0. -1.
         24    2    1    2    0    0 -0.71054273576E-14 -0.17763568394E-14 -0.29893664422E+03  0.30952643971E+03  0.80271412233E+02 0.  0.
         66    2    3    3    0    0  0.32375121071E+02  0.84313171788E+01 -0.23488516209E+03  0.23726414594E+03  0.20000012830E+01 0.  0.
        -13    1    3    3    0    0 -0.32375121071E+02 -0.84313171788E+01 -0.64051482135E+02  0.72262293774E+02  0.10566000000E+00 0.  1.
         13    1    4    4    0    0  0.12660749231E+02  0.36087111011E+01 -0.89771022700E+02  0.90731279323E+02  0.10566000000E+00 0. -1.
        -13    1    4    4    0    0  0.52607851476E+00  0.91583374030E-01 -0.55067346349E+01  0.55335735735E+01  0.10566000000E+00 0.  1.
        -14    1    4    4    0    0  0.19188293325E+02  0.47310227037E+01 -0.13960740475E+03  0.14099929304E+03  0.00000000000E+00 0.  1.
<mgrwt>
<rscale>  0 0.80271412E+02</rscale>
<asrwt>0</asrwt>
<pdfrwt beam="1">  1        2 0.46804839E-01 0.80271412E+02</pdfrwt>
<pdfrwt beam="2">  1       -1 0.81459989E-03 0.80271412E+02</pdfrwt>
<totfact> 0.25397542E+05</totfact>
</mgrwt>
</event>
<event>
 8    1  0.1673046E-013  0.8051734E+02  0.7818608E-02  0.1327590E+00
         -1   -1    0    0    0  501 -0.00000000000E+00  0.00000000000E+00  0.23609274232E+01  0.23609328027E+01  0.50400000000E-02 0.  1.
          2   -1    0    0  501    0  0.00000000000E+00 -0.00000000000E+00 -0.68649233076E+03  0.68649233076E+03  0.25500000000E-02 0. -1.
         24    2    1    2    0    0  0.00000000000E+00  0.00000000000E+00 -0.68413140333E+03  0.68885326356E+03  0.80517337859E+02 0.  0.
         66    2    3    3    0    0  0.25869949846E+01  0.26404170817E+02 -0.60104979339E+03  0.60163836888E+03  0.19999993220E+01 0.  0.
        -13    1    3    3    0    0 -0.25869949846E+01 -0.26404170817E+02 -0.83081609948E+02  0.87214894686E+02  0.10566000000E+00 0.  1.
         13    1    4    4    0    0  0.13404501916E+01  0.63505669280E+01 -0.14674704352E+03  0.14689054583E+03  0.10566000000E+00 0. -1.
        -13    1    4    4    0    0  0.15629629548E+00  0.15396131497E+01 -0.40442167134E+02  0.40471902398E+02  0.10566000000E+00 0. -1.
         14    1    4    4    0    0  0.10902484975E+01  0.18513990740E+02 -0.41386058273E+03  0.41427592065E+03  0.00000000000E+00 0. -1.
<mgrwt>
<rscale>  0 0.80517338E+02</rscale>
<asrwt>0</asrwt>
<pdfrwt beam="1">  1        2 0.10561405E+00 0.80517338E+02</pdfrwt>
<pdfrwt beam="2">  1       -1 0.36322057E-03 0.80517338E+02</pdfrwt>
<totfact> 0.32746978E+05</totfact>
</mgrwt>
</event>
<event>
 8    1  0.1673046E-013  0.8037041E+02  0.7818608E-02  0.1328004E+00
         -1   -1    0    0    0  501 -0.00000000000E+00  0.00000000000E+00  0.11189356382E+02  0.11189357517E+02  0.50400000000E-02 0.  1.
          2   -1    0    0  501    0  0.00000000000E+00 -0.00000000000E+00 -0.14432024339E+03  0.14432024341E+03  0.25500000000E-02 0. -1.
         24    2    1    2    0    0  0.00000000000E+00  0.00000000000E+00 -0.13313088701E+03  0.15550960093E+03  0.80370410635E+02 0.  0.
         66    2    3    3    0    0 -0.39185963945E+02  0.28762504312E+01 -0.82682990926E+02  0.91565766434E+02  0.20000018215E+01 0.  0.
        -13    1    3    3    0    0  0.39185963945E+02 -0.28762504312E+01 -0.50447896083E+02  0.63943834496E+02  0.10566000000E+00 0.  1.
         13    1    4    4    0    0 -0.20168386207E+02  0.12329241965E+01 -0.43501961571E+02  0.47965776642E+02  0.10566000000E+00 0. -1.
        -13    1    4    4    0    0 -0.56685398660E+01  0.64759147424E+00 -0.12920022722E+02  0.14124088293E+02  0.10566000000E+00 0.  1.
        -14    1    4    4    0    0 -0.13349037872E+02  0.99573476049E+00 -0.26261006632E+02  0.29475901499E+02  0.00000000000E+00 0.  1.
<mgrwt>
<rscale>  0 0.80370411E+02</rscale>
<asrwt>0</asrwt>
<pdfrwt beam="1">  1        2 0.22203113E-01 0.80370411E+02</pdfrwt>
<pdfrwt beam="2">  1       -1 0.17214396E-02 0.80370411E+02</pdfrwt>
<totfact> 0.19542564E+05</totfact>
</mgrwt>
</event>
<event>
 8    1  0.1673046E-013  0.7789900E+02  0.7818608E-02  0.1335122E+00
         -1   -1    0    0    0  501 -0.00000000000E+00  0.00000000000E+00  0.66149075804E+02  0.66149075996E+02  0.50400000000E-02 0.  1.
          2   -1    0    0  501    0  0.00000000000E+00 -0.00000000000E+00 -0.22934007484E+02  0.22934007626E+02  0.25500000000E-02 0. -1.
         24    2    1    2    0    0  0.00000000000E+00  0.00000000000E+00  0.43215068320E+02  0.89083083622E+02  0.77898996513E+02 0.  0.
         66    2    3    3    0    0  0.30587289646E+02  0.31611865800E+01 -0.56682790950E+01  0.31332168417E+02  0.20000003414E+01 0.  0.
        -13    1    3    3    0    0 -0.30587289646E+02 -0.31611865800E+01  0.48883347415E+02  0.57750915205E+02  0.10566000000E+00 0.  1.
         13    1    4    4    0    0  0.11124132457E+02  0.72128703089E+00 -0.15663022397E+01  0.11257488381E+02  0.10566000000E+00 0. -1.
        -13    1    4    4    0    0  0.74532746387E+01  0.67569962652E+00 -0.10476968432E+01  0.75575594960E+01  0.10566000000E+00 0.  1.
        -14    1    4    4    0    0  0.12009882550E+02  0.17641999226E+01 -0.30542800121E+01  0.12517120540E+02  0.00000000000E+00 0.  1.
<mgrwt>
<rscale>  0 0.77898997E+02</rscale>
<asrwt>0</asrwt>
<pdfrwt beam="1">  1        2 0.35283089E-02 0.77898997E+02</pdfrwt>
<pdfrwt beam="2">  1       -1 0.10176781E-01 0.77898997E+02</pdfrwt>
<totfact> 0.13762364E+05</totfact>
</mgrwt>
</event>
<event>
 8    1  0.1673046E-013  0.7967382E+02  0.7818608E-02  0.1329980E+00
          2   -1    0    0  501    0  0.00000000000E+00  0.00000000000E+00  0.51133106109E+03  0.51133106109E+03  0.25500000000E-02 0. -1.
         -1   -1    0    0    0  501 -0.00000000000E+00 -0.00000000000E+00 -0.31036217342E+01  0.31036258265E+01  0.50400000000E-02 0.  1.
         24    2    1    2    0    0 -0.17763568394E-14 -0.35527136788E-14  0.50822743935E+03  0.51443468692E+03  0.79673816246E+02 0.  0.
         66    2    3    3    0    0  0.12541628097E+02  0.19571607851E+02  0.46296102742E+03  0.46354854458E+03  0.20000002954E+01 0.  0.
        -13    1    3    3    0    0 -0.12541628097E+02 -0.19571607851E+02  0.45266411934E+02  0.50886142344E+02  0.10566000000E+00 0.  1.
         13    1    4    4    0    0  0.46105517267E+01  0.74766328441E+01  0.18032220327E+03  0.18053605009E+03  0.10566000000E+00 0. -1.
        -13    1    4    4    0    0  0.43492312142E+01  0.78872891691E+01  0.17879832202E+03  0.17902507161E+03  0.10566000000E+00 0.  1.
         14    1    4    4    0    0  0.35818451557E+01  0.42076858374E+01  0.10384050213E+03  0.10398742288E+03  0.00000000000E+00 0. -1.
<mgrwt>
<rscale>  0 0.79673816E+02</rscale>
<asrwt>0</asrwt>
<pdfrwt beam="1">  1        2 0.78666343E-01 0.79673816E+02</pdfrwt>
<pdfrwt beam="2">  1       -1 0.47748042E-03 0.79673816E+02</pdfrwt>
<totfact> 0.30996301E+05</totfact>
</mgrwt>
</event>
<event>
 8    1  0.1673046E-013  0.7951142E+02  0.7818608E-02  0.1330444E+00
         -1   -1    0    0    0  501 -0.00000000000E+00  0.00000000000E+00  0.11734982955E+03  0.11734982966E+03  0.50400000000E-02 0.  1.
          2   -1    0    0  501    0  0.00000000000E+00 -0.00000000000E+00 -0.13468416060E+02  0.13468416301E+02  0.25500000000E-02 0. -1.
         24    2    1    2    0    0  0.35527136788E-14  0.00000000000E+00  0.10388141349E+03  0.13081824596E+03  0.79511416836E+02 0.  0.
         66    2    3    3    0    0  0.31129775744E+02 -0.24207029598E+02  0.59943849052E+02  0.71779581065E+02  0.19999997003E+01 0.  0.
        -13    1    3    3    0    0 -0.31129775744E+02  0.24207029598E+02  0.43937564439E+02  0.59038664896E+02  0.10566000000E+00 0.  1.
         13    1    4    4    0    0  0.22256083758E+02 -0.18010667684E+02  0.44333912687E+02  0.52775225180E+02  0.10566000000E+00 0. -1.
        -13    1    4    4    0    0  0.46911170184E+01 -0.29320668509E+01  0.78494178818E+01  0.96035472622E+01  0.10566000000E+00 0.  1.
         14    1    4    4    0    0  0.41825749674E+01 -0.32642950627E+01  0.77605184836E+01  0.94008086221E+01  0.00000000000E+00 0. -1.
<mgrwt>
<rscale>  0 0.79511417E+02</rscale>
<asrwt>0</asrwt>
<pdfrwt beam="1">  1        2 0.20720640E-02 0.79511417E+02</pdfrwt>
<pdfrwt beam="2">  1       -1 0.18053820E-01 0.79511417E+02</pdfrwt>
<totfact> 0.11619722E+05</totfact>
</mgrwt>
</event>
<event>
 8    1  0.1673046E-013  0.8182008E+02  0.7818608E-02  0.1323964E+00
          2   -1    0    0  501    0  0.00000000000E+00  0.00000000000E+00  0.36167338791E+02  0.36167338881E+02  0.25500000000E-02 0. -1.
         -1   -1    0    0    0  501 -0.00000000000E+00 -0.00000000000E+00 -0.46274660771E+02  0.46274661046E+02  0.50400000000E-02 0.  1.
         24    2    1    2    0    0 -0.17763568394E-14 -0.35527136788E-14 -0.10107321980E+02  0.82441999927E+02  0.81820079408E+02 0.  0.
         66    2    3    3    0    0  0.14619033913E+02  0.28723486417E+02  0.20291485741E+02  0.38137897415E+02  0.20000002855E+01 0.  0.
        -13    1    3    3    0    0 -0.14619033913E+02 -0.28723486417E+02 -0.30398807721E+02  0.44304102512E+02  0.10566000000E+00 0.  1.
         13    1    4    4    0    0  0.64599996511E+01  0.13426049186E+02  0.90838873725E+01  0.17450460340E+02  0.10566000000E+00 0. -1.
        -13    1    4    4    0    0  0.78720924140E+01  0.14201269575E+02  0.10234203201E+02  0.19193644149E+02  0.10566000000E+00 0.  1.
        -14    1    4    4    0    0  0.28694184763E+00  0.10961676558E+01  0.97339516705E+00  0.14937929257E+01  0.00000000000E+00 0.  1.
<mgrwt>
<rscale>  0 0.81820079E+02</rscale>
<asrwt>0</asrwt>
<pdfrwt beam="1">  1        2 0.55642059E-02 0.81820079E+02</pdfrwt>
<pdfrwt beam="2">  1       -1 0.71191787E-02 0.81820079E+02</pdfrwt>
<totfact> 0.13118573E+05</totfact>
</mgrwt>
</event>
<event>
 8    1  0.1673046E-013  0.7859561E+02  0.7818608E-02  0.1333085E+00
          2   -1    0    0  501    0  0.00000000000E+00  0.00000000000E+00  0.18898346945E+03  0.18898346947E+03  0.25500000000E-02 0. -1.
         -1   -1    0    0    0  501 -0.00000000000E+00 -0.00000000000E+00 -0.81717067115E+01  0.81717082657E+01  0.50400000000E-02 0.  1.
         24    2    1    2    0    0  0.00000000000E+00  0.00000000000E+00  0.18081176274E+03  0.19715517773E+03  0.78595614141E+02 0.  0.
         66    2    3    3    0    0 -0.27535554753E+02  0.27684004085E+02  0.10101830884E+03  0.10832040241E+03  0.19999998594E+01 0.  0.
        -13    1    3    3    0    0  0.27535554753E+02 -0.27684004085E+02  0.79793453895E+02  0.88834775321E+02  0.10566000000E+00 0.  1.
         13    1    4    4    0    0 -0.23009641992E+02  0.22313885162E+02  0.82482465537E+02  0.88491363311E+02  0.10566000000E+00 0. -1.
        -13    1    4    4    0    0 -0.24000873210E+01  0.27861028409E+01  0.10426464806E+02  0.11056451536E+02  0.10566000000E+00 0.  1.
         14    1    4    4    0    0 -0.21258254395E+01  0.25840160816E+01  0.81093784999E+01  0.87725875638E+01  0.00000000000E+00 0. -1.
<mgrwt>
<rscale>  0 0.78595614E+02</rscale>
<asrwt>0</asrwt>
<pdfrwt beam="1">  1        2 0.29074378E-01 0.78595614E+02</pdfrwt>
<pdfrwt beam="2">  1       -1 0.12571859E-02 0.78595614E+02</pdfrwt>
<totfact> 0.22666137E+05</totfact>
</mgrwt>
</event>
<event>
 8    1  0.1673046E-013  0.8007182E+02  0.7818608E-02  0.1328848E+00
         -1   -1    0    0    0  501 -0.00000000000E+00  0.00000000000E+00  0.11106177176E+03  0.11106177187E+03  0.50400000000E-02 0.  1.
          2   -1    0    0  501    0  0.00000000000E+00 -0.00000000000E+00 -0.14432274250E+02  0.14432274475E+02  0.25500000000E-02 0. -1.
         24    2    1    2    0    0  0.00000000000E+00  0.00000000000E+00  0.96629497507E+02  0.12549404635E+03  0.80071817014E+02 0.  0.
         66    2    3    3    0    0 -0.28733539920E+02 -0.27821039020E+02  0.50091787635E+02  0.64131222644E+02  0.20000002307E+01 0.  0.
        -13    1    3    3    0    0  0.28733539920E+02  0.27821039020E+02  0.46537709872E+02  0.61362823702E+02  0.10566000000E+00 0.  1.
         13    1    4    4    0    0 -0.22236542943E+02 -0.21452261888E+02  0.38410374521E+02  0.49295348838E+02  0.10566000000E+00 0. -1.
        -13    1    4    4    0    0 -0.80156663227E+00 -0.45858499089E+00  0.13917135743E+01  0.16735710228E+01  0.10566000000E+00 0.  1.
         14    1    4    4    0    0 -0.56954303451E+01 -0.59101921417E+01  0.10289699539E+02  0.13162302784E+02  0.00000000000E+00 0. -1.
<mgrwt>
<rscale>  0 0.80071817E+02</rscale>
<asrwt>0</asrwt>
<pdfrwt beam="1">  1        2 0.22203500E-02 0.80071817E+02</pdfrwt>
<pdfrwt beam="2">  1       -1 0.17086426E-01 0.80071817E+02</pdfrwt>
<totfact> 0.11558912E+05</totfact>
</mgrwt>
</event>
<event>
 8    1  0.1673046E-013  0.7879487E+02  0.7818608E-02  0.1332507E+00
         -1   -1    0    0    0  501 -0.00000000000E+00  0.00000000000E+00  0.13216774417E+01  0.13216870512E+01  0.50400000000E-02 0.  1.
          2   -1    0    0  501    0  0.00000000000E+00 -0.00000000000E+00 -0.11743806585E+04  0.11743806585E+04  0.25500000000E-02 0. -1.
         24    2    1    2    0    0  0.00000000000E+00 -0.71054273576E-14 -0.11730589811E+04  0.11757023456E+04  0.78794874831E+02 0.  0.
         66    2    3    3    0    0  0.72240704291E+01 -0.21760782772E+02 -0.10644811841E+04  0.10647299705E+04  0.19999994379E+01 0.  0.
        -13    1    3    3    0    0 -0.72240704291E+01  0.21760782772E+02 -0.10857779696E+03  0.11097237502E+03  0.10566000000E+00 0.  1.
         13    1    4    4    0    0  0.14093514503E+01 -0.42706173781E+01 -0.21869821114E+03  0.21874447002E+03  0.10566000000E+00 0. -1.
        -13    1    4    4    0    0  0.62664406983E+00 -0.94261799413E+00 -0.65250419717E+02  0.65260322162E+02  0.10566000000E+00 0. -1.
        -14    1    4    4    0    0  0.51880749090E+01 -0.16547547400E+02 -0.78053255325E+03  0.78072517836E+03  0.00000000000E+00 0.  1.
<mgrwt>
<rscale>  0 0.78794875E+02</rscale>
<asrwt>0</asrwt>
<pdfrwt beam="1">  1        2 0.18067311E+00 0.78794875E+02</pdfrwt>
<pdfrwt beam="2">  1       -1 0.20333667E-03 0.78794875E+02</pdfrwt>
<totfact> 0.36523871E+05</totfact>
</mgrwt>
</event>
<event>
 8    1  0.1673046E-013  0.7933843E+02  0.7818608E-02  0.1330939E+00
          2   -1    0    0  501    0  0.00000000000E+00  0.00000000000E+00  0.20802375602E+02  0.20802375758E+02  0.25500000000E-02 0. -1.
         -1   -1    0    0    0  501 -0.00000000000E+00 -0.00000000000E+00 -0.75647437361E+02  0.75647437528E+02  0.50400000000E-02 0.  1.
         24    2    1    2    0    0  0.00000000000E+00  0.00000000000E+00 -0.54845061759E+02  0.96449813287E+02  0.79338425014E+02 0.  0.
         66    2    3    3    0    0  0.34521767500E+02 -0.15308939758E+02 -0.12774734415E+02  0.39916286290E+02  0.20000009834E+01 0.  0.
        -13    1    3    3    0    0 -0.34521767500E+02  0.15308939758E+02 -0.42070327344E+02  0.56533526997E+02  0.10566000000E+00 0.  1.
         13    1    4    4    0    0  0.83855617720E+01 -0.39788198453E+01 -0.35179235084E+01  0.99265101340E+01  0.10566000000E+00 0. -1.
        -13    1    4    4    0    0  0.18548571498E+02 -0.73975043692E+01 -0.68380365157E+01  0.21107877272E+02  0.10566000000E+00 0.  1.
        -14    1    4    4    0    0  0.75876342300E+01 -0.39326155435E+01 -0.24187743911E+01  0.88818988835E+01  0.00000000000E+00 0.  1.
<mgrwt>
<rscale>  0 0.79338425E+02</rscale>
<asrwt>0</asrwt>
<pdfrwt beam="1">  1        2 0.32003655E-02 0.79338425E+02</pdfrwt>
<pdfrwt beam="2">  1       -1 0.11638067E-01 0.79338425E+02</pdfrwt>
<totfact> 0.12815597E+05</totfact>
</mgrwt>
</event>
<event>
 8    1  0.1673046E-013  0.8475436E+02  0.7818608E-02  0.1316076E+00
          2   -1    0    0  501    0  0.00000000000E+00  0.00000000000E+00  0.16022764354E+03  0.16022764356E+03  0.25500000000E-02 0. -1.
         -1   -1    0    0    0  501 -0.00000000000E+00 -0.00000000000E+00 -0.11207960341E+02  0.11207961474E+02  0.50400000000E-02 0.  1.
         24    2    1    2    0    0  0.00000000000E+00 -0.71054273576E-14  0.14901968320E+03  0.17143560504E+03  0.84754355008E+02 0.  0.
         66    2    3    3    0    0 -0.58228957318E+01  0.41153220639E+02  0.58077847682E+02  0.71445994100E+02  0.19999994731E+01 0.  0.
        -13    1    3    3    0    0  0.58228957318E+01 -0.41153220639E+02  0.90941835520E+02  0.99989610938E+02  0.10566000000E+00 0.  1.
         13    1    4    4    0    0 -0.16475995064E-01  0.11562391237E+01  0.12931900900E+01  0.17380060455E+01  0.10566000000E+00 0. -1.
        -13    1    4    4    0    0 -0.23140105693E+01  0.15573898415E+02  0.21207964922E+02  0.26413820188E+02  0.10566000000E+00 0.  1.
         14    1    4    4    0    0 -0.34924091675E+01  0.24423083100E+02  0.35576692670E+02  0.43294167867E+02  0.00000000000E+00 0. -1.
<mgrwt>
<rscale>  0 0.84754355E+02</rscale>
<asrwt>0</asrwt>
<pdfrwt beam="1">  1        2 0.24650406E-01 0.84754355E+02</pdfrwt>
<pdfrwt beam="2">  1       -1 0.17243017E-02 0.84754355E+02</pdfrwt>
<totfact> 0.17553093E+05</totfact>
</mgrwt>
</event>
<event>
 8    1  0.1673046E-013  0.8617616E+02  0.7818608E-02  0.1312385E+00
          2   -1    0    0  501    0  0.00000000000E+00  0.00000000000E+00  0.18039913543E+02  0.18039913723E+02  0.25500000000E-02 0. -1.
         -1   -1    0    0    0  501 -0.00000000000E+00 -0.00000000000E+00 -0.10291527870E+03  0.10291527883E+03  0.50400000000E-02 0.  1.
         24    2    1    2    0    0  0.00000000000E+00 -0.71054273576E-14 -0.84875365160E+02  0.12095519255E+03  0.86176162561E+02 0.  0.
         66    2    3    3    0    0  0.49223484189E+01  0.27623452714E+02  0.33937323242E+01  0.28333762046E+02  0.19999996983E+01 0.  0.
        -13    1    3    3    0    0 -0.49223484189E+01 -0.27623452714E+02 -0.88269097485E+02  0.92621430504E+02  0.10566000000E+00 0.  1.
         13    1    4    4    0    0  0.25657819539E+01  0.17698364686E+02  0.14271785694E+01  0.17940550502E+02  0.10566000000E+00 0. -1.
        -13    1    4    4    0    0  0.75906641665E+00  0.27595431348E+01  0.54335071796E+00  0.29150736142E+01  0.10566000000E+00 0.  1.
         14    1    4    4    0    0  0.15975000484E+01  0.71655448933E+01  0.14232030368E+01  0.74781379304E+01  0.00000000000E+00 0. -1.
<mgrwt>
<rscale>  0 0.86176163E+02</rscale>
<asrwt>0</asrwt>
<pdfrwt beam="1">  1        2 0.27753714E-02 0.86176163E+02</pdfrwt>
<pdfrwt beam="2">  1       -1 0.15833119E-01 0.86176163E+02</pdfrwt>
<totfact> 0.97851405E+04</totfact>
</mgrwt>
</event>
<event>
 8    1  0.1673046E-013  0.7881012E+02  0.7818608E-02  0.1332462E+00
          2   -1    0    0  501    0  0.00000000000E+00  0.00000000000E+00  0.29535817691E+03  0.29535817692E+03  0.25500000000E-02 0. -1.
         -1   -1    0    0    0  501 -0.00000000000E+00 -0.00000000000E+00 -0.52572049659E+01  0.52572073818E+01  0.50400000000E-02 0.  1.
         24    2    1    2    0    0  0.00000000000E+00  0.00000000000E+00  0.29010097194E+03  0.30061538430E+03  0.78810122171E+02 0.  0.
         66    2    3    3    0    0  0.49042507381E+01 -0.92722298766E+01  0.28992751501E+03  0.29012409394E+03  0.20000004863E+01 0.  0.
        -13    1    3    3    0    0 -0.49042507381E+01  0.92722298766E+01  0.17345693573E+00  0.10491290365E+02  0.10566000000E+00 0.  1.
         13    1    4    4    0    0  0.15593521128E+01 -0.30718523507E+01  0.84192923592E+02  0.84263440488E+02  0.10566000000E+00 0. -1.
        -13    1    4    4    0    0  0.33388584691E+01 -0.51700975332E+01  0.17083728016E+03  0.17094813641E+03  0.10566000000E+00 0.  1.
        -14    1    4    4    0    0  0.60401561609E-02 -0.10302799927E+01  0.34897311252E+02  0.34912517038E+02  0.00000000000E+00 0.  1.
<mgrwt>
<rscale>  0 0.78810122E+02</rscale>
<asrwt>0</asrwt>
<pdfrwt beam="1">  1        2 0.45439725E-01 0.78810122E+02</pdfrwt>
<pdfrwt beam="2">  1       -1 0.80880085E-03 0.78810122E+02</pdfrwt>
<totfact> 0.26366191E+05</totfact>
</mgrwt>
</event>
<event>
 8    1  0.1673046E-013  0.7978995E+02  0.7818608E-02  0.1329649E+00
          2   -1    0    0  501    0  0.00000000000E+00  0.00000000000E+00  0.70866056716E+03  0.70866056717E+03  0.25500000000E-02 0. -1.
         -1   -1    0    0    0  501 -0.00000000000E+00 -0.00000000000E+00 -0.22459371813E+01  0.22459428363E+01  0.50400000000E-02 0.  1.
         24    2    1    2    0    0  0.88817841970E-15 -0.71054273576E-14  0.70641462998E+03  0.71090651000E+03  0.79789952462E+02 0.  0.
         66    2    3    3    0    0 -0.41425389599E+01  0.35361628915E+02  0.51330759347E+03  0.51454474147E+03  0.20000072466E+01 0.  0.
        -13    1    3    3    0    0  0.41425389599E+01 -0.35361628915E+02  0.19310703651E+03  0.19636176854E+03  0.10566000000E+00 0.  1.
         13    1    4    4    0    0 -0.28818332961E+01  0.17604514877E+02  0.25752367010E+03  0.25814080602E+03  0.10566000000E+00 0. -1.
        -13    1    4    4    0    0 -0.12075321546E+01  0.17516507794E+02  0.25329486668E+03  0.25390271135E+03  0.10566000000E+00 0.  1.
        -14    1    4    4    0    0 -0.53173509111E-01  0.24060624310E+00  0.24890566895E+01  0.25012240983E+01  0.00000000000E+00 0.  1.
<mgrwt>
<rscale>  0 0.79789952E+02</rscale>
<asrwt>0</asrwt>
<pdfrwt beam="1">  1        2 0.10902462E+00 0.79789952E+02</pdfrwt>
<pdfrwt beam="2">  1       -1 0.34552948E-03 0.79789952E+02</pdfrwt>
<totfact> 0.33775006E+05</totfact>
</mgrwt>
</event>
<event>
 8    1  0.1673046E-013  0.8033250E+02  0.7818608E-02  0.1328110E+00
         -1   -1    0    0    0  501 -0.00000000000E+00  0.00000000000E+00  0.22011856928E+02  0.22011857505E+02  0.50400000000E-02 0.  1.
          2   -1    0    0  501    0  0.00000000000E+00 -0.00000000000E+00 -0.73293569929E+02  0.73293569974E+02  0.25500000000E-02 0. -1.
         24    2    1    2    0    0  0.00000000000E+00  0.35527136788E-14 -0.51281713001E+02  0.95305427479E+02  0.80332499144E+02 0.  0.
         66    2    3    3    0    0  0.29172006670E+02  0.19124811179E+02 -0.49222491145E+02  0.60362389052E+02  0.20000004499E+01 0.  0.
        -13    1    3    3    0    0 -0.29172006670E+02 -0.19124811179E+02 -0.20592218562E+01  0.34943038427E+02  0.10566000000E+00 0.  1.
         13    1    4    4    0    0  0.99215748677E+01  0.69031022391E+01 -0.17028533818E+02  0.20882351314E+02  0.10566000000E+00 0. -1.
        -13    1    4    4    0    0  0.66713986581E+01  0.41246673197E+01 -0.98773208395E+01  0.12613210200E+02  0.10566000000E+00 0.  1.
        -14    1    4    4    0    0  0.12579033144E+02  0.80970416206E+01 -0.22316636488E+02  0.26866827538E+02  0.00000000000E+00 0.  1.
<mgrwt>
<rscale>  0 0.80332499E+02</rscale>
<asrwt>0</asrwt>
<pdfrwt beam="1">  1        2 0.11275934E-01 0.80332499E+02</pdfrwt>
<pdfrwt beam="2">  1       -1 0.33864396E-02 0.80332499E+02</pdfrwt>
<totfact> 0.16148305E+05</totfact>
</mgrwt>
</event>
<event>
 8    1  0.1673046E-013  0.7692652E+02  0.7818608E-02  0.1338007E+00
          2   -1    0    0  501    0  0.00000000000E+00  0.00000000000E+00  0.50754132036E+03  0.50754132036E+03  0.25500000000E-02 0. -1.
         -1   -1    0    0    0  501 -0.00000000000E+00 -0.00000000000E+00 -0.29148786186E+01  0.29148829758E+01  0.50400000000E-02 0.  1.
         24    2    1    2    0    0  0.00000000000E+00  0.00000000000E+00  0.50462644174E+03  0.51045620334E+03  0.76926522253E+02 0.  0.
         66    2    3    3    0    0  0.26244343169E+02  0.11798198864E+01  0.43866692033E+03  0.43945742059E+03  0.19999992076E+01 0.  0.
        -13    1    3    3    0    0 -0.26244343169E+02 -0.11798198864E+01  0.65959521405E+02  0.70998782746E+02  0.10566000000E+00 0.  1.
         13    1    4    4    0    0  0.16735321033E+02 -0.14572379552E+00  0.27918013377E+03  0.27968133735E+03  0.10566000000E+00 0. -1.
        -13    1    4    4    0    0  0.44397916129E+01  0.71602815872E+00  0.77606350712E+02  0.77736614801E+02  0.10566000000E+00 0.  1.
        -14    1    4    4    0    0  0.50692305228E+01  0.60951552320E+00  0.81880435851E+02  0.82039468443E+02  0.00000000000E+00 0.  1.
<mgrwt>
<rscale>  0 0.76926522E+02</rscale>
<asrwt>0</asrwt>
<pdfrwt beam="1">  1        2 0.78083310E-01 0.76926522E+02</pdfrwt>
<pdfrwt beam="2">  1       -1 0.44844303E-03 0.76926522E+02</pdfrwt>
<totfact> 0.33878083E+05</totfact>
</mgrwt>
</event>
<event>
 8    1  0.1673046E-013  0.7923967E+02  0.7818608E-02  0.1331223E+00
         -1   -1    0    0    0  501 -0.00000000000E+00  0.00000000000E+00  0.35468449291E+01  0.35468485100E+01  0.50400000000E-02 0.  1.
          2   -1    0    0  501    0  0.00000000000E+00 -0.00000000000E+00 -0.44257094579E+03  0.44257094579E+03  0.25500000000E-02 0. -1.
         24    2    1    2    0    0  0.35527136788E-14  0.00000000000E+00 -0.43902410086E+03  0.44611779430E+03  0.79239669742E+02 0.  0.
         66    2    3    3    0    0  0.29675662397E+02  0.21423863608E+02 -0.30468088881E+03  0.30687794133E+03  0.19999986450E+01 0.  0.
        -13    1    3    3    0    0 -0.29675662397E+02 -0.21423863608E+02 -0.13434321205E+03  0.13923985298E+03  0.10566000000E+00 0.  1.
         13    1    4    4    0    0  0.50913262341E+00  0.32317691523E+00 -0.42910601101E+01  0.43345149960E+01  0.10566000000E+00 0.  1.
        -13    1    4    4    0    0  0.12738828068E+02  0.99354281460E+01 -0.13026828745E+03  0.13126624986E+03  0.10566000000E+00 0.  1.
         14    1    4    4    0    0  0.16427701706E+02  0.11165258547E+02 -0.17012154126E+03  0.17127717647E+03  0.00000000000E+00 0. -1.
<mgrwt>
<rscale>  0 0.79239670E+02</rscale>
<asrwt>0</asrwt>
<pdfrwt beam="1">  1        2 0.68087794E-01 0.79239670E+02</pdfrwt>
<pdfrwt beam="2">  1       -1 0.54566908E-03 0.79239670E+02</pdfrwt>
<totfact> 0.29991786E+05</totfact>
</mgrwt>
</event>
<event>
 8    1  0.1673046E-013  0.8098062E+02  0.7818608E-02  0.1326291E+00
         -1   -1    0    0    0  501 -0.00000000000E+00  0.00000000000E+00  0.98758862177E+02  0.98758862306E+02  0.50400000000E-02 0.  1.
          2   -1    0    0  501    0  0.00000000000E+00 -0.00000000000E+00 -0.16600689703E+02  0.16600689899E+02  0.25500000000E-02 0. -1.
         24    2    1    2    0    0  0.71054273576E-14  0.00000000000E+00  0.82158172474E+02  0.11535955220E+03  0.80980621019E+02 0.  0.
         66    2    3    3    0    0 -0.32888248661E+02 -0.23491843166E+02  0.38270479448E+02  0.55696797001E+02  0.20000009127E+01 0.  0.
        -13    1    3    3    0    0  0.32888248661E+02  0.23491843166E+02  0.43887693025E+02  0.59662755203E+02  0.10566000000E+00 0.  1.
         13    1    4    4    0    0 -0.22503430719E+02 -0.15821355141E+02  0.24813369749E+02  0.37046378433E+02  0.10566000000E+00 0. -1.
        -13    1    4    4    0    0 -0.63102216793E+01 -0.47704724577E+01  0.83235217380E+01  0.11483400336E+02  0.10566000000E+00 0. -1.
        -14    1    4    4    0    0 -0.40745962625E+01 -0.29000155678E+01  0.51335879615E+01  0.71670182332E+01  0.00000000000E+00 0.  1.
<mgrwt>
<rscale>  0 0.80980621E+02</rscale>
<asrwt>0</asrwt>
<pdfrwt beam="1">  1        2 0.25539523E-02 0.80980621E+02</pdfrwt>
<pdfrwt beam="2">  1       -1 0.15193671E-01 0.80980621E+02</pdfrwt>
<totfact> 0.11529415E+05</totfact>
</mgrwt>
</event>
<event>
 8    1  0.1673046E-013  0.7525723E+02  0.7818608E-02  0.1343076E+00
          2   -1    0    0  501    0  0.00000000000E+00  0.00000000000E+00  0.11462233281E+03  0.11462233284E+03  0.25500000000E-02 0. -1.
         -1   -1    0    0    0  501 -0.00000000000E+00 -0.00000000000E+00 -0.12352851658E+02  0.12352852686E+02  0.50400000000E-02 0.  1.
         24    2    1    2    0    0  0.00000000000E+00  0.00000000000E+00  0.10226948115E+03  0.12697518552E+03  0.75257231969E+02 0.  0.
         66    2    3    3    0    0 -0.27627377015E+02  0.24330281774E+02  0.64094571983E+02  0.73941522385E+02  0.20000007255E+01 0.  0.
        -13    1    3    3    0    0  0.27627377015E+02 -0.24330281774E+02  0.38174909168E+02  0.53033663139E+02  0.10566000000E+00 0.  1.
         13    1    4    4    0    0 -0.96152674188E+01  0.82829226519E+01  0.21080476274E+02  0.24606052491E+02  0.10566000000E+00 0. -1.
        -13    1    4    4    0    0 -0.92992420818E+01  0.90069664571E+01  0.22249254718E+02  0.25741830696E+02  0.10566000000E+00 0.  1.
        -14    1    4    4    0    0 -0.87128675140E+01  0.70403926649E+01  0.20764840992E+02  0.23593639198E+02  0.00000000000E+00 0.  1.
<mgrwt>
<rscale>  0 0.75257232E+02</rscale>
<asrwt>0</asrwt>
<pdfrwt beam="1">  1        2 0.17634205E-01 0.75257232E+02</pdfrwt>
<pdfrwt beam="2">  1       -1 0.19004388E-02 0.75257232E+02</pdfrwt>
<totfact> 0.21688291E+05</totfact>
</mgrwt>
</event>
<event>
 8    1  0.1673046E-013  0.8146064E+02  0.7818608E-02  0.1324957E+00
          2   -1    0    0  501    0  0.00000000000E+00  0.00000000000E+00  0.24692112230E+03  0.24692112232E+03  0.25500000000E-02 0. -1.
         -1   -1    0    0    0  501 -0.00000000000E+00 -0.00000000000E+00 -0.67185772841E+01  0.67185791745E+01  0.50400000000E-02 0.  1.
         24    2    1    2    0    0  0.00000000000E+00  0.17763568394E-14  0.24020254502E+03  0.25363970149E+03  0.81460637972E+02 0.  0.
         66    2    3    3    0    0 -0.96137959992E+01 -0.15650051799E+02  0.23328095328E+03  0.23401143639E+03  0.20000000342E+01 0.  0.
        -13    1    3    3    0    0  0.96137959992E+01  0.15650051799E+02  0.69215917365E+01  0.19628265105E+02  0.10566000000E+00 0.  1.
         13    1    4    4    0    0 -0.18071755892E+01 -0.26953458525E+01  0.41789640704E+02  0.41915581912E+02  0.10566000000E+00 0. -1.
        -13    1    4    4    0    0 -0.56892210664E+01 -0.85586976669E+01  0.12086113446E+03  0.12129733521E+03  0.10566000000E+00 0.  1.
        -14    1    4    4    0    0 -0.21173993437E+01 -0.43960082797E+01  0.70630178124E+02  0.70798519268E+02  0.00000000000E+00 0.  1.
<mgrwt>
<rscale>  0 0.81460638E+02</rscale>
<asrwt>0</asrwt>
<pdfrwt beam="1">  1        2 0.37987865E-01 0.81460638E+02</pdfrwt>
<pdfrwt beam="2">  1       -1 0.10336274E-02 0.81460638E+02</pdfrwt>
<totfact> 0.22657660E+05</totfact>
</mgrwt>
</event>
<event>
 8    1  0.1673046E-013  0.7950665E+02  0.7818608E-02  0.1330457E+00
         -1   -1    0    0    0  501 -0.00000000000E+00  0.00000000000E+00  0.39709735010E+01  0.39709766994E+01  0.50400000000E-02 0.  1.
          2   -1    0    0  501    0  0.00000000000E+00 -0.00000000000E+00 -0.39796949372E+03  0.39796949373E+03  0.25500000000E-02 0. -1.
         24    2    1    2    0    0  0.35527136788E-14  0.71054273576E-14 -0.39399852022E+03  0.40194047043E+03  0.79506652758E+02 0.  0.
         66    2    3    3    0    0  0.20779238277E+02  0.31437974856E+02 -0.26070936802E+03  0.26342645574E+03  0.20000012173E+01 0.  0.
        -13    1    3    3    0    0 -0.20779238277E+02 -0.31437974856E+02 -0.13328915220E+03  0.13851401469E+03  0.10566000000E+00 0.  1.
         13    1    4    4    0    0  0.23812920931E+01  0.30627815552E+01 -0.25266515040E+02  0.25562846657E+02  0.10566000000E+00 0. -1.
        -13    1    4    4    0    0  0.65185640353E+01  0.88192058943E+01 -0.76851370959E+02  0.77629984232E+02  0.10566000000E+00 0. -1.
        -14    1    4    4    0    0  0.11879382149E+02  0.19555987407E+02 -0.15859148202E+03  0.16023362485E+03  0.00000000000E+00 0.  1.
<mgrwt>
<rscale>  0 0.79506653E+02</rscale>
<asrwt>0</asrwt>
<pdfrwt beam="1">  1        2 0.61226045E-01 0.79506653E+02</pdfrwt>
<pdfrwt beam="2">  1       -1 0.61091956E-03 0.79506653E+02</pdfrwt>
<totfact> 0.28662685E+05</totfact>
</mgrwt>
</event>
<event>
 8    1  0.1673046E-013  0.8015408E+02  0.7818608E-02  0.1328615E+00
          2   -1    0    0  501    0  0.00000000000E+00  0.00000000000E+00  0.33695701626E+03  0.33695701627E+03  0.25500000000E-02 0. -1.
         -1   -1    0    0    0  501 -0.00000000000E+00 -0.00000000000E+00 -0.47666871034E+01  0.47666897679E+01  0.50400000000E-02 0.  1.
         24    2    1    2    0    0  0.88817841970E-15  0.00000000000E+00  0.33219032916E+03  0.34172370604E+03  0.80154079640E+02 0.  0.
         66    2    3    3    0    0  0.48504783138E+01 -0.29953646529E+02  0.27765136591E+03  0.27931170594E+03  0.20000006620E+01 0.  0.
        -13    1    3    3    0    0 -0.48504783138E+01  0.29953646529E+02  0.54538963246E+02  0.62412000098E+02  0.10566000000E+00 0.  1.
         13    1    4    4    0    0  0.30994327090E+01 -0.14906996371E+02  0.14144992807E+03  0.14226706695E+03  0.10566000000E+00 0. -1.
        -13    1    4    4    0    0  0.16672828352E+00 -0.53514668490E+01  0.48282242330E+02  0.48578308783E+02  0.10566000000E+00 0.  1.
        -14    1    4    4    0    0  0.15843173213E+01 -0.96951833091E+01  0.87919195514E+02  0.88466330209E+02  0.00000000000E+00 0.  1.
<mgrwt>
<rscale>  0 0.80154080E+02</rscale>
<asrwt>0</asrwt>
<pdfrwt beam="1">  1        2 0.51839558E-01 0.80154080E+02</pdfrwt>
<pdfrwt beam="2">  1       -1 0.73333645E-03 0.80154080E+02</pdfrwt>
<totfact> 0.26452080E+05</totfact>
</mgrwt>
</event>
<event>
 8    1  0.1673046E-013  0.8128710E+02  0.7818608E-02  0.1325438E+00
          2   -1    0    0  501    0  0.00000000000E+00  0.00000000000E+00  0.58503139077E+02  0.58503139133E+02  0.25500000000E-02 0. -1.
         -1   -1    0    0    0  501 -0.00000000000E+00 -0.00000000000E+00 -0.28236059913E+02  0.28236060363E+02  0.50400000000E-02 0.  1.
         24    2    1    2    0    0  0.00000000000E+00  0.00000000000E+00  0.30267079164E+02  0.86739199496E+02  0.81287100133E+02 0.  0.
         66    2    3    3    0    0  0.11271237221E+02 -0.28158023186E+02  0.43972944750E+02  0.53455915798E+02  0.20000013834E+01 0.  0.
        -13    1    3    3    0    0 -0.11271237221E+02  0.28158023186E+02 -0.13705865586E+02  0.33283283698E+02  0.10566000000E+00 0.  1.
         13    1    4    4    0    0  0.57641044797E+01 -0.13525638924E+02  0.21309638220E+02  0.25889759633E+02  0.10566000000E+00 0. -1.
        -13    1    4    4    0    0  0.15500893525E+01 -0.39856450419E+01  0.72832822536E+01  0.84466270086E+01  0.10566000000E+00 0.  1.
        -14    1    4    4    0    0  0.39570433893E+01 -0.10646739220E+02  0.15380024276E+02  0.19119529156E+02  0.00000000000E+00 0.  1.
<mgrwt>
<rscale>  0 0.81287100E+02</rscale>
<asrwt>0</asrwt>
<pdfrwt beam="1">  1        2 0.90004827E-02 0.81287100E+02</pdfrwt>
<pdfrwt beam="2">  1       -1 0.43440094E-02 0.81287100E+02</pdfrwt>
<totfact> 0.14817021E+05</totfact>
</mgrwt>
</event>
<event>
 8    1  0.1673046E-013  0.7059431E+02  0.7818608E-02  0.1358084E+00
         -1   -1    0    0    0  501 -0.00000000000E+00  0.00000000000E+00  0.65956297118E+01  0.65956316374E+01  0.50400000000E-02 0.  1.
          2   -1    0    0  501    0  0.00000000000E+00 -0.00000000000E+00 -0.18889616185E+03  0.18889616187E+03  0.25500000000E-02 0. -1.
         24    2    1    2    0    0  0.00000000000E+00  0.00000000000E+00 -0.18230053214E+03  0.19549179351E+03  0.70594314997E+02 0.  0.
         66    2    3    3    0    0  0.40389123259E+01  0.98535897989E+01 -0.18433185686E+03  0.18465004601E+03  0.19999983078E+01 0.  0.
        -13    1    3    3    0    0 -0.40389123259E+01 -0.98535897989E+01  0.20313247172E+01  0.10841747500E+02  0.10566000000E+00 0.  1.
         13    1    4    4    0    0  0.19753248116E+01  0.30646925152E+01 -0.73363998613E+02  0.73454623441E+02  0.10566000000E+00 0. -1.
        -13    1    4    4    0    0  0.80460417956E+00  0.33526645799E+01 -0.52816535599E+02  0.52929059546E+02  0.10566000000E+00 0.  1.
         14    1    4    4    0    0  0.12589833347E+01  0.34362327038E+01 -0.58151322647E+02  0.58266363022E+02  0.00000000000E+00 0. -1.
<mgrwt>
<rscale>  0 0.70594315E+02</rscale>
<asrwt>0</asrwt>
<pdfrwt beam="1">  1        2 0.29060944E-01 0.70594315E+02</pdfrwt>
<pdfrwt beam="2">  1       -1 0.10147126E-02 0.70594315E+02</pdfrwt>
<totfact> 0.30021387E+05</totfact>
</mgrwt>
</event>
<event>
 8    1  0.1673046E-013  0.7905373E+02  0.7818608E-02  0.1331758E+00
          2   -1    0    0  501    0  0.00000000000E+00  0.00000000000E+00  0.13850523364E+02  0.13850523598E+02  0.25500000000E-02 0. -1.
         -1   -1    0    0    0  501 -0.00000000000E+00 -0.00000000000E+00 -0.11280245508E+03  0.11280245519E+03  0.50400000000E-02 0.  1.
         24    2    1    2    0    0  0.00000000000E+00  0.00000000000E+00 -0.98951931714E+02  0.12665297879E+03  0.79053730122E+02 0.  0.
         66    2    3    3    0    0 -0.43033401353E+01 -0.38001032534E+02 -0.33665987667E+02  0.50990155261E+02  0.19999994914E+01 0.  0.
        -13    1    3    3    0    0  0.43033401353E+01  0.38001032534E+02 -0.65285944047E+02  0.75662823528E+02  0.10566000000E+00 0.  1.
         13    1    4    4    0    0 -0.12140911350E+01 -0.11332197043E+02 -0.10468358822E+02  0.15475477620E+02  0.10566000000E+00 0. -1.
        -13    1    4    4    0    0 -0.11621316631E+01 -0.12614692440E+02 -0.11881025399E+02  0.17368101334E+02  0.10566000000E+00 0.  1.
        -14    1    4    4    0    0 -0.19271173372E+01 -0.14054143052E+02 -0.11316603445E+02  0.18146576308E+02  0.00000000000E+00 0.  1.
<mgrwt>
<rscale>  0 0.79053730E+02</rscale>
<asrwt>0</asrwt>
<pdfrwt beam="1">  1        2 0.21308498E-02 0.79053730E+02</pdfrwt>
<pdfrwt beam="2">  1       -1 0.17354223E-01 0.79053730E+02</pdfrwt>
<totfact> 0.11894035E+05</totfact>
</mgrwt>
</event>
<event>
 8    1  0.1673046E-013  0.7952018E+02  0.7818608E-02  0.1330419E+00
         -1   -1    0    0    0  501 -0.00000000000E+00  0.00000000000E+00  0.17565329534E+02  0.17565330257E+02  0.50400000000E-02 0.  1.
          2   -1    0    0  501    0  0.00000000000E+00 -0.00000000000E+00 -0.89999159885E+02  0.89999159921E+02  0.25500000000E-02 0. -1.
         24    2    1    2    0    0 -0.35527136788E-14 -0.35527136788E-14 -0.72433830351E+02  0.10756449018E+03  0.79520184656E+02 0.  0.
         66    2    3    3    0    0 -0.22598171985E+02  0.26295082656E+02 -0.62495175908E+02  0.71496543672E+02  0.19999990818E+01 0.  0.
        -13    1    3    3    0    0  0.22598171985E+02 -0.26295082656E+02 -0.99386544427E+01  0.36067946505E+02  0.10566000000E+00 0.  1.
         13    1    4    4    0    0 -0.54538709570E+01  0.68242400243E+01 -0.15194795526E+02  0.17527348215E+02  0.10566000000E+00 0. -1.
        -13    1    4    4    0    0 -0.17158478657E+02  0.19371167562E+02 -0.47190518349E+02  0.53820179381E+02  0.10566000000E+00 0.  1.
        -14    1    4    4    0    0  0.14177629314E-01  0.99675069315E-01 -0.10986203314E+00  0.14901607612E+00  0.00000000000E+00 0.  1.
<mgrwt>
<rscale>  0 0.79520185E+02</rscale>
<asrwt>0</asrwt>
<pdfrwt beam="1">  1        2 0.13846024E-01 0.79520185E+02</pdfrwt>
<pdfrwt beam="2">  1       -1 0.27023585E-02 0.79520185E+02</pdfrwt>
<totfact> 0.17501122E+05</totfact>
</mgrwt>
</event>
<event>
 8    1  0.1673046E-013  0.7968240E+02  0.7818608E-02  0.1329955E+00
          2   -1    0    0  501    0  0.00000000000E+00  0.00000000000E+00  0.20944699750E+03  0.20944699751E+03  0.25500000000E-02 0. -1.
         -1   -1    0    0    0  501 -0.00000000000E+00 -0.00000000000E+00 -0.75786292621E+01  0.75786309379E+01  0.50400000000E-02 0.  1.
         24    2    1    2    0    0 -0.88817841970E-15  0.00000000000E+00  0.20186836823E+03  0.21702562845E+03  0.79682402765E+02 0.  0.
         66    2    3    3    0    0 -0.73705787927E+01 -0.29492999522E+02  0.17103013611E+03  0.17372239327E+03  0.20000031780E+01 0.  0.
        -13    1    3    3    0    0  0.73705787927E+01  0.29492999522E+02  0.30838232123E+02  0.43303235180E+02  0.10566000000E+00 0.  1.
         13    1    4    4    0    0 -0.45599951667E+01 -0.18692350388E+02  0.11304101534E+03  0.11466682097E+03  0.10566000000E+00 0. -1.
        -13    1    4    4    0    0 -0.42158647896E+00 -0.17565507364E+01  0.85764795473E+01  0.87652935552E+01  0.10566000000E+00 0.  1.
        -14    1    4    4    0    0 -0.23889971470E+01 -0.90440983970E+01  0.49412641223E+02  0.50290278740E+02  0.00000000000E+00 0.  1.
<mgrwt>
<rscale>  0 0.79682403E+02</rscale>
<asrwt>0</asrwt>
<pdfrwt beam="1">  1        2 0.32222616E-01 0.79682403E+02</pdfrwt>
<pdfrwt beam="2">  1       -1 0.11659430E-02 0.79682403E+02</pdfrwt>
<totfact> 0.22652766E+05</totfact>
</mgrwt>
</event>
<event>
 8    1  0.1673046E-013  0.7907522E+02  0.7818608E-02  0.1331696E+00
          2   -1    0    0  501    0  0.00000000000E+00  0.00000000000E+00  0.32489321571E+02  0.32489321671E+02  0.25500000000E-02 0. -1.
         -1   -1    0    0    0  501 -0.00000000000E+00 -0.00000000000E+00 -0.48114969353E+02  0.48114969617E+02  0.50400000000E-02 0.  1.
         24    2    1    2    0    0  0.00000000000E+00  0.00000000000E+00 -0.15625647782E+02  0.80604291288E+02  0.79075223082E+02 0.  0.
         66    2    3    3    0    0 -0.30638376887E+02  0.82372440940E+01  0.16188721642E+02  0.35674038736E+02  0.20000007074E+01 0.  0.
        -13    1    3    3    0    0  0.30638376887E+02 -0.82372440940E+01 -0.31814369424E+02  0.44930252552E+02  0.10566000000E+00 0.  1.
         13    1    4    4    0    0 -0.26664060221E+00  0.61305790306E-01  0.33807375211E+00  0.44756397101E+00  0.10566000000E+00 0.  1.
        -13    1    4    4    0    0 -0.11744301924E+02  0.28722623770E+01  0.61574698776E+01  0.13568497271E+02  0.10566000000E+00 0.  1.
         14    1    4    4    0    0 -0.18627434360E+02  0.53036759266E+01  0.96931780120E+01  0.21657977495E+02  0.00000000000E+00 0. -1.
<mgrwt>
<rscale>  0 0.79075223E+02</rscale>
<asrwt>0</asrwt>
<pdfrwt beam="1">  1        2 0.49983572E-02 0.79075223E+02</pdfrwt>
<pdfrwt beam="2">  1       -1 0.74023030E-02 0.79075223E+02</pdfrwt>
<totfact> 0.14119812E+05</totfact>
</mgrwt>
</event>
<event>
 8    1  0.1673046E-013  0.7940515E+02  0.7818608E-02  0.1330748E+00
          2   -1    0    0  501    0  0.00000000000E+00  0.00000000000E+00  0.75704289756E+01  0.75704294050E+01  0.25500000000E-02 0. -1.
         -1   -1    0    0    0  501 -0.00000000000E+00 -0.00000000000E+00 -0.20821732489E+03  0.20821732495E+03  0.50400000000E-02 0.  1.
         24    2    1    2    0    0  0.00000000000E+00  0.71054273576E-14 -0.20064689591E+03  0.21578775436E+03  0.79405151533E+02 0.  0.
         66    2    3    3    0    0  0.11457837724E+02  0.37152204438E+02 -0.78864780400E+02  0.87950110592E+02  0.20000064305E+01 0.  0.
        -13    1    3    3    0    0 -0.11457837724E+02 -0.37152204438E+02 -0.12178211551E+03  0.12783764376E+03  0.10566000000E+00 0.  1.
         13    1    4    4    0    0  0.16926888176E+01  0.46801184793E+01 -0.10262180964E+02  0.11405797937E+02  0.10566000000E+00 0. -1.
        -13    1    4    4    0    0  0.47990780096E+01  0.15587366200E+02 -0.34901731434E+02  0.38524526680E+02  0.10566000000E+00 0.  1.
         14    1    4    4    0    0  0.49660708968E+01  0.16884719758E+02 -0.33700868002E+02  0.38019785974E+02  0.00000000000E+00 0. -1.
<mgrwt>
<rscale>  0 0.79405152E+02</rscale>
<asrwt>0</asrwt>
<pdfrwt beam="1">  1        2 0.11646816E-02 0.79405152E+02</pdfrwt>
<pdfrwt beam="2">  1       -1 0.32033430E-01 0.79405152E+02</pdfrwt>
<totfact> 0.10027011E+05</totfact>
</mgrwt>
</event>
<event>
 8    1  0.1673046E-013  0.9022649E+02  0.7818608E-02  0.1302304E+00
          2   -1    0    0  501    0  0.00000000000E+00  0.00000000000E+00  0.42407261180E+02  0.42407261257E+02  0.25500000000E-02 0. -1.
         -1   -1    0    0    0  501 -0.00000000000E+00 -0.00000000000E+00 -0.47991892609E+02  0.47991892874E+02  0.50400000000E-02 0.  1.
         24    2    1    2    0    0  0.00000000000E+00 -0.17763568394E-14 -0.55846314287E+01  0.90399154131E+02  0.90226487017E+02 0.  0.
         66    2    3    3    0    0  0.18018997238E+02  0.11138856097E+02  0.37087532105E+02  0.42757963116E+02  0.19999988892E+01 0.  0.
        -13    1    3    3    0    0 -0.18018997238E+02 -0.11138856097E+02 -0.42672163534E+02  0.47641191015E+02  0.10566000000E+00 0.  1.
         13    1    4    4    0    0  0.10518470186E+02  0.62779885002E+01  0.22166674416E+02  0.25326349389E+02  0.10566000000E+00 0. -1.
        -13    1    4    4    0    0  0.12992989333E+01  0.53427273596E+00  0.30093817703E+01  0.33228252662E+01  0.10566000000E+00 0.  1.
         14    1    4    4    0    0  0.62012281183E+01  0.43265948613E+01  0.11911475919E+02  0.14108788461E+02  0.00000000000E+00 0. -1.
<mgrwt>
<rscale>  0 0.90226487E+02</rscale>
<asrwt>0</asrwt>
<pdfrwt beam="1">  1        2 0.65241940E-02 0.90226487E+02</pdfrwt>
<pdfrwt beam="2">  1       -1 0.73833682E-02 0.90226487E+02</pdfrwt>
<totfact> 0.10323042E+05</totfact>
</mgrwt>
</event>
<event>
 8    1  0.1673046E-013  0.7841950E+02  0.7818608E-02  0.1333597E+00
         -1   -1    0    0    0  501 -0.00000000000E+00  0.00000000000E+00  0.41337827395E+01  0.41337858119E+01  0.50400000000E-02 0.  1.
          2   -1    0    0  501    0  0.00000000000E+00 -0.00000000000E+00 -0.37191207618E+03  0.37191207619E+03  0.25500000000E-02 0. -1.
         24    2    1    2    0    0  0.00000000000E+00 -0.22204460493E-15 -0.36777829344E+03  0.37604586200E+03  0.78419495037E+02 0.  0.
         66    2    3    3    0    0  0.27940698874E+02 -0.18113698437E+01 -0.31545905262E+03  0.31670550610E+03  0.20000000285E+01 0.  0.
        -13    1    3    3    0    0 -0.27940698874E+02  0.18113698437E+01 -0.52319240818E+02  0.59340355897E+02  0.10566000000E+00 0.  1.
         13    1    4    4    0    0  0.26731770573E+01 -0.31752765684E-01 -0.31243073471E+02  0.31357418385E+02  0.10566000000E+00 0. -1.
        -13    1    4    4    0    0  0.45963710768E+01  0.35483725156E+00 -0.52470894748E+02  0.52673128787E+02  0.10566000000E+00 0.  1.
         14    1    4    4    0    0  0.20671150740E+02 -0.21344543296E+01 -0.23174508440E+03  0.23267495893E+03  0.00000000000E+00 0. -1.
<mgrwt>
<rscale>  0 0.78419495E+02</rscale>
<asrwt>0</asrwt>
<pdfrwt beam="1">  1        2 0.57217216E-01 0.78419495E+02</pdfrwt>
<pdfrwt beam="2">  1       -1 0.63596711E-03 0.78419495E+02</pdfrwt>
<totfact> 0.29010557E+05</totfact>
</mgrwt>
</event>
<event>
 8    1  0.1673046E-013  0.7991037E+02  0.7818608E-02  0.1329306E+00
         -1   -1    0    0    0  501 -0.00000000000E+00  0.00000000000E+00  0.48272996737E+01  0.48273023047E+01  0.50400000000E-02 0.  1.
          2   -1    0    0  501    0  0.00000000000E+00 -0.00000000000E+00 -0.33070587127E+03  0.33070587128E+03  0.25500000000E-02 0. -1.
         24    2    1    2    0    0  0.17763568394E-14 -0.35527136788E-14 -0.32587857159E+03  0.33553317358E+03  0.79910369477E+02 0.  0.
         66    2    3    3    0    0  0.98088917507E+01 -0.23527766632E+02 -0.29209340404E+03  0.29321037983E+03  0.19999995356E+01 0.  0.
        -13    1    3    3    0    0 -0.98088917507E+01  0.23527766632E+02 -0.33785167554E+02  0.42322793749E+02  0.10566000000E+00 0.  1.
         13    1    4    4    0    0  0.52306012527E+01 -0.14725504649E+02 -0.18391889415E+03  0.18458160923E+03  0.10566000000E+00 0. -1.
        -13    1    4    4    0    0  0.39226670523E+01 -0.76657403479E+01 -0.93659591620E+02  0.94054671114E+02  0.10566000000E+00 0.  1.
         14    1    4    4    0    0  0.65562344570E+00 -0.11365216347E+01 -0.14514918271E+02  0.14574099490E+02  0.00000000000E+00 0. -1.
<mgrwt>
<rscale>  0 0.79910369E+02</rscale>
<asrwt>0</asrwt>
<pdfrwt beam="1">  1        2 0.50877809E-01 0.79910369E+02</pdfrwt>
<pdfrwt beam="2">  1       -1 0.74266195E-03 0.79910369E+02</pdfrwt>
<totfact> 0.26485030E+05</totfact>
</mgrwt>
</event>
<event>
 8    1  0.1673046E-013  0.7888245E+02  0.7818608E-02  0.1332253E+00
          2   -1    0    0  501    0  0.00000000000E+00  0.00000000000E+00  0.38722761960E+03  0.38722761961E+03  0.25500000000E-02 0. -1.
         -1   -1    0    0    0  501 -0.00000000000E+00 -0.00000000000E+00 -0.40172997444E+01  0.40173029059E+01  0.50400000000E-02 0.  1.
         24    2    1    2    0    0  0.00000000000E+00  0.00000000000E+00  0.38321031986E+03  0.39124492252E+03  0.78882445128E+02 0.  0.
         66    2    3    3    0    0 -0.10728236671E+02  0.37583897520E+02  0.21699921698E+03  0.22050012377E+03  0.19999995107E+01 0.  0.
        -13    1    3    3    0    0  0.10728236671E+02 -0.37583897520E+02  0.16621110288E+03  0.17074479875E+03  0.10566000000E+00 0.  1.
         13    1    4    4    0    0 -0.76640371904E+01  0.25752649277E+02  0.14688218315E+03  0.14931953423E+03  0.10566000000E+00 0. -1.
        -13    1    4    4    0    0 -0.28144850393E+01  0.93567158318E+01  0.55700412719E+02  0.56551008818E+02  0.10566000000E+00 0.  1.
        -14    1    4    4    0    0 -0.24971444132E+00  0.24745324121E+01  0.14416621106E+02  0.14629580721E+02  0.00000000000E+00 0.  1.
<mgrwt>
<rscale>  0 0.78882445E+02</rscale>
<asrwt>0</asrwt>
<pdfrwt beam="1">  1        2 0.59573464E-01 0.78882445E+02</pdfrwt>
<pdfrwt beam="2">  1       -1 0.61804653E-03 0.78882445E+02</pdfrwt>
<totfact> 0.28978856E+05</totfact>
</mgrwt>
</event>
<event>
 8    1  0.1673046E-013  0.7863949E+02  0.7818608E-02  0.1332957E+00
         -1   -1    0    0    0  501 -0.00000000000E+00  0.00000000000E+00  0.12245589882E+02  0.12245590919E+02  0.50400000000E-02 0.  1.
          2   -1    0    0  501    0  0.00000000000E+00 -0.00000000000E+00 -0.12625298227E+03  0.12625298229E+03  0.25500000000E-02 0. -1.
         24    2    1    2    0    0 -0.35527136788E-14 -0.71054273576E-14 -0.11400739239E+03  0.13849857321E+03  0.78639489211E+02 0.  0.
         66    2    3    3    0    0 -0.15138811658E+02 -0.30951645942E+02 -0.90310026326E+02  0.96680343610E+02  0.19999951508E+01 0.  0.
        -13    1    3    3    0    0  0.15138811658E+02  0.30951645942E+02 -0.23697366060E+02  0.41818229603E+02  0.10566000000E+00 0.  1.
         13    1    4    4    0    0 -0.28601974978E+01 -0.43014421532E+01 -0.13990096752E+02  0.14913655001E+02  0.10566000000E+00 0. -1.
        -13    1    4    4    0    0 -0.99276397029E+01 -0.21341402978E+02 -0.61257413384E+02  0.65623893283E+02  0.10566000000E+00 0.  1.
         14    1    4    4    0    0 -0.23509744576E+01 -0.53088008109E+01 -0.15062516190E+02  0.16142795326E+02  0.00000000000E+00 0. -1.
<mgrwt>
<rscale>  0 0.78639489E+02</rscale>
<asrwt>0</asrwt>
<pdfrwt beam="1">  1        2 0.19423535E-01 0.78639489E+02</pdfrwt>
<pdfrwt beam="2">  1       -1 0.18839371E-02 0.78639489E+02</pdfrwt>
<totfact> 0.19861753E+05</totfact>
</mgrwt>
</event>
<event>
 8    1  0.1673046E-013  0.8146053E+02  0.7818608E-02  0.1324957E+00
         -1   -1    0    0    0  501 -0.00000000000E+00  0.00000000000E+00  0.50925054815E+01  0.50925079756E+01  0.50400000000E-02 0.  1.
          2   -1    0    0  501    0  0.00000000000E+00 -0.00000000000E+00 -0.32576382190E+03  0.32576382191E+03  0.25500000000E-02 0. -1.
         24    2    1    2    0    0  0.00000000000E+00  0.00000000000E+00 -0.32067131642E+03  0.33085632989E+03  0.81460529411E+02 0.  0.
         66    2    3    3    0    0 -0.29954548875E+02 -0.10866170438E+02 -0.26331054941E+03  0.26523912624E+03  0.20000001199E+01 0.  0.
        -13    1    3    3    0    0  0.29954548875E+02  0.10866170438E+02 -0.57360767015E+02  0.65617203650E+02  0.10566000000E+00 0.  1.
         13    1    4    4    0    0 -0.11222957641E+02 -0.35592441758E+01 -0.96907656349E+02  0.97620325856E+02  0.10566000000E+00 0. -1.
        -13    1    4    4    0    0 -0.32125477994E+01 -0.84436819093E+00 -0.30251092954E+02  0.30433093992E+02  0.10566000000E+00 0.  1.
         14    1    4    4    0    0 -0.15519043436E+02 -0.64625580713E+01 -0.13615180011E+03  0.13718570639E+03  0.00000000000E+00 0. -1.
<mgrwt>
<rscale>  0 0.81460529E+02</rscale>
<asrwt>0</asrwt>
<pdfrwt beam="1">  1        2 0.50117495E-01 0.81460529E+02</pdfrwt>
<pdfrwt beam="2">  1       -1 0.78346283E-03 0.81460529E+02</pdfrwt>
<totfact> 0.25048209E+05</totfact>
</mgrwt>
</event>
<event>
 8    1  0.1673046E-013  0.7704605E+02  0.7818608E-02  0.1337650E+00
          2   -1    0    0  501    0  0.00000000000E+00  0.00000000000E+00  0.58258289288E+02  0.58258289344E+02  0.25500000000E-02 0. -1.
         -1   -1    0    0    0  501 -0.00000000000E+00 -0.00000000000E+00 -0.25473171623E+02  0.25473172122E+02  0.50400000000E-02 0.  1.
         24    2    1    2    0    0  0.71054273576E-14  0.00000000000E+00  0.32785117665E+02  0.83731461466E+02  0.77046049210E+02 0.  0.
         66    2    3    3    0    0 -0.32818646616E+02 -0.26382285909E+01  0.38084455696E+02  0.50383028768E+02  0.20000016091E+01 0.  0.
        -13    1    3    3    0    0  0.32818646616E+02  0.26382285909E+01 -0.52993380305E+01  0.33348432697E+02  0.10566000000E+00 0.  1.
         13    1    4    4    0    0 -0.20183036525E+02 -0.10594423063E+01  0.23854158931E+02  0.31265147428E+02  0.10566000000E+00 0. -1.
        -13    1    4    4    0    0 -0.27578351200E+01 -0.64493170011E+00  0.28414779028E+01  0.40133218354E+01  0.10566000000E+00 0.  1.
         14    1    4    4    0    0 -0.98777749711E+01 -0.93385458453E+00  0.11388818862E+02  0.15104559505E+02  0.00000000000E+00 0. -1.
<mgrwt>
<rscale>  0 0.77046049E+02</rscale>
<asrwt>0</asrwt>
<pdfrwt beam="1">  1        2 0.89628137E-02 0.77046049E+02</pdfrwt>
<pdfrwt beam="2">  1       -1 0.39189496E-02 0.77046049E+02</pdfrwt>
<totfact> 0.17124961E+05</totfact>
</mgrwt>
</event>
<event>
 8    1  0.1673046E-013  0.7865196E+02  0.7818608E-02  0.1332921E+00
         -1   -1    0    0    0  501 -0.00000000000E+00  0.00000000000E+00  0.58453961371E+01  0.58453983099E+01  0.50400000000E-02 0.  1.
          2   -1    0    0  501    0  0.00000000000E+00 -0.00000000000E+00 -0.26457271233E+03  0.26457271234E+03  0.25500000000E-02 0. -1.
         24    2    1    2    0    0  0.00000000000E+00  0.00000000000E+00 -0.25872731619E+03  0.27041811065E+03  0.78651957536E+02 0.  0.
         66    2    3    3    0    0  0.26937524383E+02  0.25420644687E+02 -0.17462825981E+03  0.17852413998E+03  0.20000093485E+01 0.  0.
        -13    1    3    3    0    0 -0.26937524383E+02 -0.25420644687E+02 -0.84099056383E+02  0.91893970666E+02  0.10566000000E+00 0.  1.
         13    1    4    4    0    0  0.23190025886E+01  0.17525692453E+01 -0.14763065509E+02  0.15046878056E+02  0.10566000000E+00 0.  1.
        -13    1    4    4    0    0  0.14375917564E+01  0.10619445339E+01 -0.77314650077E+01  0.79360639773E+01  0.10566000000E+00 0.  1.
         14    1    4    4    0    0  0.23180930038E+02  0.22606130908E+02 -0.15213372929E+03  0.15554119795E+03  0.00000000000E+00 0. -1.
<mgrwt>
<rscale>  0 0.78651958E+02</rscale>
<asrwt>0</asrwt>
<pdfrwt beam="1">  1        2 0.40703485E-01 0.78651958E+02</pdfrwt>
<pdfrwt beam="2">  1       -1 0.89929209E-03 0.78651958E+02</pdfrwt>
<totfact> 0.25471240E+05</totfact>
</mgrwt>
</event>
<event>
 8    1  0.1673046E-013  0.7864263E+02  0.7818608E-02  0.1332948E+00
         -1   -1    0    0    0  501 -0.00000000000E+00  0.00000000000E+00  0.24041422004E+01  0.24041474833E+01  0.50400000000E-02 0.  1.
          2   -1    0    0  501    0  0.00000000000E+00 -0.00000000000E+00 -0.64312503217E+03  0.64312503217E+03  0.25500000000E-02 0. -1.
         24    2    1    2    0    0  0.00000000000E+00  0.88817841970E-15 -0.64072088997E+03  0.64552917966E+03  0.78642628052E+02 0.  0.
         66    2    3    3    0    0 -0.17214405391E+02 -0.68197543633E+01 -0.60506982741E+03  0.60535637507E+03  0.19999992952E+01 0.  0.
        -13    1    3    3    0    0  0.17214405391E+02  0.68197543633E+01 -0.35651062557E+02  0.40172804582E+02  0.10566000000E+00 0.  1.
         13    1    4    4    0    0 -0.51689148944E+01 -0.24468479990E+01 -0.19738462254E+03  0.19746747865E+03  0.10566000000E+00 0. -1.
        -13    1    4    4    0    0 -0.71025498757E+01 -0.19979151163E+01 -0.24658471233E+03  0.24669509399E+03  0.10566000000E+00 0.  1.
         14    1    4    4    0    0 -0.49429406213E+01 -0.23749912480E+01 -0.16110049254E+03  0.16119380244E+03  0.00000000000E+00 0. -1.
<mgrwt>
<rscale>  0 0.78642628E+02</rscale>
<asrwt>0</asrwt>
<pdfrwt beam="1">  1        2 0.98942176E-01 0.78642628E+02</pdfrwt>
<pdfrwt beam="2">  1       -1 0.36986895E-03 0.78642628E+02</pdfrwt>
<totfact> 0.34258075E+05</totfact>
</mgrwt>
</event>
<event>
 8    1  0.1673046E-013  0.8111564E+02  0.7818608E-02  0.1325915E+00
         -1   -1    0    0    0  501 -0.00000000000E+00  0.00000000000E+00  0.10802617738E+02  0.10802618913E+02  0.50400000000E-02 0.  1.
          2   -1    0    0  501    0  0.00000000000E+00 -0.00000000000E+00 -0.15227205268E+03  0.15227205270E+03  0.25500000000E-02 0. -1.
         24    2    1    2    0    0 -0.35527136788E-14  0.35527136788E-14 -0.14146943494E+03  0.16307467161E+03  0.81115642754E+02 0.  0.
         66    2    3    3    0    0  0.21286999407E+02 -0.13002193863E+02 -0.13500778037E+03  0.13730729820E+03  0.19999970438E+01 0.  0.
        -13    1    3    3    0    0 -0.21286999407E+02  0.13002193863E+02 -0.64616545697E+01  0.25767373417E+02  0.10566000000E+00 0.  1.
         13    1    4    4    0    0  0.17129065870E+02 -0.10580114145E+02 -0.11168856926E+03  0.11348872799E+03  0.10566000000E+00 0. -1.
        -13    1    4    4    0    0  0.30968882018E+01 -0.20024685224E+01 -0.16809668613E+02  0.17209785578E+02  0.10566000000E+00 0.  1.
        -14    1    4    4    0    0  0.10610453348E+01 -0.41961119584E+00 -0.65095425017E+01  0.66087846341E+01  0.00000000000E+00 0.  1.
<mgrwt>
<rscale>  0 0.81115643E+02</rscale>
<asrwt>0</asrwt>
<pdfrwt beam="1">  1        2 0.23426468E-01 0.81115643E+02</pdfrwt>
<pdfrwt beam="2">  1       -1 0.16619414E-02 0.81115643E+02</pdfrwt>
<totfact> 0.19400942E+05</totfact>
</mgrwt>
</event>
<event>
 8    1  0.1673046E-013  0.7982429E+02  0.7818608E-02  0.1329551E+00
          2   -1    0    0  501    0  0.00000000000E+00  0.00000000000E+00  0.96286641907E+03  0.96286641907E+03  0.25500000000E-02 0. -1.
         -1   -1    0    0    0  501 -0.00000000000E+00 -0.00000000000E+00 -0.16544097608E+01  0.16544174377E+01  0.50400000000E-02 0.  1.
         24    2    1    2    0    0 -0.17763568394E-14  0.35527136788E-14  0.96121200931E+03  0.96452083651E+03  0.79824289686E+02 0.  0.
         66    2    3    3    0    0  0.12278551636E+02 -0.14047144880E+02  0.90689035327E+03  0.90708444919E+03  0.19999999116E+01 0.  0.
        -13    1    3    3    0    0 -0.12278551636E+02  0.14047144880E+02  0.54321656038E+02  0.57436387319E+02  0.10566000000E+00 0.  1.
         13    1    4    4    0    0  0.13817327360E+01 -0.17214704411E+01  0.10034302595E+03  0.10036735857E+03  0.10566000000E+00 0. -1.
        -13    1    4    4    0    0  0.67152521718E+01 -0.67871255292E+01  0.50076018805E+03  0.50085121222E+03  0.10566000000E+00 0.  1.
        -14    1    4    4    0    0  0.41815667284E+01 -0.55385489093E+01  0.30578713927E+03  0.30586587839E+03  0.00000000000E+00 0.  1.
<mgrwt>
<rscale>  0 0.79824290E+02</rscale>
<asrwt>0</asrwt>
<pdfrwt beam="1">  1        2 0.14813289E+00 0.79824290E+02</pdfrwt>
<pdfrwt beam="2">  1       -1 0.25452586E-03 0.79824290E+02</pdfrwt>
<totfact> 0.35359225E+05</totfact>
</mgrwt>
</event>
<event>
 8    1  0.1673046E-013  0.8124751E+02  0.7818608E-02  0.1325548E+00
         -1   -1    0    0    0  501 -0.00000000000E+00  0.00000000000E+00  0.10425246070E+01  0.10425367896E+01  0.50400000000E-02 0.  1.
          2   -1    0    0  501    0  0.00000000000E+00 -0.00000000000E+00 -0.15829649044E+04  0.15829649044E+04  0.25500000000E-02 0. -1.
         24    2    1    2    0    0  0.16653345369E-15 -0.35527136788E-14 -0.15819223798E+04  0.15840074412E+04  0.81247511103E+02 0.  0.
         66    2    3    3    0    0 -0.80452535200E-01 -0.16677741640E+02 -0.15130917660E+04  0.15131850005E+04  0.20000065031E+01 0.  0.
        -13    1    3    3    0    0  0.80452535200E-01  0.16677741640E+02 -0.68830613823E+02  0.70822440668E+02  0.10566000000E+00 0.  1.
         13    1    4    4    0    0 -0.76457802180E+00 -0.82719360061E+01 -0.74779464659E+03  0.74784079464E+03  0.10566000000E+00 0. -1.
        -13    1    4    4    0    0  0.67157215371E+00 -0.67040326155E+01 -0.57518593314E+03  0.57522540269E+03  0.10566000000E+00 0.  1.
         14    1    4    4    0    0  0.12553332890E-01 -0.17017730186E+01 -0.19011118624E+03  0.19011880318E+03  0.00000000000E+00 0. -1.
<mgrwt>
<rscale>  0 0.81247511E+02</rscale>
<asrwt>0</asrwt>
<pdfrwt beam="1">  1        2 0.24353114E+00 0.81247511E+02</pdfrwt>
<pdfrwt beam="2">  1       -1 0.16039061E-03 0.81247511E+02</pdfrwt>
<totfact> 0.31230727E+05</totfact>
</mgrwt>
</event>
<event>
 8    1  0.1673046E-013  0.8060499E+02  0.7818608E-02  0.1327343E+00
          2   -1    0    0  501    0  0.00000000000E+00  0.00000000000E+00  0.26779651515E+02  0.26779651636E+02  0.25500000000E-02 0. -1.
         -1   -1    0    0    0  501 -0.00000000000E+00 -0.00000000000E+00 -0.60653922179E+02  0.60653922389E+02  0.50400000000E-02 0.  1.
         24    2    1    2    0    0  0.17763568394E-14  0.00000000000E+00 -0.33874270664E+02  0.87433574025E+02  0.80604985291E+02 0.  0.
         66    2    3    3    0    0  0.14152782821E+02  0.37536771408E+02 -0.20854844302E+02  0.45257430340E+02  0.20000002056E+01 0.  0.
        -13    1    3    3    0    0 -0.14152782821E+02 -0.37536771408E+02 -0.13019426363E+02  0.42176143685E+02  0.10566000000E+00 0.  1.
         13    1    4    4    0    0  0.42391351392E+01  0.10252540508E+02 -0.52504273223E+01  0.12274485924E+02  0.10566000000E+00 0. -1.
        -13    1    4    4    0    0  0.61255175796E+01  0.16841794676E+02 -0.10338231327E+02  0.20689567529E+02  0.10566000000E+00 0.  1.
        -14    1    4    4    0    0  0.37881301017E+01  0.10442436224E+02 -0.52661856521E+01  0.12293376887E+02  0.00000000000E+00 0.  1.
<mgrwt>
<rscale>  0 0.80604985E+02</rscale>
<asrwt>0</asrwt>
<pdfrwt beam="1">  1        2 0.41199464E-02 0.80604985E+02</pdfrwt>
<pdfrwt beam="2">  1       -1 0.93313726E-02 0.80604985E+02</pdfrwt>
<totfact> 0.12880730E+05</totfact>
</mgrwt>
</event>
<event>
 8    1  0.1673046E-013  0.7879978E+02  0.7818608E-02  0.1332492E+00
          2   -1    0    0  501    0  0.00000000000E+00  0.00000000000E+00  0.12921641389E+03  0.12921641392E+03  0.25500000000E-02 0. -1.
         -1   -1    0    0    0  501 -0.00000000000E+00 -0.00000000000E+00 -0.12013576120E+02  0.12013577178E+02  0.50400000000E-02 0.  1.
         24    2    1    2    0    0 -0.88817841970E-15  0.00000000000E+00  0.11720283777E+03  0.14122999109E+03  0.78799779206E+02 0.  0.
         66    2    3    3    0    0 -0.58807439013E+01 -0.23047505136E+02  0.11487662657E+03  0.11733034540E+03  0.19999942190E+01 0.  0.
        -13    1    3    3    0    0  0.58807439013E+01  0.23047505136E+02  0.23262111986E+01  0.23899645696E+02  0.10566000000E+00 0.  1.
         13    1    4    4    0    0 -0.21592799973E+01 -0.87172065093E+01  0.44441855179E+02  0.45340289315E+02  0.10566000000E+00 0. -1.
        -13    1    4    4    0    0 -0.29901979287E+01 -0.12425847487E+02  0.62802938653E+02  0.64090274121E+02  0.10566000000E+00 0.  1.
        -14    1    4    4    0    0 -0.73126597540E+00 -0.19044511388E+01  0.76318327401E+01  0.78997819615E+01  0.00000000000E+00 0.  1.
<mgrwt>
<rscale>  0 0.78799779E+02</rscale>
<asrwt>0</asrwt>
<pdfrwt beam="1">  1        2 0.19879448E-01 0.78799779E+02</pdfrwt>
<pdfrwt beam="2">  1       -1 0.18482426E-02 0.78799779E+02</pdfrwt>
<totfact> 0.19894969E+05</totfact>
</mgrwt>
</event>
<event>
 8    1  0.1673046E-013  0.8311943E+02  0.7818608E-02  0.1320425E+00
          2   -1    0    0  501    0  0.00000000000E+00  0.00000000000E+00  0.14059074677E+04  0.14059074677E+04  0.25500000000E-02 0. -1.
         -1   -1    0    0    0  501 -0.00000000000E+00 -0.00000000000E+00 -0.12285322050E+01  0.12285425432E+01  0.50400000000E-02 0.  1.
         24    2    1    2    0    0  0.00000000000E+00  0.35527136788E-14  0.14046789355E+04  0.14071360103E+04  0.83119429176E+02 0.  0.
         66    2    3    3    0    0  0.68469012394E+01  0.20523022015E+02  0.13029832416E+04  0.13031643804E+04  0.19999994526E+01 0.  0.
        -13    1    3    3    0    0 -0.68469012394E+01 -0.20523022015E+02  0.10169569390E+03  0.10397162984E+03  0.10566000000E+00 0.  1.
         13    1    4    4    0    0  0.24771303241E+01  0.57586239049E+01  0.40072497879E+03  0.40077402325E+03  0.10566000000E+00 0.  1.
        -13    1    4    4    0    0  0.19710376543E+01  0.83314114344E+01  0.51832497768E+03  0.51839568966E+03  0.10566000000E+00 0. -1.
         14    1    4    4    0    0  0.23987332610E+01  0.64329866759E+01  0.38393328515E+03  0.38399466753E+03  0.00000000000E+00 0. -1.
<mgrwt>
<rscale>  0 0.83119429E+02</rscale>
<asrwt>0</asrwt>
<pdfrwt beam="1">  1        2 0.21629522E+00 0.83119429E+02</pdfrwt>
<pdfrwt beam="2">  1       -1 0.18900421E-03 0.83119429E+02</pdfrwt>
<totfact> 0.30752835E+05</totfact>
</mgrwt>
</event>
<event>
 8    1  0.1673046E-013  0.8007749E+02  0.7818608E-02  0.1328832E+00
         -1   -1    0    0    0  501 -0.00000000000E+00  0.00000000000E+00  0.32212685676E+01  0.32212725104E+01  0.50400000000E-02 0.  1.
          2   -1    0    0  501    0  0.00000000000E+00 -0.00000000000E+00 -0.49766107848E+03  0.49766107849E+03  0.25500000000E-02 0. -1.
         24    2    1    2    0    0  0.00000000000E+00  0.00000000000E+00 -0.49443980991E+03  0.50088235100E+03  0.80077486936E+02 0.  0.
         66    2    3    3    0    0  0.77461397183E+01  0.19388697296E+02 -0.46088469461E+03  0.46136170841E+03  0.19999998372E+01 0.  0.
        -13    1    3    3    0    0 -0.77461397183E+01 -0.19388697296E+02 -0.33555115302E+02  0.39520642585E+02  0.10566000000E+00 0.  1.
         13    1    4    4    0    0  0.38946847627E+01  0.10104152244E+02 -0.22468163435E+03  0.22494246028E+03  0.10566000000E+00 0. -1.
        -13    1    4    4    0    0  0.38489676755E+01  0.89711595260E+01 -0.23150115117E+03  0.23170690627E+03  0.10566000000E+00 0.  1.
         14    1    4    4    0    0  0.24872800956E-02  0.31338552539E+00 -0.47019090958E+01  0.47123418614E+01  0.00000000000E+00 0. -1.
<mgrwt>
<rscale>  0 0.80077487E+02</rscale>
<asrwt>0</asrwt>
<pdfrwt beam="1">  1        2 0.76563182E-01 0.80077487E+02</pdfrwt>
<pdfrwt beam="2">  1       -1 0.49558048E-03 0.80077487E+02</pdfrwt>
<totfact> 0.30329181E+05</totfact>
</mgrwt>
</event>
<event>
 8    1  0.1673046E-013  0.8025756E+02  0.7818608E-02  0.1328322E+00
          2   -1    0    0  501    0  0.00000000000E+00  0.00000000000E+00  0.25926134052E+02  0.25926134177E+02  0.25500000000E-02 0. -1.
         -1   -1    0    0    0  501 -0.00000000000E+00 -0.00000000000E+00 -0.62111802744E+02  0.62111802948E+02  0.50400000000E-02 0.  1.
         24    2    1    2    0    0  0.00000000000E+00  0.00000000000E+00 -0.36185668692E+02  0.88037937125E+02  0.80257558863E+02 0.  0.
         66    2    3    3    0    0  0.14120356538E+02  0.27480361202E+02  0.99433761235E+01  0.32518078875E+02  0.20000011028E+01 0.  0.
        -13    1    3    3    0    0 -0.14120356538E+02 -0.27480361202E+02 -0.46129044816E+02  0.55519858251E+02  0.10566000000E+00 0.  1.
         13    1    4    4    0    0  0.42518660737E+01  0.89385224214E+01  0.28814560283E+01  0.10309679969E+02  0.10566000000E+00 0. -1.
        -13    1    4    4    0    0  0.36671992413E+01  0.75058046984E+01  0.34989257244E+01  0.90575438010E+01  0.10566000000E+00 0.  1.
        -14    1    4    4    0    0  0.62012912225E+01  0.11036034082E+02  0.35629943709E+01  0.13150855105E+02  0.00000000000E+00 0.  1.
<mgrwt>
<rscale>  0 0.80257559E+02</rscale>
<asrwt>0</asrwt>
<pdfrwt beam="1">  1        2 0.39886360E-02 0.80257559E+02</pdfrwt>
<pdfrwt beam="2">  1       -1 0.95556620E-02 0.80257559E+02</pdfrwt>
<totfact> 0.12955594E+05</totfact>
</mgrwt>
</event>
<event>
 8    1  0.1673046E-013  0.8112943E+02  0.7818608E-02  0.1325876E+00
          2   -1    0    0  501    0  0.00000000000E+00  0.00000000000E+00  0.58985385118E+02  0.58985385173E+02  0.25500000000E-02 0. -1.
         -1   -1    0    0    0  501 -0.00000000000E+00 -0.00000000000E+00 -0.27896676782E+02  0.27896677237E+02  0.50400000000E-02 0.  1.
         24    2    1    2    0    0  0.71054273576E-14  0.88817841970E-15  0.31088708337E+02  0.86882062410E+02  0.81129433516E+02 0.  0.
         66    2    3    3    0    0  0.39954897714E+02  0.55424096178E+01  0.11219694770E+02  0.41916508706E+02  0.19999989178E+01 0.  0.
        -13    1    3    3    0    0 -0.39954897714E+02 -0.55424096178E+01  0.19869013567E+02  0.44965553704E+02  0.10566000000E+00 0.  1.
         13    1    4    4    0    0  0.56855423435E+01  0.11172507962E+01  0.19239860104E+01  0.61062695064E+01  0.10566000000E+00 0. -1.
        -13    1    4    4    0    0  0.62145174752E+01  0.56052060011E+00  0.21770776762E+01  0.66094812230E+01  0.10566000000E+00 0.  1.
         14    1    4    4    0    0  0.28054837895E+02  0.38646382215E+01  0.71186310830E+01  0.29200757977E+02  0.00000000000E+00 0. -1.
<mgrwt>
<rscale>  0 0.81129434E+02</rscale>
<asrwt>0</asrwt>
<pdfrwt beam="1">  1        2 0.90746746E-02 0.81129434E+02</pdfrwt>
<pdfrwt beam="2">  1       -1 0.42917965E-02 0.81129434E+02</pdfrwt>
<totfact> 0.14923994E+05</totfact>
</mgrwt>
</event>
<event>
 8    1  0.1673046E-013  0.7963207E+02  0.7818608E-02  0.1330099E+00
         -1   -1    0    0    0  501 -0.00000000000E+00  0.00000000000E+00  0.11262054921E+02  0.11262056049E+02  0.50400000000E-02 0.  1.
          2   -1    0    0  501    0  0.00000000000E+00 -0.00000000000E+00 -0.14076618466E+03  0.14076618469E+03  0.25500000000E-02 0. -1.
         24    2    1    2    0    0  0.00000000000E+00  0.00000000000E+00 -0.12950412974E+03  0.15202824073E+03  0.79632068672E+02 0.  0.
         66    2    3    3    0    0 -0.11706790226E+01 -0.35224324804E+02 -0.10005692844E+03  0.10610142530E+03  0.19999938194E+01 0.  0.
        -13    1    3    3    0    0  0.11706790226E+01  0.35224324804E+02 -0.29447201303E+02  0.45926815434E+02  0.10566000000E+00 0.  1.
         13    1    4    4    0    0 -0.12547671440E+01 -0.31308713629E+02 -0.89769014642E+02  0.95080477194E+02  0.10566000000E+00 0. -1.
        -13    1    4    4    0    0 -0.13118517682E+00 -0.46077049036E+00 -0.13024579327E+01  0.13917901054E+01  0.10566000000E+00 0. -1.
         14    1    4    4    0    0  0.21527329824E+00 -0.34548406840E+01 -0.89854558630E+01  0.96291580012E+01  0.00000000000E+00 0. -1.
<mgrwt>
<rscale>  0 0.79632069E+02</rscale>
<asrwt>0</asrwt>
<pdfrwt beam="1">  1        2 0.21656335E-01 0.79632069E+02</pdfrwt>
<pdfrwt beam="2">  1       -1 0.17326240E-02 0.79632069E+02</pdfrwt>
<totfact> 0.19869758E+05</totfact>
</mgrwt>
</event>
<event>
 8    1  0.1673046E-013  0.7964849E+02  0.7818608E-02  0.1330052E+00
          2   -1    0    0  501    0  0.00000000000E+00  0.00000000000E+00  0.23880299023E+02  0.23880299159E+02  0.25500000000E-02 0. -1.
         -1   -1    0    0    0  501 -0.00000000000E+00 -0.00000000000E+00 -0.66413340269E+02  0.66413340460E+02  0.50400000000E-02 0.  1.
         24    2    1    2    0    0  0.00000000000E+00  0.00000000000E+00 -0.42533041246E+02  0.90293639619E+02  0.79648488736E+02 0.  0.
         66    2    3    3    0    0  0.28374936172E+02  0.27906368484E+02 -0.20995171900E+02  0.45041088479E+02  0.20000008875E+01 0.  0.
        -13    1    3    3    0    0 -0.28374936172E+02 -0.27906368484E+02 -0.21537869346E+02  0.45252551140E+02  0.10566000000E+00 0.  1.
         13    1    4    4    0    0  0.91382004895E+01  0.92848618173E+01 -0.61464798383E+01  0.14405059722E+02  0.10566000000E+00 0. -1.
        -13    1    4    4    0    0  0.22201454896E+01  0.26523622139E+01 -0.18655854243E+01  0.39313667242E+01  0.10566000000E+00 0.  1.
         14    1    4    4    0    0  0.17016590193E+02  0.15969144452E+02 -0.12983106638E+02  0.26704662033E+02  0.00000000000E+00 0. -1.
<mgrwt>
<rscale>  0 0.79648489E+02</rscale>
<asrwt>0</asrwt>
<pdfrwt beam="1">  1        2 0.36738922E-02 0.79648489E+02</pdfrwt>
<pdfrwt beam="2">  1       -1 0.10217437E-01 0.79648489E+02</pdfrwt>
<totfact> 0.13025174E+05</totfact>
</mgrwt>
</event>
<event>
 8    1  0.1673046E-013  0.7751924E+02  0.7818608E-02  0.1336243E+00
          2   -1    0    0  501    0  0.00000000000E+00  0.00000000000E+00  0.47229505273E+02  0.47229505342E+02  0.25500000000E-02 0. -1.
         -1   -1    0    0    0  501 -0.00000000000E+00 -0.00000000000E+00 -0.31808678637E+02  0.31808679036E+02  0.50400000000E-02 0.  1.
         24    2    1    2    0    0  0.71054273576E-14  0.00000000000E+00  0.15420826637E+02  0.79038184378E+02  0.77519240809E+02 0.  0.
         66    2    3    3    0    0 -0.28295709839E+02 -0.13796738292E+02 -0.15294482071E+02  0.35055931869E+02  0.19999986489E+01 0.  0.
        -13    1    3    3    0    0  0.28295709839E+02  0.13796738292E+02  0.30715308707E+02  0.43982252509E+02  0.10566000000E+00 0.  1.
         13    1    4    4    0    0 -0.16272808432E+02 -0.76223455353E+01 -0.89733019688E+01  0.20085710293E+02  0.10566000000E+00 0. -1.
        -13    1    4    4    0    0 -0.25788828762E+01 -0.79466199127E+00 -0.13223103232E+01  0.30069574650E+01  0.10566000000E+00 0.  1.
        -14    1    4    4    0    0 -0.94440185308E+01 -0.53797307657E+01 -0.49988697786E+01  0.11963264111E+02  0.00000000000E+00 0.  1.
<mgrwt>
<rscale>  0 0.77519241E+02</rscale>
<asrwt>0</asrwt>
<pdfrwt beam="1">  1        2 0.72660777E-02 0.77519241E+02</pdfrwt>
<pdfrwt beam="2">  1       -1 0.48936429E-02 0.77519241E+02</pdfrwt>
<totfact> 0.16090361E+05</totfact>
</mgrwt>
</event>
<event>
 8    1  0.1673046E-013  0.7896972E+02  0.7818608E-02  0.1332001E+00
          2   -1    0    0  501    0  0.00000000000E+00  0.00000000000E+00  0.53182199269E+02  0.53182199330E+02  0.25500000000E-02 0. -1.
         -1   -1    0    0    0  501 -0.00000000000E+00 -0.00000000000E+00 -0.29315340385E+02  0.29315340818E+02  0.50400000000E-02 0.  1.
         24    2    1    2    0    0  0.35527136788E-14  0.00000000000E+00  0.23866858884E+02  0.82497540148E+02  0.78969723170E+02 0.  0.
         66    2    3    3    0    0  0.13665625240E+02  0.55485877155E+01  0.50175427597E+02  0.52336504181E+02  0.19999991244E+01 0.  0.
        -13    1    3    3    0    0 -0.13665625240E+02 -0.55485877155E+01 -0.26308568713E+02  0.30161035967E+02  0.10566000000E+00 0.  1.
         13    1    4    4    0    0  0.98790536789E+01  0.34117854959E+01  0.35603870273E+02  0.37106370400E+02  0.10566000000E+00 0. -1.
        -13    1    4    4    0    0  0.46148403637E+00  0.45237498012E-02  0.18367177879E+01  0.18967562437E+01  0.10566000000E+00 0.  1.
         14    1    4    4    0    0  0.33250875244E+01  0.21322784698E+01  0.12734839537E+02  0.13333377537E+02  0.00000000000E+00 0. -1.
<mgrwt>
<rscale>  0 0.78969723E+02</rscale>
<asrwt>0</asrwt>
<pdfrwt beam="1">  1        2 0.81818768E-02 0.78969723E+02</pdfrwt>
<pdfrwt beam="2">  1       -1 0.45100524E-02 0.78969723E+02</pdfrwt>
<totfact> 0.15692666E+05</totfact>
</mgrwt>
</event>
<event>
 8    1  0.1673046E-013  0.7671373E+02  0.7818608E-02  0.1338645E+00
          2   -1    0    0  501    0  0.00000000000E+00  0.00000000000E+00  0.66641861040E+02  0.66641861089E+02  0.25500000000E-02 0. -1.
         -1   -1    0    0    0  501 -0.00000000000E+00 -0.00000000000E+00 -0.22076949201E+02  0.22076949776E+02  0.50400000000E-02 0.  1.
         24    2    1    2    0    0 -0.71054273576E-14  0.11102230246E-15  0.44564911840E+02  0.88718810865E+02  0.76713727807E+02 0.  0.
         66    2    3    3    0    0 -0.36166115213E+02  0.63567924200E+00  0.36965056028E+02  0.51757196315E+02  0.20000063817E+01 0.  0.
        -13    1    3    3    0    0  0.36166115213E+02 -0.63567924200E+00  0.75998558115E+01  0.36961614550E+02  0.10566000000E+00 0.  1.
         13    1    4    4    0    0 -0.10278685454E+02  0.52235656512E+00  0.10596926816E+02  0.14772618354E+02  0.10566000000E+00 0. -1.
        -13    1    4    4    0    0 -0.50847196949E+01 -0.65698119450E-01  0.43468917743E+01  0.66906892584E+01  0.10566000000E+00 0.  1.
        -14    1    4    4    0    0 -0.20802710064E+02  0.17902079632E+00  0.22021237438E+02  0.30293888703E+02  0.00000000000E+00 0.  1.
<mgrwt>
<rscale>  0 0.76713728E+02</rscale>
<asrwt>0</asrwt>
<pdfrwt beam="1">  1        2 0.10252594E-01 0.76713728E+02</pdfrwt>
<pdfrwt beam="2">  1       -1 0.33964538E-02 0.76713728E+02</pdfrwt>
<totfact> 0.17871666E+05</totfact>
</mgrwt>
</event>
<event>
 8    1  0.1673046E-013  0.8000770E+02  0.7818608E-02  0.1329030E+00
          2   -1    0    0  501    0  0.00000000000E+00  0.00000000000E+00  0.65663774320E+03  0.65663774321E+03  0.25500000000E-02 0. -1.
         -1   -1    0    0    0  501 -0.00000000000E+00 -0.00000000000E+00 -0.24371220435E+01  0.24371272549E+01  0.50400000000E-02 0.  1.
         24    2    1    2    0    0 -0.35527136788E-14  0.00000000000E+00  0.65420062116E+03  0.65907487046E+03  0.80007700567E+02 0.  0.
         66    2    3    3    0    0 -0.26488700206E+02 -0.25526950141E+02  0.45625065664E+03  0.45773566405E+03  0.20000089092E+01 0.  0.
        -13    1    3    3    0    0  0.26488700206E+02  0.25526950141E+02  0.19794996451E+03  0.20133920641E+03  0.10566000000E+00 0.  1.
         13    1    4    4    0    0 -0.40619093326E+00 -0.20593287373E+00  0.68745654303E+01  0.68904436225E+01  0.10566000000E+00 0.  1.
        -13    1    4    4    0    0 -0.91703512072E+01 -0.82610300669E+01  0.15056761497E+03  0.15107269045E+03  0.10566000000E+00 0.  1.
         14    1    4    4    0    0 -0.16912158066E+02 -0.17059987200E+02  0.29880847624E+03  0.29977252998E+03  0.00000000000E+00 0. -1.
<mgrwt>
<rscale>  0 0.80007701E+02</rscale>
<asrwt>0</asrwt>
<pdfrwt beam="1">  1        2 0.10102123E+00 0.80007701E+02</pdfrwt>
<pdfrwt beam="2">  1       -1 0.37494211E-03 0.80007701E+02</pdfrwt>
<totfact> 0.32933577E+05</totfact>
</mgrwt>
</event>
<event>
 8    1  0.1673046E-013  0.7965689E+02  0.7818608E-02  0.1330028E+00
         -1   -1    0    0    0  501 -0.00000000000E+00  0.00000000000E+00  0.14630994642E+02  0.14630995510E+02  0.50400000000E-02 0.  1.
          2   -1    0    0  501    0  0.00000000000E+00 -0.00000000000E+00 -0.10842085745E+03  0.10842085748E+03  0.25500000000E-02 0. -1.
         24    2    1    2    0    0  0.22204460493E-15  0.00000000000E+00 -0.93789862808E+02  0.12305185299E+03  0.79656890215E+02 0.  0.
         66    2    3    3    0    0 -0.14144727245E+01 -0.20127647184E+02 -0.99925614099E+02  0.10196200894E+03  0.19999997804E+01 0.  0.
        -13    1    3    3    0    0  0.14144727245E+01  0.20127647184E+02  0.61357512913E+01  0.21089844053E+02  0.10566000000E+00 0.  1.
         13    1    4    4    0    0 -0.19912079152E+00 -0.48497079425E+01 -0.22307291978E+02  0.22829493110E+02  0.10566000000E+00 0. -1.
        -13    1    4    4    0    0 -0.76935440613E+00 -0.24431527239E+01 -0.12829010920E+02  0.13082644482E+02  0.10566000000E+00 0.  1.
         14    1    4    4    0    0 -0.44599752683E+00 -0.12834786517E+02 -0.64789311201E+02  0.66049871345E+02  0.00000000000E+00 0. -1.
<mgrwt>
<rscale>  0 0.79656890E+02</rscale>
<asrwt>0</asrwt>
<pdfrwt beam="1">  1        2 0.16680131E-01 0.79656890E+02</pdfrwt>
<pdfrwt beam="2">  1       -1 0.22509224E-02 0.79656890E+02</pdfrwt>
<totfact> 0.18347343E+05</totfact>
</mgrwt>
</event>
<event>
 8    1  0.1673046E-013  0.8154701E+02  0.7818608E-02  0.1324718E+00
          2   -1    0    0  501    0  0.00000000000E+00  0.00000000000E+00  0.17042685079E+03  0.17042685081E+03  0.25500000000E-02 0. -1.
         -1   -1    0    0    0  501 -0.00000000000E+00 -0.00000000000E+00 -0.97547931944E+01  0.97547944964E+01  0.50400000000E-02 0.  1.
         24    2    1    2    0    0  0.71054273576E-14  0.00000000000E+00  0.16067205760E+03  0.18018164531E+03  0.81547012288E+02 0.  0.
         66    2    3    3    0    0  0.36625033197E+02 -0.34401225696E+00  0.11984559523E+03  0.12533346763E+03  0.20000026725E+01 0.  0.
        -13    1    3    3    0    0 -0.36625033197E+02  0.34401225696E+00  0.40826462365E+02  0.54848177677E+02  0.10566000000E+00 0.  1.
         13    1    4    4    0    0  0.90495669397E+01 -0.20797158225E+00  0.28555569734E+02  0.29956128602E+02  0.10566000000E+00 0. -1.
        -13    1    4    4    0    0  0.10374413594E+02 -0.61849728347E+00  0.36180926453E+02  0.37644144290E+02  0.10566000000E+00 0.  1.
         14    1    4    4    0    0  0.17201052664E+02  0.48245660876E+00  0.55109099046E+02  0.57733194739E+02  0.00000000000E+00 0. -1.
<mgrwt>
<rscale>  0 0.81547012E+02</rscale>
<asrwt>0</asrwt>
<pdfrwt beam="1">  1        2 0.26219515E-01 0.81547012E+02</pdfrwt>
<pdfrwt beam="2">  1       -1 0.15007375E-02 0.81547012E+02</pdfrwt>
<totfact> 0.19853346E+05</totfact>
</mgrwt>
</event>
<event>
 8    1  0.1673046E-013  0.8006780E+02  0.7818608E-02  0.1328859E+00
          2   -1    0    0  501    0  0.00000000000E+00  0.00000000000E+00  0.10170435853E+04  0.10170435853E+04  0.25500000000E-02 0. -1.
         -1   -1    0    0    0  501 -0.00000000000E+00 -0.00000000000E+00 -0.15758507815E+01  0.15758588411E+01  0.50400000000E-02 0.  1.
         24    2    1    2    0    0  0.35527136788E-14  0.00000000000E+00  0.10154677345E+04  0.10186194442E+04  0.80067797153E+02 0.  0.
         66    2    3    3    0    0 -0.18243738476E+02  0.96327735354E+01  0.94415219715E+03  0.94437968826E+03  0.19999743531E+01 0.  0.
        -13    1    3    3    0    0  0.18243738476E+02 -0.96327735354E+01  0.71315537395E+02  0.74239755910E+02  0.10566000000E+00 0.  1.
         13    1    4    4    0    0 -0.85896813441E+01  0.45016969068E+01  0.47711701296E+03  0.47721557301E+03  0.10566000000E+00 0. -1.
        -13    1    4    4    0    0 -0.88510624635E+01  0.46870179314E+01  0.41507002709E+03  0.41519085732E+03  0.10566000000E+00 0.  1.
        -14    1    4    4    0    0 -0.80299466840E+00  0.44405869722E+00  0.51965157094E+02  0.51973257935E+02  0.00000000000E+00 0.  1.
<mgrwt>
<rscale>  0 0.80067797E+02</rscale>
<asrwt>0</asrwt>
<pdfrwt beam="1">  1        2 0.15646864E+00 0.80067797E+02</pdfrwt>
<pdfrwt beam="2">  1       -1 0.24243859E-03 0.80067797E+02</pdfrwt>
<totfact> 0.35175079E+05</totfact>
</mgrwt>
</event>
<event>
 8    1  0.1673046E-013  0.8393379E+02  0.7818608E-02  0.1318245E+00
          2   -1    0    0  501    0  0.00000000000E+00  0.00000000000E+00  0.52529278287E+03  0.52529278288E+03  0.25500000000E-02 0. -1.
         -1   -1    0    0    0  501 -0.00000000000E+00 -0.00000000000E+00 -0.33528332497E+01  0.33528370377E+01  0.50400000000E-02 0.  1.
         24    2    1    2    0    0  0.00000000000E+00 -0.17763568394E-14  0.52193994962E+03  0.52864561991E+03  0.83933786073E+02 0.  0.
         66    2    3    3    0    0 -0.37710956953E+02  0.96806079870E+01  0.35937720640E+03  0.36148555563E+03  0.20000003021E+01 0.  0.
        -13    1    3    3    0    0  0.37710956953E+02 -0.96806079870E+01  0.16256274322E+03  0.16716006429E+03  0.10566000000E+00 0.  1.
         13    1    4    4    0    0 -0.12988362591E+02  0.30249143650E+01  0.12298061402E+03  0.12370161785E+03  0.10566000000E+00 0. -1.
        -13    1    4    4    0    0 -0.14444720041E+02  0.38934464575E+01  0.13109035952E+03  0.13194128385E+03  0.10566000000E+00 0.  1.
        -14    1    4    4    0    0 -0.10277874321E+02  0.27622471645E+01  0.10530623287E+03  0.10584265393E+03  0.00000000000E+00 0.  1.
<mgrwt>
<rscale>  0 0.83933786E+02</rscale>
<asrwt>0</asrwt>
<pdfrwt beam="1">  1        2 0.80814268E-01 0.83933786E+02</pdfrwt>
<pdfrwt beam="2">  1       -1 0.51582083E-03 0.83933786E+02</pdfrwt>
<totfact> 0.27283524E+05</totfact>
</mgrwt>
</event>
<event>
 8    1  0.1673046E-013  0.8010971E+02  0.7818608E-02  0.1328740E+00
         -1   -1    0    0    0  501 -0.00000000000E+00  0.00000000000E+00  0.32343289688E+01  0.32343328957E+01  0.50400000000E-02 0.  1.
          2   -1    0    0  501    0  0.00000000000E+00 -0.00000000000E+00 -0.49605048538E+03  0.49605048539E+03  0.25500000000E-02 0. -1.
         24    2    1    2    0    0 -0.35527136788E-14  0.00000000000E+00 -0.49281615641E+03  0.49928481829E+03  0.80109710692E+02 0.  0.
         66    2    3    3    0    0 -0.27317253503E+02 -0.29165512947E+02 -0.26121359339E+03  0.26426010076E+03  0.19999993767E+01 0.  0.
        -13    1    3    3    0    0  0.27317253503E+02  0.29165512947E+02 -0.23160256303E+03  0.23502471753E+03  0.10566000000E+00 0.  1.
         13    1    4    4    0    0 -0.13911914302E+02 -0.15366141011E+02 -0.13280835703E+03  0.13441625836E+03  0.10566000000E+00 0. -1.
        -13    1    4    4    0    0 -0.65417355048E+01 -0.63963953217E+01 -0.57454776745E+02  0.58178782312E+02  0.10566000000E+00 0.  1.
        -14    1    4    4    0    0 -0.68636036970E+01 -0.74029766141E+01 -0.70950459611E+02  0.71665060088E+02  0.00000000000E+00 0.  1.
<mgrwt>
<rscale>  0 0.80109711E+02</rscale>
<asrwt>0</asrwt>
<pdfrwt beam="1">  1        2 0.76315399E-01 0.80109711E+02</pdfrwt>
<pdfrwt beam="2">  1       -1 0.49758977E-03 0.80109711E+02</pdfrwt>
<totfact> 0.30265997E+05</totfact>
</mgrwt>
</event>
<event>
 8    1  0.1673046E-013  0.8083550E+02  0.7818608E-02  0.1326697E+00
          2   -1    0    0  501    0  0.00000000000E+00  0.00000000000E+00  0.51727379805E+03  0.51727379806E+03  0.25500000000E-02 0. -1.
         -1   -1    0    0    0  501 -0.00000000000E+00 -0.00000000000E+00 -0.31580824216E+01  0.31580864433E+01  0.50400000000E-02 0.  1.
         24    2    1    2    0    0  0.00000000000E+00  0.00000000000E+00  0.51411571563E+03  0.52043188450E+03  0.80835495593E+02 0.  0.
         66    2    3    3    0    0  0.65374180458E+01  0.20116736719E+02  0.47876313122E+03  0.47923434429E+03  0.19999999955E+01 0.  0.
        -13    1    3    3    0    0 -0.65374180458E+01 -0.20116736719E+02  0.35352584404E+02  0.41197540206E+02  0.10566000000E+00 0.  1.
         13    1    4    4    0    0  0.30192330941E+01  0.10894964964E+02  0.26103225385E+03  0.26127698855E+03  0.10566000000E+00 0. -1.
        -13    1    4    4    0    0  0.26223437208E+01  0.54002633199E+01  0.12856273566E+03  0.12870286592E+03  0.10566000000E+00 0.  1.
        -14    1    4    4    0    0  0.89584123081E+00  0.38215084352E+01  0.89168141708E+02  0.89254489825E+02  0.00000000000E+00 0.  1.
<mgrwt>
<rscale>  0 0.80835496E+02</rscale>
<asrwt>0</asrwt>
<pdfrwt beam="1">  1        2 0.79580534E-01 0.80835496E+02</pdfrwt>
<pdfrwt beam="2">  1       -1 0.48585945E-03 0.80835496E+02</pdfrwt>
<totfact> 0.29956960E+05</totfact>
</mgrwt>
</event>
<event>
 8    1  0.1673046E-013  0.8006562E+02  0.7818608E-02  0.1328865E+00
         -1   -1    0    0    0  501 -0.00000000000E+00  0.00000000000E+00  0.37754892983E+01  0.37754926623E+01  0.50400000000E-02 0.  1.
          2   -1    0    0  501    0  0.00000000000E+00 -0.00000000000E+00 -0.42448142452E+03  0.42448142453E+03  0.25500000000E-02 0. -1.
         24    2    1    2    0    0 -0.17763568394E-14  0.00000000000E+00 -0.42070593522E+03  0.42825691719E+03  0.80065618028E+02 0.  0.
         66    2    3    3    0    0 -0.14030437332E+02 -0.17670276534E+02 -0.38719989357E+03  0.38786189478E+03  0.19999987557E+01 0.  0.
        -13    1    3    3    0    0  0.14030437332E+02  0.17670276534E+02 -0.33506041653E+02  0.40395022414E+02  0.10566000000E+00 0.  1.
         13    1    4    4    0    0 -0.65457862589E+01 -0.79529604752E+01 -0.19113918278E+03  0.19141654906E+03  0.10566000000E+00 0. -1.
        -13    1    4    4    0    0 -0.24946246317E+01 -0.32160272813E+01 -0.59905306148E+02  0.60043507995E+02  0.10566000000E+00 0.  1.
        -14    1    4    4    0    0 -0.49900264418E+01 -0.65012887779E+01 -0.13615540464E+03  0.13640183772E+03  0.00000000000E+00 0.  1.
<mgrwt>
<rscale>  0 0.80065618E+02</rscale>
<asrwt>0</asrwt>
<pdfrwt beam="1">  1        2 0.65304797E-01 0.80065618E+02</pdfrwt>
<pdfrwt beam="2">  1       -1 0.58084510E-03 0.80065618E+02</pdfrwt>
<totfact> 0.28779469E+05</totfact>
</mgrwt>
</event>
<event>
 8    1  0.1673046E-013  0.7893606E+02  0.7818608E-02  0.1332098E+00
          2   -1    0    0  501    0  0.00000000000E+00  0.00000000000E+00  0.63540496101E+03  0.63540496101E+03  0.25500000000E-02 0. -1.
         -1   -1    0    0    0  501 -0.00000000000E+00 -0.00000000000E+00 -0.24515449426E+01  0.24515501233E+01  0.50400000000E-02 0.  1.
         24    2    1    2    0    0  0.71054273576E-14  0.00000000000E+00  0.63295341607E+03  0.63785651114E+03  0.78936062040E+02 0.  0.
         66    2    3    3    0    0 -0.33810740269E+02 -0.91287421932E+01  0.46329853558E+03  0.46462461532E+03  0.19999997945E+01 0.  0.
        -13    1    3    3    0    0  0.33810740269E+02  0.91287421932E+01  0.16965488048E+03  0.17323189581E+03  0.10566000000E+00 0.  1.
         13    1    4    4    0    0 -0.19840754821E+02 -0.56746913869E+01  0.27228125567E+03  0.27306217429E+03  0.10566000000E+00 0. -1.
        -13    1    4    4    0    0 -0.90405329213E+01 -0.18813549632E+01  0.12849275801E+03  0.12882418545E+03  0.10566000000E+00 0. -1.
         14    1    4    4    0    0 -0.49294525272E+01 -0.15726958431E+01  0.62524521895E+02  0.62738255576E+02  0.00000000000E+00 0. -1.
<mgrwt>
<rscale>  0 0.78936062E+02</rscale>
<asrwt>0</asrwt>
<pdfrwt beam="1">  1        2 0.97754528E-01 0.78936062E+02</pdfrwt>
<pdfrwt beam="2">  1       -1 0.37716147E-03 0.78936062E+02</pdfrwt>
<totfact> 0.33822222E+05</totfact>
</mgrwt>
</event>
<event>
 8    1  0.1673046E-013  0.8047450E+02  0.7818608E-02  0.1327710E+00
          2   -1    0    0  501    0  0.00000000000E+00  0.00000000000E+00  0.94847672118E+02  0.94847672153E+02  0.25500000000E-02 0. -1.
         -1   -1    0    0    0  501 -0.00000000000E+00 -0.00000000000E+00 -0.17069855544E+02  0.17069856288E+02  0.50400000000E-02 0.  1.
         24    2    1    2    0    0  0.00000000000E+00  0.00000000000E+00  0.77777816575E+02  0.11191752844E+03  0.80474495469E+02 0.  0.
         66    2    3    3    0    0  0.89424052191E+01 -0.10782692768E+02  0.91333948491E+02  0.92423607567E+02  0.20000035443E+01 0.  0.
        -13    1    3    3    0    0 -0.89424052191E+01  0.10782692768E+02 -0.13556131917E+02  0.19493920873E+02  0.10566000000E+00 0.  1.
         13    1    4    4    0    0  0.17130529587E+01 -0.20751775093E+01  0.18986302978E+02  0.19176333772E+02  0.10566000000E+00 0. -1.
        -13    1    4    4    0    0  0.20926932853E+01 -0.14837270571E+01  0.14819424793E+02  0.15040190371E+02  0.10566000000E+00 0.  1.
        -14    1    4    4    0    0  0.51366589752E+01 -0.72237882019E+01  0.57528220721E+02  0.58207083424E+02  0.00000000000E+00 0.  1.
<mgrwt>
<rscale>  0 0.80474495E+02</rscale>
<asrwt>0</asrwt>
<pdfrwt beam="1">  1        2 0.14591950E-01 0.80474495E+02</pdfrwt>
<pdfrwt beam="2">  1       -1 0.26261316E-02 0.80474495E+02</pdfrwt>
<totfact> 0.17192873E+05</totfact>
</mgrwt>
</event>
<event>
 8    1  0.1673046E-013  0.7933620E+02  0.7818608E-02  0.1330946E+00
          2   -1    0    0  501    0  0.00000000000E+00  0.00000000000E+00  0.23766358246E+02  0.23766358383E+02  0.25500000000E-02 0. -1.
         -1   -1    0    0    0  501 -0.00000000000E+00 -0.00000000000E+00 -0.66209478733E+02  0.66209478925E+02  0.50400000000E-02 0.  1.
         24    2    1    2    0    0  0.00000000000E+00 -0.35527136788E-14 -0.42443120487E+02  0.89975837308E+02  0.79336201211E+02 0.  0.
         66    2    3    3    0    0 -0.17066171749E+02 -0.30630293311E+02 -0.25909078856E+00  0.35121734343E+02  0.20000021949E+01 0.  0.
        -13    1    3    3    0    0  0.17066171749E+02  0.30630293311E+02 -0.42184029698E+02  0.54854102965E+02  0.10566000000E+00 0.  1.
         13    1    4    4    0    0 -0.55388222507E+01 -0.92627488701E+01 -0.64282352480E+00  0.10812097607E+02  0.10566000000E+00 0. -1.
        -13    1    4    4    0    0 -0.40035218999E+01 -0.73622294805E+01 -0.41452137739E+00  0.83912813404E+01  0.10566000000E+00 0.  1.
        -14    1    4    4    0    0 -0.75238275982E+01 -0.14005314960E+02  0.79825411364E+00  0.15918355395E+02  0.00000000000E+00 0.  1.
<mgrwt>
<rscale>  0 0.79336201E+02</rscale>
<asrwt>0</asrwt>
<pdfrwt beam="1">  1        2 0.36563629E-02 0.79336201E+02</pdfrwt>
<pdfrwt beam="2">  1       -1 0.10186074E-01 0.79336201E+02</pdfrwt>
<totfact> 0.13158736E+05</totfact>
</mgrwt>
</event>
<event>
 8    1  0.1673046E-013  0.8005695E+02  0.7818608E-02  0.1328890E+00
         -1   -1    0    0    0  501 -0.00000000000E+00  0.00000000000E+00  0.16953770203E+01  0.16953845117E+01  0.50400000000E-02 0.  1.
          2   -1    0    0  501    0  0.00000000000E+00 -0.00000000000E+00 -0.94508484487E+03  0.94508484487E+03  0.25500000000E-02 0. -1.
         24    2    1    2    0    0  0.00000000000E+00  0.00000000000E+00 -0.94338946785E+03  0.94678022939E+03  0.80056946637E+02 0.  0.
         66    2    3    3    0    0 -0.17483675611E+02 -0.14780877824E+02 -0.85994263006E+03  0.86024966159E+03  0.20000014858E+01 0.  0.
        -13    1    3    3    0    0  0.17483675611E+02  0.14780877824E+02 -0.83446837790E+02  0.86530567798E+02  0.10566000000E+00 0.  1.
         13    1    4    4    0    0 -0.59489755877E+01 -0.58854297219E+01 -0.30423687533E+03  0.30435196084E+03  0.10566000000E+00 0. -1.
        -13    1    4    4    0    0 -0.11353786239E+02 -0.88473914124E+01 -0.55144779288E+03  0.55163562633E+03  0.10566000000E+00 0.  1.
        -14    1    4    4    0    0 -0.18091378449E+00 -0.48056689725E-01 -0.42579618489E+01  0.42620744186E+01  0.00000000000E+00 0.  1.
<mgrwt>
<rscale>  0 0.80056947E+02</rscale>
<asrwt>0</asrwt>
<pdfrwt beam="1">  1        2 0.14539725E+00 0.80056947E+02</pdfrwt>
<pdfrwt beam="2">  1       -1 0.26082857E-03 0.80056947E+02</pdfrwt>
<totfact> 0.35044751E+05</totfact>
</mgrwt>
</event>
<event>
 8    1  0.1673046E-013  0.8017419E+02  0.7818608E-02  0.1328558E+00
         -1   -1    0    0    0  501 -0.00000000000E+00  0.00000000000E+00  0.81546109987E+01  0.81546125562E+01  0.50400000000E-02 0.  1.
          2   -1    0    0  501    0  0.00000000000E+00 -0.00000000000E+00 -0.19706333856E+03  0.19706333858E+03  0.25500000000E-02 0. -1.
         24    2    1    2    0    0  0.00000000000E+00  0.00000000000E+00 -0.18890872756E+03  0.20521795113E+03  0.80174186110E+02 0.  0.
         66    2    3    3    0    0  0.15644387671E+02 -0.51133494184E+01 -0.18800428052E+03  0.18873394688E+03  0.20000003893E+01 0.  0.
        -13    1    3    3    0    0 -0.15644387671E+02  0.51133494184E+01 -0.90444704146E+00  0.16484004257E+02  0.10566000000E+00 0.  1.
         13    1    4    4    0    0  0.86481982101E+00 -0.50698881334E+00 -0.82109837990E+01  0.82726277544E+01  0.10566000000E+00 0. -1.
        -13    1    4    4    0    0  0.12762402435E+01 -0.24665038476E+00 -0.12811711021E+02  0.12877916325E+02  0.10566000000E+00 0.  1.
         14    1    4    4    0    0  0.13503327606E+02 -0.43597102203E+01 -0.16698158570E+03  0.16758340280E+03  0.00000000000E+00 0. -1.
<mgrwt>
<rscale>  0 0.80174186E+02</rscale>
<asrwt>0</asrwt>
<pdfrwt beam="1">  1        2 0.30317433E-01 0.80174186E+02</pdfrwt>
<pdfrwt beam="2">  1       -1 0.12545558E-02 0.80174186E+02</pdfrwt>
<totfact> 0.21820065E+05</totfact>
</mgrwt>
</event>
<event>
 8    1  0.1673046E-013  0.8047653E+02  0.7818608E-02  0.1327705E+00
          2   -1    0    0  501    0  0.00000000000E+00  0.00000000000E+00  0.92401641524E+02  0.92401641560E+02  0.25500000000E-02 0. -1.
         -1   -1    0    0    0  501 -0.00000000000E+00 -0.00000000000E+00 -0.17522608326E+02  0.17522609050E+02  0.50400000000E-02 0.  1.
         24    2    1    2    0    0  0.71054273576E-14  0.00000000000E+00  0.74879033199E+02  0.10992425061E+03  0.80476526139E+02 0.  0.
         66    2    3    3    0    0 -0.37775312776E+02 -0.26765057280E+00  0.18631392812E+02  0.42168408756E+02  0.20000016916E+01 0.  0.
        -13    1    3    3    0    0  0.37775312776E+02  0.26765057280E+00  0.56247640387E+02  0.67755841854E+02  0.10566000000E+00 0.  1.
         13    1    4    4    0    0 -0.17419916851E+02 -0.73625737610E+00  0.86899015097E+01  0.19481302069E+02  0.10566000000E+00 0. -1.
        -13    1    4    4    0    0 -0.10954013513E+02 -0.32756210165E-02  0.47839631654E+01  0.11953572285E+02  0.10566000000E+00 0.  1.
        -14    1    4    4    0    0 -0.94013824124E+01  0.47188242432E+00  0.51575281368E+01  0.10733534402E+02  0.00000000000E+00 0.  1.
<mgrwt>
<rscale>  0 0.80476526E+02</rscale>
<asrwt>0</asrwt>
<pdfrwt beam="1">  1        2 0.14215637E-01 0.80476526E+02</pdfrwt>
<pdfrwt beam="2">  1       -1 0.26957860E-02 0.80476526E+02</pdfrwt>
<totfact> 0.17069321E+05</totfact>
</mgrwt>
</event>
<event>
 8    1  0.1673046E-013  0.8104853E+02  0.7818608E-02  0.1326102E+00
          2   -1    0    0  501    0  0.00000000000E+00  0.00000000000E+00  0.21700216677E+02  0.21700216827E+02  0.25500000000E-02 0. -1.
         -1   -1    0    0    0  501 -0.00000000000E+00 -0.00000000000E+00 -0.75677403218E+02  0.75677403385E+02  0.50400000000E-02 0.  1.
         24    2    1    2    0    0  0.00000000000E+00  0.00000000000E+00 -0.53977186541E+02  0.97377620212E+02  0.81048530223E+02 0.  0.
         66    2    3    3    0    0  0.18424980745E+02  0.32536196928E+02 -0.83095423829E+01  0.38355345494E+02  0.20000018205E+01 0.  0.
        -13    1    3    3    0    0 -0.18424980745E+02 -0.32536196928E+02 -0.45667644158E+02  0.59022274719E+02  0.10566000000E+00 0.  1.
         13    1    4    4    0    0  0.40502831640E+01  0.62188896917E+01 -0.23079655755E+01  0.77728535197E+01  0.10566000000E+00 0. -1.
        -13    1    4    4    0    0  0.70496339877E+01  0.12995851022E+02 -0.30026467968E+01  0.15086965731E+02  0.10566000000E+00 0.  1.
         14    1    4    4    0    0  0.73250635937E+01  0.13321456215E+02 -0.29989300106E+01  0.15495526243E+02  0.00000000000E+00 0. -1.
<mgrwt>
<rscale>  0 0.81048530E+02</rscale>
<asrwt>0</asrwt>
<pdfrwt beam="1">  1        2 0.33384949E-02 0.81048530E+02</pdfrwt>
<pdfrwt beam="2">  1       -1 0.11642677E-01 0.81048530E+02</pdfrwt>
<totfact> 0.12159572E+05</totfact>
</mgrwt>
</event>
<event>
 8    1  0.1673046E-013  0.8029990E+02  0.7818608E-02  0.1328202E+00
          2   -1    0    0  501    0  0.00000000000E+00  0.00000000000E+00  0.94058933250E+02  0.94058933284E+02  0.25500000000E-02 0. -1.
         -1   -1    0    0    0  501 -0.00000000000E+00 -0.00000000000E+00 -0.17138389227E+02  0.17138389968E+02  0.50400000000E-02 0.  1.
         24    2    1    2    0    0  0.00000000000E+00  0.71054273576E-14  0.76920544023E+02  0.11119732325E+03  0.80299904145E+02 0.  0.
         66    2    3    3    0    0  0.87821135414E+01  0.35318585700E+02  0.61881671972E+02  0.71818307893E+02  0.20000020829E+01 0.  0.
        -13    1    3    3    0    0 -0.87821135414E+01 -0.35318585700E+02  0.15038872050E+02  0.39379015360E+02  0.10566000000E+00 0.  1.
         13    1    4    4    0    0  0.57854819294E+01  0.22472016413E+02  0.40156411769E+02  0.46379002717E+02  0.10566000000E+00 0. -1.
        -13    1    4    4    0    0  0.46599226465E+00  0.40678691344E+01  0.64675012220E+01  0.76553539551E+01  0.10566000000E+00 0.  1.
         14    1    4    4    0    0  0.25306393473E+01  0.87787001531E+01  0.15257758981E+02  0.17783951221E+02  0.00000000000E+00 0. -1.
<mgrwt>
<rscale>  0 0.80299904E+02</rscale>
<asrwt>0</asrwt>
<pdfrwt beam="1">  1        2 0.14470605E-01 0.80299904E+02</pdfrwt>
<pdfrwt beam="2">  1       -1 0.26366754E-02 0.80299904E+02</pdfrwt>
<totfact> 0.17253840E+05</totfact>
</mgrwt>
</event>
<event>
 8    1  0.1673046E-013  0.8367826E+02  0.7818608E-02  0.1318926E+00
          2   -1    0    0  501    0  0.00000000000E+00  0.00000000000E+00  0.52876447543E+02  0.52876447605E+02  0.25500000000E-02 0. -1.
         -1   -1    0    0    0  501 -0.00000000000E+00 -0.00000000000E+00 -0.33105722155E+02  0.33105722539E+02  0.50400000000E-02 0.  1.
         24    2    1    2    0    0 -0.35527136788E-14  0.00000000000E+00  0.19770725388E+02  0.85982170144E+02  0.83678264802E+02 0.  0.
         66    2    3    3    0    0  0.22004332123E+02 -0.35484035687E+02  0.75477324101E+01  0.42476766547E+02  0.20000027354E+01 0.  0.
        -13    1    3    3    0    0 -0.22004332123E+02  0.35484035687E+02  0.12222992978E+02  0.43505403597E+02  0.10566000000E+00 0.  1.
         13    1    4    4    0    0  0.94121221752E+01 -0.14201966892E+02  0.26934925004E+01  0.17249636904E+02  0.10566000000E+00 0. -1.
        -13    1    4    4    0    0  0.50422234185E+01 -0.74356499684E+01  0.17604467331E+01  0.91555034919E+01  0.10566000000E+00 0.  1.
         14    1    4    4    0    0  0.75499865289E+01 -0.13846418827E+02  0.30937931766E+01  0.16071626151E+02  0.00000000000E+00 0. -1.
<mgrwt>
<rscale>  0 0.83678265E+02</rscale>
<asrwt>0</asrwt>
<pdfrwt beam="1">  1        2 0.81348380E-02 0.83678265E+02</pdfrwt>
<pdfrwt beam="2">  1       -1 0.50931881E-02 0.83678265E+02</pdfrwt>
<totfact> 0.13373207E+05</totfact>
</mgrwt>
</event>
<event>
 8    1  0.1673046E-013  0.7941926E+02  0.7818608E-02  0.1330708E+00
         -1   -1    0    0    0  501 -0.00000000000E+00  0.00000000000E+00  0.49540875220E+02  0.49540875476E+02  0.50400000000E-02 0.  1.
          2   -1    0    0  501    0  0.00000000000E+00 -0.00000000000E+00 -0.31829369442E+02  0.31829369544E+02  0.25500000000E-02 0. -1.
         24    2    1    2    0    0 -0.17763568394E-14 -0.44408920985E-15  0.17711505777E+02  0.81370245020E+02  0.79419263014E+02 0.  0.
         66    2    3    3    0    0  0.11176223382E+02  0.39538840874E+01 -0.29941270171E+02  0.32264854399E+02  0.20000003654E+01 0.  0.
        -13    1    3    3    0    0 -0.11176223382E+02 -0.39538840874E+01  0.47652775948E+02  0.49105390621E+02  0.10566000000E+00 0.  1.
         13    1    4    4    0    0  0.84581598369E+01  0.31165093408E+01 -0.23481475983E+02  0.25152414927E+02  0.10566000000E+00 0. -1.
        -13    1    4    4    0    0  0.27559342052E+00 -0.13143486802E+00 -0.10445174701E+01  0.10933469892E+01  0.10566000000E+00 0.  1.
         14    1    4    4    0    0  0.24424701245E+01  0.96880961461E+00 -0.54152767182E+01  0.60190924825E+01  0.00000000000E+00 0. -1.
<mgrwt>
<rscale>  0 0.79419263E+02</rscale>
<asrwt>0</asrwt>
<pdfrwt beam="1">  1        2 0.48968261E-02 0.79419263E+02</pdfrwt>
<pdfrwt beam="2">  1       -1 0.76216732E-02 0.79419263E+02</pdfrwt>
<totfact> 0.13893548E+05</totfact>
</mgrwt>
</event>
<event>
 8    1  0.1673046E-013  0.7864538E+02  0.7818608E-02  0.1332940E+00
          2   -1    0    0  501    0  0.00000000000E+00  0.00000000000E+00  0.87761813557E+02  0.87761813594E+02  0.25500000000E-02 0. -1.
         -1   -1    0    0    0  501 -0.00000000000E+00 -0.00000000000E+00 -0.17618980908E+02  0.17618981629E+02  0.50400000000E-02 0.  1.
         24    2    1    2    0    0 -0.17763568394E-14  0.00000000000E+00  0.70142832650E+02  0.10538079522E+03  0.78645375132E+02 0.  0.
         66    2    3    3    0    0 -0.15151529013E+02 -0.39154671251E+01  0.83394859528E+02  0.84874037930E+02  0.20000011868E+01 0.  0.
        -13    1    3    3    0    0  0.15151529013E+02  0.39154671251E+01 -0.13252026878E+02  0.20506757292E+02  0.10566000000E+00 0.  1.
         13    1    4    4    0    0 -0.11105578116E+02 -0.32398976334E+01  0.58704052677E+02  0.59833166109E+02  0.10566000000E+00 0. -1.
        -13    1    4    4    0    0 -0.28295008575E+01 -0.17741367440E+00  0.15661736416E+02  0.15916617175E+02  0.10566000000E+00 0.  1.
         14    1    4    4    0    0 -0.12164500394E+01 -0.49815581736E+00  0.90290704355E+01  0.91242546460E+01  0.00000000000E+00 0. -1.
<mgrwt>
<rscale>  0 0.78645375E+02</rscale>
<asrwt>0</asrwt>
<pdfrwt beam="1">  1        2 0.13501817E-01 0.78645375E+02</pdfrwt>
<pdfrwt beam="2">  1       -1 0.27106125E-02 0.78645375E+02</pdfrwt>
<totfact> 0.17907760E+05</totfact>
</mgrwt>
</event>
<event>
 8    1  0.1673046E-013  0.7986516E+02  0.7818608E-02  0.1329435E+00
         -1   -1    0    0    0  501 -0.00000000000E+00  0.00000000000E+00  0.13553413762E+01  0.13553507471E+01  0.50400000000E-02 0.  1.
          2   -1    0    0  501    0  0.00000000000E+00 -0.00000000000E+00 -0.11765341370E+04  0.11765341370E+04  0.25500000000E-02 0. -1.
         24    2    1    2    0    0  0.00000000000E+00  0.35527136788E-14 -0.11751787956E+04  0.11778894878E+04  0.79865159288E+02 0.  0.
         66    2    3    3    0    0 -0.12428049521E+02  0.22846093709E+02 -0.10343768527E+04  0.10347056943E+04  0.19999983885E+01 0.  0.
        -13    1    3    3    0    0  0.12428049521E+02 -0.22846093709E+02 -0.14080194289E+03  0.14318379342E+03  0.10566000000E+00 0.  1.
         13    1    4    4    0    0 -0.47310676769E+00  0.68834933567E+00 -0.27885087017E+02  0.27897793762E+02  0.10566000000E+00 0. -1.
        -13    1    4    4    0    0 -0.88401937480E+01  0.15883104853E+02 -0.69863916090E+03  0.69887560435E+03  0.10566000000E+00 0. -1.
         14    1    4    4    0    0 -0.31147490056E+01  0.62746395204E+01 -0.30785260482E+03  0.30793229622E+03  0.00000000000E+00 0. -1.
<mgrwt>
<rscale>  0 0.79865159E+02</rscale>
<asrwt>0</asrwt>
<pdfrwt beam="1">  1        2 0.18100444E+00 0.79865159E+02</pdfrwt>
<pdfrwt beam="2">  1       -1 0.20851572E-03 0.79865159E+02</pdfrwt>
<totfact> 0.35261954E+05</totfact>
</mgrwt>
</event>
<event>
 8    1  0.1673046E-013  0.7859336E+02  0.7818608E-02  0.1333091E+00
         -1   -1    0    0    0  501 -0.00000000000E+00  0.00000000000E+00  0.15977618968E+02  0.15977619762E+02  0.50400000000E-02 0.  1.
          2   -1    0    0  501    0  0.00000000000E+00 -0.00000000000E+00 -0.96649506867E+02  0.96649506901E+02  0.25500000000E-02 0. -1.
         24    2    1    2    0    0 -0.88817841970E-15  0.00000000000E+00 -0.80671887900E+02  0.11262712666E+03  0.78593359536E+02 0.  0.
         66    2    3    3    0    0 -0.56144310943E+01  0.36468619436E+02 -0.21096204063E+02  0.42550345139E+02  0.20000013759E+01 0.  0.
        -13    1    3    3    0    0  0.56144310943E+01 -0.36468619436E+02 -0.59575683837E+02  0.70076781524E+02  0.10566000000E+00 0.  1.
         13    1    4    4    0    0 -0.28735503380E+01  0.19140569568E+02 -0.11424700539E+02  0.22475623270E+02  0.10566000000E+00 0. -1.
        -13    1    4    4    0    0 -0.23753237824E+00  0.48700907977E+01 -0.24241977101E+01  0.54462927375E+01  0.10566000000E+00 0.  1.
         14    1    4    4    0    0 -0.25033483780E+01  0.12457959071E+02 -0.72473058136E+01  0.14628429132E+02  0.00000000000E+00 0. -1.
<mgrwt>
<rscale>  0 0.78593360E+02</rscale>
<asrwt>0</asrwt>
<pdfrwt beam="1">  1        2 0.14869154E-01 0.78593360E+02</pdfrwt>
<pdfrwt beam="2">  1       -1 0.24580954E-02 0.78593360E+02</pdfrwt>
<totfact> 0.18413053E+05</totfact>
</mgrwt>
</event>
<event>
 8    1  0.1673046E-013  0.7865308E+02  0.7818608E-02  0.1332918E+00
          2   -1    0    0  501    0  0.00000000000E+00  0.00000000000E+00  0.21106804358E+03  0.21106804360E+03  0.25500000000E-02 0. -1.
         -1   -1    0    0    0  501 -0.00000000000E+00 -0.00000000000E+00 -0.73273834284E+01  0.73273851617E+01  0.50400000000E-02 0.  1.
         24    2    1    2    0    0  0.00000000000E+00  0.00000000000E+00  0.20374066015E+03  0.21839542876E+03  0.78653078153E+02 0.  0.
         66    2    3    3    0    0  0.23836996373E+02 -0.31231591226E+02  0.10465242363E+03  0.11180225605E+03  0.19999999574E+01 0.  0.
        -13    1    3    3    0    0 -0.23836996373E+02  0.31231591226E+02  0.99088236519E+02  0.10659317270E+03  0.10566000000E+00 0.  1.
         13    1    4    4    0    0  0.11792703368E+01 -0.15873979757E+01  0.48131821575E+01  0.52046515135E+01  0.10566000000E+00 0.  1.
        -13    1    4    4    0    0  0.16979210138E+02 -0.22348010538E+02  0.72920854111E+02  0.78135710659E+02  0.10566000000E+00 0. -1.
        -14    1    4    4    0    0  0.56785158984E+01 -0.72961827119E+01  0.26918387365E+02  0.28461893882E+02  0.00000000000E+00 0.  1.
<mgrwt>
<rscale>  0 0.78653078E+02</rscale>
<asrwt>0</asrwt>
<pdfrwt beam="1">  1        2 0.32472008E-01 0.78653078E+02</pdfrwt>
<pdfrwt beam="2">  1       -1 0.11272899E-02 0.78653078E+02</pdfrwt>
<totfact> 0.23505190E+05</totfact>
</mgrwt>
</event>
<event>
 8    1  0.1673046E-013  0.7931708E+02  0.7818608E-02  0.1331001E+00
         -1   -1    0    0    0  501 -0.00000000000E+00  0.00000000000E+00  0.41877022320E+02  0.41877022624E+02  0.50400000000E-02 0.  1.
          2   -1    0    0  501    0  0.00000000000E+00 -0.00000000000E+00 -0.37557587585E+02  0.37557587672E+02  0.25500000000E-02 0. -1.
         24    2    1    2    0    0 -0.35527136788E-14  0.00000000000E+00  0.43194347348E+01  0.79434610296E+02  0.79317083887E+02 0.  0.
         66    2    3    3    0    0 -0.20495329673E+02  0.32975613264E+02 -0.58096880910E+01  0.39309058564E+02  0.20000002338E+01 0.  0.
        -13    1    3    3    0    0  0.20495329673E+02 -0.32975613264E+02  0.10129122826E+02  0.40125551732E+02  0.10566000000E+00 0.  1.
         13    1    4    4    0    0 -0.68338620126E+01  0.12063578877E+02 -0.17224213638E+01  0.13971739502E+02  0.10566000000E+00 0. -1.
        -13    1    4    4    0    0 -0.68058192196E+01  0.10165157418E+02 -0.14408643017E+01  0.12318151426E+02  0.10566000000E+00 0.  1.
         14    1    4    4    0    0 -0.68556484410E+01  0.10746876968E+02 -0.26464024254E+01  0.13019167635E+02  0.00000000000E+00 0. -1.
<mgrwt>
<rscale>  0 0.79317084E+02</rscale>
<asrwt>0</asrwt>
<pdfrwt beam="1">  1        2 0.57780904E-02 0.79317084E+02</pdfrwt>
<pdfrwt beam="2">  1       -1 0.64426189E-02 0.79317084E+02</pdfrwt>
<totfact> 0.14411192E+05</totfact>
</mgrwt>
</event>
<event>
 8    1  0.1673046E-013  0.8541553E+02  0.7818608E-02  0.1314349E+00
          2   -1    0    0  501    0  0.00000000000E+00  0.00000000000E+00  0.65564516978E+02  0.65564517027E+02  0.25500000000E-02 0. -1.
         -1   -1    0    0    0  501 -0.00000000000E+00 -0.00000000000E+00 -0.27819209870E+02  0.27819210327E+02  0.50400000000E-02 0.  1.
         24    2    1    2    0    0 -0.35527136788E-14 -0.35527136788E-14  0.37745307108E+02  0.93383727354E+02  0.85415527429E+02 0.  0.
         66    2    3    3    0    0  0.20408260671E+02  0.20896622757E+02  0.52911834146E+02  0.60471713549E+02  0.20000001442E+01 0.  0.
        -13    1    3    3    0    0 -0.20408260671E+02 -0.20896622757E+02 -0.15166527039E+02  0.32912013805E+02  0.10566000000E+00 0.  1.
         13    1    4    4    0    0  0.86419658012E+01  0.95520563703E+01  0.23730652037E+02  0.27001488180E+02  0.10566000000E+00 0. -1.
        -13    1    4    4    0    0  0.11135736551E+02  0.10286120899E+02  0.27066284888E+02  0.31022634533E+02  0.10566000000E+00 0.  1.
        -14    1    4    4    0    0  0.63055831805E+00  0.10584454878E+01  0.21148972215E+01  0.24475908360E+01  0.00000000000E+00 0.  1.
<mgrwt>
<rscale>  0 0.85415527E+02</rscale>
<asrwt>0</asrwt>
<pdfrwt beam="1">  1        2 0.10086849E-01 0.85415527E+02</pdfrwt>
<pdfrwt beam="2">  1       -1 0.42798785E-02 0.85415527E+02</pdfrwt>
<totfact> 0.13295864E+05</totfact>
</mgrwt>
</event>
<event>
 8    1  0.1673046E-013  0.7918494E+02  0.7818608E-02  0.1331380E+00
          2   -1    0    0  501    0  0.00000000000E+00  0.00000000000E+00  0.62428386081E+02  0.62428386133E+02  0.25500000000E-02 0. -1.
         -1   -1    0    0    0  501 -0.00000000000E+00 -0.00000000000E+00 -0.25109792629E+02  0.25109793135E+02  0.50400000000E-02 0.  1.
         24    2    1    2    0    0  0.44408920985E-15  0.71054273576E-14  0.37318593452E+02  0.87538179268E+02  0.79184944354E+02 0.  0.
         66    2    3    3    0    0 -0.31555162070E+01 -0.33533793463E+02 -0.42817040115E+01  0.34011844631E+02  0.19999998564E+01 0.  0.
        -13    1    3    3    0    0  0.31555162070E+01  0.33533793463E+02  0.41600297463E+02  0.53526334636E+02  0.10566000000E+00 0.  1.
         13    1    4    4    0    0 -0.24969308539E+00 -0.89802528207E+00 -0.88200469706E-01  0.94219923720E+00  0.10566000000E+00 0. -1.
        -13    1    4    4    0    0 -0.14710309102E+00 -0.37437949839E+01 -0.94173198592E+00  0.38646685977E+01  0.10566000000E+00 0.  1.
         14    1    4    4    0    0 -0.27587200306E+01 -0.28891973197E+02 -0.32517715559E+01  0.29204976796E+02  0.00000000000E+00 0. -1.
<mgrwt>
<rscale>  0 0.79184944E+02</rscale>
<asrwt>0</asrwt>
<pdfrwt beam="1">  1        2 0.96043670E-02 0.79184944E+02</pdfrwt>
<pdfrwt beam="2">  1       -1 0.38630451E-02 0.79184944E+02</pdfrwt>
<totfact> 0.16153438E+05</totfact>
</mgrwt>
</event>
<event>
 8    1  0.1673046E-013  0.8085276E+02  0.7818608E-02  0.1326649E+00
         -1   -1    0    0    0  501 -0.00000000000E+00  0.00000000000E+00  0.38914953298E+01  0.38914985935E+01  0.50400000000E-02 0.  1.
          2   -1    0    0  501    0  0.00000000000E+00 -0.00000000000E+00 -0.41996488451E+03  0.41996488452E+03  0.25500000000E-02 0. -1.
         24    2    1    2    0    0 -0.44408920985E-15  0.35527136788E-14 -0.41607338918E+03  0.42385638311E+03  0.80852757035E+02 0.  0.
         66    2    3    3    0    0 -0.25286743685E+01  0.29422052204E+02 -0.35270695900E+03  0.35394667715E+03  0.19999968604E+01 0.  0.
        -13    1    3    3    0    0  0.25286743685E+01 -0.29422052204E+02 -0.63366430175E+02  0.69909705958E+02  0.10566000000E+00 0.  1.
         13    1    4    4    0    0 -0.23763286059E+01  0.20412399059E+02 -0.24231586489E+03  0.24318573666E+03  0.10566000000E+00 0. -1.
        -13    1    4    4    0    0  0.18209273343E-01  0.23851411515E+00 -0.41685895387E+01  0.41767838510E+01  0.10566000000E+00 0. -1.
         14    1    4    4    0    0 -0.17055503595E+00  0.87711390297E+01 -0.10622250458E+03  0.10658415664E+03  0.00000000000E+00 0. -1.
<mgrwt>
<rscale>  0 0.80852757E+02</rscale>
<asrwt>0</asrwt>
<pdfrwt beam="1">  1        2 0.64609946E-01 0.80852757E+02</pdfrwt>
<pdfrwt beam="2">  1       -1 0.59869218E-03 0.80852757E+02</pdfrwt>
<totfact> 0.27950303E+05</totfact>
</mgrwt>
</event>
<event>
 8    1  0.1673046E-013  0.8198465E+02  0.7818608E-02  0.1323512E+00
          2   -1    0    0  501    0  0.00000000000E+00  0.00000000000E+00  0.18783523413E+04  0.18783523413E+04  0.25500000000E-02 0. -1.
         -1   -1    0    0    0  501 -0.00000000000E+00 -0.00000000000E+00 -0.89459114302E+00  0.89460534023E+00  0.50400000000E-02 0.  1.
         24    2    1    2    0    0  0.00000000000E+00  0.00000000000E+00  0.18774577502E+04  0.18792469467E+04  0.81984650019E+02 0.  0.
         66    2    3    3    0    0  0.53745931888E+01 -0.11959897149E+02  0.18289525320E+04  0.18290006259E+04  0.19999976339E+01 0.  0.
        -13    1    3    3    0    0 -0.53745931888E+01  0.11959897149E+02  0.48505218222E+02  0.50246320767E+02  0.10566000000E+00 0.  1.
         13    1    4    4    0    0  0.23592355751E+01 -0.39068431320E+01  0.55523836546E+03  0.55525713238E+03  0.10566000000E+00 0. -1.
        -13    1    4    4    0    0  0.27028521950E+00 -0.15592029283E+01  0.21436165688E+03  0.21436752383E+03  0.10566000000E+00 0.  1.
         14    1    4    4    0    0  0.27450723942E+01 -0.64938510884E+01  0.10593525096E+04  0.10593759697E+04  0.00000000000E+00 0. -1.
<mgrwt>
<rscale>  0 0.81984650E+02</rscale>
<asrwt>0</asrwt>
<pdfrwt beam="1">  1        2 0.28897661E+00 0.81984650E+02</pdfrwt>
<pdfrwt beam="2">  1       -1 0.13763082E-03 0.81984650E+02</pdfrwt>
<totfact> 0.27473398E+05</totfact>
</mgrwt>
</event>
<event>
 8    1  0.1673046E-013  0.8217213E+02  0.7818608E-02  0.1322998E+00
          2   -1    0    0  501    0  0.00000000000E+00  0.00000000000E+00  0.31017697659E+03  0.31017697660E+03  0.25500000000E-02 0. -1.
         -1   -1    0    0    0  501 -0.00000000000E+00 -0.00000000000E+00 -0.54422619419E+01  0.54422642756E+01  0.50400000000E-02 0.  1.
         24    2    1    2    0    0  0.00000000000E+00  0.00000000000E+00  0.30473471465E+03  0.31561924088E+03  0.82172129701E+02 0.  0.
         66    2    3    3    0    0 -0.33332279481E+02  0.64051307160E+01  0.24121521851E+03  0.24359977053E+03  0.20000020203E+01 0.  0.
        -13    1    3    3    0    0  0.33332279481E+02 -0.64051307160E+01  0.63519496145E+02  0.72019470349E+02  0.10566000000E+00 0.  1.
         13    1    4    4    0    0 -0.79291822453E+01  0.15114418387E+01  0.52399637482E+02  0.53017823039E+02  0.10566000000E+00 0. -1.
        -13    1    4    4    0    0 -0.17519170687E+02  0.37782706262E+01  0.13198267732E+03  0.13319397489E+03  0.10566000000E+00 0.  1.
         14    1    4    4    0    0 -0.78839265493E+01  0.11154182511E+01  0.56832903707E+02  0.57387972603E+02  0.00000000000E+00 0. -1.
<mgrwt>
<rscale>  0 0.82172130E+02</rscale>
<asrwt>0</asrwt>
<pdfrwt beam="1">  1        2 0.47719553E-01 0.82172130E+02</pdfrwt>
<pdfrwt beam="2">  1       -1 0.83727093E-03 0.82172130E+02</pdfrwt>
<totfact> 0.24052385E+05</totfact>
</mgrwt>
</event>
<event>
 8    1  0.1673046E-013  0.8158175E+02  0.7818608E-02  0.1324622E+00
          2   -1    0    0  501    0  0.00000000000E+00  0.00000000000E+00  0.84115928286E+02  0.84115928325E+02  0.25500000000E-02 0. -1.
         -1   -1    0    0    0  501 -0.00000000000E+00 -0.00000000000E+00 -0.19780980589E+02  0.19780981231E+02  0.50400000000E-02 0.  1.
         24    2    1    2    0    0 -0.35527136788E-14  0.00000000000E+00  0.64334947697E+02  0.10389690956E+03  0.81581752372E+02 0.  0.
         66    2    3    3    0    0 -0.30574590245E+02 -0.24890993332E+02  0.45392447269E+02  0.60156806627E+02  0.19999991858E+01 0.  0.
        -13    1    3    3    0    0  0.30574590245E+02  0.24890993332E+02  0.18942500428E+02  0.43740102929E+02  0.10566000000E+00 0.  1.
         13    1    4    4    0    0 -0.33260091686E+01 -0.30940391157E+01  0.54135880455E+01  0.70677800335E+01  0.10566000000E+00 0. -1.
        -13    1    4    4    0    0 -0.11530481806E+02 -0.99778328068E+01  0.18255940494E+02  0.23786544212E+02  0.10566000000E+00 0. -1.
         14    1    4    4    0    0 -0.15718099270E+02 -0.11819121410E+02  0.21722918729E+02  0.29302482381E+02  0.00000000000E+00 0. -1.
<mgrwt>
<rscale>  0 0.81581752E+02</rscale>
<asrwt>0</asrwt>
<pdfrwt beam="1">  1        2 0.12940912E-01 0.81581752E+02</pdfrwt>
<pdfrwt beam="2">  1       -1 0.30432278E-02 0.81581752E+02</pdfrwt>
<totfact> 0.16044909E+05</totfact>
</mgrwt>
</event>
<event>
 8    1  0.1673046E-013  0.7914429E+02  0.7818608E-02  0.1331498E+00
          2   -1    0    0  501    0  0.00000000000E+00  0.00000000000E+00  0.77721524936E+03  0.77721524937E+03  0.25500000000E-02 0. -1.
         -1   -1    0    0    0  501 -0.00000000000E+00 -0.00000000000E+00 -0.20148241616E+01  0.20148304653E+01  0.50400000000E-02 0.  1.
         24    2    1    2    0    0 -0.35527136788E-14  0.00000000000E+00  0.77520042520E+03  0.77923007983E+03  0.79144286485E+02 0.  0.
         66    2    3    3    0    0  0.24728324714E+02  0.11784560912E+02  0.66867946250E+03  0.66924329618E+03  0.19999987572E+01 0.  0.
        -13    1    3    3    0    0 -0.24728324714E+02 -0.11784560912E+02  0.10652096270E+03  0.10998678365E+03  0.10566000000E+00 0.  1.
         13    1    4    4    0    0  0.16332656256E+02  0.71493209806E+01  0.42770357177E+03  0.42807502254E+03  0.10566000000E+00 0. -1.
        -13    1    4    4    0    0  0.19215842429E+01  0.11016994530E+01  0.47189653300E+02  0.47241727004E+02  0.10566000000E+00 0.  1.
         14    1    4    4    0    0  0.64740842156E+01  0.35335404786E+01  0.19378623743E+03  0.19392654664E+03  0.00000000000E+00 0. -1.
<mgrwt>
<rscale>  0 0.79144286E+02</rscale>
<asrwt>0</asrwt>
<pdfrwt beam="1">  1        2 0.11957164E+00 0.79144286E+02</pdfrwt>
<pdfrwt beam="2">  1       -1 0.30997327E-03 0.79144286E+02</pdfrwt>
<totfact> 0.35156298E+05</totfact>
</mgrwt>
</event>
<event>
 8    1  0.1673046E-013  0.7810338E+02  0.7818608E-02  0.1334522E+00
          2   -1    0    0  501    0  0.00000000000E+00  0.00000000000E+00  0.48596573476E+03  0.48596573477E+03  0.25500000000E-02 0. -1.
         -1   -1    0    0    0  501 -0.00000000000E+00 -0.00000000000E+00 -0.31381505056E+01  0.31381545528E+01  0.50400000000E-02 0.  1.
         24    2    1    2    0    0 -0.71054273576E-14  0.88817841970E-15  0.48282758426E+03  0.48910388932E+03  0.78103382965E+02 0.  0.
         66    2    3    3    0    0  0.27501761575E+02 -0.38947208138E+01  0.41324377847E+03  0.41418104280E+03  0.20000065226E+01 0.  0.
        -13    1    3    3    0    0 -0.27501761575E+02  0.38947208138E+01  0.69583805784E+02  0.74922846525E+02  0.10566000000E+00 0.  1.
         13    1    4    4    0    0  0.97331341431E+01 -0.21275620390E+01  0.14830307564E+03  0.14863739042E+03  0.10566000000E+00 0. -1.
        -13    1    4    4    0    0  0.10719826049E+01  0.10931155236E+00  0.15921737182E+02  0.15958507908E+02  0.10566000000E+00 0.  1.
         14    1    4    4    0    0  0.16696644827E+02 -0.18764703272E+01  0.24901896565E+03  0.24958514447E+03  0.00000000000E+00 0. -1.
<mgrwt>
<rscale>  0 0.78103383E+02</rscale>
<asrwt>0</asrwt>
<pdfrwt beam="1">  1        2 0.74763955E-01 0.78103383E+02</pdfrwt>
<pdfrwt beam="2">  1       -1 0.48279273E-03 0.78103383E+02</pdfrwt>
<totfact> 0.32119406E+05</totfact>
</mgrwt>
</event>
<event>
 8    1  0.1673046E-013  0.7985487E+02  0.7818608E-02  0.1329464E+00
         -1   -1    0    0    0  501 -0.00000000000E+00  0.00000000000E+00  0.11482346747E+02  0.11482347853E+02  0.50400000000E-02 0.  1.
          2   -1    0    0  501    0  0.00000000000E+00 -0.00000000000E+00 -0.13883920957E+03  0.13883920959E+03  0.25500000000E-02 0. -1.
         24    2    1    2    0    0  0.00000000000E+00  0.00000000000E+00 -0.12735686282E+03  0.15032155745E+03  0.79854869137E+02 0.  0.
         66    2    3    3    0    0  0.39163646446E+02 -0.45017900003E+01 -0.75343384912E+02  0.85056939431E+02  0.19999948017E+01 0.  0.
        -13    1    3    3    0    0 -0.39163646446E+02  0.45017900003E+01 -0.52013477910E+02  0.65264618014E+02  0.10566000000E+00 0.  1.
         13    1    4    4    0    0  0.72119340136E+01 -0.12969819824E+01 -0.14114489191E+02  0.15903588389E+02  0.10566000000E+00 0.  1.
        -13    1    4    4    0    0  0.49340100679E+01 -0.91360724151E+00 -0.89536339715E+01  0.10264397638E+02  0.10566000000E+00 0. -1.
         14    1    4    4    0    0  0.27017702365E+02 -0.22912007764E+01 -0.52275261749E+02  0.58888953404E+02  0.00000000000E+00 0. -1.
<mgrwt>
<rscale>  0 0.79854869E+02</rscale>
<asrwt>0</asrwt>
<pdfrwt beam="1">  1        2 0.21359877E-01 0.79854869E+02</pdfrwt>
<pdfrwt beam="2">  1       -1 0.17665151E-02 0.79854869E+02</pdfrwt>
<totfact> 0.19637325E+05</totfact>
</mgrwt>
</event>
<event>
 8    1  0.1673046E-013  0.8006498E+02  0.7818608E-02  0.1328867E+00
          2   -1    0    0  501    0  0.00000000000E+00  0.00000000000E+00  0.62096088141E+02  0.62096088193E+02  0.25500000000E-02 0. -1.
         -1   -1    0    0    0  501 -0.00000000000E+00 -0.00000000000E+00 -0.25808393601E+02  0.25808394094E+02  0.50400000000E-02 0.  1.
         24    2    1    2    0    0 -0.71054273576E-14 -0.17763568394E-14  0.36287694539E+02  0.87904482287E+02  0.80064981303E+02 0.  0.
         66    2    3    3    0    0  0.35192424809E+02  0.15647611006E+02  0.30043112509E+02  0.48887044353E+02  0.20000005479E+01 0.  0.
        -13    1    3    3    0    0 -0.35192424809E+02 -0.15647611006E+02  0.62445820307E+01  0.39017437934E+02  0.10566000000E+00 0.  1.
         13    1    4    4    0    0  0.49814693465E+01  0.23906671286E+01  0.38426782895E+01  0.67310969865E+01  0.10566000000E+00 0. -1.
        -13    1    4    4    0    0  0.18716270925E+01  0.10502556308E+01  0.20815389676E+01  0.29916539527E+01  0.10566000000E+00 0.  1.
         14    1    4    4    0    0  0.28339328370E+02  0.12206688246E+02  0.24118895252E+02  0.39164293414E+02  0.00000000000E+00 0. -1.
<mgrwt>
<rscale>  0 0.80064981E+02</rscale>
<asrwt>0</asrwt>
<pdfrwt beam="1">  1        2 0.95532443E-02 0.80064981E+02</pdfrwt>
<pdfrwt beam="2">  1       -1 0.39705222E-02 0.80064981E+02</pdfrwt>
<totfact> 0.15656300E+05</totfact>
</mgrwt>
</event>
<event>
 8    1  0.1673046E-013  0.7954132E+02  0.7818608E-02  0.1330358E+00
         -1   -1    0    0    0  501 -0.00000000000E+00  0.00000000000E+00  0.76427094178E+02  0.76427094344E+02  0.50400000000E-02 0.  1.
          2   -1    0    0  501    0  0.00000000000E+00 -0.00000000000E+00 -0.20695609006E+02  0.20695609163E+02  0.25500000000E-02 0. -1.
         24    2    1    2    0    0  0.00000000000E+00  0.00000000000E+00  0.55731485172E+02  0.97122703507E+02  0.79541316918E+02 0.  0.
         66    2    3    3    0    0  0.33402783333E+02  0.21499845668E+02  0.26286122540E+02  0.47675460483E+02  0.19999989710E+01 0.  0.
        -13    1    3    3    0    0 -0.33402783333E+02 -0.21499845668E+02  0.29445362632E+02  0.49447243024E+02  0.10566000000E+00 0.  1.
         13    1    4    4    0    0  0.23319857246E+02  0.15931706921E+02  0.19081954866E+02  0.34084706144E+02  0.10566000000E+00 0. -1.
        -13    1    4    4    0    0  0.42925547642E+01  0.23502211870E+01  0.28671191950E+01  0.56728390199E+01  0.10566000000E+00 0.  1.
         14    1    4    4    0    0  0.57903713237E+01  0.32179175595E+01  0.43370484795E+01  0.79179153190E+01  0.00000000000E+00 0. -1.
<mgrwt>
<rscale>  0 0.79541317E+02</rscale>
<asrwt>0</asrwt>
<pdfrwt beam="1">  1        2 0.31839398E-02 0.79541317E+02</pdfrwt>
<pdfrwt beam="2">  1       -1 0.11758015E-01 0.79541317E+02</pdfrwt>
<totfact> 0.12709225E+05</totfact>
</mgrwt>
</event>
<event>
 8    1  0.1673046E-013  0.7873782E+02  0.7818608E-02  0.1332672E+00
          2   -1    0    0  501    0  0.00000000000E+00  0.00000000000E+00  0.17250681409E+03  0.17250681411E+03  0.25500000000E-02 0. -1.
         -1   -1    0    0    0  501 -0.00000000000E+00 -0.00000000000E+00 -0.89846354587E+01  0.89846368723E+01  0.50400000000E-02 0.  1.
         24    2    1    2    0    0  0.00000000000E+00  0.00000000000E+00  0.16352217863E+03  0.18149145098E+03  0.78737817311E+02 0.  0.
         66    2    3    3    0    0 -0.18127236139E+02  0.23847308752E+01  0.16211351802E+03  0.16315353615E+03  0.20000005758E+01 0.  0.
        -13    1    3    3    0    0  0.18127236139E+02 -0.23847308752E+01  0.14086606053E+01  0.18337914824E+02  0.10566000000E+00 0.  1.
         13    1    4    4    0    0 -0.14343574690E+02  0.16468313210E+01  0.12172791507E+03  0.12258118396E+03  0.10566000000E+00 0. -1.
        -13    1    4    4    0    0 -0.15410504205E+01  0.42421470442E+00  0.18894287794E+02  0.18962069238E+02  0.10566000000E+00 0.  1.
         14    1    4    4    0    0 -0.22426110282E+01  0.31368484978E+00  0.21491315158E+02  0.21610282961E+02  0.00000000000E+00 0. -1.
<mgrwt>
<rscale>  0 0.78737817E+02</rscale>
<asrwt>0</asrwt>
<pdfrwt beam="1">  1        2 0.26539507E-01 0.78737817E+02</pdfrwt>
<pdfrwt beam="2">  1       -1 0.13822519E-02 0.78737817E+02</pdfrwt>
<totfact> 0.21872224E+05</totfact>
</mgrwt>
</event>
<event>
 8    1  0.1673046E-013  0.7621093E+02  0.7818608E-02  0.1340162E+00
          2   -1    0    0  501    0  0.00000000000E+00  0.00000000000E+00  0.72039138051E+02  0.72039138096E+02  0.25500000000E-02 0. -1.
         -1   -1    0    0    0  501 -0.00000000000E+00 -0.00000000000E+00 -0.20156077248E+02  0.20156077878E+02  0.50400000000E-02 0.  1.
         24    2    1    2    0    0 -0.35527136788E-14  0.00000000000E+00  0.51883060803E+02  0.92195215974E+02  0.76210929992E+02 0.  0.
         66    2    3    3    0    0 -0.21774916176E+02 -0.30158852872E+02  0.35810961242E+02  0.51673284512E+02  0.20000015372E+01 0.  0.
        -13    1    3    3    0    0  0.21774916176E+02  0.30158852872E+02  0.16072099561E+02  0.40521931462E+02  0.10566000000E+00 0.  1.
         13    1    4    4    0    0 -0.38865968062E+01 -0.55936148585E+01  0.60614146046E+01  0.91184468504E+01  0.10566000000E+00 0. -1.
        -13    1    4    4    0    0 -0.13684244065E+02 -0.19166866214E+02  0.22177871904E+02  0.32349597560E+02  0.10566000000E+00 0.  1.
         14    1    4    4    0    0 -0.42040753053E+01 -0.53983718004E+01  0.75716747333E+01  0.10205240102E+02  0.00000000000E+00 0. -1.
<mgrwt>
<rscale>  0 0.76210930E+02</rscale>
<asrwt>0</asrwt>
<pdfrwt beam="1">  1        2 0.11082944E-01 0.76210930E+02</pdfrwt>
<pdfrwt beam="2">  1       -1 0.31009350E-02 0.76210930E+02</pdfrwt>
<totfact> 0.18533339E+05</totfact>
</mgrwt>
</event>
<event>
 8    1  0.1673046E-013  0.7836995E+02  0.7818608E-02  0.1333742E+00
         -1   -1    0    0    0  501 -0.00000000000E+00  0.00000000000E+00  0.23454476360E+02  0.23454476901E+02  0.50400000000E-02 0.  1.
          2   -1    0    0  501    0  0.00000000000E+00 -0.00000000000E+00 -0.65465643004E+02  0.65465643054E+02  0.25500000000E-02 0. -1.
         24    2    1    2    0    0  0.71054273576E-14 -0.22204460493E-15 -0.42011166645E+02  0.88920119955E+02  0.78369953490E+02 0.  0.
         66    2    3    3    0    0  0.38978043078E+02 -0.19767805187E+01 -0.17384549357E+02  0.42771696943E+02  0.19999999172E+01 0.  0.
        -13    1    3    3    0    0 -0.38978043078E+02  0.19767805187E+01 -0.24626617287E+02  0.46148423011E+02  0.10566000000E+00 0.  1.
         13    1    4    4    0    0  0.11933576550E+02 -0.12814623164E+01 -0.48326720630E+01  0.12939021534E+02  0.10566000000E+00 0. -1.
        -13    1    4    4    0    0  0.30841104142E+01  0.10544472450E+00 -0.13132569993E+01  0.33553932137E+01  0.10566000000E+00 0.  1.
         14    1    4    4    0    0  0.23960356113E+02 -0.80076292680E+00 -0.11238620295E+02  0.26477282196E+02  0.00000000000E+00 0. -1.
<mgrwt>
<rscale>  0 0.78369953E+02</rscale>
<asrwt>0</asrwt>
<pdfrwt beam="1">  1        2 0.10071637E-01 0.78369953E+02</pdfrwt>
<pdfrwt beam="2">  1       -1 0.36083811E-02 0.78369953E+02</pdfrwt>
<totfact> 0.16798984E+05</totfact>
</mgrwt>
</event>
<event>
 8    1  0.1673046E-013  0.8057947E+02  0.7818608E-02  0.1327415E+00
          2   -1    0    0  501    0  0.00000000000E+00  0.00000000000E+00  0.12731224035E+04  0.12731224035E+04  0.25500000000E-02 0. -1.
         -1   -1    0    0    0  501 -0.00000000000E+00 -0.00000000000E+00 -0.12750197995E+01  0.12750297607E+01  0.50400000000E-02 0.  1.
         24    2    1    2    0    0 -0.17763568394E-14  0.00000000000E+00  0.12718473837E+04  0.12743974333E+04  0.80579466878E+02 0.  0.
         66    2    3    3    0    0 -0.86186776005E+01  0.19451729839E+02  0.11769623553E+04  0.11771563350E+04  0.20000080096E+01 0.  0.
        -13    1    3    3    0    0  0.86186776005E+01 -0.19451729839E+02  0.94885028471E+02  0.97241098252E+02  0.10566000000E+00 0.  1.
         13    1    4    4    0    0 -0.45647252219E+01  0.10838692952E+02  0.66790754981E+03  0.66801109290E+03  0.10566000000E+00 0. -1.
        -13    1    4    4    0    0 -0.30018190620E+01  0.53565197615E+01  0.30632433468E+03  0.30638588806E+03  0.10566000000E+00 0.  1.
        -14    1    4    4    0    0 -0.10521333167E+01  0.32565171257E+01  0.20273047077E+03  0.20275935408E+03  0.00000000000E+00 0.  1.
<mgrwt>
<rscale>  0 0.80579467E+02</rscale>
<asrwt>0</asrwt>
<pdfrwt beam="1">  1        2 0.19586542E+00 0.80579467E+02</pdfrwt>
<pdfrwt beam="2">  1       -1 0.19615722E-03 0.80579467E+02</pdfrwt>
<totfact> 0.34103584E+05</totfact>
</mgrwt>
</event>
<event>
 8    1  0.1673046E-013  0.7930223E+02  0.7818608E-02  0.1331043E+00
         -1   -1    0    0    0  501 -0.00000000000E+00  0.00000000000E+00  0.14945746494E+01  0.14945831473E+01  0.50400000000E-02 0.  1.
          2   -1    0    0  501    0  0.00000000000E+00 -0.00000000000E+00 -0.10519422728E+04  0.10519422728E+04  0.25500000000E-02 0. -1.
         24    2    1    2    0    0  0.00000000000E+00  0.17763568394E-14 -0.10504476981E+04  0.10534368559E+04  0.79302225219E+02 0.  0.
         66    2    3    3    0    0 -0.21992445936E+02 -0.87370999566E+01 -0.94776558085E+03  0.94806307851E+03  0.20000005291E+01 0.  0.
        -13    1    3    3    0    0  0.21992445936E+02  0.87370999566E+01 -0.10268211728E+03  0.10537377741E+03  0.10566000000E+00 0.  1.
         13    1    4    4    0    0 -0.18185348652E+01 -0.42837404526E+00 -0.74509285046E+02  0.74532780006E+02  0.10566000000E+00 0. -1.
        -13    1    4    4    0    0 -0.46479280619E+01 -0.15982240383E+01 -0.22167143949E+03  0.22172594753E+03  0.10566000000E+00 0.  1.
         14    1    4    4    0    0 -0.15525983009E+02 -0.67105018731E+01 -0.65158485631E+03  0.65180435098E+03  0.00000000000E+00 0. -1.
<mgrwt>
<rscale>  0 0.79302225E+02</rscale>
<asrwt>0</asrwt>
<pdfrwt beam="1">  1        2 0.16183668E+00 0.79302225E+02</pdfrwt>
<pdfrwt beam="2">  1       -1 0.22993606E-03 0.79302225E+02</pdfrwt>
<totfact> 0.36084024E+05</totfact>
</mgrwt>
</event>
<event>
 8    1  0.1673046E-013  0.7945097E+02  0.7818608E-02  0.1330617E+00
         -1   -1    0    0    0  501 -0.00000000000E+00  0.00000000000E+00  0.18743243497E+03  0.18743243504E+03  0.50400000000E-02 0.  1.
          2   -1    0    0  501    0  0.00000000000E+00 -0.00000000000E+00 -0.84196421749E+01  0.84196425610E+01  0.25500000000E-02 0. -1.
         24    2    1    2    0    0  0.00000000000E+00  0.00000000000E+00  0.17901279279E+03  0.19585207760E+03  0.79450967995E+02 0.  0.
         66    2    3    3    0    0  0.37372807470E+02  0.81868371297E+01  0.63433451087E+02  0.74105018357E+02  0.19999971244E+01 0.  0.
        -13    1    3    3    0    0 -0.37372807470E+02 -0.81868371297E+01  0.11557934171E+03  0.12174705924E+03  0.10566000000E+00 0.  1.
         13    1    4    4    0    0  0.15565956780E+02  0.42745579720E+01  0.27597163687E+02  0.31971635303E+02  0.10566000000E+00 0. -1.
        -13    1    4    4    0    0  0.11133278819E+02  0.20681584321E+01  0.18611718343E+02  0.21786105670E+02  0.10566000000E+00 0. -1.
        -14    1    4    4    0    0  0.10673571871E+02  0.18441207255E+01  0.17224569057E+02  0.20347277384E+02  0.00000000000E+00 0.  1.
<mgrwt>
<rscale>  0 0.79450968E+02</rscale>
<asrwt>0</asrwt>
<pdfrwt beam="1">  1        2 0.12953296E-02 0.79450968E+02</pdfrwt>
<pdfrwt beam="2">  1       -1 0.28835760E-01 0.79450968E+02</pdfrwt>
<totfact> 0.10333127E+05</totfact>
</mgrwt>
</event>
<event>
 8    1  0.1673046E-013  0.7943195E+02  0.7818608E-02  0.1330671E+00
         -1   -1    0    0    0  501 -0.00000000000E+00  0.00000000000E+00  0.11682326458E+03  0.11682326469E+03  0.50400000000E-02 0.  1.
          2   -1    0    0  501    0  0.00000000000E+00 -0.00000000000E+00 -0.13502095179E+02  0.13502095419E+02  0.25500000000E-02 0. -1.
         24    2    1    2    0    0  0.35527136788E-14  0.00000000000E+00  0.10332116940E+03  0.13032536011E+03  0.79431954785E+02 0.  0.
         66    2    3    3    0    0  0.31676135112E+02 -0.58832014040E+00  0.12465685449E+02  0.34104500705E+02  0.19999995966E+01 0.  0.
        -13    1    3    3    0    0 -0.31676135112E+02  0.58832014040E+00  0.90855483954E+02  0.96220859406E+02  0.10566000000E+00 0.  1.
         13    1    4    4    0    0  0.14557342759E+02  0.28709420332E+00  0.49923507891E+01  0.15392640505E+02  0.10566000000E+00 0. -1.
        -13    1    4    4    0    0  0.45363950978E+01 -0.46282799732E+00  0.21746272464E+01  0.50530444224E+01  0.10566000000E+00 0.  1.
         14    1    4    4    0    0  0.12582397255E+02 -0.41258634641E+00  0.52987074138E+01  0.13658815777E+02  0.00000000000E+00 0. -1.
<mgrwt>
<rscale>  0 0.79431955E+02</rscale>
<asrwt>0</asrwt>
<pdfrwt beam="1">  1        2 0.20772454E-02 0.79431955E+02</pdfrwt>
<pdfrwt beam="2">  1       -1 0.17972810E-01 0.79431955E+02</pdfrwt>
<totfact> 0.11660746E+05</totfact>
</mgrwt>
</event>
<event>
 8    1  0.1673046E-013  0.8148460E+02  0.7818608E-02  0.1324890E+00
         -1   -1    0    0    0  501 -0.00000000000E+00  0.00000000000E+00  0.60881510800E+01  0.60881531661E+01  0.50400000000E-02 0.  1.
          2   -1    0    0  501    0  0.00000000000E+00 -0.00000000000E+00 -0.27265002393E+03  0.27265002394E+03  0.25500000000E-02 0. -1.
         24    2    1    2    0    0  0.00000000000E+00  0.35527136788E-14 -0.26656187285E+03  0.27873817711E+03  0.81484595600E+02 0.  0.
         66    2    3    3    0    0  0.34785254591E+01  0.22858228021E+02 -0.24801121033E+03  0.24909467914E+03  0.19999999085E+01 0.  0.
        -13    1    3    3    0    0 -0.34785254591E+01 -0.22858228021E+02 -0.18550662516E+02  0.29643497962E+02  0.10566000000E+00 0.  1.
         13    1    4    4    0    0  0.22987878687E+01  0.13311406499E+02 -0.13900962584E+03  0.13966447368E+03  0.10566000000E+00 0. -1.
        -13    1    4    4    0    0 -0.10466076482E+00  0.25264922836E+01 -0.30566077981E+02  0.30670676619E+02  0.10566000000E+00 0.  1.
        -14    1    4    4    0    0  0.12843983552E+01  0.70203292379E+01 -0.78435506510E+02  0.78759528841E+02  0.00000000000E+00 0.  1.
<mgrwt>
<rscale>  0 0.81484596E+02</rscale>
<asrwt>0</asrwt>
<pdfrwt beam="1">  1        2 0.41946148E-01 0.81484596E+02</pdfrwt>
<pdfrwt beam="2">  1       -1 0.93663900E-03 0.81484596E+02</pdfrwt>
<totfact> 0.23465155E+05</totfact>
</mgrwt>
</event>
<event>
 8    1  0.1673046E-013  0.7337997E+02  0.7818608E-02  0.1348962E+00
         -1   -1    0    0    0  501 -0.00000000000E+00  0.00000000000E+00  0.25299470924E+02  0.25299471426E+02  0.50400000000E-02 0.  1.
          2   -1    0    0  501    0  0.00000000000E+00 -0.00000000000E+00 -0.53208818535E+02  0.53208818596E+02  0.25500000000E-02 0. -1.
         24    2    1    2    0    0 -0.88817841970E-15  0.00000000000E+00 -0.27909347610E+02  0.78508290022E+02  0.73379969462E+02 0.  0.
         66    2    3    3    0    0 -0.65951371865E+01 -0.15110761659E+02 -0.48999842316E+02  0.51737950402E+02  0.20000031095E+01 0.  0.
        -13    1    3    3    0    0  0.65951371865E+01  0.15110761659E+02  0.21090494705E+02  0.26770339620E+02  0.10566000000E+00 0.  1.
         13    1    4    4    0    0 -0.37682278946E+01 -0.73967178553E+01 -0.24174560033E+02  0.25560350024E+02  0.10566000000E+00 0. -1.
        -13    1    4    4    0    0 -0.27066169949E+01 -0.74558584976E+01 -0.24461387306E+02  0.25715486277E+02  0.10566000000E+00 0.  1.
        -14    1    4    4    0    0 -0.12029229695E+00 -0.25818530610E+00 -0.36389497666E+00  0.46211410174E+00  0.00000000000E+00 0.  1.
<mgrwt>
<rscale>  0 0.73379969E+02</rscale>
<asrwt>0</asrwt>
<pdfrwt beam="1">  1        2 0.81859721E-02 0.73379969E+02</pdfrwt>
<pdfrwt beam="2">  1       -1 0.38922263E-02 0.73379969E+02</pdfrwt>
<totfact> 0.19151240E+05</totfact>
</mgrwt>
</event>
<event>
 8    1  0.1673046E-013  0.7741158E+02  0.7818608E-02  0.1336562E+00
          2   -1    0    0  501    0  0.00000000000E+00  0.00000000000E+00  0.23548656534E+03  0.23548656535E+03  0.25500000000E-02 0. -1.
         -1   -1    0    0    0  501 -0.00000000000E+00 -0.00000000000E+00 -0.63618829333E+01  0.63618849297E+01  0.50400000000E-02 0.  1.
         24    2    1    2    0    0  0.00000000000E+00 -0.35527136788E-14  0.22912468241E+03  0.24184845028E+03  0.77411580636E+02 0.  0.
         66    2    3    3    0    0 -0.79408102062E+01  0.28717826073E+02  0.19169679997E+03  0.19400884797E+03  0.19999934626E+01 0.  0.
        -13    1    3    3    0    0  0.79408102062E+01 -0.28717826073E+02  0.37427882440E+02  0.47839602309E+02  0.10566000000E+00 0.  1.
         13    1    4    4    0    0 -0.37863000803E+01  0.10655274819E+02  0.73872742472E+02  0.74733287055E+02  0.10566000000E+00 0. -1.
        -13    1    4    4    0    0 -0.18451819380E+01  0.77206832584E+01  0.48034466852E+02  0.48686084421E+02  0.10566000000E+00 0.  1.
         14    1    4    4    0    0 -0.23093281880E+01  0.10341867996E+02  0.69789590642E+02  0.70589476498E+02  0.00000000000E+00 0. -1.
<mgrwt>
<rscale>  0 0.77411581E+02</rscale>
<asrwt>0</asrwt>
<pdfrwt beam="1">  1        2 0.36228702E-01 0.77411581E+02</pdfrwt>
<pdfrwt beam="2">  1       -1 0.97875140E-03 0.77411581E+02</pdfrwt>
<totfact> 0.25472471E+05</totfact>
</mgrwt>
</event>
<event>
 8    1  0.1673046E-013  0.7928217E+02  0.7818608E-02  0.1331101E+00
          2   -1    0    0  501    0  0.00000000000E+00  0.00000000000E+00  0.25408204662E+02  0.25408204790E+02  0.25500000000E-02 0. -1.
         -1   -1    0    0    0  501 -0.00000000000E+00 -0.00000000000E+00 -0.61846777291E+02  0.61846777497E+02  0.50400000000E-02 0.  1.
         24    2    1    2    0    0  0.17763568394E-14  0.00000000000E+00 -0.36438572629E+02  0.87254982287E+02  0.79282169235E+02 0.  0.
         66    2    3    3    0    0  0.10246450256E+02 -0.40628257128E+01  0.23647172431E+02  0.26166487305E+02  0.19999995813E+01 0.  0.
        -13    1    3    3    0    0 -0.10246450256E+02  0.40628257128E+01 -0.60085745060E+02  0.61088494981E+02  0.10566000000E+00 0.  1.
         13    1    4    4    0    0  0.47377116212E+01 -0.11674210559E+01  0.93625796452E+01  0.10558306918E+02  0.10566000000E+00 0. -1.
        -13    1    4    4    0    0  0.37075981725E+01 -0.20138575388E+01  0.85904739152E+01  0.95712753862E+01  0.10566000000E+00 0.  1.
         14    1    4    4    0    0  0.18011404624E+01 -0.88154711807E+00  0.56941188701E+01  0.60369050012E+01  0.00000000000E+00 0. -1.
<mgrwt>
<rscale>  0 0.79282169E+02</rscale>
<asrwt>0</asrwt>
<pdfrwt beam="1">  1        2 0.39089546E-02 0.79282169E+02</pdfrwt>
<pdfrwt beam="2">  1       -1 0.95148889E-02 0.79282169E+02</pdfrwt>
<totfact> 0.13357957E+05</totfact>
</mgrwt>
</event>
<event>
 8    1  0.1673046E-013  0.8013915E+02  0.7818608E-02  0.1328657E+00
         -1   -1    0    0    0  501 -0.00000000000E+00  0.00000000000E+00  0.31015606995E+02  0.31015607404E+02  0.50400000000E-02 0.  1.
          2   -1    0    0  501    0  0.00000000000E+00 -0.00000000000E+00 -0.51766541718E+02  0.51766541781E+02  0.25500000000E-02 0. -1.
         24    2    1    2    0    0  0.00000000000E+00  0.00000000000E+00 -0.20750934723E+02  0.82782149185E+02  0.80139147311E+02 0.  0.
         66    2    3    3    0    0  0.20525963585E+02  0.10282258094E+02 -0.44274457386E+02  0.49912599521E+02  0.20000003686E+01 0.  0.
        -13    1    3    3    0    0 -0.20525963585E+02 -0.10282258094E+02  0.23523522663E+02  0.32869549664E+02  0.10566000000E+00 0.  1.
         13    1    4    4    0    0  0.89590065815E+01  0.43454192249E+01 -0.19778948941E+02  0.22144174232E+02  0.10566000000E+00 0. -1.
        -13    1    4    4    0    0  0.69188794972E+01  0.38083057684E+01 -0.13460575308E+02  0.15606804221E+02  0.10566000000E+00 0.  1.
        -14    1    4    4    0    0  0.46480775067E+01  0.21285331005E+01 -0.11034933137E+02  0.12161621068E+02  0.00000000000E+00 0.  1.
<mgrwt>
<rscale>  0 0.80139147E+02</rscale>
<asrwt>0</asrwt>
<pdfrwt beam="1">  1        2 0.79640833E-02 0.80139147E+02</pdfrwt>
<pdfrwt beam="2">  1       -1 0.47716319E-02 0.80139147E+02</pdfrwt>
<totfact> 0.14985543E+05</totfact>
</mgrwt>
</event>
<event>
 8    1  0.1673046E-013  0.7977603E+02  0.7818608E-02  0.1329688E+00
          2   -1    0    0  501    0  0.00000000000E+00  0.00000000000E+00  0.45007301892E+03  0.45007301893E+03  0.25500000000E-02 0. -1.
         -1   -1    0    0    0  501 -0.00000000000E+00 -0.00000000000E+00 -0.35350993945E+01  0.35351029873E+01  0.50400000000E-02 0.  1.
         24    2    1    2    0    0  0.00000000000E+00  0.00000000000E+00  0.44653791953E+03  0.45360812191E+03  0.79776028308E+02 0.  0.
         66    2    3    3    0    0 -0.29878066981E+02 -0.11584846212E+02  0.35822168844E+03  0.35965773402E+03  0.20000059125E+01 0.  0.
        -13    1    3    3    0    0  0.29878066981E+02  0.11584846212E+02  0.88316231088E+02  0.93950387897E+02  0.10566000000E+00 0.  1.
         13    1    4    4    0    0 -0.51907625720E+01 -0.21044348768E+01  0.65759654601E+02  0.65997848446E+02  0.10566000000E+00 0. -1.
        -13    1    4    4    0    0 -0.16281780528E+02 -0.70047317311E+01  0.19936607665E+03  0.20015245771E+03  0.10566000000E+00 0.  1.
        -14    1    4    4    0    0 -0.84055238810E+01 -0.24756796040E+01  0.93095957187E+02  0.93507427864E+02  0.00000000000E+00 0.  1.
<mgrwt>
<rscale>  0 0.79776028E+02</rscale>
<asrwt>0</asrwt>
<pdfrwt beam="1">  1        2 0.69242017E-01 0.79776028E+02</pdfrwt>
<pdfrwt beam="2">  1       -1 0.54386161E-03 0.79776028E+02</pdfrwt>
<totfact> 0.29636047E+05</totfact>
</mgrwt>
</event>
<event>
 8    1  0.1673046E-013  0.7923336E+02  0.7818608E-02  0.1331241E+00
          2   -1    0    0  501    0  0.00000000000E+00  0.00000000000E+00  0.41349411758E+03  0.41349411759E+03  0.25500000000E-02 0. -1.
         -1   -1    0    0    0  501 -0.00000000000E+00 -0.00000000000E+00 -0.37956537947E+01  0.37956571408E+01  0.50400000000E-02 0.  1.
         24    2    1    2    0    0  0.00000000000E+00  0.00000000000E+00  0.40969846379E+03  0.41728977473E+03  0.79233357023E+02 0.  0.
         66    2    3    3    0    0  0.80833523459E+01 -0.24408781896E+02  0.36353329512E+03  0.36444695894E+03  0.19999999718E+01 0.  0.
        -13    1    3    3    0    0 -0.80833523459E+01  0.24408781896E+02  0.46165168671E+02  0.52842815796E+02  0.10566000000E+00 0.  1.
         13    1    4    4    0    0  0.27357835867E+01 -0.95398351101E+01  0.14941264095E+03  0.14974191599E+03  0.10566000000E+00 0. -1.
        -13    1    4    4    0    0  0.74538467300E+00 -0.30115875221E+01  0.44592243592E+02  0.44700163426E+02  0.10566000000E+00 0.  1.
         14    1    4    4    0    0  0.46021840862E+01 -0.11857359263E+02  0.16952841058E+03  0.17000487952E+03  0.00000000000E+00 0. -1.
<mgrwt>
<rscale>  0 0.79233357E+02</rscale>
<asrwt>0</asrwt>
<pdfrwt beam="1">  1        2 0.63614461E-01 0.79233357E+02</pdfrwt>
<pdfrwt beam="2">  1       -1 0.58394717E-03 0.79233357E+02</pdfrwt>
<totfact> 0.29309033E+05</totfact>
</mgrwt>
</event>
<event>
 8    1  0.1673046E-013  0.7969600E+02  0.7818608E-02  0.1329916E+00
          2   -1    0    0  501    0  0.00000000000E+00  0.00000000000E+00  0.18763005471E+03  0.18763005473E+03  0.25500000000E-02 0. -1.
         -1   -1    0    0    0  501 -0.00000000000E+00 -0.00000000000E+00 -0.84627326399E+01  0.84627341407E+01  0.50400000000E-02 0.  1.
         24    2    1    2    0    0  0.35527136788E-14  0.17763568394E-14  0.17916732207E+03  0.19609278887E+03  0.79696000831E+02 0.  0.
         66    2    3    3    0    0 -0.20891009921E+02 -0.10146863277E+02  0.16923522782E+03  0.17083312161E+03  0.19999935665E+01 0.  0.
        -13    1    3    3    0    0  0.20891009921E+02  0.10146863277E+02  0.99320942557E+01  0.25259667262E+02  0.10566000000E+00 0.  1.
         13    1    4    4    0    0 -0.60101756893E+01 -0.23355943979E+01  0.46240616144E+02  0.46688145802E+02  0.10566000000E+00 0. -1.
        -13    1    4    4    0    0 -0.33248018821E+01 -0.21264350280E+01  0.25624635020E+02  0.25926995920E+02  0.10566000000E+00 0.  1.
        -14    1    4    4    0    0 -0.11556032349E+02 -0.56848338511E+01  0.97369976655E+02  0.98217979889E+02  0.00000000000E+00 0.  1.
<mgrwt>
<rscale>  0 0.79696001E+02</rscale>
<asrwt>0</asrwt>
<pdfrwt beam="1">  1        2 0.28866159E-01 0.79696001E+02</pdfrwt>
<pdfrwt beam="2">  1       -1 0.13019592E-02 0.79696001E+02</pdfrwt>
<totfact> 0.21795974E+05</totfact>
</mgrwt>
</event>
<event>
 8    1  0.1673046E-013  0.8028566E+02  0.7818608E-02  0.1328243E+00
          2   -1    0    0  501    0  0.00000000000E+00  0.00000000000E+00  0.13945739410E+04  0.13945739410E+04  0.25500000000E-02 0. -1.
         -1   -1    0    0    0  501 -0.00000000000E+00 -0.00000000000E+00 -0.11555064815E+01  0.11555174730E+01  0.50400000000E-02 0.  1.
         24    2    1    2    0    0 -0.17763568394E-14 -0.35527136788E-14  0.13934184345E+04  0.13957294585E+04  0.80285662482E+02 0.  0.
         66    2    3    3    0    0  0.10006724898E+02  0.21524684194E+02  0.12593886323E+04  0.12596138987E+04  0.19999997121E+01 0.  0.
        -13    1    3    3    0    0 -0.10006724898E+02 -0.21524684194E+02  0.13402980225E+03  0.13611555983E+03  0.10566000000E+00 0.  1.
         13    1    4    4    0    0  0.66056830267E+01  0.15762613515E+02  0.92020079128E+03  0.92035949632E+03  0.10566000000E+00 0. -1.
        -13    1    4    4    0    0  0.18106012763E+01  0.28672935903E+01  0.15744216870E+03  0.15747872015E+03  0.10566000000E+00 0.  1.
         14    1    4    4    0    0  0.15904405950E+01  0.28947770888E+01  0.18174567232E+03  0.18177568221E+03  0.00000000000E+00 0. -1.
<mgrwt>
<rscale>  0 0.80285662E+02</rscale>
<asrwt>0</asrwt>
<pdfrwt beam="1">  1        2 0.21454924E+00 0.80285662E+02</pdfrwt>
<pdfrwt beam="2">  1       -1 0.17777157E-03 0.80285662E+02</pdfrwt>
<totfact> 0.33736900E+05</totfact>
</mgrwt>
</event>
<event>
 8    1  0.1673046E-013  0.7935689E+02  0.7818608E-02  0.1330886E+00
         -1   -1    0    0    0  501 -0.00000000000E+00  0.00000000000E+00  0.59582837775E+00  0.59584969358E+00  0.50400000000E-02 0.  1.
          2   -1    0    0  501    0  0.00000000000E+00 -0.00000000000E+00 -0.26422891184E+04  0.26422891184E+04  0.25500000000E-02 0. -1.
         24    2    1    2    0    0  0.22204460493E-15  0.00000000000E+00 -0.26416932900E+04  0.26428849681E+04  0.79356890268E+02 0.  0.
         66    2    3    3    0    0 -0.10218990694E+01 -0.12178817794E+02 -0.25779938336E+04  0.25780235790E+04  0.20000017942E+01 0.  0.
        -13    1    3    3    0    0  0.10218990694E+01  0.12178817794E+02 -0.63699456413E+02  0.64861389068E+02  0.10566000000E+00 0.  1.
         13    1    4    4    0    0  0.45649223699E+00 -0.27145875571E+01 -0.55625374916E+03  0.55626057023E+03  0.10566000000E+00 0. -1.
        -13    1    4    4    0    0 -0.97624093300E+00 -0.71839825553E+01 -0.16059902095E+04  0.16060065775E+04  0.10566000000E+00 0.  1.
        -14    1    4    4    0    0 -0.50215037341E+00 -0.22802476814E+01 -0.41574987493E+03  0.41575643133E+03  0.00000000000E+00 0.  1.
<mgrwt>
<rscale>  0 0.79356890E+02</rscale>
<asrwt>0</asrwt>
<pdfrwt beam="1">  1        2 0.40649664E+00 0.79356890E+02</pdfrwt>
<pdfrwt beam="2">  1       -1 0.91669660E-04 0.79356890E+02</pdfrwt>
<totfact> 0.19458907E+05</totfact>
</mgrwt>
</event>
<event>
 8    1  0.1673046E-013  0.8033646E+02  0.7818608E-02  0.1328099E+00
         -1   -1    0    0    0  501 -0.00000000000E+00  0.00000000000E+00  0.40407412682E+02  0.40407412997E+02  0.50400000000E-02 0.  1.
          2   -1    0    0  501    0  0.00000000000E+00 -0.00000000000E+00 -0.39930463459E+02  0.39930463540E+02  0.25500000000E-02 0. -1.
         24    2    1    2    0    0  0.00000000000E+00  0.00000000000E+00  0.47694922338E+00  0.80337876537E+02  0.80336460751E+02 0.  0.
         66    2    3    3    0    0 -0.22692744889E+02 -0.18213798272E+02 -0.27416496823E+02  0.40029581926E+02  0.20000032543E+01 0.  0.
        -13    1    3    3    0    0  0.22692744889E+02  0.18213798272E+02  0.27893446047E+02  0.40308294611E+02  0.10566000000E+00 0.  1.
         13    1    4    4    0    0 -0.45914339193E+00 -0.59997046959E+00 -0.76133552408E+00  0.10777629770E+01  0.10566000000E+00 0.  1.
        -13    1    4    4    0    0 -0.77736388631E+01 -0.58302561810E+01 -0.10022489819E+02  0.13960043500E+02  0.10566000000E+00 0. -1.
         14    1    4    4    0    0 -0.14459962634E+02 -0.11783571621E+02 -0.16632671480E+02  0.24991775449E+02  0.00000000000E+00 0. -1.
<mgrwt>
<rscale>  0 0.80336461E+02</rscale>
<asrwt>0</asrwt>
<pdfrwt beam="1">  1        2 0.61431482E-02 0.80336461E+02</pdfrwt>
<pdfrwt beam="2">  1       -1 0.62165251E-02 0.80336461E+02</pdfrwt>
<totfact> 0.14085697E+05</totfact>
</mgrwt>
</event>
<event>
 8    1  0.1673046E-013  0.8172547E+02  0.7818608E-02  0.1324225E+00
          2   -1    0    0  501    0  0.00000000000E+00  0.00000000000E+00  0.28007137079E+02  0.28007137195E+02  0.25500000000E-02 0. -1.
         -1   -1    0    0    0  501 -0.00000000000E+00 -0.00000000000E+00 -0.59619203497E+02  0.59619203710E+02  0.50400000000E-02 0.  1.
         24    2    1    2    0    0  0.35527136788E-14 -0.35527136788E-14 -0.31612066418E+02  0.87626340905E+02  0.81725472634E+02 0.  0.
         66    2    3    3    0    0  0.31365215027E+02 -0.26137925704E+02 -0.14862260962E+02  0.43495455795E+02  0.20000000144E+01 0.  0.
        -13    1    3    3    0    0 -0.31365215027E+02  0.26137925704E+02 -0.16749805456E+02  0.44130885111E+02  0.10566000000E+00 0.  1.
         13    1    4    4    0    0  0.76073161575E+01 -0.68452887611E+01 -0.32548665587E+01  0.10739392799E+02  0.10566000000E+00 0. -1.
        -13    1    4    4    0    0  0.68001586510E+01 -0.54390144155E+01 -0.39027044617E+01  0.95429189267E+01  0.10566000000E+00 0.  1.
         14    1    4    4    0    0  0.16957740219E+02 -0.13853622527E+02 -0.77046899415E+01  0.23213144069E+02  0.00000000000E+00 0. -1.
<mgrwt>
<rscale>  0 0.81725473E+02</rscale>
<asrwt>0</asrwt>
<pdfrwt beam="1">  1        2 0.43087903E-02 0.81725473E+02</pdfrwt>
<pdfrwt beam="2">  1       -1 0.91721852E-02 0.81725473E+02</pdfrwt>
<totfact> 0.12499318E+05</totfact>
</mgrwt>
</event>
<event>
 8    1  0.1673046E-013  0.7707858E+02  0.7818608E-02  0.1337553E+00
          2   -1    0    0  501    0  0.00000000000E+00  0.00000000000E+00  0.14241378105E+03  0.14241378107E+03  0.25500000000E-02 0. -1.
         -1   -1    0    0    0  501 -0.00000000000E+00 -0.00000000000E+00 -0.10429304724E+02  0.10429305942E+02  0.50400000000E-02 0.  1.
         24    2    1    2    0    0  0.35527136788E-14  0.00000000000E+00  0.13198447633E+03  0.15284308702E+03  0.77078578458E+02 0.  0.
         66    2    3    3    0    0  0.28088149466E+02  0.18363823957E+02  0.28564651467E+02  0.44114776494E+02  0.20000052288E+01 0.  0.
        -13    1    3    3    0    0 -0.28088149466E+02 -0.18363823957E+02  0.10341982486E+03  0.10872831052E+03  0.10566000000E+00 0.  1.
         13    1    4    4    0    0  0.11861376895E+02  0.71722364069E+01  0.12625742629E+02  0.18749767410E+02  0.10566000000E+00 0. -1.
        -13    1    4    4    0    0  0.14097480015E+02  0.93905156775E+01  0.13513683945E+02  0.21669138083E+02  0.10566000000E+00 0.  1.
        -14    1    4    4    0    0  0.21292925558E+01  0.18010718729E+01  0.24252248928E+01  0.36958710016E+01  0.00000000000E+00 0.  1.
<mgrwt>
<rscale>  0 0.77078578E+02</rscale>
<asrwt>0</asrwt>
<pdfrwt beam="1">  1        2 0.21909810E-01 0.77078578E+02</pdfrwt>
<pdfrwt beam="2">  1       -1 0.16045087E-02 0.77078578E+02</pdfrwt>
<totfact> 0.21742246E+05</totfact>
</mgrwt>
</event>
<event>
 8    1  0.1673046E-013  0.7704833E+02  0.7818608E-02  0.1337643E+00
         -1   -1    0    0    0  501 -0.00000000000E+00  0.00000000000E+00  0.13250629653E+03  0.13250629662E+03  0.50400000000E-02 0.  1.
          2   -1    0    0  501    0  0.00000000000E+00 -0.00000000000E+00 -0.11200306741E+02  0.11200307031E+02  0.25500000000E-02 0. -1.
         24    2    1    2    0    0  0.00000000000E+00 -0.17763568394E-14  0.12130598979E+03  0.14370660366E+03  0.77048327533E+02 0.  0.
         66    2    3    3    0    0 -0.25062991465E+02  0.14239663267E+02  0.13098278815E+02  0.31725170242E+02  0.19999919604E+01 0.  0.
        -13    1    3    3    0    0  0.25062991465E+02 -0.14239663267E+02  0.10820771097E+03  0.11198143341E+03  0.10566000000E+00 0.  1.
         13    1    4    4    0    0 -0.19490487243E+02  0.10808600047E+02  0.94353116483E+01  0.24202090775E+02  0.10566000000E+00 0. -1.
        -13    1    4    4    0    0 -0.74311197320E+00  0.45180016168E+00  0.70168256343E+00  0.11224354085E+01  0.10566000000E+00 0.  1.
        -14    1    4    4    0    0 -0.48293922488E+01  0.29792630578E+01  0.29612846029E+01  0.64006440582E+01  0.00000000000E+00 0.  1.
<mgrwt>
<rscale>  0 0.77048328E+02</rscale>
<asrwt>0</asrwt>
<pdfrwt beam="1">  1        2 0.17231242E-02 0.77048328E+02</pdfrwt>
<pdfrwt beam="2">  1       -1 0.20385584E-01 0.77048328E+02</pdfrwt>
<totfact> 0.12226934E+05</totfact>
</mgrwt>
</event>
<event>
 8    1  0.1673046E-013  0.8214753E+02  0.7818608E-02  0.1323065E+00
          2   -1    0    0  501    0  0.00000000000E+00  0.00000000000E+00  0.42064126359E+03  0.42064126359E+03  0.25500000000E-02 0. -1.
         -1   -1    0    0    0  501 -0.00000000000E+00 -0.00000000000E+00 -0.40106702088E+01  0.40106733756E+01  0.50400000000E-02 0.  1.
         24    2    1    2    0    0  0.00000000000E+00  0.00000000000E+00  0.41663059338E+03  0.42465193697E+03  0.82147527254E+02 0.  0.
         66    2    3    3    0    0 -0.31372220834E+02  0.20005204256E+02  0.29806791373E+03  0.30038792526E+03  0.20000020613E+01 0.  0.
        -13    1    3    3    0    0  0.31372220834E+02 -0.20005204256E+02  0.11856267965E+03  0.12426401171E+03  0.10566000000E+00 0.  1.
         13    1    4    4    0    0 -0.10202754969E+02  0.66774984181E+01  0.96162034957E+02  0.96932106782E+02  0.10566000000E+00 0. -1.
        -13    1    4    4    0    0 -0.20086083833E+02  0.12626527473E+02  0.19398962126E+03  0.19543506411E+03  0.10566000000E+00 0.  1.
        -14    1    4    4    0    0 -0.10833820323E+01  0.70117836519E+00  0.79162575081E+01  0.80207543699E+01  0.00000000000E+00 0.  1.
<mgrwt>
<rscale>  0 0.82147527E+02</rscale>
<asrwt>0</asrwt>
<pdfrwt beam="1">  1        2 0.64713995E-01 0.82147527E+02</pdfrwt>
<pdfrwt beam="2">  1       -1 0.61702687E-03 0.82147527E+02</pdfrwt>
<totfact> 0.26827566E+05</totfact>
</mgrwt>
</event>
<event>
 8    1  0.1673046E-013  0.8689776E+02  0.7818608E-02  0.1310543E+00
         -1   -1    0    0    0  501 -0.00000000000E+00  0.00000000000E+00  0.30483794997E+01  0.30483836661E+01  0.50400000000E-02 0.  1.
          2   -1    0    0  501    0  0.00000000000E+00 -0.00000000000E+00 -0.61928117246E+03  0.61928117246E+03  0.25500000000E-02 0. -1.
         24    2    1    2    0    0  0.17763568394E-14  0.00000000000E+00 -0.61623279296E+03  0.62232955613E+03  0.86897763578E+02 0.  0.
         66    2    3    3    0    0 -0.15166593325E+02  0.21469892227E+02 -0.55582907248E+03  0.55645389722E+03  0.20000224266E+01 0.  0.
        -13    1    3    3    0    0  0.15166593325E+02 -0.21469892227E+02 -0.60403720474E+02  0.65875658907E+02  0.10566000000E+00 0.  1.
         13    1    4    4    0    0 -0.25477392423E+01  0.49263135915E+01 -0.11971074716E+03  0.11983919931E+03  0.10566000000E+00 0. -1.
        -13    1    4    4    0    0 -0.60897558553E+01  0.77182127848E+01 -0.20203130909E+03  0.20227040553E+03  0.10566000000E+00 0.  1.
        -14    1    4    4    0    0 -0.65290982271E+01  0.88253658507E+01 -0.23408701623E+03  0.23434429238E+03  0.00000000000E+00 0.  1.
<mgrwt>
<rscale>  0 0.86897764E+02</rscale>
<asrwt>0</asrwt>
<pdfrwt beam="1">  1        2 0.95273926E-01 0.86897764E+02</pdfrwt>
<pdfrwt beam="2">  1       -1 0.46898228E-03 0.86897764E+02</pdfrwt>
<totfact> 0.26139684E+05</totfact>
</mgrwt>
</event>
<event>
 8    1  0.1673046E-013  0.7903291E+02  0.7818608E-02  0.1331819E+00
          2   -1    0    0  501    0  0.00000000000E+00  0.00000000000E+00  0.30215181769E+02  0.30215181876E+02  0.25500000000E-02 0. -1.
         -1   -1    0    0    0  501 -0.00000000000E+00 -0.00000000000E+00 -0.51680974397E+02  0.51680974643E+02  0.50400000000E-02 0.  1.
         24    2    1    2    0    0  0.00000000000E+00 -0.35527136788E-14 -0.21465792628E+02  0.81896156519E+02  0.79032905802E+02 0.  0.
         66    2    3    3    0    0 -0.14376350196E+01 -0.28578030302E+02  0.17463462588E+02  0.33581886514E+02  0.19999914775E+01 0.  0.
        -13    1    3    3    0    0  0.14376350196E+01  0.28578030302E+02 -0.38929255216E+02  0.48314270005E+02  0.10566000000E+00 0.  1.
         13    1    4    4    0    0 -0.56861104581E+00 -0.13462047803E+02  0.87615725345E+01  0.16072534551E+02  0.10566000000E+00 0. -1.
        -13    1    4    4    0    0  0.60333740569E-01 -0.95539484464E+01  0.54894645707E+01  0.11019390019E+02  0.10566000000E+00 0.  1.
         14    1    4    4    0    0 -0.92935771438E+00 -0.55620340525E+01  0.32124254826E+01  0.64899619448E+01  0.00000000000E+00 0. -1.
<mgrwt>
<rscale>  0 0.79032906E+02</rscale>
<asrwt>0</asrwt>
<pdfrwt beam="1">  1        2 0.46484895E-02 0.79032906E+02</pdfrwt>
<pdfrwt beam="2">  1       -1 0.79509192E-02 0.79032906E+02</pdfrwt>
<totfact> 0.13940801E+05</totfact>
</mgrwt>
</event>
<event>
 8    1  0.1673046E-013  0.7859844E+02  0.7818608E-02  0.1333077E+00
         -1   -1    0    0    0  501 -0.00000000000E+00  0.00000000000E+00  0.52446328239E+02  0.52446328482E+02  0.50400000000E-02 0.  1.
          2   -1    0    0  501    0  0.00000000000E+00 -0.00000000000E+00 -0.29447795626E+02  0.29447795736E+02  0.25500000000E-02 0. -1.
         24    2    1    2    0    0  0.35527136788E-14  0.00000000000E+00  0.22998532614E+02  0.81894124218E+02  0.78598441963E+02 0.  0.
         66    2    3    3    0    0 -0.29555336664E+02  0.49937964700E+01 -0.14933885156E+02  0.33548127379E+02  0.19999990723E+01 0.  0.
        -13    1    3    3    0    0  0.29555336664E+02 -0.49937964700E+01  0.37932417769E+02  0.48345996839E+02  0.10566000000E+00 0.  1.
         13    1    4    4    0    0 -0.59564347407E+01  0.61118212142E+00 -0.26736873009E+01  0.65583859466E+01  0.10566000000E+00 0. -1.
        -13    1    4    4    0    0 -0.18250862516E+02  0.34969858915E+01 -0.88260133411E+01  0.20572616957E+02  0.10566000000E+00 0.  1.
        -14    1    4    4    0    0 -0.53480394068E+01  0.88562845714E+00 -0.34341845138E+01  0.64171244756E+01  0.00000000000E+00 0.  1.
<mgrwt>
<rscale>  0 0.78598442E+02</rscale>
<asrwt>0</asrwt>
<pdfrwt beam="1">  1        2 0.45304301E-02 0.78598442E+02</pdfrwt>
<pdfrwt beam="2">  1       -1 0.80686659E-02 0.78598442E+02</pdfrwt>
<totfact> 0.14086474E+05</totfact>
</mgrwt>
</event>
<event>
 8    1  0.1673046E-013  0.7817550E+02  0.7818608E-02  0.1334310E+00
          2   -1    0    0  501    0  0.00000000000E+00  0.00000000000E+00  0.42278582249E+03  0.42278582249E+03  0.25500000000E-02 0. -1.
         -1   -1    0    0    0  501 -0.00000000000E+00 -0.00000000000E+00 -0.36137717354E+01  0.36137752499E+01  0.50400000000E-02 0.  1.
         24    2    1    2    0    0  0.00000000000E+00  0.00000000000E+00  0.41917205075E+03  0.42639959774E+03  0.78175500161E+02 0.  0.
         66    2    3    3    0    0  0.19314771495E+02 -0.30253034318E+02  0.29378781964E+03  0.29597903549E+03  0.19999993005E+01 0.  0.
        -13    1    3    3    0    0 -0.19314771495E+02  0.30253034318E+02  0.12538423111E+03  0.13042056225E+03  0.10566000000E+00 0.  1.
         13    1    4    4    0    0  0.13766491349E+02 -0.22880011949E+02  0.21857169162E+03  0.22019674560E+03  0.10566000000E+00 0. -1.
        -13    1    4    4    0    0  0.17814585464E+01 -0.22390904414E+01  0.21367924089E+02  0.21558906847E+02  0.10566000000E+00 0.  1.
         14    1    4    4    0    0  0.37668216002E+01 -0.51339319278E+01  0.53848203937E+02  0.54223383049E+02  0.00000000000E+00 0. -1.
<mgrwt>
<rscale>  0 0.78175500E+02</rscale>
<asrwt>0</asrwt>
<pdfrwt beam="1">  1        2 0.65043965E-01 0.78175500E+02</pdfrwt>
<pdfrwt beam="2">  1       -1 0.55596522E-03 0.78175500E+02</pdfrwt>
<totfact> 0.30587384E+05</totfact>
</mgrwt>
</event>
<event>
 8    1  0.1673046E-013  0.7226638E+02  0.7818608E-02  0.1352551E+00
          2   -1    0    0  501    0  0.00000000000E+00  0.00000000000E+00  0.62159210012E+01  0.62159215242E+01  0.25500000000E-02 0. -1.
         -1   -1    0    0    0  501 -0.00000000000E+00 -0.00000000000E+00 -0.21004246825E+03  0.21004246831E+03  0.50400000000E-02 0.  1.
         24    2    1    2    0    0  0.88817841970E-15  0.71054273576E-14 -0.20382654725E+03  0.21625838983E+03  0.72266380914E+02 0.  0.
         66    2    3    3    0    0 -0.64601256298E+01  0.35250076881E+02 -0.88843949618E+02  0.95820397219E+02  0.19999990648E+01 0.  0.
        -13    1    3    3    0    0  0.64601256298E+01 -0.35250076881E+02 -0.11498259763E+03  0.12043799261E+03  0.10566000000E+00 0.  1.
         13    1    4    4    0    0 -0.16704144631E+01  0.74733787860E+01 -0.18794822880E+02  0.20295275462E+02  0.10566000000E+00 0. -1.
        -13    1    4    4    0    0 -0.26810745438E+01  0.11415243708E+02 -0.30146744414E+02  0.32347075794E+02  0.10566000000E+00 0.  1.
        -14    1    4    4    0    0 -0.21086366229E+01  0.16361454387E+02 -0.39902382324E+02  0.43178045963E+02  0.00000000000E+00 0.  1.
<mgrwt>
<rscale>  0 0.72266381E+02</rscale>
<asrwt>0</asrwt>
<pdfrwt beam="1">  1        2 0.95629574E-03 0.72266381E+02</pdfrwt>
<pdfrwt beam="2">  1       -1 0.32314220E-01 0.72266381E+02</pdfrwt>
<totfact> 0.12703205E+05</totfact>
</mgrwt>
</event>
<event>
 8    1  0.1673046E-013  0.8931707E+02  0.7818608E-02  0.1304514E+00
         -1   -1    0    0    0  501 -0.00000000000E+00  0.00000000000E+00  0.68025911557E+01  0.68025930228E+01  0.50400000000E-02 0.  1.
          2   -1    0    0  501    0  0.00000000000E+00 -0.00000000000E+00 -0.29318010178E+03  0.29318010179E+03  0.25500000000E-02 0. -1.
         24    2    1    2    0    0  0.00000000000E+00  0.00000000000E+00 -0.28637751062E+03  0.29998269481E+03  0.89317067777E+02 0.  0.
         66    2    3    3    0    0 -0.94791386003E+01 -0.58763561884E+01 -0.28842119202E+03  0.28864367244E+03  0.20000000430E+01 0.  0.
        -13    1    3    3    0    0  0.94791386003E+01  0.58763561884E+01  0.20436814016E+01  0.11339022373E+02  0.10566000000E+00 0.  1.
         13    1    4    4    0    0 -0.40612680665E+01 -0.24222765474E+01 -0.13608973333E+03  0.13617190607E+03  0.10566000000E+00 0.  1.
        -13    1    4    4    0    0 -0.18247718349E+01 -0.18492617319E+01 -0.57936377751E+02  0.57994694517E+02  0.10566000000E+00 0. -1.
         14    1    4    4    0    0 -0.35930986989E+01 -0.16048179091E+01 -0.94395080944E+02  0.94477071849E+02  0.00000000000E+00 0. -1.
<mgrwt>
<rscale>  0 0.89317068E+02</rscale>
<asrwt>0</asrwt>
<pdfrwt beam="1">  1        2 0.45104621E-01 0.89317068E+02</pdfrwt>
<pdfrwt beam="2">  1       -1 0.10465529E-02 0.89317068E+02</pdfrwt>
<totfact> 0.18908580E+05</totfact>
</mgrwt>
</event>
<event>
 8    1  0.1673046E-013  0.7376925E+02  0.7818608E-02  0.1347725E+00
          2   -1    0    0  501    0  0.00000000000E+00  0.00000000000E+00  0.16551674427E+02  0.16551674623E+02  0.25500000000E-02 0. -1.
         -1   -1    0    0    0  501 -0.00000000000E+00 -0.00000000000E+00 -0.82195643245E+02  0.82195643399E+02  0.50400000000E-02 0.  1.
         24    2    1    2    0    0 -0.44408920985E-15  0.35527136788E-14 -0.65643968818E+02  0.98747318023E+02  0.73769249518E+02 0.  0.
         66    2    3    3    0    0 -0.18102444953E+01  0.28917862804E+02 -0.63339950417E+02  0.69681196178E+02  0.20000019123E+01 0.  0.
        -13    1    3    3    0    0  0.18102444953E+01 -0.28917862804E+02 -0.23040184011E+01  0.29066121845E+02  0.10566000000E+00 0.  1.
         13    1    4    4    0    0 -0.10110746852E+01  0.19361583842E+02 -0.44182676875E+02  0.48249490161E+02  0.10566000000E+00 0. -1.
        -13    1    4    4    0    0 -0.27482113234E+00  0.25829600708E+01 -0.57465594586E+01  0.63072433779E+01  0.10566000000E+00 0.  1.
        -14    1    4    4    0    0 -0.52434867781E+00  0.69733188911E+01 -0.13410714083E+02  0.15124462639E+02  0.00000000000E+00 0.  1.
<mgrwt>
<rscale>  0 0.73769250E+02</rscale>
<asrwt>0</asrwt>
<pdfrwt beam="1">  1        2 0.25464115E-02 0.73769250E+02</pdfrwt>
<pdfrwt beam="2">  1       -1 0.12645483E-01 0.73769250E+02</pdfrwt>
<totfact> 0.15086444E+05</totfact>
</mgrwt>
</event>
<event>
 8    1  0.1673046E-013  0.8126339E+02  0.7818608E-02  0.1325504E+00
         -1   -1    0    0    0  501 -0.00000000000E+00  0.00000000000E+00  0.37982793610E+02  0.37982793944E+02  0.50400000000E-02 0.  1.
          2   -1    0    0  501    0  0.00000000000E+00 -0.00000000000E+00 -0.43465326025E+02  0.43465326100E+02  0.25500000000E-02 0. -1.
         24    2    1    2    0    0  0.00000000000E+00  0.00000000000E+00 -0.54825324157E+01  0.81448120044E+02  0.81263387187E+02 0.  0.
         66    2    3    3    0    0 -0.91981817031E+01  0.15097820089E+02 -0.39382540148E+02  0.43214987732E+02  0.19999945308E+01 0.  0.
        -13    1    3    3    0    0  0.91981817031E+01 -0.15097820089E+02  0.33900007732E+02  0.38233132312E+02  0.10566000000E+00 0.  1.
         13    1    4    4    0    0 -0.24134140349E+01  0.40418833499E+01 -0.10197480480E+02  0.11232148525E+02  0.10566000000E+00 0. -1.
        -13    1    4    4    0    0 -0.47104580813E+01  0.65662815073E+01 -0.19489886097E+02  0.21099082736E+02  0.10566000000E+00 0.  1.
        -14    1    4    4    0    0 -0.20743095868E+01  0.44896552323E+01 -0.96951735710E+01  0.10883756472E+02  0.00000000000E+00 0.  1.
<mgrwt>
<rscale>  0 0.81263387E+02</rscale>
<asrwt>0</asrwt>
<pdfrwt beam="1">  1        2 0.66869733E-02 0.81263387E+02</pdfrwt>
<pdfrwt beam="2">  1       -1 0.58435067E-02 0.81263387E+02</pdfrwt>
<totfact> 0.13889640E+05</totfact>
</mgrwt>
</event>
<event>
 8    1  0.1673046E-013  0.7902720E+02  0.7818608E-02  0.1331835E+00
          2   -1    0    0  501    0  0.00000000000E+00  0.00000000000E+00  0.38277325514E+02  0.38277325599E+02  0.25500000000E-02 0. -1.
         -1   -1    0    0    0  501 -0.00000000000E+00 -0.00000000000E+00 -0.40789800082E+02  0.40789800394E+02  0.50400000000E-02 0.  1.
         24    2    1    2    0    0  0.22204460493E-15  0.17763568394E-14 -0.25124745687E+01  0.79067125993E+02  0.79027197118E+02 0.  0.
         66    2    3    3    0    0 -0.67820781937E+00 -0.10615560271E+02  0.36790709023E+02  0.38349789510E+02  0.19999998400E+01 0.  0.
        -13    1    3    3    0    0  0.67820781937E+00  0.10615560271E+02 -0.39303183592E+02  0.40717336482E+02  0.10566000000E+00 0.  1.
         13    1    4    4    0    0 -0.22770765202E+00 -0.27134628281E+01  0.75416321297E+01  0.80188596764E+01  0.10566000000E+00 0. -1.
        -13    1    4    4    0    0  0.21885200117E+00 -0.59035242008E+01  0.20798538530E+02  0.21621513897E+02  0.10566000000E+00 0.  1.
         14    1    4    4    0    0 -0.66935216853E+00 -0.19985732418E+01  0.84505383636E+01  0.87094159369E+01  0.00000000000E+00 0. -1.
<mgrwt>
<rscale>  0 0.79027197E+02</rscale>
<asrwt>0</asrwt>
<pdfrwt beam="1">  1        2 0.58888193E-02 0.79027197E+02</pdfrwt>
<pdfrwt beam="2">  1       -1 0.62753539E-02 0.79027197E+02</pdfrwt>
<totfact> 0.14613894E+05</totfact>
</mgrwt>
</event>
<event>
 8    1  0.1673046E-013  0.8189689E+02  0.7818608E-02  0.1323753E+00
         -1   -1    0    0    0  501 -0.00000000000E+00  0.00000000000E+00  0.20644302470E+01  0.20644363992E+01  0.50400000000E-02 0.  1.
          2   -1    0    0  501    0  0.00000000000E+00 -0.00000000000E+00 -0.81222055756E+03  0.81222055756E+03  0.25500000000E-02 0. -1.
         24    2    1    2    0    0 -0.44408920985E-15  0.00000000000E+00 -0.81015612731E+03  0.81428499396E+03  0.81896891094E+02 0.  0.
         66    2    3    3    0    0 -0.39836536553E+01 -0.95754002247E+01 -0.79893515606E+03  0.79900496956E+03  0.20000005056E+01 0.  0.
        -13    1    3    3    0    0  0.39836536553E+01  0.95754002247E+01 -0.11220971246E+02  0.15280024399E+02  0.10566000000E+00 0.  1.
         13    1    4    4    0    0 -0.38689274986E+01 -0.73053807528E+01 -0.62046765139E+03  0.62052272704E+03  0.10566000000E+00 0. -1.
        -13    1    4    4    0    0  0.84241181402E-02 -0.51593139875E+00 -0.35015715727E+02  0.35019676870E+02  0.10566000000E+00 0.  1.
         14    1    4    4    0    0 -0.12315027484E+00 -0.17540880731E+01 -0.14345178895E+03  0.14346256565E+03  0.00000000000E+00 0. -1.
<mgrwt>
<rscale>  0 0.81896891E+02</rscale>
<asrwt>0</asrwt>
<pdfrwt beam="1">  1        2 0.12495675E+00 0.81896891E+02</pdfrwt>
<pdfrwt beam="2">  1       -1 0.31760578E-03 0.81896891E+02</pdfrwt>
<totfact> 0.32416673E+05</totfact>
</mgrwt>
</event>
<event>
 8    1  0.1673046E-013  0.7136591E+02  0.7818608E-02  0.1355509E+00
          2   -1    0    0  501    0  0.00000000000E+00  0.00000000000E+00  0.12720358961E+03  0.12720358963E+03  0.25500000000E-02 0. -1.
         -1   -1    0    0    0  501 -0.00000000000E+00 -0.00000000000E+00 -0.10009726418E+02  0.10009727687E+02  0.50400000000E-02 0.  1.
         24    2    1    2    0    0  0.00000000000E+00 -0.88817841970E-15  0.11719386319E+03  0.13721331732E+03  0.71365908394E+02 0.  0.
         66    2    3    3    0    0 -0.17260526495E+02  0.56129471268E+01  0.11764845335E+03  0.11905708515E+03  0.19999994593E+01 0.  0.
        -13    1    3    3    0    0  0.17260526495E+02 -0.56129471268E+01 -0.45459016400E+00  0.18156232169E+02  0.10566000000E+00 0.  1.
         13    1    4    4    0    0 -0.18938474059E+01  0.43357814291E+00  0.11901343588E+02  0.12059344561E+02  0.10566000000E+00 0. -1.
        -13    1    4    4    0    0 -0.65315782148E+01  0.23877104558E+01  0.39847883423E+02  0.40450310907E+02  0.10566000000E+00 0.  1.
         14    1    4    4    0    0 -0.88351008745E+01  0.27916585281E+01  0.65899226344E+02  0.66547429684E+02  0.00000000000E+00 0. -1.
<mgrwt>
<rscale>  0 0.71365908E+02</rscale>
<asrwt>0</asrwt>
<pdfrwt beam="1">  1        2 0.19569782E-01 0.71365908E+02</pdfrwt>
<pdfrwt beam="2">  1       -1 0.15399581E-02 0.71365908E+02</pdfrwt>
<totfact> 0.25722348E+05</totfact>
</mgrwt>
</event>
<event>
 8    1  0.1673046E-013  0.7565111E+02  0.7818608E-02  0.1341867E+00
          2   -1    0    0  501    0  0.00000000000E+00  0.00000000000E+00  0.28037270408E+03  0.28037270409E+03  0.25500000000E-02 0. -1.
         -1   -1    0    0    0  501 -0.00000000000E+00 -0.00000000000E+00 -0.51031088306E+01  0.51031113194E+01  0.50400000000E-02 0.  1.
         24    2    1    2    0    0  0.00000000000E+00  0.00000000000E+00  0.27526959524E+03  0.28547581541E+03  0.75651114438E+02 0.  0.
         66    2    3    3    0    0  0.27146604987E+02  0.10103490292E+01  0.23691274812E+03  0.23847349788E+03  0.20000004111E+01 0.  0.
        -13    1    3    3    0    0 -0.27146604987E+02 -0.10103490292E+01  0.38356847125E+02  0.47002317527E+02  0.10566000000E+00 0.  1.
         13    1    4    4    0    0  0.19918854547E+02  0.11867344881E+01  0.17127463204E+03  0.17243311704E+03  0.10566000000E+00 0. -1.
        -13    1    4    4    0    0  0.79342820278E+00  0.12977701113E+00  0.57662950688E+01  0.58230312760E+01  0.10566000000E+00 0.  1.
         14    1    4    4    0    0  0.64343222376E+01 -0.30616246994E+00  0.59871821007E+02  0.60217349566E+02  0.00000000000E+00 0. -1.
<mgrwt>
<rscale>  0 0.75651114E+02</rscale>
<asrwt>0</asrwt>
<pdfrwt beam="1">  1        2 0.43134252E-01 0.75651114E+02</pdfrwt>
<pdfrwt beam="2">  1       -1 0.78509404E-03 0.75651114E+02</pdfrwt>
<totfact> 0.28795614E+05</totfact>
</mgrwt>
</event>
<event>
 8    1  0.1673046E-013  0.7680419E+02  0.7818608E-02  0.1338373E+00
          2   -1    0    0  501    0  0.00000000000E+00  0.00000000000E+00  0.57722607201E+02  0.57722607257E+02  0.25500000000E-02 0. -1.
         -1   -1    0    0    0  501 -0.00000000000E+00 -0.00000000000E+00 -0.25548407604E+02  0.25548408101E+02  0.50400000000E-02 0.  1.
         24    2    1    2    0    0 -0.35527136788E-14  0.35527136788E-14  0.32174199597E+02  0.83271015358E+02  0.76804185296E+02 0.  0.
         66    2    3    3    0    0  0.22950702451E+02 -0.29747392493E+02  0.24570956650E+02  0.44937445598E+02  0.20000007726E+01 0.  0.
        -13    1    3    3    0    0 -0.22950702451E+02  0.29747392493E+02  0.76032429476E+01  0.38333569759E+02  0.10566000000E+00 0.  1.
         13    1    4    4    0    0  0.14889838779E+02 -0.20117839526E+02  0.15954808390E+02  0.29681675170E+02  0.10566000000E+00 0. -1.
        -13    1    4    4    0    0  0.53530358103E+01 -0.63754951860E+01  0.51997837494E+01  0.98158466945E+01  0.10566000000E+00 0.  1.
         14    1    4    4    0    0  0.27078278620E+01 -0.32540577811E+01  0.34163645099E+01  0.54399237345E+01  0.00000000000E+00 0. -1.
<mgrwt>
<rscale>  0 0.76804185E+02</rscale>
<asrwt>0</asrwt>
<pdfrwt beam="1">  1        2 0.88804011E-02 0.76804185E+02</pdfrwt>
<pdfrwt beam="2">  1       -1 0.39305243E-02 0.76804185E+02</pdfrwt>
<totfact> 0.17235685E+05</totfact>
</mgrwt>
</event>
<event>
 8    1  0.1673046E-013  0.7893639E+02  0.7818608E-02  0.1332097E+00
          2   -1    0    0  501    0  0.00000000000E+00  0.00000000000E+00  0.15931887539E+03  0.15931887541E+03  0.25500000000E-02 0. -1.
         -1   -1    0    0    0  501 -0.00000000000E+00 -0.00000000000E+00 -0.97774876823E+01  0.97774889813E+01  0.50400000000E-02 0.  1.
         24    2    1    2    0    0  0.71054273576E-14  0.88817841970E-15  0.14954138771E+03  0.16909636439E+03  0.78936390930E+02 0.  0.
         66    2    3    3    0    0 -0.37098509771E+02 -0.45650119558E+01  0.10179604105E+03  0.10846000523E+03  0.19999996844E+01 0.  0.
        -13    1    3    3    0    0  0.37098509771E+02  0.45650119558E+01  0.47745346659E+02  0.60636359167E+02  0.10566000000E+00 0.  1.
         13    1    4    4    0    0 -0.24827871798E+02 -0.24264198482E+01  0.65975859223E+02  0.70534643229E+02  0.10566000000E+00 0. -1.
        -13    1    4    4    0    0 -0.44431604116E+01 -0.76289796655E+00  0.13367632726E+02  0.14107744557E+02  0.10566000000E+00 0.  1.
         14    1    4    4    0    0 -0.78274775622E+01 -0.13756941411E+01  0.22452549102E+02  0.23817617440E+02  0.00000000000E+00 0. -1.
<mgrwt>
<rscale>  0 0.78936391E+02</rscale>
<asrwt>0</asrwt>
<pdfrwt beam="1">  1        2 0.24510596E-01 0.78936391E+02</pdfrwt>
<pdfrwt beam="2">  1       -1 0.15042290E-02 0.78936391E+02</pdfrwt>
<totfact> 0.21163284E+05</totfact>
</mgrwt>
</event>
<event>
 8    1  0.1673046E-013  0.8923917E+02  0.7818608E-02  0.1304705E+00
          2   -1    0    0  501    0  0.00000000000E+00  0.00000000000E+00  0.37777322691E+02  0.37777322777E+02  0.25500000000E-02 0. -1.
         -1   -1    0    0    0  501 -0.00000000000E+00 -0.00000000000E+00 -0.52701124334E+02  0.52701124575E+02  0.50400000000E-02 0.  1.
         24    2    1    2    0    0  0.00000000000E+00  0.00000000000E+00 -0.14923801643E+02  0.90478447352E+02  0.89239170658E+02 0.  0.
         66    2    3    3    0    0  0.13751191277E+02  0.39507300426E+02  0.82080292387E+01  0.42676618804E+02  0.20000000244E+01 0.  0.
        -13    1    3    3    0    0 -0.13751191277E+02 -0.39507300426E+02 -0.23131830882E+02  0.47801828547E+02  0.10566000000E+00 0.  1.
         13    1    4    4    0    0  0.33142732088E+01  0.10457883330E+02  0.28603928128E+01  0.11337757350E+02  0.10566000000E+00 0. -1.
        -13    1    4    4    0    0  0.33921854971E+00  0.11075187802E+01  0.31642942628E+00  0.12053873612E+01  0.10566000000E+00 0.  1.
         14    1    4    4    0    0  0.10097699518E+02  0.27941898316E+02  0.50312069997E+01  0.30133474093E+02  0.00000000000E+00 0. -1.
<mgrwt>
<rscale>  0 0.89239171E+02</rscale>
<asrwt>0</asrwt>
<pdfrwt beam="1">  1        2 0.58118958E-02 0.89239171E+02</pdfrwt>
<pdfrwt beam="2">  1       -1 0.81078654E-02 0.89239171E+02</pdfrwt>
<totfact> 0.10379612E+05</totfact>
</mgrwt>
</event>
<event>
 8    1  0.1673046E-013  0.7937780E+02  0.7818608E-02  0.1330826E+00
         -1   -1    0    0    0  501 -0.00000000000E+00  0.00000000000E+00  0.26862056877E+01  0.26862104159E+01  0.50400000000E-02 0.  1.
          2   -1    0    0  501    0  0.00000000000E+00 -0.00000000000E+00 -0.58640607348E+03  0.58640607348E+03  0.25500000000E-02 0. -1.
         24    2    1    2    0    0  0.17763568394E-14  0.00000000000E+00 -0.58371986779E+03  0.58909228390E+03  0.79377798513E+02 0.  0.
         66    2    3    3    0    0 -0.14933566863E+02  0.62170535357E+01 -0.56081121128E+03  0.56104801744E+03  0.20000015073E+01 0.  0.
        -13    1    3    3    0    0  0.14933566863E+02 -0.62170535357E+01 -0.22908656510E+02  0.28044266456E+02  0.10566000000E+00 0.  1.
         13    1    4    4    0    0 -0.52474128980E+01  0.17930325678E+01 -0.20241039099E+03  0.20248636460E+03  0.10566000000E+00 0. -1.
        -13    1    4    4    0    0 -0.62549995931E+01  0.29925860219E+01 -0.21089166100E+03  0.21100565024E+03  0.10566000000E+00 0.  1.
        -14    1    4    4    0    0 -0.34311543717E+01  0.14314349460E+01 -0.14750915930E+03  0.14755600260E+03  0.00000000000E+00 0.  1.
<mgrwt>
<rscale>  0 0.79377799E+02</rscale>
<asrwt>0</asrwt>
<pdfrwt beam="1">  1        2 0.90216217E-01 0.79377799E+02</pdfrwt>
<pdfrwt beam="2">  1       -1 0.41326325E-03 0.79377799E+02</pdfrwt>
<totfact> 0.32612528E+05</totfact>
</mgrwt>
</event>
<event>
 8    1  0.1673046E-013  0.8595401E+02  0.7818608E-02  0.1312956E+00
          2   -1    0    0  501    0  0.00000000000E+00  0.00000000000E+00  0.45795292542E+03  0.45795292542E+03  0.25500000000E-02 0. -1.
         -1   -1    0    0    0  501 -0.00000000000E+00 -0.00000000000E+00 -0.40332140501E+01  0.40332171991E+01  0.50400000000E-02 0.  1.
         24    2    1    2    0    0  0.44408920985E-15 -0.35527136788E-14  0.45391971137E+03  0.46198614262E+03  0.85954008682E+02 0.  0.
         66    2    3    3    0    0 -0.36176395546E+01  0.17739500133E+02  0.43644062821E+03  0.43682055714E+03  0.20000003656E+01 0.  0.
        -13    1    3    3    0    0  0.36176395546E+01 -0.17739500133E+02  0.17479083152E+02  0.25165585485E+02  0.10566000000E+00 0.  1.
         13    1    4    4    0    0 -0.48564799654E+00  0.38666102878E+01  0.90162400313E+02  0.90246640510E+02  0.10566000000E+00 0. -1.
        -13    1    4    4    0    0 -0.25119468804E+01  0.81277618681E+01  0.19564644141E+03  0.19583133454E+03  0.10566000000E+00 0.  1.
        -14    1    4    4    0    0 -0.62004467769E+00  0.57451279768E+01  0.15063178649E+03  0.15074258208E+03  0.00000000000E+00 0.  1.
<mgrwt>
<rscale>  0 0.85954009E+02</rscale>
<asrwt>0</asrwt>
<pdfrwt beam="1">  1        2 0.70454268E-01 0.85954009E+02</pdfrwt>
<pdfrwt beam="2">  1       -1 0.62049496E-03 0.85954009E+02</pdfrwt>
<totfact> 0.24522130E+05</totfact>
</mgrwt>
</event>
<event>
 8    1  0.1673046E-013  0.7565028E+02  0.7818608E-02  0.1341869E+00
          2   -1    0    0  501    0  0.00000000000E+00  0.00000000000E+00  0.49833509433E+02  0.49833509499E+02  0.25500000000E-02 0. -1.
         -1   -1    0    0    0  501 -0.00000000000E+00 -0.00000000000E+00 -0.28710421351E+02  0.28710421794E+02  0.50400000000E-02 0.  1.
         24    2    1    2    0    0 -0.71054273576E-14  0.17763568394E-14  0.21123088082E+02  0.78543931292E+02  0.75650276224E+02 0.  0.
         66    2    3    3    0    0 -0.30309927641E+02  0.96518273001E+01  0.31767698510E+02  0.45000401677E+02  0.19999996650E+01 0.  0.
        -13    1    3    3    0    0  0.30309927641E+02 -0.96518273001E+01 -0.10644610428E+02  0.33543529615E+02  0.10566000000E+00 0.  1.
         13    1    4    4    0    0 -0.32859950024E+01  0.85823257019E+00  0.28630968080E+01  0.44432886096E+01  0.10566000000E+00 0.  1.
        -13    1    4    4    0    0 -0.57285276754E+01  0.16353234891E+01  0.53762495458E+01  0.80253059416E+01  0.10566000000E+00 0. -1.
         14    1    4    4    0    0 -0.21295404963E+02  0.71582712409E+01  0.23528352156E+02  0.32531807126E+02  0.00000000000E+00 0. -1.
<mgrwt>
<rscale>  0 0.75650276E+02</rscale>
<asrwt>0</asrwt>
<pdfrwt beam="1">  1        2 0.76666938E-02 0.75650276E+02</pdfrwt>
<pdfrwt beam="2">  1       -1 0.44169879E-02 0.75650276E+02</pdfrwt>
<totfact> 0.17393042E+05</totfact>
</mgrwt>
</event>
<event>
 8    1  0.1673046E-013  0.7939943E+02  0.7818608E-02  0.1330764E+00
         -1   -1    0    0    0  501 -0.00000000000E+00  0.00000000000E+00  0.23227961479E+01  0.23228016157E+01  0.50400000000E-02 0.  1.
          2   -1    0    0  501    0  0.00000000000E+00 -0.00000000000E+00 -0.67852085731E+03  0.67852085732E+03  0.25500000000E-02 0. -1.
         24    2    1    2    0    0 -0.35527136788E-14  0.71054273576E-14 -0.67619806116E+03  0.68084365893E+03  0.79399433162E+02 0.  0.
         66    2    3    3    0    0  0.27866526168E+02 -0.24788871003E+02 -0.45432216468E+03  0.45585486808E+03  0.20000057892E+01 0.  0.
        -13    1    3    3    0    0 -0.27866526168E+02  0.24788871003E+02 -0.22187589648E+03  0.22498879086E+03  0.10566000000E+00 0.  1.
         13    1    4    4    0    0  0.49946701700E+01 -0.40275795057E+01 -0.81742658211E+02  0.81994155049E+02  0.10566000000E+00 0. -1.
        -13    1    4    4    0    0  0.16820016967E+01 -0.20149273272E+01 -0.29658757487E+02  0.29774857204E+02  0.10566000000E+00 0.  1.
         14    1    4    4    0    0  0.21189854301E+02 -0.18746364170E+02 -0.34292074898E+03  0.34408585582E+03  0.00000000000E+00 0. -1.
<mgrwt>
<rscale>  0 0.79399433E+02</rscale>
<asrwt>0</asrwt>
<pdfrwt beam="1">  1        2 0.10438767E+00 0.79399433E+02</pdfrwt>
<pdfrwt beam="2">  1       -1 0.35735422E-03 0.79399433E+02</pdfrwt>
<totfact> 0.33864909E+05</totfact>
</mgrwt>
</event>
<event>
 8    1  0.1673046E-013  0.8157044E+02  0.7818608E-02  0.1324653E+00
          2   -1    0    0  501    0  0.00000000000E+00  0.00000000000E+00  0.46588711126E+03  0.46588711127E+03  0.25500000000E-02 0. -1.
         -1   -1    0    0    0  501 -0.00000000000E+00 -0.00000000000E+00 -0.35704643094E+01  0.35704678666E+01  0.50400000000E-02 0.  1.
         24    2    1    2    0    0  0.00000000000E+00 -0.35527136788E-14  0.46231664695E+03  0.46945757914E+03  0.81570439243E+02 0.  0.
         66    2    3    3    0    0 -0.20979803261E+02  0.27061303074E+02  0.35855971032E+03  0.36019651868E+03  0.19999834991E+01 0.  0.
        -13    1    3    3    0    0  0.20979803261E+02 -0.27061303074E+02  0.10375693663E+03  0.10926106046E+03  0.10566000000E+00 0.  1.
         13    1    4    4    0    0 -0.14693219998E+02  0.17945805436E+02  0.24284245762E+03  0.24394756206E+03  0.10566000000E+00 0. -1.
        -13    1    4    4    0    0 -0.50600775011E+01  0.69368785779E+01  0.86701051144E+02  0.87125243772E+02  0.10566000000E+00 0.  1.
         14    1    4    4    0    0 -0.12265057612E+01  0.21786190605E+01  0.29016201558E+02  0.29123712851E+02  0.00000000000E+00 0. -1.
<mgrwt>
<rscale>  0 0.81570439E+02</rscale>
<asrwt>0</asrwt>
<pdfrwt beam="1">  1        2 0.71674918E-01 0.81570439E+02</pdfrwt>
<pdfrwt beam="2">  1       -1 0.54930265E-03 0.81570439E+02</pdfrwt>
<totfact> 0.28287863E+05</totfact>
</mgrwt>
</event>
<event>
 8    1  0.1673046E-013  0.8800757E+02  0.7818608E-02  0.1307750E+00
          2   -1    0    0  501    0  0.00000000000E+00  0.00000000000E+00  0.35824954146E+03  0.35824954147E+03  0.25500000000E-02 0. -1.
         -1   -1    0    0    0  501 -0.00000000000E+00 -0.00000000000E+00 -0.54049825440E+01  0.54049848938E+01  0.50400000000E-02 0.  1.
         24    2    1    2    0    0  0.17763568394E-14  0.00000000000E+00  0.35284455892E+03  0.36365452637E+03  0.88007566650E+02 0.  0.
         66    2    3    3    0    0  0.13760788600E+02  0.41772085350E+02  0.17548872286E+03  0.18092694179E+03  0.19999991190E+01 0.  0.
        -13    1    3    3    0    0 -0.13760788600E+02 -0.41772085350E+02  0.17735583606E+03  0.18272758458E+03  0.10566000000E+00 0.  1.
         13    1    4    4    0    0  0.52796769159E+01  0.15602597175E+02  0.66248939637E+02  0.68266017857E+02  0.10566000000E+00 0. -1.
        -13    1    4    4    0    0  0.35288086722E+01  0.13197658096E+02  0.52998622231E+02  0.54731122702E+02  0.10566000000E+00 0.  1.
         14    1    4    4    0    0  0.49523030117E+01  0.12971830078E+02  0.56241160994E+02  0.57929801231E+02  0.00000000000E+00 0. -1.
<mgrwt>
<rscale>  0 0.88007567E+02</rscale>
<asrwt>0</asrwt>
<pdfrwt beam="1">  1        2 0.55115308E-01 0.88007567E+02</pdfrwt>
<pdfrwt beam="2">  1       -1 0.83153605E-03 0.88007567E+02</pdfrwt>
<totfact> 0.21148532E+05</totfact>
</mgrwt>
</event>
<event>
 8    1  0.1673046E-013  0.8073578E+02  0.7818608E-02  0.1326976E+00
         -1   -1    0    0    0  501 -0.00000000000E+00  0.00000000000E+00  0.37881306794E+01  0.37881340322E+01  0.50400000000E-02 0.  1.
          2   -1    0    0  501    0  0.00000000000E+00 -0.00000000000E+00 -0.43017675092E+03  0.43017675093E+03  0.25500000000E-02 0. -1.
         24    2    1    2    0    0  0.17763568394E-14  0.35527136788E-14 -0.42638862024E+03  0.43396488496E+03  0.80735778360E+02 0.  0.
         66    2    3    3    0    0 -0.10098987235E+02 -0.27823151166E+02 -0.36067029089E+03  0.36188834744E+03  0.19999998145E+01 0.  0.
        -13    1    3    3    0    0  0.10098987235E+02  0.27823151166E+02 -0.65718329356E+02  0.72076537523E+02  0.10566000000E+00 0.  1.
         13    1    4    4    0    0 -0.58964758044E+01 -0.16047992153E+02 -0.19970915863E+03  0.20043968091E+03  0.10566000000E+00 0. -1.
        -13    1    4    4    0    0 -0.24797149923E+00 -0.11466653786E+01 -0.12735068456E+02  0.12789427820E+02  0.10566000000E+00 0.  1.
         14    1    4    4    0    0 -0.39545399316E+01 -0.10628493634E+02 -0.14822606380E+03  0.14865923871E+03  0.00000000000E+00 0. -1.
<mgrwt>
<rscale>  0 0.80735778E+02</rscale>
<asrwt>0</asrwt>
<pdfrwt beam="1">  1        2 0.66181000E-01 0.80735778E+02</pdfrwt>
<pdfrwt beam="2">  1       -1 0.58278994E-03 0.80735778E+02</pdfrwt>
<totfact> 0.28288601E+05</totfact>
</mgrwt>
</event>
<event>
 8    1  0.1673046E-013  0.8034040E+02  0.7818608E-02  0.1328088E+00
          2   -1    0    0  501    0  0.00000000000E+00  0.00000000000E+00  0.46246350893E+03  0.46246350894E+03  0.25500000000E-02 0. -1.
         -1   -1    0    0    0  501 -0.00000000000E+00 -0.00000000000E+00 -0.34892359519E+01  0.34892395919E+01  0.50400000000E-02 0.  1.
         24    2    1    2    0    0  0.00000000000E+00 -0.88817841970E-15  0.45897427298E+03  0.46595274853E+03  0.80340404567E+02 0.  0.
         66    2    3    3    0    0  0.20481198727E+02  0.58614135510E+01  0.42697366334E+03  0.42750946757E+03  0.20000000241E+01 0.  0.
        -13    1    3    3    0    0 -0.20481198727E+02 -0.58614135510E+01  0.32000609633E+02  0.38443280961E+02  0.10566000000E+00 0.  1.
         13    1    4    4    0    0  0.48303828671E+01  0.14598040304E+01  0.95184884776E+02  0.95318608258E+02  0.10566000000E+00 0. -1.
        -13    1    4    4    0    0  0.22983730529E+01  0.59439939505E+00  0.61144220963E+02  0.61190381193E+02  0.10566000000E+00 0.  1.
         14    1    4    4    0    0  0.13352442807E+02  0.38072101256E+01  0.27064455760E+03  0.27100047812E+03  0.00000000000E+00 0. -1.
<mgrwt>
<rscale>  0 0.80340405E+02</rscale>
<asrwt>0</asrwt>
<pdfrwt beam="1">  1        2 0.71148164E-01 0.80340405E+02</pdfrwt>
<pdfrwt beam="2">  1       -1 0.53680633E-03 0.80340405E+02</pdfrwt>
<totfact> 0.29360857E+05</totfact>
</mgrwt>
</event>
<event>
 8    1  0.1673046E-013  0.7944097E+02  0.7818608E-02  0.1330645E+00
         -1   -1    0    0    0  501 -0.00000000000E+00  0.00000000000E+00  0.20764144480E+01  0.20764205647E+01  0.50400000000E-02 0.  1.
          2   -1    0    0  501    0  0.00000000000E+00 -0.00000000000E+00 -0.75982639790E+03  0.75982639791E+03  0.25500000000E-02 0. -1.
         24    2    1    2    0    0 -0.17763568394E-14  0.35527136788E-14 -0.75774998346E+03  0.76190281847E+03  0.79440967828E+02 0.  0.
         66    2    3    3    0    0  0.12808831507E+02 -0.20562932852E+02 -0.68070090366E+03  0.68113480355E+03  0.20000002525E+01 0.  0.
        -13    1    3    3    0    0 -0.12808831507E+02  0.20562932852E+02 -0.77049079801E+02  0.80768014921E+02  0.10566000000E+00 0.  1.
         13    1    4    4    0    0  0.22940946302E+01 -0.36670648868E+01 -0.12826827304E+03  0.12834122980E+03  0.10566000000E+00 0.  1.
        -13    1    4    4    0    0  0.78501857220E+01 -0.11256142347E+02 -0.37080966302E+03  0.37106353029E+03  0.10566000000E+00 0. -1.
        -14    1    4    4    0    0  0.26645511549E+01 -0.56397256185E+01 -0.18162296760E+03  0.18173004346E+03  0.00000000000E+00 0.  1.
<mgrwt>
<rscale>  0 0.79440968E+02</rscale>
<asrwt>0</asrwt>
<pdfrwt beam="1">  1        2 0.11689615E+00 0.79440968E+02</pdfrwt>
<pdfrwt beam="2">  1       -1 0.31944945E-03 0.79440968E+02</pdfrwt>
<totfact> 0.34666438E+05</totfact>
</mgrwt>
</event>
<event>
 8    1  0.1673046E-013  0.7714938E+02  0.7818608E-02  0.1337341E+00
          2   -1    0    0  501    0  0.00000000000E+00  0.00000000000E+00  0.96340214505E+02  0.96340214539E+02  0.25500000000E-02 0. -1.
         -1   -1    0    0    0  501 -0.00000000000E+00 -0.00000000000E+00 -0.15445331143E+02  0.15445331965E+02  0.50400000000E-02 0.  1.
         24    2    1    2    0    0 -0.17763568394E-14  0.00000000000E+00  0.80894883362E+02  0.11178554650E+03  0.77149376233E+02 0.  0.
         66    2    3    3    0    0 -0.84782125803E+01 -0.21763155862E+02  0.84909994156E+02  0.88086446936E+02  0.19999961502E+01 0.  0.
        -13    1    3    3    0    0  0.84782125803E+01  0.21763155862E+02 -0.40151107942E+01  0.23699099568E+02  0.10566000000E+00 0.  1.
         13    1    4    4    0    0 -0.29792542841E+01 -0.78497790297E+01  0.28866479326E+02  0.30062930324E+02  0.10566000000E+00 0. -1.
        -13    1    4    4    0    0 -0.26118284534E+01 -0.50933934839E+01  0.19846089055E+02  0.20655331512E+02  0.10566000000E+00 0.  1.
         14    1    4    4    0    0 -0.28871298427E+01 -0.88199833482E+01  0.36197425775E+02  0.37368185100E+02  0.00000000000E+00 0. -1.
<mgrwt>
<rscale>  0 0.77149376E+02</rscale>
<asrwt>0</asrwt>
<pdfrwt beam="1">  1        2 0.14821571E-01 0.77149376E+02</pdfrwt>
<pdfrwt beam="2">  1       -1 0.23762049E-02 0.77149376E+02</pdfrwt>
<totfact> 0.19331651E+05</totfact>
</mgrwt>
</event>
<event>
 8    1  0.1673046E-013  0.8011269E+02  0.7818608E-02  0.1328732E+00
         -1   -1    0    0    0  501 -0.00000000000E+00  0.00000000000E+00  0.27176605043E+02  0.27176605511E+02  0.50400000000E-02 0.  1.
          2   -1    0    0  501    0  0.00000000000E+00 -0.00000000000E+00 -0.59040148212E+02  0.59040148267E+02  0.25500000000E-02 0. -1.
         24    2    1    2    0    0  0.35527136788E-14 -0.35527136788E-14 -0.31863543168E+02  0.86216753778E+02  0.80112690934E+02 0.  0.
         66    2    3    3    0    0 -0.22228313226E+02  0.29801905837E+02 -0.31913426457E+02  0.49037927105E+02  0.20000015336E+01 0.  0.
        -13    1    3    3    0    0  0.22228313226E+02 -0.29801905837E+02  0.49883288374E-01  0.37178826673E+02  0.10566000000E+00 0.  1.
         13    1    4    4    0    0 -0.32425257124E+01  0.37194656202E+01 -0.46347650160E+01  0.67705692733E+01  0.10566000000E+00 0. -1.
        -13    1    4    4    0    0 -0.91936209177E+01  0.11726746072E+02 -0.12137218605E+02  0.19218805335E+02  0.10566000000E+00 0.  1.
        -14    1    4    4    0    0 -0.97921665958E+01  0.14355694145E+02 -0.15141442836E+02  0.23048552496E+02  0.00000000000E+00 0.  1.
<mgrwt>
<rscale>  0 0.80112691E+02</rscale>
<asrwt>0</asrwt>
<pdfrwt beam="1">  1        2 0.90830997E-02 0.80112691E+02</pdfrwt>
<pdfrwt beam="2">  1       -1 0.41810162E-02 0.80112691E+02</pdfrwt>
<totfact> 0.15449170E+05</totfact>
</mgrwt>
</event>
<event>
 8    1  0.1673046E-013  0.7940194E+02  0.7818608E-02  0.1330757E+00
         -1   -1    0    0    0  501 -0.00000000000E+00  0.00000000000E+00  0.35479661677E+01  0.35479697474E+01  0.50400000000E-02 0.  1.
          2   -1    0    0  501    0  0.00000000000E+00 -0.00000000000E+00 -0.44424497265E+03  0.44424497266E+03  0.25500000000E-02 0. -1.
         24    2    1    2    0    0 -0.35527136788E-14 -0.17763568394E-14 -0.44069700648E+03  0.44779294240E+03  0.79401937917E+02 0.  0.
         66    2    3    3    0    0 -0.12224695681E+02 -0.83664890437E+01 -0.42806098857E+03  0.42832190144E+03  0.19999994433E+01 0.  0.
        -13    1    3    3    0    0  0.12224695681E+02  0.83664890437E+01 -0.12636017915E+02  0.19471040963E+02  0.10566000000E+00 0.  1.
         13    1    4    4    0    0 -0.51460530531E+01 -0.30448412765E+01 -0.15861166943E+03  0.15872437041E+03  0.10566000000E+00 0. -1.
        -13    1    4    4    0    0 -0.23916579969E+01 -0.24000887314E+01 -0.11252389681E+03  0.11257494824E+03  0.10566000000E+00 0.  1.
        -14    1    4    4    0    0 -0.46869846309E+01 -0.29215590357E+01 -0.15692542233E+03  0.15702258278E+03  0.00000000000E+00 0.  1.
<mgrwt>
<rscale>  0 0.79401938E+02</rscale>
<asrwt>0</asrwt>
<pdfrwt beam="1">  1        2 0.68345336E-01 0.79401938E+02</pdfrwt>
<pdfrwt beam="2">  1       -1 0.54584158E-03 0.79401938E+02</pdfrwt>
<totfact> 0.29870282E+05</totfact>
</mgrwt>
</event>
<event>
 8    1  0.1673046E-013  0.7804737E+02  0.7818608E-02  0.1334686E+00
         -1   -1    0    0    0  501 -0.00000000000E+00  0.00000000000E+00  0.11235439088E+02  0.11235440218E+02  0.50400000000E-02 0.  1.
          2   -1    0    0  501    0  0.00000000000E+00 -0.00000000000E+00 -0.13553968894E+03  0.13553968896E+03  0.25500000000E-02 0. -1.
         24    2    1    2    0    0  0.00000000000E+00  0.71054273576E-14 -0.12430424985E+03  0.14677512918E+03  0.78047370327E+02 0.  0.
         66    2    3    3    0    0 -0.24706482529E+02  0.24290467506E+02 -0.95855179418E+02  0.10194436002E+03  0.20000072220E+01 0.  0.
        -13    1    3    3    0    0  0.24706482529E+02 -0.24290467506E+02 -0.28449070431E+02  0.44830769155E+02  0.10566000000E+00 0.  1.
         13    1    4    4    0    0 -0.67290880839E+01  0.73308611296E+01 -0.28117907829E+02  0.29827002130E+02  0.10566000000E+00 0. -1.
        -13    1    4    4    0    0 -0.94853200763E+00  0.12982456463E+01 -0.47068889262E+01  0.49750499623E+01  0.10566000000E+00 0.  1.
        -14    1    4    4    0    0 -0.17028862437E+02  0.15661360730E+02 -0.63030382662E+02  0.67142307931E+02  0.00000000000E+00 0.  1.
<mgrwt>
<rscale>  0 0.78047370E+02</rscale>
<asrwt>0</asrwt>
<pdfrwt beam="1">  1        2 0.20852259E-01 0.78047370E+02</pdfrwt>
<pdfrwt beam="2">  1       -1 0.17285293E-02 0.78047370E+02</pdfrwt>
<totfact> 0.20711445E+05</totfact>
</mgrwt>
</event>
<event>
 8    1  0.1673046E-013  0.7991820E+02  0.7818608E-02  0.1329284E+00
          2   -1    0    0  501    0  0.00000000000E+00  0.00000000000E+00  0.30442396160E+02  0.30442396267E+02  0.25500000000E-02 0. -1.
         -1   -1    0    0    0  501 -0.00000000000E+00 -0.00000000000E+00 -0.52450852779E+02  0.52450853021E+02  0.50400000000E-02 0.  1.
         24    2    1    2    0    0 -0.71054273576E-14  0.00000000000E+00 -0.22008456618E+02  0.82893249288E+02  0.79918199521E+02 0.  0.
         66    2    3    3    0    0 -0.38234439405E+02 -0.21300103109E+01  0.73822248039E+00  0.38353021689E+02  0.19999999237E+01 0.  0.
        -13    1    3    3    0    0  0.38234439405E+02  0.21300103109E+01 -0.22746679099E+02  0.44540227599E+02  0.10566000000E+00 0.  1.
         13    1    4    4    0    0 -0.11231866625E+02 -0.10235021479E+01 -0.28695290057E+00  0.11282548051E+02  0.10566000000E+00 0. -1.
        -13    1    4    4    0    0 -0.16760454465E+02 -0.59611043788E+00  0.11988173017E+01  0.16814175820E+02  0.10566000000E+00 0. -1.
        -14    1    4    4    0    0 -0.10242118315E+02 -0.51039772512E+00 -0.17364192075E+00  0.10256297818E+02  0.00000000000E+00 0.  1.
<mgrwt>
<rscale>  0 0.79918200E+02</rscale>
<asrwt>0</asrwt>
<pdfrwt beam="1">  1        2 0.46834456E-02 0.79918200E+02</pdfrwt>
<pdfrwt beam="2">  1       -1 0.80693620E-02 0.79918200E+02</pdfrwt>
<totfact> 0.13532895E+05</totfact>
</mgrwt>
</event>
<event>
 8    1  0.1673046E-013  0.8232945E+02  0.7818608E-02  0.1322568E+00
         -1   -1    0    0    0  501 -0.00000000000E+00  0.00000000000E+00  0.20003854705E+01  0.20003918197E+01  0.50400000000E-02 0.  1.
          2   -1    0    0  501    0  0.00000000000E+00 -0.00000000000E+00 -0.84710275219E+03  0.84710275220E+03  0.25500000000E-02 0. -1.
         24    2    1    2    0    0  0.00000000000E+00  0.00000000000E+00 -0.84510236672E+03  0.84910314402E+03  0.82329453654E+02 0.  0.
         66    2    3    3    0    0 -0.20983652205E+02  0.24724554006E+02 -0.68389847644E+03  0.68466980604E+03  0.20000001118E+01 0.  0.
        -13    1    3    3    0    0  0.20983652205E+02 -0.24724554006E+02 -0.16120389028E+03  0.16443333797E+03  0.10566000000E+00 0.  1.
         13    1    4    4    0    0 -0.64432230547E+01  0.66533953463E+01 -0.18324558727E+03  0.18347953349E+03  0.10566000000E+00 0. -1.
        -13    1    4    4    0    0 -0.10871513427E+02  0.13917252220E+02 -0.38207788355E+03  0.38248581670E+03  0.10566000000E+00 0.  1.
         14    1    4    4    0    0 -0.36689157233E+01  0.41539064391E+01 -0.11857500563E+03  0.11870445586E+03  0.00000000000E+00 0. -1.
<mgrwt>
<rscale>  0 0.82329454E+02</rscale>
<asrwt>0</asrwt>
<pdfrwt beam="1">  1        2 0.13032321E+00 0.82329454E+02</pdfrwt>
<pdfrwt beam="2">  1       -1 0.30775278E-03 0.82329454E+02</pdfrwt>
<totfact> 0.32183884E+05</totfact>
</mgrwt>
</event>
<event>
 8    1  0.1673046E-013  0.7504246E+02  0.7818608E-02  0.1343740E+00
          2   -1    0    0  501    0  0.00000000000E+00  0.00000000000E+00  0.36788149803E+03  0.36788149804E+03  0.25500000000E-02 0. -1.
         -1   -1    0    0    0  501 -0.00000000000E+00 -0.00000000000E+00 -0.38268903213E+01  0.38268936402E+01  0.50400000000E-02 0.  1.
         24    2    1    2    0    0 -0.88817841970E-15  0.00000000000E+00  0.36405460771E+03  0.37170839168E+03  0.75042461651E+02 0.  0.
         66    2    3    3    0    0  0.54128423575E+01 -0.26206206478E+02  0.31224765113E+03  0.31339856374E+03  0.19999993120E+01 0.  0.
        -13    1    3    3    0    0 -0.54128423575E+01  0.26206206478E+02  0.51806956578E+02  0.58309827939E+02  0.10566000000E+00 0.  1.
         13    1    4    4    0    0  0.25352652211E+01 -0.11829730042E+02  0.14049931005E+03  0.14101928014E+03  0.10566000000E+00 0. -1.
        -13    1    4    4    0    0  0.18369446127E+01 -0.77314905028E+01  0.10081845386E+03  0.10113121236E+03  0.10566000000E+00 0.  1.
        -14    1    4    4    0    0  0.10406325237E+01 -0.66449859333E+01  0.70929887219E+02  0.71248071237E+02  0.00000000000E+00 0.  1.
<mgrwt>
<rscale>  0 0.75042462E+02</rscale>
<asrwt>0</asrwt>
<pdfrwt beam="1">  1        2 0.56597179E-01 0.75042462E+02</pdfrwt>
<pdfrwt beam="2">  1       -1 0.58875235E-03 0.75042462E+02</pdfrwt>
<totfact> 0.32408387E+05</totfact>
</mgrwt>
</event>
<event>
 8    1  0.1673046E-013  0.7874708E+02  0.7818608E-02  0.1332645E+00
          2   -1    0    0  501    0  0.00000000000E+00  0.00000000000E+00  0.83431985844E+03  0.83431985845E+03  0.25500000000E-02 0. -1.
         -1   -1    0    0    0  501 -0.00000000000E+00 -0.00000000000E+00 -0.18581276237E+01  0.18581344589E+01  0.50400000000E-02 0.  1.
         24    2    1    2    0    0  0.00000000000E+00  0.17763568394E-14  0.83246173082E+03  0.83617799291E+03  0.78747079573E+02 0.  0.
         66    2    3    3    0    0  0.16761487596E+02 -0.99811295412E+01  0.77935097873E+03  0.77959766448E+03  0.20000001115E+01 0.  0.
        -13    1    3    3    0    0 -0.16761487596E+02  0.99811295412E+01  0.53110752086E+02  0.56580328424E+02  0.10566000000E+00 0.  1.
         13    1    4    4    0    0  0.33536412759E+01 -0.23497866805E+01  0.15780587726E+03  0.15785903353E+03  0.10566000000E+00 0. -1.
        -13    1    4    4    0    0  0.20224537274E+01 -0.56614477753E+00  0.77167270634E+02  0.77195917380E+02  0.10566000000E+00 0.  1.
        -14    1    4    4    0    0  0.11385392592E+02 -0.70651980831E+01  0.54437783085E+03  0.54454271357E+03  0.00000000000E+00 0.  1.
<mgrwt>
<rscale>  0 0.78747080E+02</rscale>
<asrwt>0</asrwt>
<pdfrwt beam="1">  1        2 0.12835719E+00 0.78747080E+02</pdfrwt>
<pdfrwt beam="2">  1       -1 0.28586567E-03 0.78747080E+02</pdfrwt>
<totfact> 0.36047444E+05</totfact>
</mgrwt>
</event>
<event>
 8    1  0.1673046E-013  0.8365914E+02  0.7818608E-02  0.1318977E+00
          2   -1    0    0  501    0  0.00000000000E+00  0.00000000000E+00  0.14428818011E+02  0.14428818237E+02  0.25500000000E-02 0. -1.
         -1   -1    0    0    0  501 -0.00000000000E+00 -0.00000000000E+00 -0.12126515217E+03  0.12126515228E+03  0.50400000000E-02 0.  1.
         24    2    1    2    0    0  0.00000000000E+00  0.00000000000E+00 -0.10683633416E+03  0.13569397051E+03  0.83659137796E+02 0.  0.
         66    2    3    3    0    0 -0.10300923199E+02 -0.35559982846E+02 -0.84945497109E+02  0.92684188957E+02  0.20000011648E+01 0.  0.
        -13    1    3    3    0    0  0.10300923199E+02  0.35559982846E+02 -0.21890837052E+02  0.43009781557E+02  0.10566000000E+00 0.  1.
         13    1    4    4    0    0 -0.47823807048E+01 -0.17878248735E+02 -0.42738119516E+02  0.46573178621E+02  0.10566000000E+00 0. -1.
        -13    1    4    4    0    0 -0.37649688331E+01 -0.13824149928E+02 -0.32873933918E+02  0.35860686090E+02  0.10566000000E+00 0.  1.
        -14    1    4    4    0    0 -0.17535736611E+01 -0.38575841826E+01 -0.93334436753E+01  0.10250324246E+02  0.00000000000E+00 0.  1.
<mgrwt>
<rscale>  0 0.83659138E+02</rscale>
<asrwt>0</asrwt>
<pdfrwt beam="1">  1        2 0.22198183E-02 0.83659138E+02</pdfrwt>
<pdfrwt beam="2">  1       -1 0.18656177E-01 0.83659138E+02</pdfrwt>
<totfact> 0.10150565E+05</totfact>
</mgrwt>
</event>
<event>
 8    1  0.1673046E-013  0.7772356E+02  0.7818608E-02  0.1335639E+00
          2   -1    0    0  501    0  0.00000000000E+00  0.00000000000E+00  0.18662252026E+04  0.18662252026E+04  0.25500000000E-02 0. -1.
         -1   -1    0    0    0  501 -0.00000000000E+00 -0.00000000000E+00 -0.80923963872E+00  0.80925533330E+00  0.50400000000E-02 0.  1.
         24    2    1    2    0    0  0.00000000000E+00  0.17763568394E-14  0.18654159629E+04  0.18670344579E+04  0.77723563003E+02 0.  0.
         66    2    3    3    0    0 -0.10110229294E+02  0.11730687435E+02  0.17888415717E+04  0.17889097223E+04  0.19999916362E+01 0.  0.
        -13    1    3    3    0    0  0.10110229294E+02 -0.11730687435E+02  0.76574391201E+02  0.78124735621E+02  0.10566000000E+00 0.  1.
         13    1    4    4    0    0 -0.27775271832E+01  0.25472193196E+01  0.47762653762E+03  0.47764141737E+03  0.10566000000E+00 0. -1.
        -13    1    4    4    0    0 -0.26602458195E+01  0.31282053485E+01  0.39557434247E+03  0.39559567005E+03  0.10566000000E+00 0.  1.
        -14    1    4    4    0    0 -0.46724562915E+01  0.60552627665E+01  0.91564069164E+03  0.91567263487E+03  0.00000000000E+00 0.  1.
<mgrwt>
<rscale>  0 0.77723563E+02</rscale>
<asrwt>0</asrwt>
<pdfrwt beam="1">  1        2 0.28710960E+00 0.77723563E+02</pdfrwt>
<pdfrwt beam="2">  1       -1 0.12450047E-03 0.77723563E+02</pdfrwt>
<totfact> 0.31729892E+05</totfact>
</mgrwt>
</event>
<event>
 8    1  0.1673046E-013  0.8295660E+02  0.7818608E-02  0.1320864E+00
         -1   -1    0    0    0  501 -0.00000000000E+00  0.00000000000E+00  0.84494509387E+02  0.84494509538E+02  0.50400000000E-02 0.  1.
          2   -1    0    0  501    0  0.00000000000E+00 -0.00000000000E+00 -0.20361668612E+02  0.20361668772E+02  0.25500000000E-02 0. -1.
         24    2    1    2    0    0  0.00000000000E+00  0.00000000000E+00  0.64132840775E+02  0.10485617831E+03  0.82956596264E+02 0.  0.
         66    2    3    3    0    0  0.17154755022E+02  0.37465002193E+02  0.37812451252E+02  0.55961535680E+02  0.19999991890E+01 0.  0.
        -13    1    3    3    0    0 -0.17154755022E+02 -0.37465002193E+02  0.26320389523E+02  0.48894642630E+02  0.10566000000E+00 0.  1.
         13    1    4    4    0    0  0.54561819301E+01  0.12355354337E+02  0.11301619904E+02  0.17611430338E+02  0.10566000000E+00 0. -1.
        -13    1    4    4    0    0  0.10773538789E+02  0.23492222985E+02  0.24588077168E+02  0.35672655939E+02  0.10566000000E+00 0.  1.
         14    1    4    4    0    0  0.92503430265E+00  0.16174248709E+01  0.19227541791E+01  0.26774494033E+01  0.00000000000E+00 0. -1.
<mgrwt>
<rscale>  0 0.82956596E+02</rscale>
<asrwt>0</asrwt>
<pdfrwt beam="1">  1        2 0.31325644E-02 0.82956596E+02</pdfrwt>
<pdfrwt beam="2">  1       -1 0.12999155E-01 0.82956596E+02</pdfrwt>
<totfact> 0.11224377E+05</totfact>
</mgrwt>
</event>
<event>
 8    1  0.1673046E-013  0.7823295E+02  0.7818608E-02  0.1334142E+00
         -1   -1    0    0    0  501 -0.00000000000E+00  0.00000000000E+00  0.88243517364E+01  0.88243531757E+01  0.50400000000E-02 0.  1.
          2   -1    0    0  501    0  0.00000000000E+00 -0.00000000000E+00 -0.17339498820E+03  0.17339498822E+03  0.25500000000E-02 0. -1.
         24    2    1    2    0    0  0.00000000000E+00  0.00000000000E+00 -0.16457063646E+03  0.18221934139E+03  0.78232946974E+02 0.  0.
         66    2    3    3    0    0  0.82700182561E+00  0.17028072207E+02 -0.16427393177E+03  0.16516828944E+03  0.20000001565E+01 0.  0.
        -13    1    3    3    0    0 -0.82700182561E+00 -0.17028072207E+02 -0.29670469047E+00  0.17051051956E+02  0.10566000000E+00 0.  1.
         13    1    4    4    0    0  0.12948239057E+01  0.13193269597E+02 -0.12609572964E+03  0.12679070600E+03  0.10566000000E+00 0. -1.
        -13    1    4    4    0    0 -0.31100218471E+00  0.28031180558E+01 -0.30159188879E+02  0.30290956259E+02  0.10566000000E+00 0.  1.
         14    1    4    4    0    0 -0.15681989536E+00  0.10316845542E+01 -0.80190132553E+01  0.80866271762E+01  0.00000000000E+00 0. -1.
<mgrwt>
<rscale>  0 0.78232947E+02</rscale>
<asrwt>0</asrwt>
<pdfrwt beam="1">  1        2 0.26676149E-01 0.78232947E+02</pdfrwt>
<pdfrwt beam="2">  1       -1 0.13575928E-02 0.78232947E+02</pdfrwt>
<totfact> 0.22285065E+05</totfact>
</mgrwt>
</event>
<event>
 8    1  0.1673046E-013  0.8043722E+02  0.7818608E-02  0.1327815E+00
         -1   -1    0    0    0  501 -0.00000000000E+00  0.00000000000E+00  0.74885320837E+01  0.74885337797E+01  0.50400000000E-02 0.  1.
          2   -1    0    0  501    0  0.00000000000E+00 -0.00000000000E+00 -0.21600177775E+03  0.21600177777E+03  0.25500000000E-02 0. -1.
         24    2    1    2    0    0  0.00000000000E+00  0.44408920985E-15 -0.20851324567E+03  0.22349031155E+03  0.80437216113E+02 0.  0.
         66    2    3    3    0    0 -0.36562985451E+02 -0.29375703348E+01 -0.14997964042E+03  0.15441299739E+03  0.19999989326E+01 0.  0.
        -13    1    3    3    0    0  0.36562985451E+02  0.29375703348E+01 -0.58533605245E+02  0.69077314160E+02  0.10566000000E+00 0.  1.
         13    1    4    4    0    0 -0.32910949541E+02 -0.28282401191E+01 -0.13557478028E+03  0.13954089635E+03  0.10566000000E+00 0. -1.
        -13    1    4    4    0    0 -0.10863271131E+01 -0.20694658824E+00 -0.36695480656E+01  0.38340162400E+01  0.10566000000E+00 0.  1.
        -14    1    4    4    0    0 -0.25657087969E+01  0.97616372517E-01 -0.10735312078E+02  0.11038084797E+02  0.00000000000E+00 0.  1.
<mgrwt>
<rscale>  0 0.80437216E+02</rscale>
<asrwt>0</asrwt>
<pdfrwt beam="1">  1        2 0.33231038E-01 0.80437216E+02</pdfrwt>
<pdfrwt beam="2">  1       -1 0.11520822E-02 0.80437216E+02</pdfrwt>
<totfact> 0.22337060E+05</totfact>
</mgrwt>
</event>
<event>
 8    1  0.1673046E-013  0.7908404E+02  0.7818608E-02  0.1331671E+00
         -1   -1    0    0    0  501 -0.00000000000E+00  0.00000000000E+00  0.72606293908E+02  0.72606294083E+02  0.50400000000E-02 0.  1.
          2   -1    0    0  501    0  0.00000000000E+00 -0.00000000000E+00 -0.21534930652E+02  0.21534930803E+02  0.25500000000E-02 0. -1.
         24    2    1    2    0    0  0.00000000000E+00  0.00000000000E+00  0.51071363257E+02  0.94141224886E+02  0.79084044397E+02 0.  0.
         66    2    3    3    0    0 -0.14932837703E+02  0.21884095242E+02 -0.93504231664E+01  0.28166178808E+02  0.19999872008E+01 0.  0.
        -13    1    3    3    0    0  0.14932837703E+02 -0.21884095242E+02  0.60421786423E+02  0.65975046078E+02  0.10566000000E+00 0.  1.
         13    1    4    4    0    0 -0.26259187509E+01  0.36548056894E+01 -0.21723479209E+01  0.49983310653E+01  0.10566000000E+00 0. -1.
        -13    1    4    4    0    0 -0.10924111341E+01  0.21813943606E+01 -0.60394028617E+00  0.25155022057E+01  0.10566000000E+00 0.  1.
         14    1    4    4    0    0 -0.11214507818E+02  0.16047895192E+02 -0.65741349593E+01  0.20652345537E+02  0.00000000000E+00 0. -1.
<mgrwt>
<rscale>  0 0.79084044E+02</rscale>
<asrwt>0</asrwt>
<pdfrwt beam="1">  1        2 0.33130663E-02 0.79084044E+02</pdfrwt>
<pdfrwt beam="2">  1       -1 0.11170199E-01 0.79084044E+02</pdfrwt>
<totfact> 0.13022873E+05</totfact>
</mgrwt>
</event>
<event>
 8    1  0.1673046E-013  0.8194883E+02  0.7818608E-02  0.1323610E+00
         -1   -1    0    0    0  501 -0.00000000000E+00  0.00000000000E+00  0.25992185603E+01  0.25992234467E+01  0.50400000000E-02 0.  1.
          2   -1    0    0  501    0  0.00000000000E+00 -0.00000000000E+00 -0.64592533434E+03  0.64592533434E+03  0.25500000000E-02 0. -1.
         24    2    1    2    0    0 -0.71054273576E-14  0.00000000000E+00 -0.64332611578E+03  0.64852455779E+03  0.81948830466E+02 0.  0.
         66    2    3    3    0    0  0.23280682537E+02 -0.44768696542E+01 -0.58609185141E+03  0.58657453984E+03  0.19999918338E+01 0.  0.
        -13    1    3    3    0    0 -0.23280682537E+02  0.44768696542E+01 -0.57234264374E+02  0.61950017948E+02  0.10566000000E+00 0.  1.
         13    1    4    4    0    0  0.12701143127E+02 -0.20882617880E+01 -0.30164991840E+03  0.30192443476E+03  0.10566000000E+00 0. -1.
        -13    1    4    4    0    0  0.76942678403E+01 -0.16981381613E+01 -0.19567214264E+03  0.19583075346E+03  0.10566000000E+00 0.  1.
         14    1    4    4    0    0  0.28852715697E+01 -0.69046970498E+00 -0.88769790372E+02  0.88819351625E+02  0.00000000000E+00 0. -1.
<mgrwt>
<rscale>  0 0.81948830E+02</rscale>
<asrwt>0</asrwt>
<pdfrwt beam="1">  1        2 0.99373001E-01 0.81948830E+02</pdfrwt>
<pdfrwt beam="2">  1       -1 0.39988067E-03 0.81948830E+02</pdfrwt>
<totfact> 0.30811773E+05</totfact>
</mgrwt>
</event>
<event>
 8    1  0.1673046E-013  0.8156273E+02  0.7818608E-02  0.1324674E+00
          2   -1    0    0  501    0  0.00000000000E+00  0.00000000000E+00  0.19300944601E+03  0.19300944602E+03  0.25500000000E-02 0. -1.
         -1   -1    0    0    0  501 -0.00000000000E+00 -0.00000000000E+00 -0.86167782803E+01  0.86167797542E+01  0.50400000000E-02 0.  1.
         24    2    1    2    0    0  0.00000000000E+00  0.35527136788E-14  0.18439266773E+03  0.20162622578E+03  0.81562730522E+02 0.  0.
         66    2    3    3    0    0 -0.27417776071E+02  0.29335756670E+02  0.10951942092E+03  0.11666543885E+03  0.19999997801E+01 0.  0.
        -13    1    3    3    0    0  0.27417776071E+02 -0.29335756670E+02  0.74873246802E+02  0.84960786924E+02  0.10566000000E+00 0.  1.
         13    1    4    4    0    0 -0.15045818339E+01  0.21012259115E+01  0.72361338185E+01  0.76845112727E+01  0.10566000000E+00 0. -1.
        -13    1    4    4    0    0 -0.13359034775E+02  0.14848043671E+02  0.55333359454E+02  0.58827884914E+02  0.10566000000E+00 0.  1.
        -14    1    4    4    0    0 -0.12554159462E+02  0.12386487088E+02  0.46949927651E+02  0.50153042666E+02  0.00000000000E+00 0.  1.
<mgrwt>
<rscale>  0 0.81562731E+02</rscale>
<asrwt>0</asrwt>
<pdfrwt beam="1">  1        2 0.29693755E-01 0.81562731E+02</pdfrwt>
<pdfrwt beam="2">  1       -1 0.13256586E-02 0.81562731E+02</pdfrwt>
<totfact> 0.20702562E+05</totfact>
</mgrwt>
</event>
<event>
 8    1  0.1673046E-013  0.7978861E+02  0.7818608E-02  0.1329652E+00
          2   -1    0    0  501    0  0.00000000000E+00  0.00000000000E+00  0.36678756456E+03  0.36678756457E+03  0.25500000000E-02 0. -1.
         -1   -1    0    0    0  501 -0.00000000000E+00 -0.00000000000E+00 -0.43391743944E+01  0.43391773214E+01  0.50400000000E-02 0.  1.
         24    2    1    2    0    0  0.00000000000E+00  0.00000000000E+00  0.36244839017E+03  0.37112674189E+03  0.79788614555E+02 0.  0.
         66    2    3    3    0    0  0.44034009279E+01 -0.94659210935E+01  0.36031338139E+03  0.36047014636E+03  0.20000013640E+01 0.  0.
        -13    1    3    3    0    0 -0.44034009279E+01  0.94659210935E+01  0.21350087796E+01  0.10656595535E+02  0.10566000000E+00 0.  1.
         13    1    4    4    0    0  0.16696371293E+00 -0.26571420865E+00  0.19914877729E+02  0.19917630379E+02  0.10566000000E+00 0. -1.
        -13    1    4    4    0    0  0.17283651849E+01 -0.22611143533E+01  0.86912963209E+02  0.86959612592E+02  0.10566000000E+00 0.  1.
        -14    1    4    4    0    0  0.25080720301E+01 -0.69390925315E+01  0.25348554045E+03  0.25359290339E+03  0.00000000000E+00 0.  1.
<mgrwt>
<rscale>  0 0.79788615E+02</rscale>
<asrwt>0</asrwt>
<pdfrwt beam="1">  1        2 0.56428861E-01 0.79788615E+02</pdfrwt>
<pdfrwt beam="2">  1       -1 0.66756546E-03 0.79788615E+02</pdfrwt>
<totfact> 0.27592707E+05</totfact>
</mgrwt>
</event>
<event>
 8    1  0.1673046E-013  0.8092540E+02  0.7818608E-02  0.1326446E+00
          2   -1    0    0  501    0  0.00000000000E+00  0.00000000000E+00  0.24589421344E+02  0.24589421476E+02  0.25500000000E-02 0. -1.
         -1   -1    0    0    0  501 -0.00000000000E+00 -0.00000000000E+00 -0.66582705927E+02  0.66582706118E+02  0.50400000000E-02 0.  1.
         24    2    1    2    0    0  0.17763568394E-14  0.00000000000E+00 -0.41993284583E+02  0.91172127594E+02  0.80925403304E+02 0.  0.
         66    2    3    3    0    0  0.14364268225E+02 -0.27737759433E+02  0.79231933163E+01  0.32287652306E+02  0.19999997666E+01 0.  0.
        -13    1    3    3    0    0 -0.14364268225E+02  0.27737759433E+02 -0.49916477900E+02  0.58884475288E+02  0.10566000000E+00 0.  1.
         13    1    4    4    0    0  0.69128754089E+01 -0.13833355889E+02  0.41295424136E+01  0.16006681922E+02  0.10566000000E+00 0. -1.
        -13    1    4    4    0    0  0.22496977262E+01 -0.50263035639E+01  0.80738847974E+00  0.55666783246E+01  0.10566000000E+00 0.  1.
        -14    1    4    4    0    0  0.52016950902E+01 -0.88780999802E+01  0.29862624230E+01  0.10714292059E+02  0.00000000000E+00 0.  1.
<mgrwt>
<rscale>  0 0.80925403E+02</rscale>
<asrwt>0</asrwt>
<pdfrwt beam="1">  1        2 0.37829879E-02 0.80925403E+02</pdfrwt>
<pdfrwt beam="2">  1       -1 0.10243493E-01 0.80925403E+02</pdfrwt>
<totfact> 0.12522603E+05</totfact>
</mgrwt>
</event>
<event>
 8    1  0.1673046E-013  0.7811765E+02  0.7818608E-02  0.1334480E+00
         -1   -1    0    0    0  501 -0.00000000000E+00  0.00000000000E+00  0.48298011558E+01  0.48298037855E+01  0.50400000000E-02 0.  1.
          2   -1    0    0  501    0  0.00000000000E+00 -0.00000000000E+00 -0.31587041965E+03  0.31587041966E+03  0.25500000000E-02 0. -1.
         24    2    1    2    0    0  0.00000000000E+00  0.17763568394E-14 -0.31104061849E+03  0.32070022345E+03  0.78117648230E+02 0.  0.
         66    2    3    3    0    0 -0.91514631182E+01 -0.11445957325E+02 -0.30414414867E+03  0.30450356711E+03  0.19999999893E+01 0.  0.
        -13    1    3    3    0    0  0.91514631182E+01  0.11445957325E+02 -0.68964698290E+01  0.16196656334E+02  0.10566000000E+00 0.  1.
         13    1    4    4    0    0 -0.51765563971E+00 -0.32571227410E+00 -0.16649378709E+02  0.16660943289E+02  0.10566000000E+00 0. -1.
        -13    1    4    4    0    0 -0.46462376614E+01 -0.51150158445E+01 -0.14965913704E+03  0.14981862159E+03  0.10566000000E+00 0.  1.
         14    1    4    4    0    0 -0.39875698171E+01 -0.60052292059E+01 -0.13783563292E+03  0.13802400223E+03  0.00000000000E+00 0. -1.
<mgrwt>
<rscale>  0 0.78117648E+02</rscale>
<asrwt>0</asrwt>
<pdfrwt beam="1">  1        2 0.48595433E-01 0.78117648E+02</pdfrwt>
<pdfrwt beam="2">  1       -1 0.74304679E-03 0.78117648E+02</pdfrwt>
<totfact> 0.27644114E+05</totfact>
</mgrwt>
</event>
<event>
 8    1  0.1673046E-013  0.7898630E+02  0.7818608E-02  0.1331953E+00
          2   -1    0    0  501    0  0.00000000000E+00  0.00000000000E+00  0.28112265197E+02  0.28112265313E+02  0.25500000000E-02 0. -1.
         -1   -1    0    0    0  501 -0.00000000000E+00 -0.00000000000E+00 -0.55481436129E+02  0.55481436358E+02  0.50400000000E-02 0.  1.
         24    2    1    2    0    0  0.00000000000E+00  0.88817841970E-15 -0.27369170932E+02  0.83593701671E+02  0.78986299074E+02 0.  0.
         66    2    3    3    0    0 -0.33646109356E+02  0.71319342382E+01  0.67951231963E+01  0.35115507417E+02  0.20000002875E+01 0.  0.
        -13    1    3    3    0    0  0.33646109356E+02 -0.71319342382E+01 -0.34164294128E+02  0.48478194254E+02  0.10566000000E+00 0.  1.
         13    1    4    4    0    0 -0.15719207918E+02  0.28891274256E+01  0.36551967662E+01  0.16395492743E+02  0.10566000000E+00 0. -1.
        -13    1    4    4    0    0 -0.27915102890E+00  0.91038977583E-01 -0.36946620947E-01  0.31423316307E+00  0.10566000000E+00 0.  1.
        -14    1    4    4    0    0 -0.17647750409E+02  0.41517678350E+01  0.31768730511E+01  0.18405781511E+02  0.00000000000E+00 0.  1.
<mgrwt>
<rscale>  0 0.78986299E+02</rscale>
<asrwt>0</asrwt>
<pdfrwt beam="1">  1        2 0.43249639E-02 0.78986299E+02</pdfrwt>
<pdfrwt beam="2">  1       -1 0.85356056E-02 0.78986299E+02</pdfrwt>
<totfact> 0.13768541E+05</totfact>
</mgrwt>
</event>
<event>
 8    1  0.1673046E-013  0.8062332E+02  0.7818608E-02  0.1327292E+00
         -1   -1    0    0    0  501 -0.00000000000E+00  0.00000000000E+00  0.28956560016E+02  0.28956560455E+02  0.50400000000E-02 0.  1.
          2   -1    0    0  501    0  0.00000000000E+00 -0.00000000000E+00 -0.56119571526E+02  0.56119571584E+02  0.25500000000E-02 0. -1.
         24    2    1    2    0    0 -0.35527136788E-14  0.35527136788E-14 -0.27163011510E+02  0.85076132039E+02  0.80623315787E+02 0.  0.
         66    2    3    3    0    0  0.19336684483E+02 -0.21445469992E+02 -0.43234274133E+02  0.52029011192E+02  0.19999989474E+01 0.  0.
        -13    1    3    3    0    0 -0.19336684483E+02  0.21445469992E+02  0.16071262623E+02  0.33047120847E+02  0.10566000000E+00 0.  1.
         13    1    4    4    0    0  0.73511996174E+01 -0.86600732758E+01 -0.17515972702E+02  0.20877199733E+02  0.10566000000E+00 0. -1.
        -13    1    4    4    0    0  0.26984839621E+01 -0.22105155097E+01 -0.56308687375E+01  0.66246540503E+01  0.10566000000E+00 0.  1.
        -14    1    4    4    0    0  0.92870009035E+01 -0.10574881206E+02 -0.20087432694E+02  0.24527157409E+02  0.00000000000E+00 0.  1.
<mgrwt>
<rscale>  0 0.80623316E+02</rscale>
<asrwt>0</asrwt>
<pdfrwt beam="1">  1        2 0.86337802E-02 0.80623316E+02</pdfrwt>
<pdfrwt beam="2">  1       -1 0.44548554E-02 0.80623316E+02</pdfrwt>
<totfact> 0.15009044E+05</totfact>
</mgrwt>
</event>
<event>
 8    1  0.1673046E-013  0.7953637E+02  0.7818608E-02  0.1330372E+00
         -1   -1    0    0    0  501 -0.00000000000E+00  0.00000000000E+00  0.13588315543E+02  0.13588316478E+02  0.50400000000E-02 0.  1.
          2   -1    0    0  501    0  0.00000000000E+00 -0.00000000000E+00 -0.11638739062E+03  0.11638739065E+03  0.25500000000E-02 0. -1.
         24    2    1    2    0    0  0.00000000000E+00  0.00000000000E+00 -0.10279907507E+03  0.12997570712E+03  0.79536372850E+02 0.  0.
         66    2    3    3    0    0  0.32924255802E+02  0.17017560322E+02 -0.27982949189E+02  0.46482786251E+02  0.19999982262E+01 0.  0.
        -13    1    3    3    0    0 -0.32924255802E+02 -0.17017560322E+02 -0.74816125885E+02  0.83492920873E+02  0.10566000000E+00 0.  1.
         13    1    4    4    0    0  0.16312185038E+02  0.82104280462E+01 -0.13321387426E+02  0.22604624226E+02  0.10566000000E+00 0. -1.
        -13    1    4    4    0    0  0.10898990278E+02  0.64526566696E+01 -0.97206073880E+01  0.15966406584E+02  0.10566000000E+00 0.  1.
        -14    1    4    4    0    0  0.57130804853E+01  0.23544756059E+01 -0.49409543756E+01  0.79117554406E+01  0.00000000000E+00 0.  1.
<mgrwt>
<rscale>  0 0.79536373E+02</rscale>
<asrwt>0</asrwt>
<pdfrwt beam="1">  1        2 0.17905752E-01 0.79536373E+02</pdfrwt>
<pdfrwt beam="2">  1       -1 0.20905102E-02 0.79536373E+02</pdfrwt>
<totfact> 0.18806774E+05</totfact>
</mgrwt>
</event>
<event>
 8    1  0.1673046E-013  0.7890891E+02  0.7818608E-02  0.1332177E+00
          2   -1    0    0  501    0  0.00000000000E+00  0.00000000000E+00  0.63421833717E+03  0.63421833717E+03  0.25500000000E-02 0. -1.
         -1   -1    0    0    0  501 -0.00000000000E+00 -0.00000000000E+00 -0.24544423580E+01  0.24544475326E+01  0.50400000000E-02 0.  1.
         24    2    1    2    0    0  0.00000000000E+00  0.00000000000E+00  0.63176389481E+03  0.63667278470E+03  0.78908909505E+02 0.  0.
         66    2    3    3    0    0  0.19643202071E+02  0.17730170018E+02  0.55193094451E+03  0.55256853134E+03  0.20000009443E+01 0.  0.
        -13    1    3    3    0    0 -0.19643202071E+02 -0.17730170018E+02  0.79832950303E+02  0.84104253368E+02  0.10566000000E+00 0.  1.
         13    1    4    4    0    0  0.10888586281E+02  0.87184031531E+01  0.29396775141E+03  0.29429852513E+03  0.10566000000E+00 0. -1.
        -13    1    4    4    0    0  0.54447137429E+01  0.60955206541E+01  0.16778628841E+03  0.16798526728E+03  0.10566000000E+00 0.  1.
        -14    1    4    4    0    0  0.33099020469E+01  0.29162462111E+01  0.90176904684E+02  0.90284738921E+02  0.00000000000E+00 0.  1.
<mgrwt>
<rscale>  0 0.78908910E+02</rscale>
<asrwt>0</asrwt>
<pdfrwt beam="1">  1        2 0.97572234E-01 0.78908910E+02</pdfrwt>
<pdfrwt beam="2">  1       -1 0.37760621E-03 0.78908910E+02</pdfrwt>
<totfact> 0.33835938E+05</totfact>
</mgrwt>
</event>
<event>
 8    1  0.1673046E-013  0.7904713E+02  0.7818608E-02  0.1331777E+00
          2   -1    0    0  501    0  0.00000000000E+00  0.00000000000E+00  0.63258754033E+03  0.63258754034E+03  0.25500000000E-02 0. -1.
         -1   -1    0    0    0  501 -0.00000000000E+00 -0.00000000000E+00 -0.24693985255E+01  0.24694036688E+01  0.50400000000E-02 0.  1.
         24    2    1    2    0    0  0.00000000000E+00  0.35527136788E-14  0.63011814181E+03  0.63505694401E+03  0.79047134651E+02 0.  0.
         66    2    3    3    0    0  0.19576268683E+02  0.26497274686E+02  0.49031292616E+03  0.49142252840E+03  0.19999987647E+01 0.  0.
        -13    1    3    3    0    0 -0.19576268683E+02 -0.26497274686E+02  0.13980521564E+03  0.14363441561E+03  0.10566000000E+00 0.  1.
         13    1    4    4    0    0  0.88468627265E+01  0.10403198976E+02  0.20269780417E+03  0.20315733930E+03  0.10566000000E+00 0. -1.
        -13    1    4    4    0    0  0.50859577757E+01  0.78947009201E+01  0.14211593935E+03  0.14242592689E+03  0.10566000000E+00 0.  1.
         14    1    4    4    0    0  0.56434481811E+01  0.81993747904E+01  0.14549918264E+03  0.14583926222E+03  0.00000000000E+00 0. -1.
<mgrwt>
<rscale>  0 0.79047135E+02</rscale>
<asrwt>0</asrwt>
<pdfrwt beam="1">  1        2 0.97321122E-01 0.79047135E+02</pdfrwt>
<pdfrwt beam="2">  1       -1 0.37990801E-03 0.79047135E+02</pdfrwt>
<totfact> 0.33659692E+05</totfact>
</mgrwt>
</event>
<event>
 8    1  0.1673046E-013  0.7727993E+02  0.7818608E-02  0.1336953E+00
         -1   -1    0    0    0  501 -0.00000000000E+00  0.00000000000E+00  0.97322919436E+01  0.97322932486E+01  0.50400000000E-02 0.  1.
          2   -1    0    0  501    0  0.00000000000E+00 -0.00000000000E+00 -0.15341164395E+03  0.15341164397E+03  0.25500000000E-02 0. -1.
         24    2    1    2    0    0  0.00000000000E+00  0.00000000000E+00 -0.14367935200E+03  0.16314393722E+03  0.77279933090E+02 0.  0.
         66    2    3    3    0    0 -0.21199731424E+01  0.12593820363E+02 -0.14881735109E+03  0.14937771783E+03  0.20000003519E+01 0.  0.
        -13    1    3    3    0    0  0.21199731424E+01 -0.12593820363E+02  0.51379990889E+01  0.13766219384E+02  0.10566000000E+00 0.  1.
         13    1    4    4    0    0 -0.57313666096E+00  0.35425725015E+01 -0.44686953495E+02  0.44830941126E+02  0.10566000000E+00 0. -1.
        -13    1    4    4    0    0 -0.16255469399E+01  0.79254524474E+01 -0.85409371406E+02  0.85791765848E+02  0.10566000000E+00 0.  1.
        -14    1    4    4    0    0  0.78710458446E-01  0.11257954137E+01 -0.18721026190E+02  0.18755010858E+02  0.00000000000E+00 0.  1.
<mgrwt>
<rscale>  0 0.77279933E+02</rscale>
<asrwt>0</asrwt>
<pdfrwt beam="1">  1        2 0.23601790E-01 0.77279933E+02</pdfrwt>
<pdfrwt beam="2">  1       -1 0.14972759E-02 0.77279933E+02</pdfrwt>
<totfact> 0.22111068E+05</totfact>
</mgrwt>
</event>
<event>
 8    1  0.1673046E-013  0.8816070E+02  0.7818608E-02  0.1307368E+00
          2   -1    0    0  501    0  0.00000000000E+00  0.00000000000E+00  0.38532336996E+03  0.38532336997E+03  0.25500000000E-02 0. -1.
         -1   -1    0    0    0  501 -0.00000000000E+00 -0.00000000000E+00 -0.50427165843E+01  0.50427191029E+01  0.50400000000E-02 0.  1.
         24    2    1    2    0    0  0.71054273576E-14  0.35527136788E-14  0.38028065337E+03  0.39036608907E+03  0.88160695125E+02 0.  0.
         66    2    3    3    0    0 -0.35563620641E+02 -0.25103250471E+02  0.22031098504E+03  0.22457932770E+03  0.19999999357E+01 0.  0.
        -13    1    3    3    0    0  0.35563620641E+02  0.25103250471E+02  0.15996966833E+03  0.16578676137E+03  0.10566000000E+00 0.  1.
         13    1    4    4    0    0 -0.23277413172E+02 -0.16139623979E+02  0.14628518266E+03  0.14900231963E+03  0.10566000000E+00 0. -1.
        -13    1    4    4    0    0 -0.94086761092E+01 -0.72691591383E+01  0.57050560417E+02  0.58276422922E+02  0.10566000000E+00 0.  1.
        -14    1    4    4    0    0 -0.28775313602E+01 -0.16944673532E+01  0.16975241971E+02  0.17300585144E+02  0.00000000000E+00 0.  1.
<mgrwt>
<rscale>  0 0.88160695E+02</rscale>
<asrwt>0</asrwt>
<pdfrwt beam="1">  1        2 0.59280527E-01 0.88160695E+02</pdfrwt>
<pdfrwt beam="2">  1       -1 0.77580263E-03 0.88160695E+02</pdfrwt>
<totfact> 0.21607233E+05</totfact>
</mgrwt>
</event>
<event>
 8    1  0.1673046E-013  0.8142979E+02  0.7818608E-02  0.1325042E+00
         -1   -1    0    0    0  501 -0.00000000000E+00  0.00000000000E+00  0.26295386679E+01  0.26295434980E+01  0.50400000000E-02 0.  1.
          2   -1    0    0  501    0  0.00000000000E+00 -0.00000000000E+00 -0.63041526589E+03  0.63041526590E+03  0.25500000000E-02 0. -1.
         24    2    1    2    0    0  0.00000000000E+00  0.00000000000E+00 -0.62778572722E+03  0.63304480939E+03  0.81429794276E+02 0.  0.
         66    2    3    3    0    0  0.96990088976E+01 -0.19917138709E+02 -0.57942118637E+03  0.57984797524E+03  0.19999971485E+01 0.  0.
        -13    1    3    3    0    0 -0.96990088976E+01  0.19917138709E+02 -0.48364540851E+02  0.53196834152E+02  0.10566000000E+00 0.  1.
         13    1    4    4    0    0  0.55008976242E+01 -0.10416773308E+02 -0.29338244668E+03  0.29361886898E+03  0.10566000000E+00 0.  1.
        -13    1    4    4    0    0  0.19451138600E+01 -0.41456356838E+01 -0.11270381472E+03  0.11279685625E+03  0.10566000000E+00 0. -1.
        -14    1    4    4    0    0  0.22529974133E+01 -0.53547297170E+01 -0.17333492497E+03  0.17343225001E+03  0.00000000000E+00 0.  1.
<mgrwt>
<rscale>  0 0.81429794E+02</rscale>
<asrwt>0</asrwt>
<pdfrwt beam="1">  1        2 0.96986844E-01 0.81429794E+02</pdfrwt>
<pdfrwt beam="2">  1       -1 0.40454529E-03 0.81429794E+02</pdfrwt>
<totfact> 0.31128532E+05</totfact>
</mgrwt>
</event>
<event>
 8    1  0.1673046E-013  0.7638963E+02  0.7818608E-02  0.1339621E+00
          2   -1    0    0  501    0  0.00000000000E+00  0.00000000000E+00  0.76697723349E+03  0.76697723350E+03  0.25500000000E-02 0. -1.
         -1   -1    0    0    0  501 -0.00000000000E+00 -0.00000000000E+00 -0.19020658807E+01  0.19020725581E+01  0.50400000000E-02 0.  1.
         24    2    1    2    0    0  0.00000000000E+00  0.00000000000E+00  0.76507516761E+03  0.76887930606E+03  0.76389627457E+02 0.  0.
         66    2    3    3    0    0 -0.86013182801E+01 -0.16901846989E+02  0.71619744080E+03  0.71645127490E+03  0.19999997298E+01 0.  0.
        -13    1    3    3    0    0  0.86013182801E+01  0.16901846989E+02  0.48877726817E+02  0.52428031154E+02  0.10566000000E+00 0.  1.
         13    1    4    4    0    0 -0.23774979395E+01 -0.39524134838E+01  0.19576972966E+03  0.19582408504E+03  0.10566000000E+00 0. -1.
        -13    1    4    4    0    0 -0.25572559047E+01 -0.45664802602E+01  0.17456903703E+03  0.17464750829E+03  0.10566000000E+00 0.  1.
        -14    1    4    4    0    0 -0.36665644360E+01 -0.83829532451E+01  0.34585867411E+03  0.34597968157E+03  0.00000000000E+00 0.  1.
<mgrwt>
<rscale>  0 0.76389627E+02</rscale>
<asrwt>0</asrwt>
<pdfrwt beam="1">  1        2 0.11799653E+00 0.76389627E+02</pdfrwt>
<pdfrwt beam="2">  1       -1 0.29262596E-03 0.76389627E+02</pdfrwt>
<totfact> 0.38439176E+05</totfact>
</mgrwt>
</event>
<event>
 8    1  0.1673046E-013  0.8001801E+02  0.7818608E-02  0.1329000E+00
          2   -1    0    0  501    0  0.00000000000E+00  0.00000000000E+00  0.95065879700E+03  0.95065879700E+03  0.25500000000E-02 0. -1.
         -1   -1    0    0    0  501 -0.00000000000E+00 -0.00000000000E+00 -0.16837976905E+01  0.16838052335E+01  0.50400000000E-02 0.  1.
         24    2    1    2    0    0 -0.11102230246E-15 -0.17763568394E-14  0.94897499931E+03  0.95234260223E+03  0.80018014977E+02 0.  0.
         66    2    3    3    0    0 -0.80936626779E+00 -0.10838293815E+02  0.93273844992E+03  0.93280391276E+03  0.20000006428E+01 0.  0.
        -13    1    3    3    0    0  0.80936626779E+00  0.10838293815E+02  0.16236549384E+02  0.19538689478E+02  0.10566000000E+00 0.  1.
         13    1    4    4    0    0  0.46410943610E-01 -0.89440366787E+00  0.86223322657E+02  0.86228038630E+02  0.10566000000E+00 0. -1.
        -13    1    4    4    0    0 -0.80862271745E+00 -0.27411490029E+01  0.19584152199E+03  0.19586240239E+03  0.10566000000E+00 0.  1.
        -14    1    4    4    0    0 -0.47154493957E-01 -0.72027411443E+01  0.65067360527E+03  0.65071347174E+03  0.00000000000E+00 0.  1.
<mgrwt>
<rscale>  0 0.80018015E+02</rscale>
<asrwt>0</asrwt>
<pdfrwt beam="1">  1        2 0.14625497E+00 0.80018015E+02</pdfrwt>
<pdfrwt beam="2">  1       -1 0.25904678E-03 0.80018015E+02</pdfrwt>
<totfact> 0.35105156E+05</totfact>
</mgrwt>
</event>
<event>
 8    1  0.1673046E-013  0.7958392E+02  0.7818608E-02  0.1330236E+00
         -1   -1    0    0    0  501 -0.00000000000E+00  0.00000000000E+00  0.64142954177E+01  0.64142973978E+01  0.50400000000E-02 0.  1.
          2   -1    0    0  501    0  0.00000000000E+00 -0.00000000000E+00 -0.24685483047E+03  0.24685483048E+03  0.25500000000E-02 0. -1.
         24    2    1    2    0    0  0.00000000000E+00  0.35527136788E-14 -0.24044053505E+03  0.25326912788E+03  0.79583919489E+02 0.  0.
         66    2    3    3    0    0 -0.29891146887E+02  0.21909553149E+02 -0.74411114470E+02  0.83153611703E+02  0.20000002973E+01 0.  0.
        -13    1    3    3    0    0  0.29891146887E+02 -0.21909553149E+02 -0.16602942058E+03  0.17011551617E+03  0.10566000000E+00 0.  1.
         13    1    4    4    0    0 -0.82307339172E+01  0.54102079151E+01 -0.21261501608E+02  0.23432412278E+02  0.10566000000E+00 0. -1.
        -13    1    4    4    0    0 -0.13553412792E+02  0.10142005929E+02 -0.32527584850E+02  0.36668927211E+02  0.10566000000E+00 0.  1.
         14    1    4    4    0    0 -0.81070001778E+01  0.63573393052E+01 -0.20622028011E+02  0.23052272214E+02  0.00000000000E+00 0. -1.
<mgrwt>
<rscale>  0 0.79583919E+02</rscale>
<asrwt>0</asrwt>
<pdfrwt beam="1">  1        2 0.37977659E-01 0.79583919E+02</pdfrwt>
<pdfrwt beam="2">  1       -1 0.98681503E-03 0.79583919E+02</pdfrwt>
<totfact> 0.24088386E+05</totfact>
</mgrwt>
</event>
<event>
 8    1  0.1673046E-013  0.8014162E+02  0.7818608E-02  0.1328650E+00
          2   -1    0    0  501    0  0.00000000000E+00  0.00000000000E+00  0.14587229140E+03  0.14587229142E+03  0.25500000000E-02 0. -1.
         -1   -1    0    0    0  501 -0.00000000000E+00 -0.00000000000E+00 -0.11007367255E+02  0.11007368409E+02  0.50400000000E-02 0.  1.
         24    2    1    2    0    0  0.00000000000E+00  0.00000000000E+00  0.13486492414E+03  0.15687965983E+03  0.80141624042E+02 0.  0.
         66    2    3    3    0    0 -0.23776541137E+02  0.23816729687E+02  0.24986259742E+02  0.41962765614E+02  0.20000001813E+01 0.  0.
        -13    1    3    3    0    0  0.23776541137E+02 -0.23816729687E+02  0.10987866440E+03  0.11491689422E+03  0.10566000000E+00 0.  1.
         13    1    4    4    0    0 -0.12215706786E+02  0.11743548379E+02  0.12015636159E+02  0.20773085884E+02  0.10566000000E+00 0. -1.
        -13    1    4    4    0    0 -0.43997390365E+01  0.49173886035E+01  0.44714784569E+01  0.79714301034E+01  0.10566000000E+00 0.  1.
        -14    1    4    4    0    0 -0.71610953145E+01  0.71557927042E+01  0.84991451256E+01  0.13218249627E+02  0.00000000000E+00 0.  1.
<mgrwt>
<rscale>  0 0.80141624E+02</rscale>
<asrwt>0</asrwt>
<pdfrwt beam="1">  1        2 0.22441890E-01 0.80141624E+02</pdfrwt>
<pdfrwt beam="2">  1       -1 0.16934413E-02 0.80141624E+02</pdfrwt>
<totfact> 0.19758455E+05</totfact>
</mgrwt>
</event>
<event>
 8    1  0.1673046E-013  0.8206153E+02  0.7818608E-02  0.1323301E+00
          2   -1    0    0  501    0  0.00000000000E+00  0.00000000000E+00  0.25938127565E+02  0.25938127691E+02  0.25500000000E-02 0. -1.
         -1   -1    0    0    0  501 -0.00000000000E+00 -0.00000000000E+00 -0.64905367441E+02  0.64905367637E+02  0.50400000000E-02 0.  1.
         24    2    1    2    0    0  0.71054273576E-14  0.00000000000E+00 -0.38967239876E+02  0.90843495327E+02  0.82061530937E+02 0.  0.
         66    2    3    3    0    0  0.37670327891E+02  0.16197911738E+02 -0.19832348047E+02  0.45593288726E+02  0.19999999143E+01 0.  0.
        -13    1    3    3    0    0 -0.37670327891E+02 -0.16197911738E+02 -0.19134891829E+02  0.45250206601E+02  0.10566000000E+00 0.  1.
         13    1    4    4    0    0  0.13628524908E+02  0.54284683134E+01 -0.77296748926E+01  0.16582038396E+02  0.10566000000E+00 0.  1.
        -13    1    4    4    0    0  0.30790166180E+01  0.15677832606E+01 -0.19345699551E+01  0.39613145082E+01  0.10566000000E+00 0. -1.
         14    1    4    4    0    0  0.20962786366E+02  0.92016601641E+01 -0.10168103199E+02  0.25049935822E+02  0.00000000000E+00 0. -1.
<mgrwt>
<rscale>  0 0.82061531E+02</rscale>
<asrwt>0</asrwt>
<pdfrwt beam="1">  1        2 0.39904812E-02 0.82061531E+02</pdfrwt>
<pdfrwt beam="2">  1       -1 0.99854411E-02 0.82061531E+02</pdfrwt>
<totfact> 0.12166002E+05</totfact>
</mgrwt>
</event>
<event>
 8    1  0.1673046E-013  0.7765548E+02  0.7818608E-02  0.1335840E+00
          2   -1    0    0  501    0  0.00000000000E+00  0.00000000000E+00  0.10727338113E+04  0.10727338113E+04  0.25500000000E-02 0. -1.
         -1   -1    0    0    0  501 -0.00000000000E+00 -0.00000000000E+00 -0.14053704320E+01  0.14053794693E+01  0.50400000000E-02 0.  1.
         24    2    1    2    0    0  0.35527136788E-14  0.88817841970E-15  0.10713284409E+04  0.10741391908E+04  0.77655475921E+02 0.  0.
         66    2    3    3    0    0 -0.26788971845E+02 -0.68253081866E+01  0.91263685065E+03  0.91305764058E+03  0.20000007355E+01 0.  0.
        -13    1    3    3    0    0  0.26788971845E+02  0.68253081866E+01  0.15869159026E+03  0.16108155024E+03  0.10566000000E+00 0.  1.
         13    1    4    4    0    0 -0.13303193977E+02 -0.35365580338E+01  0.44045932853E+03  0.44067438485E+03  0.10566000000E+00 0. -1.
        -13    1    4    4    0    0 -0.32876885212E+01 -0.13689392175E+01  0.12129669017E+03  0.12134900535E+03  0.10566000000E+00 0.  1.
         14    1    4    4    0    0 -0.10198089347E+02 -0.19198109353E+01  0.35088083196E+03  0.35103425038E+03  0.00000000000E+00 0. -1.
<mgrwt>
<rscale>  0 0.77655476E+02</rscale>
<asrwt>0</asrwt>
<pdfrwt beam="1">  1        2 0.16503587E+00 0.77655476E+02</pdfrwt>
<pdfrwt beam="2">  1       -1 0.21621167E-03 0.77655476E+02</pdfrwt>
<totfact> 0.38097732E+05</totfact>
</mgrwt>
</event>
<event>
 8    1  0.1673046E-013  0.8046906E+02  0.7818608E-02  0.1327726E+00
         -1   -1    0    0    0  501 -0.00000000000E+00  0.00000000000E+00  0.16797236065E+01  0.16797311677E+01  0.50400000000E-02 0.  1.
          2   -1    0    0  501    0  0.00000000000E+00 -0.00000000000E+00 -0.96373813337E+03  0.96373813337E+03  0.25500000000E-02 0. -1.
         24    2    1    2    0    0 -0.35527136788E-14  0.00000000000E+00 -0.96205840976E+03  0.96541786454E+03  0.80469058516E+02 0.  0.
         66    2    3    3    0    0 -0.24425822042E+02  0.16905248366E+02 -0.80645322929E+03  0.80700261414E+03  0.19999988075E+01 0.  0.
        -13    1    3    3    0    0  0.24425822042E+02 -0.16905248366E+02 -0.15560518047E+03  0.15841525039E+03  0.10566000000E+00 0.  1.
         13    1    4    4    0    0 -0.18865782852E+02  0.12248467643E+02 -0.62209828804E+03  0.62250480630E+03  0.10566000000E+00 0. -1.
        -13    1    4    4    0    0 -0.31337366033E+01  0.27784591962E+01 -0.10821902523E+03  0.10830008646E+03  0.10566000000E+00 0.  1.
         14    1    4    4    0    0 -0.24263025868E+01  0.18783215265E+01 -0.76135916017E+02  0.76197721382E+02  0.00000000000E+00 0. -1.
<mgrwt>
<rscale>  0 0.80469059E+02</rscale>
<asrwt>0</asrwt>
<pdfrwt beam="1">  1        2 0.14826696E+00 0.80469059E+02</pdfrwt>
<pdfrwt beam="2">  1       -1 0.25842037E-03 0.80469059E+02</pdfrwt>
<totfact> 0.34630319E+05</totfact>
</mgrwt>
</event>
<event>
 8    1  0.1673046E-013  0.7596163E+02  0.7818608E-02  0.1340919E+00
         -1   -1    0    0    0  501 -0.00000000000E+00  0.00000000000E+00  0.26575105130E+02  0.26575105608E+02  0.50400000000E-02 0.  1.
          2   -1    0    0  501    0  0.00000000000E+00 -0.00000000000E+00 -0.54281719570E+02  0.54281719629E+02  0.25500000000E-02 0. -1.
         24    2    1    2    0    0 -0.71054273576E-14 -0.35527136788E-14 -0.27706614440E+02  0.80856825237E+02  0.75961633103E+02 0.  0.
         66    2    3    3    0    0  0.26317449946E+02  0.18842920668E+02 -0.34961252201E+02  0.47685983161E+02  0.20000009019E+01 0.  0.
        -13    1    3    3    0    0 -0.26317449946E+02 -0.18842920668E+02  0.72546377616E+01  0.33170842076E+02  0.10566000000E+00 0.  1.
         13    1    4    4    0    0  0.49203258771E+01  0.34345301141E+01 -0.55608247800E+01  0.81816587628E+01  0.10566000000E+00 0. -1.
        -13    1    4    4    0    0  0.63725312392E+00  0.60696279800E+00 -0.88039308753E+00  0.12493003667E+01  0.10566000000E+00 0. -1.
         14    1    4    4    0    0  0.20759870945E+02  0.14801427756E+02 -0.28520034334E+02  0.38255024032E+02  0.00000000000E+00 0. -1.
<mgrwt>
<rscale>  0 0.75961633E+02</rscale>
<asrwt>0</asrwt>
<pdfrwt beam="1">  1        2 0.83510338E-02 0.75961633E+02</pdfrwt>
<pdfrwt beam="2">  1       -1 0.40884778E-02 0.75961633E+02</pdfrwt>
<totfact> 0.17519160E+05</totfact>
</mgrwt>
</event>
<event>
 8    1  0.1673046E-013  0.8214454E+02  0.7818608E-02  0.1323073E+00
         -1   -1    0    0    0  501 -0.00000000000E+00  0.00000000000E+00  0.28760637760E+02  0.28760638202E+02  0.50400000000E-02 0.  1.
          2   -1    0    0  501    0  0.00000000000E+00 -0.00000000000E+00 -0.58654170536E+02  0.58654170592E+02  0.25500000000E-02 0. -1.
         24    2    1    2    0    0 -0.35527136788E-14  0.00000000000E+00 -0.29893532776E+02  0.87414808793E+02  0.82144540260E+02 0.  0.
         66    2    3    3    0    0  0.21699870052E+02 -0.32504050874E+02 -0.28311901439E+02  0.48300739647E+02  0.20000009694E+01 0.  0.
        -13    1    3    3    0    0 -0.21699870052E+02  0.32504050874E+02 -0.15816313370E+01  0.39114069146E+02  0.10566000000E+00 0.  1.
         13    1    4    4    0    0  0.49482537136E+01 -0.84600640452E+01 -0.67035686350E+01  0.11874632413E+02  0.10566000000E+00 0. -1.
        -13    1    4    4    0    0  0.36783030101E+01 -0.48890913096E+01 -0.40502593907E+01  0.73381804309E+01  0.10566000000E+00 0.  1.
        -14    1    4    4    0    0  0.13073313328E+02 -0.19154895519E+02 -0.17558073414E+02  0.29087926803E+02  0.00000000000E+00 0.  1.
<mgrwt>
<rscale>  0 0.82144540E+02</rscale>
<asrwt>0</asrwt>
<pdfrwt beam="1">  1        2 0.90237186E-02 0.82144540E+02</pdfrwt>
<pdfrwt beam="2">  1       -1 0.44247136E-02 0.82144540E+02</pdfrwt>
<totfact> 0.14406980E+05</totfact>
</mgrwt>
</event>
<event>
 8    1  0.1673046E-013  0.8065935E+02  0.7818608E-02  0.1327191E+00
         -1   -1    0    0    0  501 -0.00000000000E+00  0.00000000000E+00  0.42649798400E+02  0.42649798698E+02  0.50400000000E-02 0.  1.
          2   -1    0    0  501    0  0.00000000000E+00 -0.00000000000E+00 -0.38135768662E+02  0.38135768747E+02  0.25500000000E-02 0. -1.
         24    2    1    2    0    0  0.00000000000E+00 -0.71054273576E-14  0.45140297381E+01  0.80785567445E+02  0.80659354342E+02 0.  0.
         66    2    3    3    0    0  0.43011318922E+01 -0.35557012418E+02 -0.16255032915E+02  0.39383079656E+02  0.20000001174E+01 0.  0.
        -13    1    3    3    0    0 -0.43011318922E+01  0.35557012418E+02  0.20769062653E+02  0.41402487789E+02  0.10566000000E+00 0.  1.
         13    1    4    4    0    0  0.20237916758E+01 -0.16236755155E+02 -0.69957433969E+01  0.17795492138E+02  0.10566000000E+00 0. -1.
        -13    1    4    4    0    0  0.22401738785E+01 -0.16466300851E+02 -0.83057322476E+01  0.18578315180E+02  0.10566000000E+00 0.  1.
        -14    1    4    4    0    0  0.37166337865E-01 -0.28539564114E+01 -0.95355727071E+00  0.30092723379E+01  0.00000000000E+00 0.  1.
<mgrwt>
<rscale>  0 0.80659354E+02</rscale>
<asrwt>0</asrwt>
<pdfrwt beam="1">  1        2 0.58670414E-02 0.80659354E+02</pdfrwt>
<pdfrwt beam="2">  1       -1 0.65615075E-02 0.80659354E+02</pdfrwt>
<totfact> 0.13799108E+05</totfact>
</mgrwt>
</event>
<event>
 8    1  0.1673046E-013  0.7949803E+02  0.7818608E-02  0.1330482E+00
          2   -1    0    0  501    0  0.00000000000E+00  0.00000000000E+00  0.27147325949E+03  0.27147325950E+03  0.25500000000E-02 0. -1.
         -1   -1    0    0    0  501 -0.00000000000E+00 -0.00000000000E+00 -0.58200344439E+01  0.58200366262E+01  0.50400000000E-02 0.  1.
         24    2    1    2    0    0 -0.35527136788E-14  0.00000000000E+00  0.26565322505E+03  0.27729329613E+03  0.79498025763E+02 0.  0.
         66    2    3    3    0    0  0.17576552660E+02 -0.18899112964E+02  0.23823966694E+03  0.23964192157E+03  0.19999986658E+01 0.  0.
        -13    1    3    3    0    0 -0.17576552660E+02  0.18899112964E+02  0.27413558106E+02  0.37651374561E+02  0.10566000000E+00 0.  1.
         13    1    4    4    0    0  0.97482509644E+01 -0.11047108143E+02  0.13172667204E+03  0.13254808292E+03  0.10566000000E+00 0. -1.
        -13    1    4    4    0    0  0.33380110735E+01 -0.39891007091E+01  0.47234432800E+02  0.47520080476E+02  0.10566000000E+00 0.  1.
         14    1    4    4    0    0  0.44902906221E+01 -0.38629041118E+01  0.59278562105E+02  0.59573758176E+02  0.00000000000E+00 0. -1.
<mgrwt>
<rscale>  0 0.79498026E+02</rscale>
<asrwt>0</asrwt>
<pdfrwt beam="1">  1        2 0.41765120E-01 0.79498026E+02</pdfrwt>
<pdfrwt beam="2">  1       -1 0.89539002E-03 0.79498026E+02</pdfrwt>
<totfact> 0.24997837E+05</totfact>
</mgrwt>
</event>
<event>
 8    1  0.1673046E-013  0.8095497E+02  0.7818608E-02  0.1326363E+00
         -1   -1    0    0    0  501 -0.00000000000E+00  0.00000000000E+00  0.78265664413E+01  0.78265680640E+01  0.50400000000E-02 0.  1.
          2   -1    0    0  501    0  0.00000000000E+00 -0.00000000000E+00 -0.20934166122E+03  0.20934166123E+03  0.25500000000E-02 0. -1.
         24    2    1    2    0    0 -0.71054273576E-14  0.17763568394E-14 -0.20151509478E+03  0.21716822930E+03  0.80954965218E+02 0.  0.
         66    2    3    3    0    0 -0.36269426115E+02  0.88495416912E+01 -0.14260483241E+03  0.14742429884E+03  0.20000011174E+01 0.  0.
        -13    1    3    3    0    0  0.36269426115E+02 -0.88495416912E+01 -0.58910262369E+02  0.69743930455E+02  0.10566000000E+00 0.  1.
         13    1    4    4    0    0 -0.31161408422E+01  0.90555766046E+00 -0.11179875904E+02  0.11641784987E+02  0.10566000000E+00 0. -1.
        -13    1    4    4    0    0 -0.74690236426E+01  0.22732652705E+01 -0.31624729608E+02  0.32574357031E+02  0.10566000000E+00 0.  1.
         14    1    4    4    0    0 -0.25684261630E+02  0.56707187603E+01 -0.99800226896E+02  0.10320815683E+03  0.00000000000E+00 0. -1.
<mgrwt>
<rscale>  0 0.80954965E+02</rscale>
<asrwt>0</asrwt>
<pdfrwt beam="1">  1        2 0.32206405E-01 0.80954965E+02</pdfrwt>
<pdfrwt beam="2">  1       -1 0.12040874E-02 0.80954965E+02</pdfrwt>
<totfact> 0.21721751E+05</totfact>
</mgrwt>
</event>
<event>
 8    1  0.1673046E-013  0.7973470E+02  0.7818608E-02  0.1329806E+00
         -1   -1    0    0    0  501 -0.00000000000E+00  0.00000000000E+00  0.10744039542E+01  0.10744157754E+01  0.50400000000E-02 0.  1.
          2   -1    0    0  501    0  0.00000000000E+00 -0.00000000000E+00 -0.14793288513E+04  0.14793288513E+04  0.25500000000E-02 0. -1.
         24    2    1    2    0    0  0.00000000000E+00 -0.17763568394E-14 -0.14782544473E+04  0.14804032670E+04  0.79734698070E+02 0.  0.
         66    2    3    3    0    0  0.17299774837E+02  0.11239889189E+02 -0.13724328733E+04  0.13725893810E+04  0.19999985617E+01 0.  0.
        -13    1    3    3    0    0 -0.17299774837E+02 -0.11239889189E+02 -0.10582157404E+03  0.10781388600E+03  0.10566000000E+00 0.  1.
         13    1    4    4    0    0  0.13211990669E+02  0.84498123667E+01 -0.10501301834E+04  0.10502472895E+04  0.10566000000E+00 0. -1.
        -13    1    4    4    0    0  0.13578481164E+01  0.85576410822E+00 -0.13430904754E+03  0.13431867889E+03  0.10566000000E+00 0.  1.
         14    1    4    4    0    0  0.27299360520E+01  0.19343127141E+01 -0.18799364235E+03  0.18802341259E+03  0.00000000000E+00 0. -1.
<mgrwt>
<rscale>  0 0.79734698E+02</rscale>
<asrwt>0</asrwt>
<pdfrwt beam="1">  1        2 0.22758742E+00 0.79734698E+02</pdfrwt>
<pdfrwt beam="2">  1       -1 0.16529501E-03 0.79734698E+02</pdfrwt>
<totfact> 0.33710937E+05</totfact>
</mgrwt>
</event>
<event>
 8    1  0.1673046E-013  0.7883940E+02  0.7818608E-02  0.1332378E+00
          2   -1    0    0  501    0  0.00000000000E+00  0.00000000000E+00  0.75822840173E+02  0.75822840216E+02  0.25500000000E-02 0. -1.
         -1   -1    0    0    0  501 -0.00000000000E+00 -0.00000000000E+00 -0.20493990548E+02  0.20493991168E+02  0.50400000000E-02 0.  1.
         24    2    1    2    0    0 -0.22204460493E-15  0.00000000000E+00  0.55328849625E+02  0.96316831383E+02  0.78839396287E+02 0.  0.
         66    2    3    3    0    0  0.17428379980E+01  0.35141439807E+02  0.49328729442E+02  0.60624102681E+02  0.20000003577E+01 0.  0.
        -13    1    3    3    0    0 -0.17428379980E+01 -0.35141439807E+02  0.60001201825E+01  0.35692728703E+02  0.10566000000E+00 0.  1.
         13    1    4    4    0    0 -0.63074189497E-01  0.91133547986E+01  0.13409401159E+02  0.16213587436E+02  0.10566000000E+00 0. -1.
        -13    1    4    4    0    0  0.16465251175E+00  0.10695483423E+01  0.18414307331E+01  0.21384749908E+01  0.10566000000E+00 0. -1.
        -14    1    4    4    0    0  0.16412596758E+01  0.24958536666E+02  0.34077897550E+02  0.42272040254E+02  0.00000000000E+00 0.  1.
<mgrwt>
<rscale>  0 0.78839396E+02</rscale>
<asrwt>0</asrwt>
<pdfrwt beam="1">  1        2 0.11665052E-01 0.78839396E+02</pdfrwt>
<pdfrwt beam="2">  1       -1 0.31529217E-02 0.78839396E+02</pdfrwt>
<totfact> 0.17131803E+05</totfact>
</mgrwt>
</event>
<event>
 8    1  0.1673046E-013  0.7948521E+02  0.7818608E-02  0.1330519E+00
         -1   -1    0    0    0  501 -0.00000000000E+00  0.00000000000E+00  0.67222243195E+02  0.67222243384E+02  0.50400000000E-02 0.  1.
          2   -1    0    0  501    0  0.00000000000E+00 -0.00000000000E+00 -0.23496310485E+02  0.23496310623E+02  0.25500000000E-02 0. -1.
         24    2    1    2    0    0  0.00000000000E+00  0.00000000000E+00  0.43725932710E+02  0.90718554007E+02  0.79485211516E+02 0.  0.
         66    2    3    3    0    0 -0.14910588793E+02  0.77942922644E+01 -0.19185493414E+02  0.25596089749E+02  0.20000007000E+01 0.  0.
        -13    1    3    3    0    0  0.14910588793E+02 -0.77942922644E+01  0.62911426124E+02  0.65122464258E+02  0.10566000000E+00 0.  1.
         13    1    4    4    0    0 -0.53318119016E+01  0.31945348192E+01 -0.70653311030E+01  0.94108096621E+01  0.10566000000E+00 0. -1.
        -13    1    4    4    0    0 -0.32425129704E+01  0.23377773403E+01 -0.44783152485E+01  0.60037958623E+01  0.10566000000E+00 0.  1.
         14    1    4    4    0    0 -0.63362639215E+01  0.22619801050E+01 -0.76418470628E+01  0.10181484224E+02  0.00000000000E+00 0. -1.
<mgrwt>
<rscale>  0 0.79485212E+02</rscale>
<asrwt>0</asrwt>
<pdfrwt beam="1">  1        2 0.36148170E-02 0.79485212E+02</pdfrwt>
<pdfrwt beam="2">  1       -1 0.10341884E-01 0.79485212E+02</pdfrwt>
<totfact> 0.13059469E+05</totfact>
</mgrwt>
</event>
<event>
 8    1  0.1673046E-013  0.8048293E+02  0.7818608E-02  0.1327687E+00
          2   -1    0    0  501    0  0.00000000000E+00  0.00000000000E+00  0.25108797972E+02  0.25108798101E+02  0.25500000000E-02 0. -1.
         -1   -1    0    0    0  501 -0.00000000000E+00 -0.00000000000E+00 -0.64494351467E+02  0.64494351664E+02  0.50400000000E-02 0.  1.
         24    2    1    2    0    0  0.35527136788E-14 -0.17763568394E-14 -0.39385553495E+02  0.89603149765E+02  0.80482933742E+02 0.  0.
         66    2    3    3    0    0 -0.24702751049E+02  0.15892912298E+02  0.10877132793E+02  0.31386662689E+02  0.20000015672E+01 0.  0.
        -13    1    3    3    0    0  0.24702751049E+02 -0.15892912298E+02 -0.50262686288E+02  0.58216487077E+02  0.10566000000E+00 0.  1.
         13    1    4    4    0    0 -0.13036965488E+02  0.82268668223E+01  0.57164620931E+01  0.16441803726E+02  0.10566000000E+00 0. -1.
        -13    1    4    4    0    0 -0.44247324047E+01  0.21409175345E+01  0.18818332170E+01  0.52644320715E+01  0.10566000000E+00 0.  1.
        -14    1    4    4    0    0 -0.72410531556E+01  0.55251279407E+01  0.32788374826E+01  0.96804268914E+01  0.00000000000E+00 0.  1.
<mgrwt>
<rscale>  0 0.80482934E+02</rscale>
<asrwt>0</asrwt>
<pdfrwt beam="1">  1        2 0.38628920E-02 0.80482934E+02</pdfrwt>
<pdfrwt beam="2">  1       -1 0.99222079E-02 0.80482934E+02</pdfrwt>
<totfact> 0.12771911E+05</totfact>
</mgrwt>
</event>
<event>
 8    1  0.1673046E-013  0.7879536E+02  0.7818608E-02  0.1332505E+00
          2   -1    0    0  501    0  0.00000000000E+00  0.00000000000E+00  0.16021757813E+04  0.16021757813E+04  0.25500000000E-02 0. -1.
         -1   -1    0    0    0  501 -0.00000000000E+00 -0.00000000000E+00 -0.96878664000E+00  0.96879974992E+00  0.50400000000E-02 0.  1.
         24    2    1    2    0    0  0.00000000000E+00  0.17763568394E-14  0.16012069947E+04  0.16031445811E+04  0.78795355245E+02 0.  0.
         66    2    3    3    0    0 -0.13198399367E+02  0.11201604923E+02  0.15205894211E+04  0.15206892718E+04  0.20000015767E+01 0.  0.
        -13    1    3    3    0    0  0.13198399367E+02 -0.11201604923E+02  0.80617573592E+02  0.82455309317E+02  0.10566000000E+00 0.  1.
         13    1    4    4    0    0 -0.58471279834E+01  0.45674775096E+01  0.66156232230E+03  0.66160393606E+03  0.10566000000E+00 0. -1.
        -13    1    4    4    0    0 -0.38007571073E+01  0.42607714869E+01  0.51909812796E+03  0.51912953831E+03  0.10566000000E+00 0.  1.
         14    1    4    4    0    0 -0.35505142765E+01  0.23733559268E+01  0.33992897083E+03  0.33995579739E+03  0.00000000000E+00 0. -1.
<mgrwt>
<rscale>  0 0.78795355E+02</rscale>
<asrwt>0</asrwt>
<pdfrwt beam="1">  1        2 0.24648940E+00 0.78795355E+02</pdfrwt>
<pdfrwt beam="2">  1       -1 0.14904461E-03 0.78795355E+02</pdfrwt>
<totfact> 0.33631155E+05</totfact>
</mgrwt>
</event>
<event>
 8    1  0.1687566E-013  0.7745157E+02  0.7818608E-02  0.1336443E+00
         -1   -1    0    0    0  501 -0.00000000000E+00  0.00000000000E+00  0.12084334107E+02  0.12084335158E+02  0.50400000000E-02 0.  1.
          2   -1    0    0  501    0  0.00000000000E+00 -0.00000000000E+00 -0.12410168548E+03  0.12410168551E+03  0.25500000000E-02 0. -1.
         24    2    1    2    0    0  0.00000000000E+00  0.35527136788E-14 -0.11201735138E+03  0.13618602067E+03  0.77451566904E+02 0.  0.
         66    2    3    3    0    0 -0.95890166214E+01 -0.23498011472E+02 -0.10741754508E+03  0.11039309209E+03  0.20000013858E+01 0.  0.
        -13    1    3    3    0    0  0.95890166214E+01  0.23498011472E+02 -0.45998062941E+01  0.25792928583E+02  0.10566000000E+00 0.  1.
         13    1    4    4    0    0 -0.63488028110E+01 -0.14756108334E+02 -0.66005345197E+02  0.67932074817E+02  0.10566000000E+00 0. -1.
        -13    1    4    4    0    0 -0.16004330314E+01 -0.38623003832E+01 -0.16423967327E+02  0.16948056435E+02  0.10566000000E+00 0.  1.
        -14    1    4    4    0    0 -0.16397807790E+01 -0.48796027547E+01 -0.24988232560E+02  0.25512960834E+02  0.00000000000E+00 0.  1.
<mgrwt>
<rscale>  0 0.77451567E+02</rscale>
<asrwt>0</asrwt>
<pdfrwt beam="1">  1        2 0.19092566E-01 0.77451567E+02</pdfrwt>
<pdfrwt beam="2">  1       -1 0.18591285E-02 0.77451567E+02</pdfrwt>
<totfact> 0.20574023E+05</totfact>
</mgrwt>
</event>
<event>
 8    1  0.1673046E-013  0.7823638E+02  0.7818608E-02  0.1334132E+00
          2   -1    0    0  501    0  0.00000000000E+00  0.00000000000E+00  0.91102563715E+03  0.91102563715E+03  0.25500000000E-02 0. -1.
         -1   -1    0    0    0  501 -0.00000000000E+00 -0.00000000000E+00 -0.16796776979E+01  0.16796852594E+01  0.50400000000E-02 0.  1.
         24    2    1    2    0    0  0.00000000000E+00  0.00000000000E+00  0.90934595945E+03  0.91270532241E+03  0.78236382771E+02 0.  0.
         66    2    3    3    0    0 -0.69844760458E+01  0.25602852001E+02  0.78983396883E+03  0.79028222000E+03  0.20000012581E+01 0.  0.
        -13    1    3    3    0    0  0.69844760458E+01 -0.25602852001E+02  0.11951199062E+03  0.12242310240E+03  0.10566000000E+00 0.  1.
         13    1    4    4    0    0 -0.16681576716E+01  0.87365148784E+01  0.27809536306E+03  0.27823758115E+03  0.10566000000E+00 0. -1.
        -13    1    4    4    0    0 -0.46231689823E+01  0.15314642087E+02  0.45949603881E+03  0.45977443687E+03  0.10566000000E+00 0.  1.
        -14    1    4    4    0    0 -0.69314939199E+00  0.15516950360E+01  0.52242566956E+02  0.52270201987E+02  0.00000000000E+00 0.  1.
<mgrwt>
<rscale>  0 0.78236383E+02</rscale>
<asrwt>0</asrwt>
<pdfrwt beam="1">  1        2 0.14015793E+00 0.78236383E+02</pdfrwt>
<pdfrwt beam="2">  1       -1 0.25841229E-03 0.78236383E+02</pdfrwt>
<totfact> 0.37074599E+05</totfact>
</mgrwt>
</event>
<event>
 8    1  0.1673046E-013  0.7513725E+02  0.7818608E-02  0.1343447E+00
         -1   -1    0    0    0  501 -0.00000000000E+00  0.00000000000E+00  0.38570039729E+02  0.38570040058E+02  0.50400000000E-02 0.  1.
          2   -1    0    0  501    0  0.00000000000E+00 -0.00000000000E+00 -0.36593209479E+02  0.36593209568E+02  0.25500000000E-02 0. -1.
         24    2    1    2    0    0  0.00000000000E+00  0.00000000000E+00  0.19768302501E+01  0.75163249626E+02  0.75137249328E+02 0.  0.
         66    2    3    3    0    0 -0.16330259018E+02 -0.10390263796E+02 -0.31189730406E+02  0.36761858361E+02  0.20000014968E+01 0.  0.
        -13    1    3    3    0    0  0.16330259018E+02  0.10390263796E+02  0.33166560656E+02  0.38401391266E+02  0.10566000000E+00 0.  1.
         13    1    4    4    0    0 -0.97541777914E+01 -0.56310664878E+01 -0.17918002220E+02  0.21164093691E+02  0.10566000000E+00 0. -1.
        -13    1    4    4    0    0 -0.38182965967E+01 -0.28193325547E+01 -0.66996036047E+01  0.82112043849E+01  0.10566000000E+00 0.  1.
        -14    1    4    4    0    0 -0.27577846300E+01 -0.19398647532E+01 -0.65721245816E+01  0.73865602849E+01  0.00000000000E+00 0.  1.
<mgrwt>
<rscale>  0 0.75137249E+02</rscale>
<asrwt>0</asrwt>
<pdfrwt beam="1">  1        2 0.56297245E-02 0.75137249E+02</pdfrwt>
<pdfrwt beam="2">  1       -1 0.59338523E-02 0.75137249E+02</pdfrwt>
<totfact> 0.16645926E+05</totfact>
</mgrwt>
</event>
<event>
 8    1  0.1673046E-013  0.7750239E+02  0.7818608E-02  0.1336292E+00
          2   -1    0    0  501    0  0.00000000000E+00  0.00000000000E+00  0.64624036611E+03  0.64624036611E+03  0.25500000000E-02 0. -1.
         -1   -1    0    0    0  501 -0.00000000000E+00 -0.00000000000E+00 -0.23236763700E+01  0.23236818358E+01  0.50400000000E-02 0.  1.
         24    2    1    2    0    0 -0.17763568394E-14  0.00000000000E+00  0.64391668974E+03  0.64856404795E+03  0.77502393310E+02 0.  0.
         66    2    3    3    0    0 -0.12138623475E+02  0.44491508748E+01  0.62764517307E+03  0.62778149416E+03  0.20000013984E+01 0.  0.
        -13    1    3    3    0    0  0.12138623475E+02 -0.44491508748E+01  0.16271516669E+02  0.20782553792E+02  0.10566000000E+00 0.  1.
         13    1    4    4    0    0 -0.47183404657E+01  0.22128566320E+01  0.22712763224E+03  0.22718743795E+03  0.10566000000E+00 0. -1.
        -13    1    4    4    0    0 -0.11065257276E+00 -0.60476267020E-01  0.10090174980E+02  0.10091516067E+02  0.10566000000E+00 0. -1.
         14    1    4    4    0    0 -0.73096304364E+01  0.22967705099E+01  0.39042736585E+03  0.39050254014E+03  0.00000000000E+00 0. -1.
<mgrwt>
<rscale>  0 0.77502393E+02</rscale>
<asrwt>0</asrwt>
<pdfrwt beam="1">  1        2 0.99421654E-01 0.77502393E+02</pdfrwt>
<pdfrwt beam="2">  1       -1 0.35748888E-03 0.77502393E+02</pdfrwt>
<totfact> 0.35625279E+05</totfact>
</mgrwt>
</event>
<event>
 8    1  0.1673046E-013  0.7745583E+02  0.7818608E-02  0.1336430E+00
          2   -1    0    0  501    0  0.00000000000E+00  0.00000000000E+00  0.98742869145E+01  0.98742872438E+01  0.25500000000E-02 0. -1.
         -1   -1    0    0    0  501 -0.00000000000E+00 -0.00000000000E+00 -0.15189463306E+03  0.15189463315E+03  0.50400000000E-02 0.  1.
         24    2    1    2    0    0  0.00000000000E+00  0.44408920985E-15 -0.14202034615E+03  0.16176892039E+03  0.77455825372E+02 0.  0.
         66    2    3    3    0    0  0.35012260348E+02  0.22229215480E+01 -0.10518724402E+03  0.11090156021E+03  0.19999996504E+01 0.  0.
        -13    1    3    3    0    0 -0.35012260348E+02 -0.22229215480E+01 -0.36833102131E+02  0.50867360178E+02  0.10566000000E+00 0.  1.
         13    1    4    4    0    0  0.15052154425E+02  0.15687900040E+01 -0.47374137113E+02  0.49732770747E+02  0.10566000000E+00 0. -1.
        -13    1    4    4    0    0  0.24845345153E+01  0.34810744363E-01 -0.77901199857E+01  0.81774847583E+01  0.10566000000E+00 0.  1.
         14    1    4    4    0    0  0.17475571407E+02  0.61932079966E+00 -0.50022986919E+02  0.52991304707E+02  0.00000000000E+00 0. -1.
<mgrwt>
<rscale>  0 0.77455825E+02</rscale>
<asrwt>0</asrwt>
<pdfrwt beam="1">  1        2 0.15191212E-02 0.77455825E+02</pdfrwt>
<pdfrwt beam="2">  1       -1 0.23368404E-01 0.77455825E+02</pdfrwt>
<totfact> 0.11667857E+05</totfact>
</mgrwt>
</event>
<event>
 8    1  0.1673046E-013  0.7858604E+02  0.7818608E-02  0.1333113E+00
          2   -1    0    0  501    0  0.00000000000E+00  0.00000000000E+00  0.88600176116E+03  0.88600176117E+03  0.25500000000E-02 0. -1.
         -1   -1    0    0    0  501 -0.00000000000E+00 -0.00000000000E+00 -0.17425905906E+01  0.17425978790E+01  0.50400000000E-02 0.  1.
         24    2    1    2    0    0  0.00000000000E+00  0.00000000000E+00  0.88425917057E+03  0.88774435904E+03  0.78586043773E+02 0.  0.
         66    2    3    3    0    0 -0.74733188613E+01  0.13210023787E+02  0.85152517485E+03  0.85166277284E+03  0.20000028127E+01 0.  0.
        -13    1    3    3    0    0  0.74733188613E+01 -0.13210023787E+02  0.32733995721E+02  0.36081586206E+02  0.10566000000E+00 0.  1.
         13    1    4    4    0    0 -0.50940518025E+01  0.82416507066E+01  0.49371948469E+03  0.49381455517E+03  0.10566000000E+00 0. -1.
        -13    1    4    4    0    0 -0.66847750058E+00  0.14110319618E+01  0.10823371522E+03  0.10824502828E+03  0.10566000000E+00 0.  1.
         14    1    4    4    0    0 -0.17107895582E+01  0.35573411190E+01  0.24957197494E+03  0.24960318939E+03  0.00000000000E+00 0. -1.
<mgrwt>
<rscale>  0 0.78586044E+02</rscale>
<asrwt>0</asrwt>
<pdfrwt beam="1">  1        2 0.13630799E+00 0.78586044E+02</pdfrwt>
<pdfrwt beam="2">  1       -1 0.26809136E-03 0.78586044E+02</pdfrwt>
<totfact> 0.36535653E+05</totfact>
</mgrwt>
</event>
<event>
 8    1  0.1673046E-013  0.8072765E+02  0.7818608E-02  0.1326999E+00
         -1   -1    0    0    0  501 -0.00000000000E+00  0.00000000000E+00  0.46963535980E+01  0.46963563024E+01  0.50400000000E-02 0.  1.
          2   -1    0    0  501    0  0.00000000000E+00 -0.00000000000E+00 -0.34691547439E+03  0.34691547440E+03  0.25500000000E-02 0. -1.
         24    2    1    2    0    0  0.71054273576E-14 -0.17763568394E-14 -0.34221912079E+03  0.35161183070E+03  0.80727646155E+02 0.  0.
         66    2    3    3    0    0 -0.29796851679E+02  0.69311636366E+01 -0.28573577962E+03  0.28737576300E+03  0.20000018921E+01 0.  0.
        -13    1    3    3    0    0  0.29796851679E+02 -0.69311636366E+01 -0.56483341173E+02  0.64236067699E+02  0.10566000000E+00 0.  1.
         13    1    4    4    0    0 -0.16305242914E+02  0.42729690174E+01 -0.15495543150E+03  0.15586954842E+03  0.10566000000E+00 0. -1.
        -13    1    4    4    0    0 -0.85984807284E+01  0.22102792067E+01 -0.85995045389E+02  0.86452172908E+02  0.10566000000E+00 0.  1.
        -14    1    4    4    0    0 -0.48931280361E+01  0.44791541246E+00 -0.44785302733E+02  0.45054041673E+02  0.00000000000E+00 0.  1.
<mgrwt>
<rscale>  0 0.80727646E+02</rscale>
<asrwt>0</asrwt>
<pdfrwt beam="1">  1        2 0.53371591E-01 0.80727646E+02</pdfrwt>
<pdfrwt beam="2">  1       -1 0.72251642E-03 0.80727646E+02</pdfrwt>
<totfact> 0.26235172E+05</totfact>
</mgrwt>
</event>
<event>
 8    1  0.1673046E-013  0.7928134E+02  0.7818608E-02  0.1331103E+00
         -1   -1    0    0    0  501 -0.00000000000E+00  0.00000000000E+00  0.38586126462E+02  0.38586126791E+02  0.50400000000E-02 0.  1.
          2   -1    0    0  501    0  0.00000000000E+00 -0.00000000000E+00 -0.40724030480E+02  0.40724030560E+02  0.25500000000E-02 0. -1.
         24    2    1    2    0    0  0.00000000000E+00  0.00000000000E+00 -0.21379040180E+01  0.79310157351E+02  0.79281337183E+02 0.  0.
         66    2    3    3    0    0  0.17276121864E+02  0.10931969079E+02 -0.35014329341E+02  0.40595265635E+02  0.19999995381E+01 0.  0.
        -13    1    3    3    0    0 -0.17276121864E+02 -0.10931969079E+02  0.32876425323E+02  0.38714891717E+02  0.10566000000E+00 0.  1.
         13    1    4    4    0    0  0.36157411321E+01  0.25571648637E+01 -0.82738670175E+01  0.93851326860E+01  0.10566000000E+00 0. -1.
        -13    1    4    4    0    0  0.12754538516E+02  0.81804853000E+01 -0.25490578952E+02  0.29654331418E+02  0.10566000000E+00 0.  1.
        -14    1    4    4    0    0  0.90584221593E+00  0.19431891510E+00 -0.12498833712E+01  0.15558015306E+01  0.00000000000E+00 0.  1.
<mgrwt>
<rscale>  0 0.79281337E+02</rscale>
<asrwt>0</asrwt>
<pdfrwt beam="1">  1        2 0.62652354E-02 0.79281337E+02</pdfrwt>
<pdfrwt beam="2">  1       -1 0.59363272E-02 0.79281337E+02</pdfrwt>
<totfact> 0.14668855E+05</totfact>
</mgrwt>
</event>
<event>
 8    1  0.1673046E-013  0.7962409E+02  0.7818608E-02  0.1330122E+00
         -1   -1    0    0    0  501 -0.00000000000E+00  0.00000000000E+00  0.10447812973E+02  0.10447814188E+02  0.50400000000E-02 0.  1.
          2   -1    0    0  501    0  0.00000000000E+00 -0.00000000000E+00 -0.15170626242E+03  0.15170626244E+03  0.25500000000E-02 0. -1.
         24    2    1    2    0    0  0.00000000000E+00 -0.35527136788E-14 -0.14125844945E+03  0.16215407663E+03  0.79624085725E+02 0.  0.
         66    2    3    3    0    0 -0.18087654412E+02  0.30692532842E+02 -0.10674889753E+03  0.11255452873E+03  0.19999997570E+01 0.  0.
        -13    1    3    3    0    0  0.18087654412E+02 -0.30692532842E+02 -0.34509551916E+02  0.49599547900E+02  0.10566000000E+00 0.  1.
         13    1    4    4    0    0 -0.65230045285E+01  0.10743829381E+02 -0.38821750215E+02  0.40805868594E+02  0.10566000000E+00 0.  1.
        -13    1    4    4    0    0 -0.95797214236E+01  0.15395922763E+02 -0.52798966272E+02  0.55826046821E+02  0.10566000000E+00 0. -1.
        -14    1    4    4    0    0 -0.19849284599E+01  0.45527806985E+01 -0.15128181046E+02  0.15922613317E+02  0.00000000000E+00 0.  1.
<mgrwt>
<rscale>  0 0.79624086E+02</rscale>
<asrwt>0</asrwt>
<pdfrwt beam="1">  1        2 0.23339423E-01 0.79624086E+02</pdfrwt>
<pdfrwt beam="2">  1       -1 0.16073561E-02 0.79624086E+02</pdfrwt>
<totfact> 0.20355966E+05</totfact>
</mgrwt>
</event>
<event>
 8    1  0.1673046E-013  0.8213025E+02  0.7818608E-02  0.1323113E+00
          2   -1    0    0  501    0  0.00000000000E+00  0.00000000000E+00  0.13072824530E+03  0.13072824533E+03  0.25500000000E-02 0. -1.
         -1   -1    0    0    0  501 -0.00000000000E+00 -0.00000000000E+00 -0.12899618347E+02  0.12899619332E+02  0.50400000000E-02 0.  1.
         24    2    1    2    0    0 -0.88817841970E-15  0.35527136788E-14  0.11782862695E+03  0.14362786466E+03  0.82130251285E+02 0.  0.
         66    2    3    3    0    0 -0.45768870456E+01  0.20025760570E+02  0.12108285872E+03  0.12282930293E+03  0.20000000970E+01 0.  0.
        -13    1    3    3    0    0  0.45768870456E+01 -0.20025760570E+02 -0.32542317699E+01  0.20798561726E+02  0.10566000000E+00 0.  1.
         13    1    4    4    0    0 -0.74323201449E+00  0.40425048862E+01  0.27225371430E+02  0.27534092560E+02  0.10566000000E+00 0. -1.
        -13    1    4    4    0    0 -0.48880539014E+00  0.18540621453E+01  0.87725477170E+01  0.89802691847E+01  0.10566000000E+00 0.  1.
         14    1    4    4    0    0 -0.33448496410E+01  0.14129193538E+02  0.85084939578E+02  0.86314941187E+02  0.00000000000E+00 0. -1.
<mgrwt>
<rscale>  0 0.82130251E+02</rscale>
<asrwt>0</asrwt>
<pdfrwt beam="1">  1        2 0.20112039E-01 0.82130251E+02</pdfrwt>
<pdfrwt beam="2">  1       -1 0.19845566E-02 0.82130251E+02</pdfrwt>
<totfact> 0.17882159E+05</totfact>
</mgrwt>
</event>
<event>
 8    1  0.1673046E-013  0.7931015E+02  0.7818608E-02  0.1331021E+00
          2   -1    0    0  501    0  0.00000000000E+00  0.00000000000E+00  0.27929766371E+02  0.27929766488E+02  0.25500000000E-02 0. -1.
         -1   -1    0    0    0  501 -0.00000000000E+00 -0.00000000000E+00 -0.56302839536E+02  0.56302839762E+02  0.50400000000E-02 0.  1.
         24    2    1    2    0    0  0.00000000000E+00  0.71054273576E-14 -0.28373073165E+02  0.84232606250E+02  0.79310154928E+02 0.  0.
         66    2    3    3    0    0  0.50946550064E+01  0.36404366450E+02  0.15318947286E+01  0.36845354008E+02  0.20000010583E+01 0.  0.
        -13    1    3    3    0    0 -0.50946550064E+01 -0.36404366450E+02 -0.29904967893E+02  0.47387252242E+02  0.10566000000E+00 0.  1.
         13    1    4    4    0    0  0.29333776529E+00  0.10148556886E+01 -0.83144507373E-01  0.10649207284E+01  0.10566000000E+00 0. -1.
        -13    1    4    4    0    0  0.43909732889E+00  0.28536628401E+01  0.51717768333E+00  0.29351038927E+01  0.10566000000E+00 0.  1.
         14    1    4    4    0    0  0.43622199122E+01  0.32535847922E+02  0.10978615526E+01  0.32845329387E+02  0.00000000000E+00 0. -1.
<mgrwt>
<rscale>  0 0.79310155E+02</rscale>
<asrwt>0</asrwt>
<pdfrwt beam="1">  1        2 0.42968872E-02 0.79310155E+02</pdfrwt>
<pdfrwt beam="2">  1       -1 0.86619754E-02 0.79310155E+02</pdfrwt>
<totfact> 0.13593970E+05</totfact>
</mgrwt>
</event>
<event>
 8    1  0.1673046E-013  0.7233684E+02  0.7818608E-02  0.1352322E+00
          2   -1    0    0  501    0  0.00000000000E+00  0.00000000000E+00  0.13791565505E+03  0.13791565507E+03  0.25500000000E-02 0. -1.
         -1   -1    0    0    0  501 -0.00000000000E+00 -0.00000000000E+00 -0.94851766993E+01  0.94851780383E+01  0.50400000000E-02 0.  1.
         24    2    1    2    0    0 -0.35527136788E-14  0.35527136788E-14  0.12843047835E+03  0.14740083311E+03  0.72336835932E+02 0.  0.
         66    2    3    3    0    0  0.20703498936E+02 -0.24274286995E+02  0.98861552557E+02  0.10390131111E+03  0.20000000236E+01 0.  0.
        -13    1    3    3    0    0 -0.20703498936E+02  0.24274286995E+02  0.29568925793E+02  0.43499521996E+02  0.10566000000E+00 0.  1.
         13    1    4    4    0    0  0.55262659222E+01 -0.58742151042E+01  0.23110168262E+02  0.24477276386E+02  0.10566000000E+00 0. -1.
        -13    1    4    4    0    0  0.50666403944E+01 -0.68726713509E+01  0.26854056480E+02  0.28178998737E+02  0.10566000000E+00 0.  1.
         14    1    4    4    0    0  0.10110592620E+02 -0.11527400540E+02  0.48897327815E+02  0.51245035992E+02  0.00000000000E+00 0. -1.
<mgrwt>
<rscale>  0 0.72336836E+02</rscale>
<asrwt>0</asrwt>
<pdfrwt beam="1">  1        2 0.21217793E-01 0.72336836E+02</pdfrwt>
<pdfrwt beam="2">  1       -1 0.14592581E-02 0.72336836E+02</pdfrwt>
<totfact> 0.25444145E+05</totfact>
</mgrwt>
</event>
<event>
 8    1  0.1673046E-013  0.7897108E+02  0.7818608E-02  0.1331997E+00
         -1   -1    0    0    0  501 -0.00000000000E+00  0.00000000000E+00  0.13651423593E+01  0.13651516629E+01  0.50400000000E-02 0.  1.
          2   -1    0    0  501    0  0.00000000000E+00 -0.00000000000E+00 -0.11420806220E+04  0.11420806220E+04  0.25500000000E-02 0. -1.
         24    2    1    2    0    0 -0.17763568394E-14  0.00000000000E+00 -0.11407154796E+04  0.11434457736E+04  0.78971082188E+02 0.  0.
         66    2    3    3    0    0  0.11181435087E+02  0.10966755065E+02 -0.10951467786E+04  0.10952605904E+04  0.20000007151E+01 0.  0.
        -13    1    3    3    0    0 -0.11181435087E+02 -0.10966755065E+02 -0.45568700985E+02  0.48185183208E+02  0.10566000000E+00 0.  1.
         13    1    4    4    0    0  0.11927101367E+01  0.17004793156E+01 -0.17951032655E+03  0.17952237378E+03  0.10566000000E+00 0. -1.
        -13    1    4    4    0    0  0.71058304586E+01  0.70699121136E+01 -0.66376143150E+03  0.66383712279E+03  0.10566000000E+00 0.  1.
        -14    1    4    4    0    0  0.28828944920E+01  0.21963636362E+01 -0.25187502059E+03  0.25190109387E+03  0.00000000000E+00 0.  1.
<mgrwt>
<rscale>  0 0.78971082E+02</rscale>
<asrwt>0</asrwt>
<pdfrwt beam="1">  1        2 0.17570395E+00 0.78971082E+02</pdfrwt>
<pdfrwt beam="2">  1       -1 0.21002353E-03 0.78971082E+02</pdfrwt>
<totfact> 0.36390735E+05</totfact>
</mgrwt>
</event>
<event>
 8    1  0.1673046E-013  0.8003920E+02  0.7818608E-02  0.1328940E+00
         -1   -1    0    0    0  501 -0.00000000000E+00  0.00000000000E+00  0.59822983316E+02  0.59822983528E+02  0.50400000000E-02 0.  1.
          2   -1    0    0  501    0  0.00000000000E+00 -0.00000000000E+00 -0.26771790099E+02  0.26771790221E+02  0.25500000000E-02 0. -1.
         24    2    1    2    0    0 -0.17763568394E-14  0.00000000000E+00  0.33051193217E+02  0.86594773749E+02  0.80039199569E+02 0.  0.
         66    2    3    3    0    0 -0.12846310615E+02 -0.32103967145E+02 -0.52066540864E+01  0.35025728313E+02  0.19999985666E+01 0.  0.
        -13    1    3    3    0    0  0.12846310615E+02  0.32103967145E+02  0.38257847303E+02  0.51569045436E+02  0.10566000000E+00 0.  1.
         13    1    4    4    0    0 -0.60490275121E+01 -0.16356292321E+02 -0.24635471739E+01  0.17612474586E+02  0.10566000000E+00 0. -1.
        -13    1    4    4    0    0 -0.17046515410E+01 -0.41074726171E+01 -0.18144115994E+00  0.44521065920E+01  0.10566000000E+00 0.  1.
        -14    1    4    4    0    0 -0.50926315622E+01 -0.11640202206E+02 -0.25616657525E+01  0.12961147135E+02  0.00000000000E+00 0.  1.
<mgrwt>
<rscale>  0 0.80039200E+02</rscale>
<asrwt>0</asrwt>
<pdfrwt beam="1">  1        2 0.41187370E-02 0.80039200E+02</pdfrwt>
<pdfrwt beam="2">  1       -1 0.92035358E-02 0.80039200E+02</pdfrwt>
<totfact> 0.13138625E+05</totfact>
</mgrwt>
</event>
<event>
 8    1  0.1673046E-013  0.8005712E+02  0.7818608E-02  0.1328889E+00
          2   -1    0    0  501    0  0.00000000000E+00  0.00000000000E+00  0.14306340109E+02  0.14306340336E+02  0.25500000000E-02 0. -1.
         -1   -1    0    0    0  501 -0.00000000000E+00 -0.00000000000E+00 -0.11199828289E+03  0.11199828300E+03  0.50400000000E-02 0.  1.
         24    2    1    2    0    0  0.00000000000E+00 -0.71054273576E-14 -0.97691942777E+02  0.12630462334E+03  0.80057118311E+02 0.  0.
         66    2    3    3    0    0 -0.40048552017E+01  0.26406622609E+02 -0.18908060571E+01  0.26850022920E+02  0.20000001197E+01 0.  0.
        -13    1    3    3    0    0  0.40048552017E+01 -0.26406622609E+02 -0.95801136720E+02  0.99454600415E+02  0.10566000000E+00 0.  1.
         13    1    4    4    0    0 -0.91821139057E+00  0.52208315066E+01 -0.12889398016E+00  0.53035810046E+01  0.10566000000E+00 0. -1.
        -13    1    4    4    0    0 -0.21601074940E+00  0.62475085791E+01 -0.20676933166E+00  0.62555528678E+01  0.10566000000E+00 0.  1.
        -14    1    4    4    0    0 -0.28706330617E+01  0.14938282523E+02 -0.15551427453E+01  0.15290889048E+02  0.00000000000E+00 0.  1.
<mgrwt>
<rscale>  0 0.80057118E+02</rscale>
<asrwt>0</asrwt>
<pdfrwt beam="1">  1        2 0.22009755E-02 0.80057118E+02</pdfrwt>
<pdfrwt beam="2">  1       -1 0.17230505E-01 0.80057118E+02</pdfrwt>
<totfact> 0.11542635E+05</totfact>
</mgrwt>
</event>
<event>
 8    1  0.1673046E-013  0.8628290E+02  0.7818608E-02  0.1312111E+00
          2   -1    0    0  501    0  0.00000000000E+00  0.00000000000E+00  0.26509107411E+02  0.26509107533E+02  0.25500000000E-02 0. -1.
         -1   -1    0    0    0  501 -0.00000000000E+00 -0.00000000000E+00 -0.70209249823E+02  0.70209250004E+02  0.50400000000E-02 0.  1.
         24    2    1    2    0    0  0.00000000000E+00  0.00000000000E+00 -0.43700142412E+02  0.96718357537E+02  0.86282896555E+02 0.  0.
         66    2    3    3    0    0 -0.44143034270E+01  0.24910700737E+02  0.17277502738E+02  0.30700833667E+02  0.20000002647E+01 0.  0.
        -13    1    3    3    0    0  0.44143034270E+01 -0.24910700737E+02 -0.60977645150E+02  0.66017523870E+02  0.10566000000E+00 0.  1.
         13    1    4    4    0    0 -0.15706031077E+01  0.62669612118E+01  0.50133345735E+01  0.81784035443E+01  0.10566000000E+00 0.  1.
        -13    1    4    4    0    0 -0.14766540822E+00  0.27917793519E+01  0.21229968957E+01  0.35119961385E+01  0.10566000000E+00 0. -1.
        -14    1    4    4    0    0 -0.26960349111E+01  0.15851960173E+02  0.10141171268E+02  0.19010433984E+02  0.00000000000E+00 0.  1.
<mgrwt>
<rscale>  0 0.86282897E+02</rscale>
<asrwt>0</asrwt>
<pdfrwt beam="1">  1        2 0.40783243E-02 0.86282897E+02</pdfrwt>
<pdfrwt beam="2">  1       -1 0.10801423E-01 0.86282897E+02</pdfrwt>
<totfact> 0.10592501E+05</totfact>
</mgrwt>
</event>
<event>
 8    1  0.1673046E-013  0.8304461E+02  0.7818608E-02  0.1320627E+00
          2   -1    0    0  501    0  0.00000000000E+00  0.00000000000E+00  0.25097275245E+02  0.25097275374E+02  0.25500000000E-02 0. -1.
         -1   -1    0    0    0  501 -0.00000000000E+00 -0.00000000000E+00 -0.68696766171E+02  0.68696766356E+02  0.50400000000E-02 0.  1.
         24    2    1    2    0    0  0.71054273576E-14  0.88817841970E-15 -0.43599490926E+02  0.93794041730E+02  0.83044606418E+02 0.  0.
         66    2    3    3    0    0  0.40978348306E+02  0.60853707170E+01 -0.19082959798E+02  0.45655406215E+02  0.19999988581E+01 0.  0.
        -13    1    3    3    0    0 -0.40978348306E+02 -0.60853707170E+01 -0.24516531129E+02  0.48138635515E+02  0.10566000000E+00 0.  1.
         13    1    4    4    0    0  0.77327905592E+01  0.83908634187E+00 -0.38291663552E+01  0.86702822753E+01  0.10566000000E+00 0.  1.
        -13    1    4    4    0    0  0.32156889312E+02  0.53497499972E+01 -0.14792124674E+02  0.35798093129E+02  0.10566000000E+00 0. -1.
        -14    1    4    4    0    0  0.10886684340E+01 -0.10346562205E+00 -0.46166876814E+00  0.11870308108E+01  0.00000000000E+00 0.  1.
<mgrwt>
<rscale>  0 0.83044606E+02</rscale>
<asrwt>0</asrwt>
<pdfrwt beam="1">  1        2 0.38611193E-02 0.83044606E+02</pdfrwt>
<pdfrwt beam="2">  1       -1 0.10568733E-01 0.83044606E+02</pdfrwt>
<totfact> 0.11682534E+05</totfact>
</mgrwt>
</event>
<event>
 8    1  0.1673046E-013  0.8016767E+02  0.7818608E-02  0.1328576E+00
          2   -1    0    0  501    0  0.00000000000E+00  0.00000000000E+00  0.28501445387E+02  0.28501445501E+02  0.25500000000E-02 0. -1.
         -1   -1    0    0    0  501 -0.00000000000E+00 -0.00000000000E+00 -0.56373069768E+02  0.56373069994E+02  0.50400000000E-02 0.  1.
         24    2    1    2    0    0  0.00000000000E+00  0.00000000000E+00 -0.27871624381E+02  0.84874515495E+02  0.80167673877E+02 0.  0.
         66    2    3    3    0    0 -0.37375623582E+02 -0.13685870307E+02 -0.91545936669E+01  0.40890669745E+02  0.20000006976E+01 0.  0.
        -13    1    3    3    0    0  0.37375623582E+02  0.13685870307E+02 -0.18717030714E+02  0.43983845750E+02  0.10566000000E+00 0.  1.
         13    1    4    4    0    0 -0.22235828482E+02 -0.82888581962E+01 -0.57735251444E+01  0.24422980881E+02  0.10566000000E+00 0. -1.
        -13    1    4    4    0    0 -0.81166476855E+00 -0.38678269904E-01 -0.15666695753E+00  0.83426870747E+00  0.10566000000E+00 0.  1.
        -14    1    4    4    0    0 -0.14328130332E+02 -0.53583338405E+01 -0.32244015649E+01  0.15633420157E+02  0.00000000000E+00 0.  1.
<mgrwt>
<rscale>  0 0.80167674E+02</rscale>
<asrwt>0</asrwt>
<pdfrwt beam="1">  1        2 0.43848378E-02 0.80167674E+02</pdfrwt>
<pdfrwt beam="2">  1       -1 0.86727800E-02 0.80167674E+02</pdfrwt>
<totfact> 0.13241832E+05</totfact>
</mgrwt>
</event>
<event>
 8    1  0.1673046E-013  0.7863596E+02  0.7818608E-02  0.1332968E+00
          2   -1    0    0  501    0  0.00000000000E+00  0.00000000000E+00  0.49640470787E+03  0.49640470787E+03  0.25500000000E-02 0. -1.
         -1   -1    0    0    0  501 -0.00000000000E+00 -0.00000000000E+00 -0.31141978732E+01  0.31142019515E+01  0.50400000000E-02 0.  1.
         24    2    1    2    0    0 -0.35527136788E-14  0.17763568394E-14  0.49329050999E+03  0.49951890982E+03  0.78635958841E+02 0.  0.
         66    2    3    3    0    0 -0.16073701839E+02  0.10590473015E+02  0.46439962728E+03  0.46480268483E+03  0.20000008735E+01 0.  0.
        -13    1    3    3    0    0  0.16073701839E+02 -0.10590473015E+02  0.28890882716E+02  0.34716224991E+02  0.10566000000E+00 0.  1.
         13    1    4    4    0    0 -0.17923400390E+01  0.17352729859E+01  0.69224401546E+02  0.69269420299E+02  0.10566000000E+00 0. -1.
        -13    1    4    4    0    0 -0.46804456895E+00  0.36757874218E+00  0.16767422525E+02  0.16778313444E+02  0.10566000000E+00 0. -1.
         14    1    4    4    0    0 -0.13813317231E+02  0.84876212868E+01  0.37840780321E+03  0.37875495109E+03  0.00000000000E+00 0. -1.
<mgrwt>
<rscale>  0 0.78635959E+02</rscale>
<asrwt>0</asrwt>
<pdfrwt beam="1">  1        2 0.76369913E-01 0.78635959E+02</pdfrwt>
<pdfrwt beam="2">  1       -1 0.47910794E-03 0.78635959E+02</pdfrwt>
<totfact> 0.31772821E+05</totfact>
</mgrwt>
</event>
<event>
 8    1  0.1673046E-013  0.7976052E+02  0.7818608E-02  0.1329732E+00
         -1   -1    0    0    0  501 -0.00000000000E+00  0.00000000000E+00  0.36160283307E+01  0.36160318431E+01  0.50400000000E-02 0.  1.
          2   -1    0    0  501    0  0.00000000000E+00 -0.00000000000E+00 -0.43982909173E+03  0.43982909174E+03  0.25500000000E-02 0. -1.
         24    2    1    2    0    0  0.00000000000E+00  0.00000000000E+00 -0.43621306340E+03  0.44344512358E+03  0.79760522485E+02 0.  0.
         66    2    3    3    0    0  0.18731893085E+02  0.23896863527E+02 -0.36177488693E+03  0.36305235534E+03  0.20000002878E+01 0.  0.
        -13    1    3    3    0    0 -0.18731893085E+02 -0.23896863527E+02 -0.74438176473E+02  0.80392768242E+02  0.10566000000E+00 0.  1.
         13    1    4    4    0    0  0.28736147275E+01  0.42249087620E+01 -0.58991821843E+02  0.59212783451E+02  0.10566000000E+00 0.  1.
        -13    1    4    4    0    0  0.14973115248E+02  0.18740844805E+02 -0.29085627944E+03  0.29184379366E+03  0.10566000000E+00 0. -1.
         14    1    4    4    0    0  0.88516310856E+00  0.93110996019E+00 -0.11926785643E+02  0.11995778226E+02  0.00000000000E+00 0. -1.
<mgrwt>
<rscale>  0 0.79760522E+02</rscale>
<asrwt>0</asrwt>
<pdfrwt beam="1">  1        2 0.67665972E-01 0.79760522E+02</pdfrwt>
<pdfrwt beam="2">  1       -1 0.55631267E-03 0.79760522E+02</pdfrwt>
<totfact> 0.29421818E+05</totfact>
</mgrwt>
</event>
<event>
 8    1  0.1673046E-013  0.7994848E+02  0.7818608E-02  0.1329198E+00
          2   -1    0    0  501    0  0.00000000000E+00  0.00000000000E+00  0.17569941834E+03  0.17569941836E+03  0.25500000000E-02 0. -1.
         -1   -1    0    0    0  501 -0.00000000000E+00 -0.00000000000E+00 -0.90947365085E+01  0.90947379050E+01  0.50400000000E-02 0.  1.
         24    2    1    2    0    0  0.00000000000E+00  0.00000000000E+00  0.16660468183E+03  0.18479415626E+03  0.79948484544E+02 0.  0.
         66    2    3    3    0    0 -0.18786413599E+02  0.19236327150E+02  0.15164753620E+03  0.15402577984E+03  0.20000004467E+01 0.  0.
        -13    1    3    3    0    0  0.18786413599E+02 -0.19236327150E+02  0.14957145627E+02  0.30768376419E+02  0.10566000000E+00 0.  1.
         13    1    4    4    0    0 -0.46838543120E+01  0.50503862275E+01  0.41593575923E+02  0.42160189923E+02  0.10566000000E+00 0. -1.
        -13    1    4    4    0    0 -0.61997043285E+01  0.72093930927E+01  0.52315750038E+02  0.53172930600E+02  0.10566000000E+00 0.  1.
         14    1    4    4    0    0 -0.79028549580E+01  0.69765478297E+01  0.57738210241E+02  0.58692659319E+02  0.00000000000E+00 0. -1.
<mgrwt>
<rscale>  0 0.79948485E+02</rscale>
<asrwt>0</asrwt>
<pdfrwt beam="1">  1        2 0.27030678E-01 0.79948485E+02</pdfrwt>
<pdfrwt beam="2">  1       -1 0.13991905E-02 0.79948485E+02</pdfrwt>
<totfact> 0.21137089E+05</totfact>
</mgrwt>
</event>
<event>
 8    1  0.1673046E-013  0.8014847E+02  0.7818608E-02  0.1328631E+00
         -1   -1    0    0    0  501 -0.00000000000E+00  0.00000000000E+00  0.51386422518E+01  0.51386447234E+01  0.50400000000E-02 0.  1.
          2   -1    0    0  501    0  0.00000000000E+00 -0.00000000000E+00 -0.31252302088E+03  0.31252302089E+03  0.25500000000E-02 0. -1.
         24    2    1    2    0    0 -0.71054273576E-14  0.00000000000E+00 -0.30738437863E+03  0.31766166561E+03  0.80148472075E+02 0.  0.
         66    2    3    3    0    0 -0.32203662973E+02  0.14114281974E+01 -0.24798620329E+03  0.25008043719E+03  0.20000004302E+01 0.  0.
        -13    1    3    3    0    0  0.32203662973E+02 -0.14114281974E+01 -0.59398175334E+02  0.67581228425E+02  0.10566000000E+00 0.  1.
         13    1    4    4    0    0 -0.19775889651E+01 -0.23410585770E-01 -0.14429408087E+02  0.14564696631E+02  0.10566000000E+00 0. -1.
        -13    1    4    4    0    0 -0.24131286696E+02  0.17126457172E+01 -0.18301024822E+03  0.18460231383E+03  0.10566000000E+00 0.  1.
        -14    1    4    4    0    0 -0.60947873112E+01 -0.27780693410E+00 -0.50546546983E+02  0.50913426726E+02  0.00000000000E+00 0.  1.
<mgrwt>
<rscale>  0 0.80148472E+02</rscale>
<asrwt>0</asrwt>
<pdfrwt beam="1">  1        2 0.48080450E-01 0.80148472E+02</pdfrwt>
<pdfrwt beam="2">  1       -1 0.79056078E-03 0.80148472E+02</pdfrwt>
<totfact> 0.25749011E+05</totfact>
</mgrwt>
</event>
<event>
 8    1  0.1673046E-013  0.7939348E+02  0.7818608E-02  0.1330781E+00
         -1   -1    0    0    0  501 -0.00000000000E+00  0.00000000000E+00  0.62500069146E+01  0.62500089467E+01  0.50400000000E-02 0.  1.
          2   -1    0    0  501    0  0.00000000000E+00 -0.00000000000E+00 -0.25213269493E+03  0.25213269494E+03  0.25500000000E-02 0. -1.
         24    2    1    2    0    0  0.00000000000E+00  0.00000000000E+00 -0.24588268802E+03  0.25838270389E+03  0.79393484643E+02 0.  0.
         66    2    3    3    0    0  0.90480173349E+00 -0.13953635596E+02 -0.24384254222E+03  0.24425132139E+03  0.19999976558E+01 0.  0.
        -13    1    3    3    0    0 -0.90480173349E+00  0.13953635596E+02 -0.20401457959E+01  0.14131382503E+02  0.10566000000E+00 0.  1.
         13    1    4    4    0    0  0.67088103922E+00 -0.13679867571E+02 -0.23791582401E+03  0.23830975502E+03  0.10566000000E+00 0. -1.
        -13    1    4    4    0    0  0.15967206406E+00 -0.22534234901E+00 -0.53408865299E+01  0.53490660216E+01  0.10566000000E+00 0. -1.
         14    1    4    4    0    0  0.74248630208E-01 -0.48425676581E-01 -0.58583167781E+00  0.59250034597E+00  0.00000000000E+00 0. -1.
<mgrwt>
<rscale>  0 0.79393485E+02</rscale>
<asrwt>0</asrwt>
<pdfrwt beam="1">  1        2 0.38789638E-01 0.79393485E+02</pdfrwt>
<pdfrwt beam="2">  1       -1 0.96153988E-03 0.79393485E+02</pdfrwt>
<totfact> 0.24424700E+05</totfact>
</mgrwt>
</event>
<event>
 8    1  0.1673046E-013  0.7880047E+02  0.7818608E-02  0.1332490E+00
          2   -1    0    0  501    0  0.00000000000E+00  0.00000000000E+00  0.16093372368E+02  0.16093372570E+02  0.25500000000E-02 0. -1.
         -1   -1    0    0    0  501 -0.00000000000E+00 -0.00000000000E+00 -0.96460739580E+02  0.96460739712E+02  0.50400000000E-02 0.  1.
         24    2    1    2    0    0  0.00000000000E+00 -0.71054273576E-14 -0.80367367212E+02  0.11255411228E+03  0.78800472582E+02 0.  0.
         66    2    3    3    0    0  0.96048464707E+01  0.38182616919E+02 -0.39557503933E+02  0.55847662778E+02  0.20000024731E+01 0.  0.
        -13    1    3    3    0    0 -0.96048464707E+01 -0.38182616919E+02 -0.40809863279E+02  0.56706449504E+02  0.10566000000E+00 0.  1.
         13    1    4    4    0    0  0.45791914398E+01  0.20488072814E+02 -0.21090130247E+02  0.29757938096E+02  0.10566000000E+00 0. -1.
        -13    1    4    4    0    0  0.47925771106E+01  0.15583131608E+02 -0.16425013127E+02  0.23142925621E+02  0.10566000000E+00 0.  1.
        -14    1    4    4    0    0  0.23307792037E+00  0.21114124967E+01 -0.20423605592E+01  0.29467990603E+01  0.00000000000E+00 0.  1.
<mgrwt>
<rscale>  0 0.78800473E+02</rscale>
<asrwt>0</asrwt>
<pdfrwt beam="1">  1        2 0.24759035E-02 0.78800473E+02</pdfrwt>
<pdfrwt beam="2">  1       -1 0.14840114E-01 0.78800473E+02</pdfrwt>
<totfact> 0.12402051E+05</totfact>
</mgrwt>
</event>
<event>
 8    1  0.1673046E-013  0.8116975E+02  0.7818608E-02  0.1325764E+00
          2   -1    0    0  501    0  0.00000000000E+00  0.00000000000E+00  0.10264729651E+04  0.10264729651E+04  0.25500000000E-02 0. -1.
         -1   -1    0    0    0  501 -0.00000000000E+00 -0.00000000000E+00 -0.16046483957E+01  0.16046563107E+01  0.50400000000E-02 0.  1.
         24    2    1    2    0    0 -0.35527136788E-14 -0.22204460493E-15  0.10248683167E+04  0.10280776214E+04  0.81169754637E+02 0.  0.
         66    2    3    3    0    0  0.21685280304E+02  0.18488165028E+01  0.94625027876E+03  0.94650264634E+03  0.19999922707E+01 0.  0.
        -13    1    3    3    0    0 -0.21685280304E+02 -0.18488165028E+01  0.78618037961E+02  0.81574975092E+02  0.10566000000E+00 0.  1.
         13    1    4    4    0    0  0.15319432372E+02  0.13479116262E+01  0.64194461883E+03  0.64212880848E+03  0.10566000000E+00 0. -1.
        -13    1    4    4    0    0  0.20268844801E+01  0.45188201433E+00  0.86843334625E+02  0.86868224288E+02  0.10566000000E+00 0. -1.
         14    1    4    4    0    0  0.43389634523E+01  0.49022862275E-01  0.21746232531E+03  0.21750561357E+03  0.00000000000E+00 0. -1.
<mgrwt>
<rscale>  0 0.81169755E+02</rscale>
<asrwt>0</asrwt>
<pdfrwt beam="1">  1        2 0.15791884E+00 0.81169755E+02</pdfrwt>
<pdfrwt beam="2">  1       -1 0.24686972E-03 0.81169755E+02</pdfrwt>
<totfact> 0.33956036E+05</totfact>
</mgrwt>
</event>
<event>
 8    1  0.1673046E-013  0.7875181E+02  0.7818608E-02  0.1332631E+00
         -1   -1    0    0    0  501 -0.00000000000E+00  0.00000000000E+00  0.10534835018E+02  0.10534836224E+02  0.50400000000E-02 0.  1.
          2   -1    0    0  501    0  0.00000000000E+00 -0.00000000000E+00 -0.14717476782E+03  0.14717476784E+03  0.25500000000E-02 0. -1.
         24    2    1    2    0    0  0.35527136788E-14  0.35527136788E-14 -0.13663993280E+03  0.15770960406E+03  0.78751812540E+02 0.  0.
         66    2    3    3    0    0  0.21304687340E+02  0.26669339877E+02 -0.10757191157E+03  0.11287541605E+03  0.19999997311E+01 0.  0.
        -13    1    3    3    0    0 -0.21304687340E+02 -0.26669339877E+02 -0.29068021232E+02  0.44834188010E+02  0.10566000000E+00 0.  1.
         13    1    4    4    0    0  0.21798630432E+01  0.26092694468E+01 -0.95216230514E+01  0.10111011794E+02  0.10566000000E+00 0. -1.
        -13    1    4    4    0    0  0.21380922046E+01  0.21324189419E+01 -0.10386390819E+02  0.10816974027E+02  0.10566000000E+00 0.  1.
         14    1    4    4    0    0  0.16986732092E+02  0.21927651488E+02 -0.87663897696E+02  0.91947430232E+02  0.00000000000E+00 0. -1.
<mgrwt>
<rscale>  0 0.78751813E+02</rscale>
<asrwt>0</asrwt>
<pdfrwt beam="1">  1        2 0.22642270E-01 0.78751813E+02</pdfrwt>
<pdfrwt beam="2">  1       -1 0.16207441E-02 0.78751813E+02</pdfrwt>
<totfact> 0.20755884E+05</totfact>
</mgrwt>
</event>
<event>
 8    1  0.1673046E-013  0.7917657E+02  0.7818608E-02  0.1331405E+00
          2   -1    0    0  501    0  0.00000000000E+00  0.00000000000E+00  0.15335318384E+02  0.15335318596E+02  0.25500000000E-02 0. -1.
         -1   -1    0    0    0  501 -0.00000000000E+00 -0.00000000000E+00 -0.10219757164E+03  0.10219757177E+03  0.50400000000E-02 0.  1.
         24    2    1    2    0    0  0.11102230246E-15  0.00000000000E+00 -0.86862253259E+02  0.11753289036E+03  0.79176570246E+02 0.  0.
         66    2    3    3    0    0  0.52891515862E+00  0.38346371123E+02 -0.29028090141E+02  0.48138902748E+02  0.20000027478E+01 0.  0.
        -13    1    3    3    0    0 -0.52891515862E+00 -0.38346371123E+02 -0.57834163119E+02  0.69393987616E+02  0.10566000000E+00 0.  1.
         13    1    4    4    0    0  0.30227393525E+00  0.27689586334E+01 -0.16422527112E+01  0.32352217001E+01  0.10566000000E+00 0. -1.
        -13    1    4    4    0    0  0.38803990995E+00  0.25596364062E+02 -0.19398023304E+02  0.32118824703E+02  0.10566000000E+00 0.  1.
        -14    1    4    4    0    0 -0.16139868658E+00  0.99810484276E+01 -0.79878141251E+01  0.12784856344E+02  0.00000000000E+00 0.  1.
<mgrwt>
<rscale>  0 0.79176570E+02</rscale>
<asrwt>0</asrwt>
<pdfrwt beam="1">  1        2 0.23592798E-02 0.79176570E+02</pdfrwt>
<pdfrwt beam="2">  1       -1 0.15722703E-01 0.79176570E+02</pdfrwt>
<totfact> 0.12106216E+05</totfact>
</mgrwt>
</event>
<event>
 8    1  0.1673046E-013  0.8020109E+02  0.7818608E-02  0.1328482E+00
         -1   -1    0    0    0  501 -0.00000000000E+00  0.00000000000E+00  0.67398976878E+02  0.67398977067E+02  0.50400000000E-02 0.  1.
          2   -1    0    0  501    0  0.00000000000E+00 -0.00000000000E+00 -0.23858727490E+02  0.23858727626E+02  0.25500000000E-02 0. -1.
         24    2    1    2    0    0  0.17763568394E-14  0.00000000000E+00  0.43540249388E+02  0.91257704693E+02  0.80201093191E+02 0.  0.
         66    2    3    3    0    0  0.13304137360E+02 -0.80811540614E+01 -0.20236335365E+02  0.25608873411E+02  0.20000016352E+01 0.  0.
        -13    1    3    3    0    0 -0.13304137360E+02  0.80811540614E+01  0.63776584753E+02  0.65648831282E+02  0.10566000000E+00 0.  1.
         13    1    4    4    0    0  0.60486887828E+01 -0.37675772853E+01 -0.79165615835E+01  0.10651966294E+02  0.10566000000E+00 0. -1.
        -13    1    4    4    0    0  0.39704586650E+01 -0.27205558194E+01 -0.74601916168E+01  0.88787155024E+01  0.10566000000E+00 0.  1.
         14    1    4    4    0    0  0.32849899121E+01 -0.15930209567E+01 -0.48595821648E+01  0.60781916149E+01  0.00000000000E+00 0. -1.
<mgrwt>
<rscale>  0 0.80201093E+02</rscale>
<asrwt>0</asrwt>
<pdfrwt beam="1">  1        2 0.36705735E-02 0.80201093E+02</pdfrwt>
<pdfrwt beam="2">  1       -1 0.10369073E-01 0.80201093E+02</pdfrwt>
<totfact> 0.12769710E+05</totfact>
</mgrwt>
</event>
<event>
 8    1  0.1673046E-013  0.7968395E+02  0.7818608E-02  0.1329951E+00
          2   -1    0    0  501    0  0.00000000000E+00  0.00000000000E+00  0.57666233436E+03  0.57666233436E+03  0.25500000000E-02 0. -1.
         -1   -1    0    0    0  501 -0.00000000000E+00 -0.00000000000E+00 -0.27527057423E+01  0.27527103562E+01  0.50400000000E-02 0.  1.
         24    2    1    2    0    0 -0.35527136788E-14  0.00000000000E+00  0.57390962862E+03  0.57941504472E+03  0.79683952148E+02 0.  0.
         66    2    3    3    0    0 -0.20967120000E+02  0.13083339501E+02  0.51413650864E+03  0.51473405115E+03  0.20000006347E+01 0.  0.
        -13    1    3    3    0    0  0.20967120000E+02 -0.13083339501E+02  0.59773119974E+02  0.64680993569E+02  0.10566000000E+00 0.  1.
         13    1    4    4    0    0 -0.78644067278E+01  0.53329841052E+01  0.20305950106E+03  0.20328172999E+03  0.10566000000E+00 0. -1.
        -13    1    4    4    0    0 -0.72568707378E+01  0.47600082081E+01  0.16586404194E+03  0.16609097333E+03  0.10566000000E+00 0.  1.
        -14    1    4    4    0    0 -0.58458425340E+01  0.29903471880E+01  0.14521296565E+03  0.14536134783E+03  0.00000000000E+00 0.  1.
<mgrwt>
<rscale>  0 0.79683952E+02</rscale>
<asrwt>0</asrwt>
<pdfrwt beam="1">  1        2 0.88717274E-01 0.79683952E+02</pdfrwt>
<pdfrwt beam="2">  1       -1 0.42349359E-03 0.79683952E+02</pdfrwt>
<totfact> 0.32132944E+05</totfact>
</mgrwt>
</event>
<event>
 8    1  0.1673046E-013  0.7869757E+02  0.7818608E-02  0.1332789E+00
          2   -1    0    0  501    0  0.00000000000E+00  0.00000000000E+00  0.36178492411E+03  0.36178492412E+03  0.25500000000E-02 0. -1.
         -1   -1    0    0    0  501 -0.00000000000E+00 -0.00000000000E+00 -0.42796871396E+01  0.42796901073E+01  0.50400000000E-02 0.  1.
         24    2    1    2    0    0 -0.17763568394E-14  0.00000000000E+00  0.35750523697E+03  0.36606461422E+03  0.78697568752E+02 0.  0.
         66    2    3    3    0    0 -0.10475413985E+02 -0.37728638751E+02  0.16200798562E+03  0.16668464801E+03  0.19999990657E+01 0.  0.
        -13    1    3    3    0    0  0.10475413985E+02  0.37728638751E+02  0.19549725135E+03  0.19937996622E+03  0.10566000000E+00 0.  1.
         13    1    4    4    0    0 -0.13374431639E+01 -0.36026257967E+01  0.17273297786E+02  0.17695921770E+02  0.10566000000E+00 0.  1.
        -13    1    4    4    0    0 -0.26195376782E+01 -0.11949730471E+02  0.49986893777E+02  0.51462207001E+02  0.10566000000E+00 0. -1.
         14    1    4    4    0    0 -0.65184331429E+01 -0.22176282484E+02  0.94747794059E+02  0.97526519237E+02  0.00000000000E+00 0. -1.
<mgrwt>
<rscale>  0 0.78697569E+02</rscale>
<asrwt>0</asrwt>
<pdfrwt beam="1">  1        2 0.55659232E-01 0.78697569E+02</pdfrwt>
<pdfrwt beam="2">  1       -1 0.65841349E-03 0.78697569E+02</pdfrwt>
<totfact> 0.28464504E+05</totfact>
</mgrwt>
</event>
<event>
 8    1  0.1673046E-013  0.8165816E+02  0.7818608E-02  0.1324411E+00
          2   -1    0    0  501    0  0.00000000000E+00  0.00000000000E+00  0.45921196199E+02  0.45921196270E+02  0.25500000000E-02 0. -1.
         -1   -1    0    0    0  501 -0.00000000000E+00 -0.00000000000E+00 -0.36301615724E+02  0.36301616074E+02  0.50400000000E-02 0.  1.
         24    2    1    2    0    0  0.00000000000E+00  0.00000000000E+00  0.96195804755E+01  0.82222812344E+02  0.81658156612E+02 0.  0.
         66    2    3    3    0    0  0.89825418131E+01 -0.16113901656E+02 -0.31834950182E+02  0.36848445570E+02  0.20000009649E+01 0.  0.
        -13    1    3    3    0    0 -0.89825418131E+01  0.16113901656E+02  0.41454530658E+02  0.45374366773E+02  0.10566000000E+00 0.  1.
         13    1    4    4    0    0  0.53141549414E+01 -0.96177009629E+01 -0.20382910934E+02  0.23156308789E+02  0.10566000000E+00 0. -1.
        -13    1    4    4    0    0  0.24594305405E+01 -0.48580954038E+01 -0.78438229151E+01  0.95491681049E+01  0.10566000000E+00 0.  1.
        -14    1    4    4    0    0  0.12089563311E+01 -0.16381052894E+01 -0.36082163331E+01  0.41429686767E+01  0.00000000000E+00 0.  1.
<mgrwt>
<rscale>  0 0.81658157E+02</rscale>
<asrwt>0</asrwt>
<pdfrwt beam="1">  1        2 0.70647994E-02 0.81658157E+02</pdfrwt>
<pdfrwt beam="2">  1       -1 0.55848640E-02 0.81658157E+02</pdfrwt>
<totfact> 0.13866532E+05</totfact>
</mgrwt>
</event>
<event>
 8    1  0.1673046E-013  0.8018248E+02  0.7818608E-02  0.1328534E+00
          2   -1    0    0  501    0  0.00000000000E+00  0.00000000000E+00  0.84965039869E+01  0.84965043695E+01  0.25500000000E-02 0. -1.
         -1   -1    0    0    0  501 -0.00000000000E+00 -0.00000000000E+00 -0.18917281060E+03  0.18917281067E+03  0.50400000000E-02 0.  1.
         24    2    1    2    0    0 -0.35527136788E-14  0.00000000000E+00 -0.18067630661E+03  0.19766931504E+03  0.80182481476E+02 0.  0.
         66    2    3    3    0    0 -0.25166590284E+02  0.24211377446E+02 -0.41975259473E+02  0.54639459041E+02  0.20000030369E+01 0.  0.
        -13    1    3    3    0    0  0.25166590284E+02 -0.24211377446E+02 -0.13870104714E+03  0.14302985600E+03  0.10566000000E+00 0.  1.
         13    1    4    4    0    0 -0.11761667428E+02  0.11543323626E+02 -0.19655996657E+02  0.25650623962E+02  0.10566000000E+00 0. -1.
        -13    1    4    4    0    0 -0.63681997521E+01  0.57939528688E+01 -0.93436041670E+01  0.12705823893E+02  0.10566000000E+00 0.  1.
        -14    1    4    4    0    0 -0.70367231035E+01  0.68741009509E+01 -0.12975658649E+02  0.16283011186E+02  0.00000000000E+00 0.  1.
<mgrwt>
<rscale>  0 0.80182481E+02</rscale>
<asrwt>0</asrwt>
<pdfrwt beam="1">  1        2 0.13071546E-02 0.80182481E+02</pdfrwt>
<pdfrwt beam="2">  1       -1 0.29103506E-01 0.80182481E+02</pdfrwt>
<totfact> 0.10068073E+05</totfact>
</mgrwt>
</event>
<event>
 8    1  0.1673046E-013  0.7957542E+02  0.7818608E-02  0.1330261E+00
         -1   -1    0    0    0  501 -0.00000000000E+00  0.00000000000E+00  0.51667395689E+02  0.51667395935E+02  0.50400000000E-02 0.  1.
          2   -1    0    0  501    0  0.00000000000E+00 -0.00000000000E+00 -0.30639473704E+02  0.30639473811E+02  0.25500000000E-02 0. -1.
         24    2    1    2    0    0  0.00000000000E+00  0.71054273576E-14  0.21027921984E+02  0.82306869745E+02  0.79575418970E+02 0.  0.
         66    2    3    3    0    0  0.11231817063E+02  0.32014074682E+02  0.31968864477E+02  0.46659007552E+02  0.19999993849E+01 0.  0.
        -13    1    3    3    0    0 -0.11231817063E+02 -0.32014074682E+02 -0.10940942493E+02  0.35647862193E+02  0.10566000000E+00 0.  1.
         13    1    4    4    0    0  0.71239965369E+00  0.19551040878E+01  0.16112131545E+01  0.26338407555E+01  0.10566000000E+00 0.  1.
        -13    1    4    4    0    0  0.15306058343E+01  0.53735012385E+01  0.46737146866E+01  0.72850561279E+01  0.10566000000E+00 0. -1.
         14    1    4    4    0    0  0.89888115752E+01  0.24685469356E+02  0.25683936636E+02  0.36740110669E+02  0.00000000000E+00 0. -1.
<mgrwt>
<rscale>  0 0.79575419E+02</rscale>
<asrwt>0</asrwt>
<pdfrwt beam="1">  1        2 0.47137652E-02 0.79575419E+02</pdfrwt>
<pdfrwt beam="2">  1       -1 0.79488301E-02 0.79575419E+02</pdfrwt>
<totfact> 0.13714119E+05</totfact>
</mgrwt>
</event>
<event>
 8    1  0.1673046E-013  0.7978602E+02  0.7818608E-02  0.1329660E+00
          2   -1    0    0  501    0  0.00000000000E+00  0.00000000000E+00  0.33893455174E+02  0.33893455270E+02  0.25500000000E-02 0. -1.
         -1   -1    0    0    0  501 -0.00000000000E+00 -0.00000000000E+00 -0.46954556343E+02  0.46954556613E+02  0.50400000000E-02 0.  1.
         24    2    1    2    0    0  0.00000000000E+00  0.35527136788E-14 -0.13061101169E+02  0.80848011883E+02  0.79786017959E+02 0.  0.
         66    2    3    3    0    0  0.22982025806E+02 -0.19152349058E+02  0.20168756961E+02  0.36135366916E+02  0.20000000414E+01 0.  0.
        -13    1    3    3    0    0 -0.22982025806E+02  0.19152349058E+02 -0.33229858130E+02  0.44712644968E+02  0.10566000000E+00 0.  1.
         13    1    4    4    0    0  0.83007290123E+01 -0.66369323562E+01  0.63691157640E+01  0.12390632465E+02  0.10566000000E+00 0. -1.
        -13    1    4    4    0    0  0.57025039831E+01 -0.49431482539E+01  0.60494291732E+01  0.96726430563E+01  0.10566000000E+00 0.  1.
        -14    1    4    4    0    0  0.89787928108E+01 -0.75722684482E+01  0.77502120241E+01  0.14072091394E+02  0.00000000000E+00 0.  1.
<mgrwt>
<rscale>  0 0.79786018E+02</rscale>
<asrwt>0</asrwt>
<pdfrwt beam="1">  1        2 0.52143777E-02 0.79786018E+02</pdfrwt>
<pdfrwt beam="2">  1       -1 0.72237780E-02 0.79786018E+02</pdfrwt>
<totfact> 0.13888257E+05</totfact>
</mgrwt>
</event>
<event>
 8    1  0.1673046E-013  0.7989135E+02  0.7818608E-02  0.1329360E+00
         -1   -1    0    0    0  501 -0.00000000000E+00  0.00000000000E+00  0.26452956400E+01  0.26453004413E+01  0.50400000000E-02 0.  1.
          2   -1    0    0  501    0  0.00000000000E+00 -0.00000000000E+00 -0.60320504611E+03  0.60320504612E+03  0.25500000000E-02 0. -1.
         24    2    1    2    0    0  0.00000000000E+00  0.22204460493E-15 -0.60055975047E+03  0.60585034656E+03  0.79891354590E+02 0.  0.
         66    2    3    3    0    0 -0.16478568497E+02  0.19384025790E+01 -0.57581507085E+03  0.57605754612E+03  0.20000001756E+01 0.  0.
        -13    1    3    3    0    0  0.16478568497E+02 -0.19384025790E+01 -0.24744679619E+02  0.29792800435E+02  0.10566000000E+00 0.  1.
         13    1    4    4    0    0 -0.45606993258E+01  0.72800245695E+00 -0.17552959771E+03  0.17559037787E+03  0.10566000000E+00 0. -1.
        -13    1    4    4    0    0 -0.45196449025E+01  0.37008088086E+00 -0.12980518082E+03  0.12988441123E+03  0.10566000000E+00 0.  1.
        -14    1    4    4    0    0 -0.73982242684E+01  0.84031924122E+00 -0.27048029233E+03  0.27058275702E+03  0.00000000000E+00 0.  1.
<mgrwt>
<rscale>  0 0.79891355E+02</rscale>
<asrwt>0</asrwt>
<pdfrwt beam="1">  1        2 0.92800667E-01 0.79891355E+02</pdfrwt>
<pdfrwt beam="2">  1       -1 0.40696941E-03 0.79891355E+02</pdfrwt>
<totfact> 0.32325210E+05</totfact>
</mgrwt>
</event>
<event>
 8    1  0.1673046E-013  0.8247056E+02  0.7818608E-02  0.1322183E+00
         -1   -1    0    0    0  501 -0.00000000000E+00  0.00000000000E+00  0.27500252733E+02  0.27500253195E+02  0.50400000000E-02 0.  1.
          2   -1    0    0  501    0  0.00000000000E+00 -0.00000000000E+00 -0.61830283220E+02  0.61830283273E+02  0.25500000000E-02 0. -1.
         24    2    1    2    0    0  0.00000000000E+00  0.00000000000E+00 -0.34330030487E+02  0.89330536467E+02  0.82470562944E+02 0.  0.
         66    2    3    3    0    0 -0.23875486002E+02  0.13570611745E+02 -0.50457885268E+02  0.57482158191E+02  0.19999974125E+01 0.  0.
        -13    1    3    3    0    0  0.23875486002E+02 -0.13570611745E+02  0.16127854781E+02  0.31848378276E+02  0.10566000000E+00 0.  1.
         13    1    4    4    0    0 -0.16517461499E+02  0.88432892950E+01 -0.33889597367E+02  0.38723975437E+02  0.10566000000E+00 0. -1.
        -13    1    4    4    0    0 -0.28029760619E+01  0.19136235260E+01 -0.55156278322E+01  0.64770320535E+01  0.10566000000E+00 0.  1.
         14    1    4    4    0    0 -0.45550484404E+01  0.28136989238E+01 -0.11052660069E+02  0.12281150700E+02  0.00000000000E+00 0. -1.
<mgrwt>
<rscale>  0 0.82470563E+02</rscale>
<asrwt>0</asrwt>
<pdfrwt beam="1">  1        2 0.95123513E-02 0.82470563E+02</pdfrwt>
<pdfrwt beam="2">  1       -1 0.42308082E-02 0.82470563E+02</pdfrwt>
<totfact> 0.14429062E+05</totfact>
</mgrwt>
</event>
<event>
 8    1  0.1673046E-013  0.8054669E+02  0.7818608E-02  0.1327507E+00
         -1   -1    0    0    0  501 -0.00000000000E+00  0.00000000000E+00  0.13204173751E+01  0.13204269939E+01  0.50400000000E-02 0.  1.
          2   -1    0    0  501    0  0.00000000000E+00 -0.00000000000E+00 -0.12283511762E+04  0.12283511762E+04  0.25500000000E-02 0. -1.
         24    2    1    2    0    0  0.17763568394E-14  0.00000000000E+00 -0.12270307589E+04  0.12296716032E+04  0.80546685878E+02 0.  0.
         66    2    3    3    0    0 -0.12356737573E+02  0.13689954543E+02 -0.11600504357E+04  0.11601987404E+04  0.19999960128E+01 0.  0.
        -13    1    3    3    0    0  0.12356737573E+02 -0.13689954543E+02 -0.66980323189E+02  0.69472862884E+02  0.10566000000E+00 0.  1.
         13    1    4    4    0    0 -0.54518843339E+01  0.58947168398E+01 -0.46844862370E+03  0.46851744358E+03  0.10566000000E+00 0. -1.
        -13    1    4    4    0    0 -0.31730461255E+01  0.44933881346E+01 -0.35799721507E+03  0.35803948933E+03  0.10566000000E+00 0.  1.
         14    1    4    4    0    0 -0.37318071133E+01  0.33018495681E+01 -0.33360459691E+03  0.33364180744E+03  0.00000000000E+00 0. -1.
<mgrwt>
<rscale>  0 0.80546686E+02</rscale>
<asrwt>0</asrwt>
<pdfrwt beam="1">  1        2 0.18897619E+00 0.80546686E+02</pdfrwt>
<pdfrwt beam="2">  1       -1 0.20314286E-03 0.80546686E+02</pdfrwt>
<totfact> 0.34325988E+05</totfact>
</mgrwt>
</event>
<event>
 8    1  0.1673046E-013  0.8181294E+02  0.7818608E-02  0.1323984E+00
          2   -1    0    0  501    0  0.00000000000E+00  0.00000000000E+00  0.14026591808E+03  0.14026591810E+03  0.25500000000E-02 0. -1.
         -1   -1    0    0    0  501 -0.00000000000E+00 -0.00000000000E+00 -0.11929763283E+02  0.11929764347E+02  0.50400000000E-02 0.  1.
         24    2    1    2    0    0  0.00000000000E+00 -0.16653345369E-15  0.12833615480E+03  0.15219568245E+03  0.81812939859E+02 0.  0.
         66    2    3    3    0    0  0.40611092713E+02 -0.41088530937E+00  0.72912908881E+02  0.83484860668E+02  0.20000002909E+01 0.  0.
        -13    1    3    3    0    0 -0.40611092713E+02  0.41088530937E+00  0.55423245915E+02  0.68710821781E+02  0.10566000000E+00 0.  1.
         13    1    4    4    0    0  0.22647250948E+02 -0.53807065826E+00  0.40696277316E+02  0.46576664188E+02  0.10566000000E+00 0. -1.
        -13    1    4    4    0    0  0.17457262208E+02  0.28965666431E+00  0.31505405546E+02  0.36020017316E+02  0.10566000000E+00 0.  1.
        -14    1    4    4    0    0  0.50657955706E+00 -0.16247131542E+00  0.71122601881E+00  0.88817916312E+00  0.00000000000E+00 0.  1.
<mgrwt>
<rscale>  0 0.81812940E+02</rscale>
<asrwt>0</asrwt>
<pdfrwt beam="1">  1        2 0.21579370E-01 0.81812940E+02</pdfrwt>
<pdfrwt beam="2">  1       -1 0.18353484E-02 0.81812940E+02</pdfrwt>
<totfact> 0.18471168E+05</totfact>
</mgrwt>
</event>
<event>
 8    1  0.1673046E-013  0.7930037E+02  0.7818608E-02  0.1331049E+00
         -1   -1    0    0    0  501 -0.00000000000E+00  0.00000000000E+00  0.61857539273E+02  0.61857539479E+02  0.50400000000E-02 0.  1.
          2   -1    0    0  501    0  0.00000000000E+00 -0.00000000000E+00 -0.25415448683E+02  0.25415448811E+02  0.25500000000E-02 0. -1.
         24    2    1    2    0    0  0.71054273576E-14  0.88817841970E-15  0.36442090590E+02  0.87272988290E+02  0.79300368968E+02 0.  0.
         66    2    3    3    0    0 -0.34555614587E+02 -0.58590513443E+01 -0.21113581529E+01  0.35169259478E+02  0.19999992079E+01 0.  0.
        -13    1    3    3    0    0  0.34555614587E+02  0.58590513443E+01  0.38553448743E+02  0.52103728812E+02  0.10566000000E+00 0.  1.
         13    1    4    4    0    0 -0.15830166951E+02 -0.34389574597E+01 -0.90360566833E+00  0.16224927776E+02  0.10566000000E+00 0. -1.
        -13    1    4    4    0    0 -0.22978105977E+01 -0.19915341786E+00  0.13617601513E+00  0.23128561498E+01  0.10566000000E+00 0.  1.
         14    1    4    4    0    0 -0.16427637038E+02 -0.22209404668E+01 -0.13439284997E+01  0.16631475552E+02  0.00000000000E+00 0. -1.
<mgrwt>
<rscale>  0 0.79300369E+02</rscale>
<asrwt>0</asrwt>
<pdfrwt beam="1">  1        2 0.39100691E-02 0.79300369E+02</pdfrwt>
<pdfrwt beam="2">  1       -1 0.95165444E-02 0.79300369E+02</pdfrwt>
<totfact> 0.13350046E+05</totfact>
</mgrwt>
</event>
<event>
 8    1  0.1673046E-013  0.8059882E+02  0.7818608E-02  0.1327361E+00
         -1   -1    0    0    0  501 -0.00000000000E+00  0.00000000000E+00  0.69620449981E+02  0.69620450163E+02  0.50400000000E-02 0.  1.
          2   -1    0    0  501    0  0.00000000000E+00 -0.00000000000E+00 -0.23327090060E+02  0.23327090200E+02  0.25500000000E-02 0. -1.
         24    2    1    2    0    0  0.00000000000E+00 -0.71054273576E-14  0.46293359920E+02  0.92947540363E+02  0.80598821869E+02 0.  0.
         66    2    3    3    0    0  0.20274194201E+02 -0.32463516479E+02  0.87059086090E+01  0.39302871356E+02  0.19999998716E+01 0.  0.
        -13    1    3    3    0    0 -0.20274194201E+02  0.32463516479E+02  0.37587451311E+02  0.53644669006E+02  0.10566000000E+00 0.  1.
         13    1    4    4    0    0  0.11350172715E+02 -0.18722433033E+02  0.50660657997E+01  0.22472919393E+02  0.10566000000E+00 0.  1.
        -13    1    4    4    0    0  0.67781331736E+01 -0.10925192063E+02  0.24051210312E+01  0.13080469492E+02  0.10566000000E+00 0. -1.
        -14    1    4    4    0    0  0.21458883124E+01 -0.28158913829E+01  0.12347217781E+01  0.37494824708E+01  0.00000000000E+00 0.  1.
<mgrwt>
<rscale>  0 0.80598822E+02</rscale>
<asrwt>0</asrwt>
<pdfrwt beam="1">  1        2 0.35887832E-02 0.80598822E+02</pdfrwt>
<pdfrwt beam="2">  1       -1 0.10710838E-01 0.80598822E+02</pdfrwt>
<totfact> 0.12534980E+05</totfact>
</mgrwt>
</event>
<event>
 8    1  0.1673046E-013  0.8047204E+02  0.7818608E-02  0.1327717E+00
         -1   -1    0    0    0  501 -0.00000000000E+00  0.00000000000E+00  0.31226384892E+03  0.31226384896E+03  0.50400000000E-02 0.  1.
          2   -1    0    0  501    0  0.00000000000E+00 -0.00000000000E+00 -0.51845172416E+01  0.51845178687E+01  0.25500000000E-02 0. -1.
         24    2    1    2    0    0  0.35527136788E-14  0.71054273576E-14  0.30707933168E+03  0.31744836683E+03  0.80472042714E+02 0.  0.
         66    2    3    3    0    0 -0.12607581300E+02 -0.35570302336E+02  0.98868587460E+02  0.10584514690E+03  0.20000051134E+01 0.  0.
        -13    1    3    3    0    0  0.12607581300E+02  0.35570302336E+02  0.20821074422E+03  0.21160321994E+03  0.10566000000E+00 0.  1.
         13    1    4    4    0    0 -0.17021510764E+01 -0.31924476472E+01  0.94679761363E+01  0.10136211147E+02  0.10566000000E+00 0. -1.
        -13    1    4    4    0    0 -0.55368927806E+01 -0.15500544192E+02  0.43495348826E+02  0.46505704870E+02  0.10566000000E+00 0.  1.
        -14    1    4    4    0    0 -0.53685374430E+01 -0.16877310496E+02  0.45905262498E+02  0.49203230878E+02  0.00000000000E+00 0.  1.
<mgrwt>
<rscale>  0 0.80472043E+02</rscale>
<asrwt>0</asrwt>
<pdfrwt beam="1">  1        2 0.79761798E-03 0.80472043E+02</pdfrwt>
<pdfrwt beam="2">  1       -1 0.48040599E-01 0.80472043E+02</pdfrwt>
<totfact> 0.83744424E+04</totfact>
</mgrwt>
</event>
<event>
 8    1  0.1673046E-013  0.8023936E+02  0.7818608E-02  0.1328374E+00
         -1   -1    0    0    0  501 -0.00000000000E+00  0.00000000000E+00  0.10865723608E+02  0.10865724777E+02  0.50400000000E-02 0.  1.
          2   -1    0    0  501    0  0.00000000000E+00 -0.00000000000E+00 -0.14813450379E+03  0.14813450382E+03  0.25500000000E-02 0. -1.
         24    2    1    2    0    0  0.00000000000E+00  0.00000000000E+00 -0.13726878019E+03  0.15900022859E+03  0.80239358664E+02 0.  0.
         66    2    3    3    0    0  0.15274553909E+02 -0.24582780253E+02 -0.12366188216E+03  0.12701923549E+03  0.20000004787E+01 0.  0.
        -13    1    3    3    0    0 -0.15274553909E+02  0.24582780253E+02 -0.13606898022E+02  0.31980993103E+02  0.10566000000E+00 0.  1.
         13    1    4    4    0    0  0.55991206688E+01 -0.95147907162E+01 -0.49415844886E+02  0.50634161240E+02  0.10566000000E+00 0. -1.
        -13    1    4    4    0    0  0.43118810346E+01 -0.78530032036E+01 -0.37299689838E+02  0.38360656973E+02  0.10566000000E+00 0.  1.
        -14    1    4    4    0    0  0.53635522054E+01 -0.72149863328E+01 -0.36946347440E+02  0.38024417277E+02  0.00000000000E+00 0.  1.
<mgrwt>
<rscale>  0 0.80239359E+02</rscale>
<asrwt>0</asrwt>
<pdfrwt beam="1">  1        2 0.22789922E-01 0.80239359E+02</pdfrwt>
<pdfrwt beam="2">  1       -1 0.16716500E-02 0.80239359E+02</pdfrwt>
<totfact> 0.19791968E+05</totfact>
</mgrwt>
</event>
<event>
 8    1  0.1673046E-013  0.8061736E+02  0.7818608E-02  0.1327309E+00
          2   -1    0    0  501    0  0.00000000000E+00  0.00000000000E+00  0.30300498645E+03  0.30300498646E+03  0.25500000000E-02 0. -1.
         -1   -1    0    0    0  501 -0.00000000000E+00 -0.00000000000E+00 -0.53622526562E+01  0.53622550247E+01  0.50400000000E-02 0.  1.
         24    2    1    2    0    0 -0.71054273576E-14  0.00000000000E+00  0.29764273380E+03  0.30836724149E+03  0.80617359428E+02 0.  0.
         66    2    3    3    0    0  0.34754524485E+02  0.29780695151E+01  0.22598946446E+03  0.22867440592E+03  0.20000014724E+01 0.  0.
        -13    1    3    3    0    0 -0.34754524485E+02 -0.29780695151E+01  0.71653269340E+02  0.79692835571E+02  0.10566000000E+00 0.  1.
         13    1    4    4    0    0  0.24244853299E+02  0.20850780895E+01  0.15676324260E+03  0.15864074463E+03  0.10566000000E+00 0. -1.
        -13    1    4    4    0    0  0.31686735162E+00  0.19563325464E+00  0.26156034896E+01  0.26440920822E+01  0.10566000000E+00 0. -1.
         14    1    4    4    0    0  0.10192803835E+02  0.69735817097E+00  0.66610618371E+02  0.67389569210E+02  0.00000000000E+00 0. -1.
<mgrwt>
<rscale>  0 0.80617359E+02</rscale>
<asrwt>0</asrwt>
<pdfrwt beam="1">  1        2 0.46616139E-01 0.80617359E+02</pdfrwt>
<pdfrwt beam="2">  1       -1 0.82496235E-03 0.80617359E+02</pdfrwt>
<totfact> 0.25075980E+05</totfact>
</mgrwt>
</event>
<event>
 8    1  0.1673046E-013  0.7985600E+02  0.7818608E-02  0.1329461E+00
          2   -1    0    0  501    0  0.00000000000E+00  0.00000000000E+00  0.85148287020E+02  0.85148287059E+02  0.25500000000E-02 0. -1.
         -1   -1    0    0    0  501 -0.00000000000E+00 -0.00000000000E+00 -0.18723162636E+02  0.18723163314E+02  0.50400000000E-02 0.  1.
         24    2    1    2    0    0  0.00000000000E+00  0.00000000000E+00  0.66425124384E+02  0.10387145037E+03  0.79856001985E+02 0.  0.
         66    2    3    3    0    0  0.12285213656E+01  0.11036601997E+02  0.83086000000E+02  0.83848668631E+02  0.19999967240E+01 0.  0.
        -13    1    3    3    0    0 -0.12285213656E+01 -0.11036601997E+02 -0.16660875615E+02  0.20022781742E+02  0.10566000000E+00 0.  1.
         13    1    4    4    0    0  0.41829683296E+00  0.16686589772E+01  0.12590317549E+02  0.12707739965E+02  0.10566000000E+00 0. -1.
        -13    1    4    4    0    0  0.77006467883E+00  0.91094827856E+01  0.69825759237E+02  0.70421754403E+02  0.10566000000E+00 0.  1.
        -14    1    4    4    0    0  0.40159853856E-01  0.25846023376E+00  0.66992321464E+00  0.71917426248E+00  0.00000000000E+00 0.  1.
<mgrwt>
<rscale>  0 0.79856002E+02</rscale>
<asrwt>0</asrwt>
<pdfrwt beam="1">  1        2 0.13099736E-01 0.79856002E+02</pdfrwt>
<pdfrwt beam="2">  1       -1 0.28804867E-02 0.79856002E+02</pdfrwt>
<totfact> 0.17051069E+05</totfact>
</mgrwt>
</event>
<event>
 8    1  0.1673046E-013  0.7660994E+02  0.7818608E-02  0.1338957E+00
          2   -1    0    0  501    0  0.00000000000E+00  0.00000000000E+00  0.57386786328E+02  0.57386786385E+02  0.25500000000E-02 0. -1.
         -1   -1    0    0    0  501 -0.00000000000E+00 -0.00000000000E+00 -0.25568090432E+02  0.25568090928E+02  0.50400000000E-02 0.  1.
         24    2    1    2    0    0  0.00000000000E+00  0.27755575616E-16  0.31818695897E+02  0.82954877313E+02  0.76609935788E+02 0.  0.
         66    2    3    3    0    0  0.32499737524E+02 -0.14678339465E+00  0.37819167111E+02  0.49905349278E+02  0.20000002816E+01 0.  0.
        -13    1    3    3    0    0 -0.32499737524E+02  0.14678339465E+00 -0.60004712144E+01  0.33049528035E+02  0.10566000000E+00 0.  1.
         13    1    4    4    0    0  0.99443575268E+01 -0.56161330356E+00  0.12475457119E+02  0.15964142648E+02  0.10566000000E+00 0. -1.
        -13    1    4    4    0    0  0.34976318575E+00 -0.17775698956E-01  0.37252782155E+00  0.52210274373E+00  0.10566000000E+00 0. -1.
        -14    1    4    4    0    0  0.22205616812E+02  0.43260560787E+00  0.24971182170E+02  0.33419103887E+02  0.00000000000E+00 0.  1.
<mgrwt>
<rscale>  0 0.76609936E+02</rscale>
<asrwt>0</asrwt>
<pdfrwt beam="1">  1        2 0.88287363E-02 0.76609936E+02</pdfrwt>
<pdfrwt beam="2">  1       -1 0.39335524E-02 0.76609936E+02</pdfrwt>
<totfact> 0.17331714E+05</totfact>
</mgrwt>
</event>
<event>
 8    1  0.1673046E-013  0.8267881E+02  0.7818608E-02  0.1321617E+00
         -1   -1    0    0    0  501 -0.00000000000E+00  0.00000000000E+00  0.39738274416E+02  0.39738274735E+02  0.50400000000E-02 0.  1.
          2   -1    0    0  501    0  0.00000000000E+00 -0.00000000000E+00 -0.43005048582E+02  0.43005048657E+02  0.25500000000E-02 0. -1.
         24    2    1    2    0    0  0.17763568394E-14  0.00000000000E+00 -0.32667741659E+01  0.82743323393E+02  0.82678810784E+02 0.  0.
         66    2    3    3    0    0  0.15106781828E+02 -0.13383107872E+01 -0.40095245725E+02  0.42914271001E+02  0.19999982168E+01 0.  0.
        -13    1    3    3    0    0 -0.15106781828E+02  0.13383107872E+01  0.36828471559E+02  0.39829052391E+02  0.10566000000E+00 0.  1.
         13    1    4    4    0    0  0.34984156612E+01 -0.34633365652E+00 -0.91016040622E+01  0.97575211853E+01  0.10566000000E+00 0. -1.
        -13    1    4    4    0    0  0.68784590559E+01  0.10415154114E+00 -0.19568804936E+02  0.20743031051E+02  0.10566000000E+00 0.  1.
         14    1    4    4    0    0  0.47299071107E+01 -0.10961286718E+01 -0.11424836727E+02  0.12413718765E+02  0.00000000000E+00 0. -1.
<mgrwt>
<rscale>  0 0.82678811E+02</rscale>
<asrwt>0</asrwt>
<pdfrwt beam="1">  1        2 0.66161614E-02 0.82678811E+02</pdfrwt>
<pdfrwt beam="2">  1       -1 0.61135807E-02 0.82678811E+02</pdfrwt>
<totfact> 0.13212142E+05</totfact>
</mgrwt>
</event>
<event>
 8    1  0.1673046E-013  0.7746707E+02  0.7818608E-02  0.1336397E+00
         -1   -1    0    0    0  501 -0.00000000000E+00  0.00000000000E+00  0.12044568912E+03  0.12044568923E+03  0.50400000000E-02 0.  1.
          2   -1    0    0  501    0  0.00000000000E+00 -0.00000000000E+00 -0.12456125012E+02  0.12456125273E+02  0.25500000000E-02 0. -1.
         24    2    1    2    0    0 -0.17763568394E-14  0.71054273576E-14  0.10798956411E+03  0.13290181450E+03  0.77467066169E+02 0.  0.
         66    2    3    3    0    0 -0.14886010428E+02  0.34522032799E+02  0.38221369588E+02  0.53649204537E+02  0.19999998195E+01 0.  0.
        -13    1    3    3    0    0  0.14886010428E+02 -0.34522032799E+02  0.69768194525E+02  0.79252609965E+02  0.10566000000E+00 0.  1.
         13    1    4    4    0    0 -0.46780807884E+01  0.92390190943E+01  0.10299218371E+02  0.14605785730E+02  0.10566000000E+00 0. -1.
        -13    1    4    4    0    0 -0.31559469769E+01  0.88263698266E+01  0.90542876498E+01  0.13032885119E+02  0.10566000000E+00 0.  1.
         14    1    4    4    0    0 -0.70519826624E+01  0.16456643878E+02  0.18867863567E+02  0.26010533688E+02  0.00000000000E+00 0. -1.
<mgrwt>
<rscale>  0 0.77467066E+02</rscale>
<asrwt>0</asrwt>
<pdfrwt beam="1">  1        2 0.19163268E-02 0.77467066E+02</pdfrwt>
<pdfrwt beam="2">  1       -1 0.18530107E-01 0.77467066E+02</pdfrwt>
<totfact> 0.12331346E+05</totfact>
</mgrwt>
</event>
<event>
 8    1  0.1673046E-013  0.7992330E+02  0.7818608E-02  0.1329269E+00
         -1   -1    0    0    0  501 -0.00000000000E+00  0.00000000000E+00  0.41635210149E+01  0.41635240654E+01  0.50400000000E-02 0.  1.
          2   -1    0    0  501    0  0.00000000000E+00 -0.00000000000E+00 -0.38355348964E+03  0.38355348965E+03  0.25500000000E-02 0. -1.
         24    2    1    2    0    0  0.00000000000E+00  0.00000000000E+00 -0.37938996863E+03  0.38771701371E+03  0.79923303422E+02 0.  0.
         66    2    3    3    0    0 -0.19528525105E+02  0.27380121357E+02 -0.29429772012E+03  0.29621982109E+03  0.20000001686E+01 0.  0.
        -13    1    3    3    0    0  0.19528525105E+02 -0.27380121357E+02 -0.85092248508E+02  0.91497192627E+02  0.10566000000E+00 0.  1.
         13    1    4    4    0    0 -0.15967880462E+02  0.22706253915E+02 -0.24812196685E+03  0.24966991964E+03  0.10566000000E+00 0. -1.
        -13    1    4    4    0    0 -0.14613167051E+01  0.19986961724E+01 -0.18052561004E+02  0.18221864771E+02  0.10566000000E+00 0.  1.
         14    1    4    4    0    0 -0.20993279382E+01  0.26751712701E+01 -0.28123192264E+02  0.28328036682E+02  0.00000000000E+00 0. -1.
<mgrwt>
<rscale>  0 0.79923303E+02</rscale>
<asrwt>0</asrwt>
<pdfrwt beam="1">  1        2 0.59008201E-01 0.79923303E+02</pdfrwt>
<pdfrwt beam="2">  1       -1 0.64054223E-03 0.79923303E+02</pdfrwt>
<totfact> 0.27909657E+05</totfact>
</mgrwt>
</event>
<event>
 8    1  0.1673046E-013  0.7838088E+02  0.7818608E-02  0.1333710E+00
          2   -1    0    0  501    0  0.00000000000E+00  0.00000000000E+00  0.24307273479E+03  0.24307273481E+03  0.25500000000E-02 0. -1.
         -1   -1    0    0    0  501 -0.00000000000E+00 -0.00000000000E+00 -0.63186446314E+01  0.63186466414E+01  0.50400000000E-02 0.  1.
         24    2    1    2    0    0  0.00000000000E+00  0.00000000000E+00  0.23675409016E+03  0.24939138145E+03  0.78380877338E+02 0.  0.
         66    2    3    3    0    0 -0.39122015140E+02 -0.16705592748E+01  0.11606711150E+03  0.12251080445E+03  0.19999995050E+01 0.  0.
        -13    1    3    3    0    0  0.39122015140E+02  0.16705592748E+01  0.12068697866E+03  0.12688057700E+03  0.10566000000E+00 0.  1.
         13    1    4    4    0    0 -0.33848659163E+02 -0.18905626178E+01  0.10125370825E+03  0.10677841801E+03  0.10566000000E+00 0. -1.
        -13    1    4    4    0    0 -0.28847713689E+01  0.22801914980E+00  0.86809285433E+01  0.91511520036E+01  0.10566000000E+00 0.  1.
         14    1    4    4    0    0 -0.23885846077E+01 -0.80158068229E-02  0.61324747078E+01  0.65812344376E+01  0.00000000000E+00 0. -1.
<mgrwt>
<rscale>  0 0.78380877E+02</rscale>
<asrwt>0</asrwt>
<pdfrwt beam="1">  1        2 0.37395799E-01 0.78380877E+02</pdfrwt>
<pdfrwt beam="2">  1       -1 0.97209949E-03 0.78380877E+02</pdfrwt>
<totfact> 0.24933780E+05</totfact>
</mgrwt>
</event>
<event>
 8    1  0.1673046E-013  0.7936823E+02  0.7818608E-02  0.1330854E+00
          2   -1    0    0  501    0  0.00000000000E+00  0.00000000000E+00  0.23528978097E+02  0.23528978235E+02  0.25500000000E-02 0. -1.
         -1   -1    0    0    0  501 -0.00000000000E+00 -0.00000000000E+00 -0.66931458872E+02  0.66931459062E+02  0.50400000000E-02 0.  1.
         24    2    1    2    0    0  0.00000000000E+00  0.00000000000E+00 -0.43402480775E+02  0.90460437296E+02  0.79368226504E+02 0.  0.
         66    2    3    3    0    0 -0.12902107620E+02  0.37427466812E+02 -0.19031287582E+02  0.43971235597E+02  0.19999999641E+01 0.  0.
        -13    1    3    3    0    0  0.12902107620E+02 -0.37427466812E+02 -0.24371193193E+02  0.46489201700E+02  0.10566000000E+00 0.  1.
         13    1    4    4    0    0 -0.64269215448E+01  0.16573424206E+02 -0.84199129074E+01  0.19669514683E+02  0.10566000000E+00 0. -1.
        -13    1    4    4    0    0 -0.70985584230E+00  0.35239904996E+01 -0.16140939464E+01  0.39419370443E+01  0.10566000000E+00 0.  1.
         14    1    4    4    0    0 -0.57653302327E+01  0.17330052106E+02 -0.89972807283E+01  0.20359783869E+02  0.00000000000E+00 0. -1.
<mgrwt>
<rscale>  0 0.79368227E+02</rscale>
<asrwt>0</asrwt>
<pdfrwt beam="1">  1        2 0.36198428E-02 0.79368227E+02</pdfrwt>
<pdfrwt beam="2">  1       -1 0.10297147E-01 0.79368227E+02</pdfrwt>
<totfact> 0.13117765E+05</totfact>
</mgrwt>
</event>
<event>
 8    1  0.1673046E-013  0.7850831E+02  0.7818608E-02  0.1333339E+00
         -1   -1    0    0    0  501 -0.00000000000E+00  0.00000000000E+00  0.77877270013E+01  0.77877286322E+01  0.50400000000E-02 0.  1.
          2   -1    0    0  501    0  0.00000000000E+00 -0.00000000000E+00 -0.19786112686E+03  0.19786112688E+03  0.25500000000E-02 0. -1.
         24    2    1    2    0    0  0.00000000000E+00  0.00000000000E+00 -0.19007339986E+03  0.20564885551E+03  0.78508308084E+02 0.  0.
         66    2    3    3    0    0 -0.11194804020E+01 -0.38743009338E+02 -0.79248960543E+02  0.88242120087E+02  0.20000003184E+01 0.  0.
        -13    1    3    3    0    0  0.11194804020E+01  0.38743009338E+02 -0.11082443932E+03  0.11740673543E+03  0.10566000000E+00 0.  1.
         13    1    4    4    0    0 -0.21091260865E+00 -0.40330068685E+01 -0.74927841923E+01  0.85124971376E+01  0.10566000000E+00 0. -1.
        -13    1    4    4    0    0 -0.84658283233E+00 -0.20393669053E+02 -0.43693802193E+02  0.48226320138E+02  0.10566000000E+00 0.  1.
        -14    1    4    4    0    0 -0.61984961062E-01 -0.14316333416E+02 -0.28062374158E+02  0.31503302811E+02  0.00000000000E+00 0.  1.
<mgrwt>
<rscale>  0 0.78508308E+02</rscale>
<asrwt>0</asrwt>
<pdfrwt beam="1">  1        2 0.30440170E-01 0.78508308E+02</pdfrwt>
<pdfrwt beam="2">  1       -1 0.11981121E-02 0.78508308E+02</pdfrwt>
<totfact> 0.23094561E+05</totfact>
</mgrwt>
</event>
<event>
 8    1  0.1673046E-013  0.7976464E+02  0.7818608E-02  0.1329721E+00
          2   -1    0    0  501    0  0.00000000000E+00  0.00000000000E+00  0.26748015381E+01  0.26748027536E+01  0.25500000000E-02 0. -1.
         -1   -1    0    0    0  501 -0.00000000000E+00 -0.00000000000E+00 -0.59466062978E+03  0.59466062980E+03  0.50400000000E-02 0.  1.
         24    2    1    2    0    0  0.00000000000E+00  0.00000000000E+00 -0.59198582824E+03  0.59733543255E+03  0.79764642206E+02 0.  0.
         66    2    3    3    0    0  0.35114802534E+02  0.10845338861E+02 -0.41169041328E+03  0.41333239304E+03  0.20000034655E+01 0.  0.
        -13    1    3    3    0    0 -0.35114802534E+02 -0.10845338861E+02 -0.18029541496E+03  0.18400303951E+03  0.10566000000E+00 0.  1.
         13    1    4    4    0    0  0.75548918763E+01  0.21993718213E+01 -0.81011848236E+02  0.81393146802E+02  0.10566000000E+00 0. -1.
        -13    1    4    4    0    0  0.16239549545E+02  0.48706006890E+01 -0.19923528361E+03  0.19995538282E+03  0.10566000000E+00 0.  1.
        -14    1    4    4    0    0  0.11320361112E+02  0.37753663507E+01 -0.13144328144E+03  0.13198386341E+03  0.00000000000E+00 0.  1.
<mgrwt>
<rscale>  0 0.79764642E+02</rscale>
<asrwt>0</asrwt>
<pdfrwt beam="1">  1        2 0.41150850E-03 0.79764642E+02</pdfrwt>
<pdfrwt beam="2">  1       -1 0.91486146E-01 0.79764642E+02</pdfrwt>
<totfact> 0.59856595E+04</totfact>
</mgrwt>
</event>
<event>
 8    1  0.1673046E-013  0.8034201E+02  0.7818608E-02  0.1328084E+00
          2   -1    0    0  501    0  0.00000000000E+00  0.00000000000E+00  0.17002025732E+03  0.17002025734E+03  0.25500000000E-02 0. -1.
         -1   -1    0    0    0  501 -0.00000000000E+00 -0.00000000000E+00 -0.94912778930E+01  0.94912792311E+01  0.50400000000E-02 0.  1.
         24    2    1    2    0    0  0.00000000000E+00  0.00000000000E+00  0.16052897943E+03  0.17951153657E+03  0.80342009721E+02 0.  0.
         66    2    3    3    0    0 -0.37483548615E+02 -0.90772907078E+01  0.10522385222E+03  0.11208689802E+03  0.20000024985E+01 0.  0.
        -13    1    3    3    0    0  0.37483548615E+02  0.90772907078E+01  0.55305127213E+02  0.67424638548E+02  0.10566000000E+00 0.  1.
         13    1    4    4    0    0 -0.94488476038E+01 -0.23562353516E+01  0.26147607672E+02  0.27902349670E+02  0.10566000000E+00 0. -1.
        -13    1    4    4    0    0 -0.91873036010E+01 -0.15203391199E+01  0.24293208499E+02  0.26017092876E+02  0.10566000000E+00 0.  1.
        -14    1    4    4    0    0 -0.18847397410E+02 -0.52007162364E+01  0.54783036045E+02  0.58167455478E+02  0.00000000000E+00 0.  1.
<mgrwt>
<rscale>  0 0.80342010E+02</rscale>
<asrwt>0</asrwt>
<pdfrwt beam="1">  1        2 0.26156964E-01 0.80342010E+02</pdfrwt>
<pdfrwt beam="2">  1       -1 0.14601966E-02 0.80342010E+02</pdfrwt>
<totfact> 0.20635776E+05</totfact>
</mgrwt>
</event>
<event>
 8    1  0.1673046E-013  0.7995657E+02  0.7818608E-02  0.1329175E+00
          2   -1    0    0  501    0  0.00000000000E+00  0.00000000000E+00  0.60717943056E+03  0.60717943056E+03  0.25500000000E-02 0. -1.
         -1   -1    0    0    0  501 -0.00000000000E+00 -0.00000000000E+00 -0.26322723130E+01  0.26322771380E+01  0.50400000000E-02 0.  1.
         24    2    1    2    0    0  0.88817841970E-15 -0.17763568394E-14  0.60454715825E+03  0.60981170770E+03  0.79956565131E+02 0.  0.
         66    2    3    3    0    0  0.60198124302E+01 -0.15603023134E+02  0.57919641183E+03  0.57944126187E+03  0.19999997484E+01 0.  0.
        -13    1    3    3    0    0 -0.60198124302E+01  0.15603023134E+02  0.25350746413E+02  0.30370445837E+02  0.10566000000E+00 0.  1.
         13    1    4    4    0    0  0.25047281129E+01 -0.65167524516E+01  0.23885068802E+03  0.23895272347E+03  0.10566000000E+00 0. -1.
        -13    1    4    4    0    0  0.25113879172E+01 -0.58751355316E+01  0.19812873391E+03  0.19823175995E+03  0.10566000000E+00 0.  1.
         14    1    4    4    0    0  0.10036964000E+01 -0.32111351510E+01  0.14221698991E+03  0.14225677845E+03  0.00000000000E+00 0. -1.
<mgrwt>
<rscale>  0 0.79956565E+02</rscale>
<asrwt>0</asrwt>
<pdfrwt beam="1">  1        2 0.93412337E-01 0.79956565E+02</pdfrwt>
<pdfrwt beam="2">  1       -1 0.40496484E-03 0.79956565E+02</pdfrwt>
<totfact> 0.32315179E+05</totfact>
</mgrwt>
</event>
<event>
 8    1  0.1673046E-013  0.7975452E+02  0.7818608E-02  0.1329750E+00
         -1   -1    0    0    0  501 -0.00000000000E+00  0.00000000000E+00  0.11525830247E+03  0.11525830258E+03  0.50400000000E-02 0.  1.
          2   -1    0    0  501    0  0.00000000000E+00 -0.00000000000E+00 -0.13796799298E+02  0.13796799533E+02  0.25500000000E-02 0. -1.
         24    2    1    2    0    0  0.00000000000E+00 -0.35527136788E-14  0.10146150317E+03  0.12905510211E+03  0.79754515581E+02 0.  0.
         66    2    3    3    0    0 -0.11464399668E+02  0.29561719883E+02  0.11696187667E+02  0.33854520320E+02  0.19999994826E+01 0.  0.
        -13    1    3    3    0    0  0.11464399668E+02 -0.29561719883E+02  0.89765315505E+02  0.95200581794E+02  0.10566000000E+00 0.  1.
         13    1    4    4    0    0 -0.30223129971E+01  0.83166833659E+01  0.26953068703E+01  0.92508075983E+01  0.10566000000E+00 0. -1.
        -13    1    4    4    0    0 -0.40444592898E+01  0.11673946911E+02  0.44961874855E+01  0.13147834550E+02  0.10566000000E+00 0.  1.
        -14    1    4    4    0    0 -0.43976273811E+01  0.95710896063E+01  0.45046933116E+01  0.11455878171E+02  0.00000000000E+00 0.  1.
<mgrwt>
<rscale>  0 0.79754516E+02</rscale>
<asrwt>0</asrwt>
<pdfrwt beam="1">  1        2 0.21225845E-02 0.79754516E+02</pdfrwt>
<pdfrwt beam="2">  1       -1 0.17732047E-01 0.79754516E+02</pdfrwt>
<totfact> 0.11578026E+05</totfact>
</mgrwt>
</event>
<event>
 8    1  0.1673046E-013  0.7963131E+02  0.7818608E-02  0.1330101E+00
         -1   -1    0    0    0  501 -0.00000000000E+00  0.00000000000E+00  0.17684831386E+03  0.17684831393E+03  0.50400000000E-02 0.  1.
          2   -1    0    0  501    0  0.00000000000E+00 -0.00000000000E+00 -0.89641016800E+01  0.89641020427E+01  0.25500000000E-02 0. -1.
         24    2    1    2    0    0  0.00000000000E+00  0.00000000000E+00  0.16788421218E+03  0.18581241598E+03  0.79631308109E+02 0.  0.
         66    2    3    3    0    0  0.99403358556E+01 -0.29485337524E+02  0.26124202808E+02  0.40677627495E+02  0.20000001010E+01 0.  0.
        -13    1    3    3    0    0 -0.99403358556E+01  0.29485337524E+02  0.14176000937E+03  0.14513478848E+03  0.10566000000E+00 0.  1.
         13    1    4    4    0    0  0.37300776328E+01 -0.13538272897E+02  0.11243573000E+02  0.17989647301E+02  0.10566000000E+00 0. -1.
        -13    1    4    4    0    0  0.31466660587E+01 -0.89350482077E+01  0.81262042293E+01  0.12481304137E+02  0.10566000000E+00 0.  1.
        -14    1    4    4    0    0  0.30635921642E+01 -0.70120164199E+01  0.67544255781E+01  0.10206676056E+02  0.00000000000E+00 0.  1.
<mgrwt>
<rscale>  0 0.79631308E+02</rscale>
<asrwt>0</asrwt>
<pdfrwt beam="1">  1        2 0.13790926E-02 0.79631308E+02</pdfrwt>
<pdfrwt beam="2">  1       -1 0.27207432E-01 0.79631308E+02</pdfrwt>
<totfact> 0.10445395E+05</totfact>
</mgrwt>
</event>
<event>
 8    1  0.1673046E-013  0.7933952E+02  0.7818608E-02  0.1330936E+00
         -1   -1    0    0    0  501 -0.00000000000E+00  0.00000000000E+00  0.28887921867E+02  0.28887922306E+02  0.50400000000E-02 0.  1.
          2   -1    0    0  501    0  0.00000000000E+00 -0.00000000000E+00 -0.54475702472E+02  0.54475702532E+02  0.25500000000E-02 0. -1.
         24    2    1    2    0    0  0.00000000000E+00  0.00000000000E+00 -0.25587780605E+02  0.83363624838E+02  0.79339519975E+02 0.  0.
         66    2    3    3    0    0  0.94678796375E+01  0.38165388687E+02 -0.18102384758E+02  0.43335135565E+02  0.20000005292E+01 0.  0.
        -13    1    3    3    0    0 -0.94678796375E+01 -0.38165388687E+02 -0.74853958473E+01  0.40028489273E+02  0.10566000000E+00 0.  1.
         13    1    4    4    0    0  0.27935987914E+01  0.11849495810E+02 -0.61689008291E+01  0.13648488804E+02  0.10566000000E+00 0. -1.
        -13    1    4    4    0    0  0.16700248981E+01  0.79294366625E+01 -0.41253039774E+01  0.90936376597E+01  0.10566000000E+00 0.  1.
        -14    1    4    4    0    0  0.50042559479E+01  0.18386456214E+02 -0.78081799515E+01  0.20593009102E+02  0.00000000000E+00 0.  1.
<mgrwt>
<rscale>  0 0.79339520E+02</rscale>
<asrwt>0</asrwt>
<pdfrwt beam="1">  1        2 0.83808773E-02 0.79339520E+02</pdfrwt>
<pdfrwt beam="2">  1       -1 0.44442957E-02 0.79339520E+02</pdfrwt>
<totfact> 0.15576716E+05</totfact>
</mgrwt>
</event>
<event>
 8    1  0.1673046E-013  0.8813396E+02  0.7818608E-02  0.1307435E+00
         -1   -1    0    0    0  501 -0.00000000000E+00  0.00000000000E+00  0.23119364315E+01  0.23119419250E+01  0.50400000000E-02 0.  1.
          2   -1    0    0  501    0  0.00000000000E+00 -0.00000000000E+00 -0.83994362805E+03  0.83994362805E+03  0.25500000000E-02 0. -1.
         24    2    1    2    0    0  0.00000000000E+00  0.00000000000E+00 -0.83763169161E+03  0.84225556997E+03  0.88133956888E+02 0.  0.
         66    2    3    3    0    0  0.28762451726E+02  0.25340970331E+02 -0.62631092250E+03  0.62748610746E+03  0.20000008542E+01 0.  0.
        -13    1    3    3    0    0 -0.28762451726E+02 -0.25340970331E+02 -0.21132076912E+03  0.21476946252E+03  0.10566000000E+00 0.  1.
         13    1    4    4    0    0  0.17424425340E+01  0.17478647607E+01 -0.37412731599E+02  0.37494196710E+02  0.10566000000E+00 0. -1.
        -13    1    4    4    0    0  0.12968795997E+02  0.10309672310E+02 -0.26736424319E+03  0.26787707762E+03  0.10566000000E+00 0.  1.
        -14    1    4    4    0    0  0.14051213195E+02  0.13283433261E+02 -0.32153394771E+03  0.32211483312E+03  0.00000000000E+00 0.  1.
<mgrwt>
<rscale>  0 0.88133957E+02</rscale>
<asrwt>0</asrwt>
<pdfrwt beam="1">  1        2 0.12922185E+00 0.88133957E+02</pdfrwt>
<pdfrwt beam="2">  1       -1 0.35568362E-03 0.88133957E+02</pdfrwt>
<totfact> 0.26901072E+05</totfact>
</mgrwt>
</event>
<event>
 8    1  0.1673046E-013  0.8011231E+02  0.7818608E-02  0.1328733E+00
         -1   -1    0    0    0  501 -0.00000000000E+00  0.00000000000E+00  0.48872720989E+01  0.48872746976E+01  0.50400000000E-02 0.  1.
          2   -1    0    0  501    0  0.00000000000E+00 -0.00000000000E+00 -0.32830077415E+03  0.32830077416E+03  0.25500000000E-02 0. -1.
         24    2    1    2    0    0  0.17763568394E-14 -0.35527136788E-14 -0.32341350205E+03  0.33318804886E+03  0.80112312365E+02 0.  0.
         66    2    3    3    0    0 -0.90161988035E+01 -0.17489957522E+02 -0.30679521284E+03  0.30743209507E+03  0.20000012473E+01 0.  0.
        -13    1    3    3    0    0  0.90161988035E+01  0.17489957522E+02 -0.16618289212E+02  0.25755953785E+02  0.10566000000E+00 0.  1.
         13    1    4    4    0    0 -0.64412450151E-01 -0.52549225314E+00 -0.81481304861E+01  0.81659956849E+01  0.10566000000E+00 0. -1.
        -13    1    4    4    0    0 -0.35699422735E+01 -0.77977746948E+01 -0.12485028541E+03  0.12514453528E+03  0.10566000000E+00 0.  1.
         14    1    4    4    0    0 -0.53818440799E+01 -0.91666905740E+01 -0.17379679694E+03  0.17412156411E+03  0.00000000000E+00 0. -1.
<mgrwt>
<rscale>  0 0.80112312E+02</rscale>
<asrwt>0</asrwt>
<pdfrwt beam="1">  1        2 0.50507794E-01 0.80112312E+02</pdfrwt>
<pdfrwt beam="2">  1       -1 0.75188848E-03 0.80112312E+02</pdfrwt>
<totfact> 0.26241567E+05</totfact>
</mgrwt>
</event>
<event>
 8    1  0.1673046E-013  0.7659909E+02  0.7818608E-02  0.1338989E+00
         -1   -1    0    0    0  501 -0.00000000000E+00  0.00000000000E+00  0.63886456263E+01  0.63886476144E+01  0.50400000000E-02 0.  1.
          2   -1    0    0  501    0  0.00000000000E+00 -0.00000000000E+00 -0.22960344561E+03  0.22960344562E+03  0.25500000000E-02 0. -1.
         24    2    1    2    0    0 -0.71054273576E-14 -0.17763568394E-14 -0.22321479998E+03  0.23599209324E+03  0.76599093593E+02 0.  0.
         66    2    3    3    0    0 -0.35072449663E+02  0.13761005993E+02 -0.13244396320E+03  0.13771290935E+03  0.20000005688E+01 0.  0.
        -13    1    3    3    0    0  0.35072449663E+02 -0.13761005993E+02 -0.90770836782E+02  0.98279183886E+02  0.10566000000E+00 0.  1.
         13    1    4    4    0    0 -0.19579479008E+02  0.84102779252E+01 -0.74576884768E+02  0.77561663718E+02  0.10566000000E+00 0. -1.
        -13    1    4    4    0    0 -0.64917970649E+01  0.25669409246E+01 -0.25917188132E+02  0.26841095721E+02  0.10566000000E+00 0.  1.
        -14    1    4    4    0    0 -0.90011735898E+01  0.27837871435E+01 -0.31949890301E+02  0.33310149911E+02  0.00000000000E+00 0.  1.
<mgrwt>
<rscale>  0 0.76599094E+02</rscale>
<asrwt>0</asrwt>
<pdfrwt beam="1">  1        2 0.35323601E-01 0.76599094E+02</pdfrwt>
<pdfrwt beam="2">  1       -1 0.98286889E-03 0.76599094E+02</pdfrwt>
<totfact> 0.25953524E+05</totfact>
</mgrwt>
</event>
<event>
 8    1  0.1673046E-013  0.7584780E+02  0.7818608E-02  0.1341266E+00
          2   -1    0    0  501    0  0.00000000000E+00  0.00000000000E+00  0.49061419435E+02  0.49061419501E+02  0.25500000000E-02 0. -1.
         -1   -1    0    0    0  501 -0.00000000000E+00 -0.00000000000E+00 -0.29314726565E+02  0.29314726999E+02  0.50400000000E-02 0.  1.
         24    2    1    2    0    0  0.00000000000E+00  0.00000000000E+00  0.19746692870E+02  0.78376146500E+02  0.75847797996E+02 0.  0.
         66    2    3    3    0    0 -0.35393059188E+02  0.12494863937E+02  0.44685409971E+01  0.37851791450E+02  0.19999984660E+01 0.  0.
        -13    1    3    3    0    0  0.35393059188E+02 -0.12494863937E+02  0.15278151872E+02  0.40524355049E+02  0.10566000000E+00 0.  1.
         13    1    4    4    0    0 -0.96162007808E+01  0.39247765993E+01  0.15344636600E+01  0.10499568161E+02  0.10566000000E+00 0. -1.
        -13    1    4    4    0    0 -0.61836925532E+01  0.25100078547E+01  0.38729761716E+00  0.66857577359E+01  0.10566000000E+00 0.  1.
        -14    1    4    4    0    0 -0.19593165854E+02  0.60600794835E+01  0.25467797199E+01  0.20666465553E+02  0.00000000000E+00 0.  1.
<mgrwt>
<rscale>  0 0.75847798E+02</rscale>
<asrwt>0</asrwt>
<pdfrwt beam="1">  1        2 0.75479106E-02 0.75847798E+02</pdfrwt>
<pdfrwt beam="2">  1       -1 0.45099580E-02 0.75847798E+02</pdfrwt>
<totfact> 0.17213239E+05</totfact>
</mgrwt>
</event>
